<event>
 6    0  0.6207838E+002  0.1144478E+03  0.7546771E-02  0.1252548E+00
         21   -1    0    0  503  501  0.00000000000E+00  0.00000000000E+00  0.44216672376E+02  0.44216672376E+02  0.00000000000E+00 0. -1.
         21   -1    0    0  505  502 -0.00000000000E+00 -0.00000000000E+00 -0.94611402708E+03  0.94611402708E+03  0.00000000000E+00 0.  1.
         21    1    1    2  503  506 -0.37389374063E+02  0.78586827572E+02 -0.40209583110E+03  0.41140601861E+03  0.00000000000E+00 0.  1.
         21    1    1    2  504  501  0.36291336308E+02 -0.38466175330E+02  0.58656029174E+01  0.53208204566E+02  0.00000000000E+00 0. -1.
         21    1    1    2  505  504 -0.14492035878E+01 -0.75619522394E+02 -0.14726678377E+03  0.16555336891E+03  0.00000000000E+00 0.  1.
         21    1    1    2  506  502  0.25472413426E+01  0.35498870152E+02 -0.35840034275E+03  0.36016310736E+03  0.00000000000E+00 0.  1.
<scales pt_clust_3="33.44348" pt_clust_4="52.88391" pt_clust_5="101.80050" pt_clust_6="33.44348"></scales>
<clustering>
<clus scale="   33.443">  3  6 -1 -1</clus>
<clus scale="   52.884">  1  4  2 -1</clus>
<clus scale="  101.800">  1  5  2 -1</clus>
<clus scale="   52.884">  1  3  2 -1</clus>
</clustering>
</event>
<event>
 6    0  0.6207838E+002  0.6539545E+02  0.7546771E-02  0.1376490E+00
         21   -1    0    0  503  501  0.00000000000E+00  0.00000000000E+00  0.32373399418E+04  0.32373399418E+04  0.00000000000E+00 0. -1.
         21   -1    0    0  504  502 -0.00000000000E+00 -0.00000000000E+00 -0.43864760650E+02  0.43864760650E+02  0.00000000000E+00 0.  1.
         21    1    1    2  503  506 -0.51306016670E+02  0.29163701994E+02  0.39339737670E+03  0.39779935251E+03  0.00000000000E+00 0. -1.
         21    1    1    2  504  505  0.60385641293E+02  0.23406839806E+02 -0.12086235774E+02  0.65881582549E+02  0.00000000000E+00 0.  1.
         21    1    1    2  505  501  0.70844440138E+02 -0.90193836077E+00  0.16282170210E+04  0.16297577782E+04  0.00000000000E+00 0. -1.
         21    1    1    2  506  502 -0.79924064760E+02 -0.51668603440E+02  0.11839470193E+04  0.11877659893E+04  0.00000000000E+00 0. -1.
<scales pt_clust_3="59.01550" pt_clust_4="14000.00000" pt_clust_5="44.34991" pt_clust_6="65.39545"></scales>
<clustering>
<clus scale="   59.015">  1  3  2 -1</clus>
<clus scale="   44.350">  1  5  2 -1</clus>
<clus scale="   65.395">  1  6  2 -1</clus>
<clus scale="   59.015">  1  3  2 -1</clus>
</clustering>
</event>
<event>
 6    0  0.6207838E+002  0.9224915E+02  0.7546771E-02  0.1297495E+00
         21   -1    0    0  504  501  0.00000000000E+00  0.00000000000E+00  0.30681914429E+03  0.30681914429E+03  0.00000000000E+00 0.  1.
         21   -1    0    0  503  502 -0.00000000000E+00 -0.00000000000E+00 -0.37653520987E+03  0.37653520987E+03  0.00000000000E+00 0. -1.
         21    1    1    2  503  505  0.59481434061E+02 -0.12783886965E+02 -0.25374039374E+03  0.26093228274E+03  0.00000000000E+00 0. -1.
         21    1    1    2  504  506  0.84209434318E+00  0.75275753066E+02 -0.19414501019E+02  0.77743623355E+02  0.00000000000E+00 0. -1.
         21    1    1    2  505  501 -0.89500373241E+02 -0.27024509120E+02  0.25738021733E+03  0.27383428780E+03  0.00000000000E+00 0.  1.
         21    1    1    2  506  502  0.29176844837E+02 -0.35467356981E+02 -0.53941388159E+02  0.70844160256E+02  0.00000000000E+00 0.  1.
<scales pt_clust_3="92.24915" pt_clust_4="69.99614" pt_clust_5="14000.00000" pt_clust_6="45.92626"></scales>
<clustering>
<clus scale="   45.926">  2  6  1 -1</clus>
<clus scale="   69.996">  2  4  1 -1</clus>
<clus scale="   92.249">  2  3  1 -1</clus>
<clus scale="   92.249">  1  3  2 -1</clus>
</clustering>
</event>
<event>
 6    0  0.6207838E+002  0.5871745E+02  0.7546771E-02  0.1403294E+00
         21   -1    0    0  503  501  0.00000000000E+00  0.00000000000E+00  0.10598071495E+04  0.10598071495E+04  0.00000000000E+00 0.  1.
         21   -1    0    0  506  502 -0.00000000000E+00 -0.00000000000E+00 -0.20593579040E+03  0.20593579040E+03  0.00000000000E+00 0. -1.
         21    1    1    2  503  504 -0.25247098039E+02 -0.47880942892E+02  0.13928755671E+03  0.14943568551E+03  0.00000000000E+00 0. -1.
         21    1    1    2  504  502 -0.25360843532E+02 -0.52462945175E+02 -0.18371408227E+03  0.19273400589E+03  0.00000000000E+00 0. -1.
         21    1    1    2  505  501  0.26451404897E+02 -0.42211862571E+02  0.94013458880E+02  0.10639571708E+03  0.00000000000E+00 0. -1.
         21    1    1    2  506  505  0.24156536675E+02  0.14255575064E+03  0.80428442578E+03  0.81717753142E+03  0.00000000000E+00 0.  1.
<scales pt_clust_3="58.25244" pt_clust_4="14000.00000" pt_clust_5="49.81484" pt_clust_6="58.71745"></scales>
<clustering>
<clus scale="   49.815">  1  5  2 -1</clus>
<clus scale="   58.252">  1  3  2 -1</clus>
<clus scale="   58.717">  1  6  2 -1</clus>
<clus scale="   49.815">  1  3  2 -1</clus>
</clustering>
</event>
<event>
 6    0  0.6207838E+002  0.1007163E+03  0.7546771E-02  0.1278797E+00
         21   -1    0    0  506  501  0.00000000000E+00  0.00000000000E+00  0.10724204251E+04  0.10724204251E+04  0.00000000000E+00 0.  1.
         21   -1    0    0  504  502 -0.00000000000E+00 -0.00000000000E+00 -0.40149700791E+03  0.40149700791E+03  0.00000000000E+00 0.  1.
         21    1    1    2  503  501  0.13606240330E+03  0.64833920317E+02  0.37988344404E+03  0.40869040345E+03  0.00000000000E+00 0.  1.
         21    1    1    2  504  503 -0.54660862964E+02  0.29480165409E+02 -0.37148718132E+03  0.37664255731E+03  0.00000000000E+00 0.  1.
         21    1    1    2  505  502  0.31873912873E+01 -0.67740715577E+02  0.11175800962E+03  0.13072420099E+03  0.00000000000E+00 0.  1.
         21    1    1    2  506  505 -0.84588931618E+02 -0.26573370150E+02  0.55076914478E+03  0.55786027122E+03  0.00000000000E+00 0.  1.
<scales pt_clust_3="100.71632" pt_clust_4="62.10387" pt_clust_5="59.65498" pt_clust_6="14000.00000"></scales>
<clustering>
<clus scale="   62.104">  2  4  1 -1</clus>
<clus scale="   59.655">  2  5  1 -1</clus>
<clus scale="  100.716">  2  3  1 -1</clus>
<clus scale="  100.716">  1  3  2 -1</clus>
</clustering>
</event>
<event>
 6    0  0.6207838E+002  0.1022622E+03  0.7546771E-02  0.1275609E+00
         21   -1    0    0  505  501  0.00000000000E+00  0.00000000000E+00  0.10663427761E+03  0.10663427761E+03  0.00000000000E+00 0. -1.
         21   -1    0    0  504  502 -0.00000000000E+00 -0.00000000000E+00 -0.60921282965E+03  0.60921282965E+03  0.00000000000E+00 0. -1.
         21    1    1    2  503  501  0.98489414439E+02  0.17990166776E+02 -0.47519539519E+02  0.11082381284E+03  0.00000000000E+00 0. -1.
         21    1    1    2  504  503  0.42518539667E+02  0.94312553465E+01 -0.43581107628E+03  0.43798181355E+03  0.00000000000E+00 0. -1.
         21    1    1    2  505  506 -0.10360336969E+03 -0.46857054195E+01  0.22975144192E+02  0.10622368519E+03  0.00000000000E+00 0. -1.
         21    1    1    2  506  502 -0.37404584421E+02 -0.22735716703E+02 -0.42223080426E+02  0.60817795672E+02  0.00000000000E+00 0. -1.
<scales pt_clust_3="14000.00000" pt_clust_4="43.55198" pt_clust_5="102.26223" pt_clust_6="31.72288"></scales>
<clustering>
<clus scale="   43.552">  2  4  1 -1</clus>
<clus scale="   31.723">  2  6  1 -1</clus>
<clus scale="  102.262">  1  5  2 -1</clus>
<clus scale="  102.262">  1  3  2 -1</clus>
</clustering>
</event>
<event>
 6    0  0.6207838E+002  0.1448190E+03  0.7546771E-02  0.1206988E+00
         21   -1    0    0  503  501  0.00000000000E+00  0.00000000000E+00  0.32025605761E+03  0.32025605761E+03  0.00000000000E+00 0.  1.
         21   -1    0    0  504  502 -0.00000000000E+00 -0.00000000000E+00 -0.42129932602E+03  0.42129932602E+03  0.00000000000E+00 0. -1.
         21    1    1    2  503  505  0.16461284130E+02  0.51462120919E+02  0.59828867522E+02  0.80615241448E+02  0.00000000000E+00 0.  1.
         21    1    1    2  504  506 -0.11095872722E+02 -0.13552632458E+03 -0.37810548720E+03  0.40181371616E+03  0.00000000000E+00 0. -1.
         21    1    1    2  505  502 -0.37101383295E+02  0.63209388741E+02  0.52714158221E+02  0.90281348818E+02  0.00000000000E+00 0. -1.
         21    1    1    2  506  501  0.31735971887E+02  0.20854814916E+02  0.16451919304E+03  0.16884507720E+03  0.00000000000E+00 0.  1.
<scales pt_clust_3="51.56610" pt_clust_4="134.19540" pt_clust_5="51.56610" pt_clust_6="37.97493"></scales>
<clustering>
<clus scale="   37.975">  1  6  2 -1</clus>
<clus scale="   51.566">  3  5 -1 -1</clus>
<clus scale="  134.195">  2  4  1 -1</clus>
<clus scale="   37.975">  1  3  2 -1</clus>
</clustering>
</event>
<event>
 6    0  0.6207838E+002  0.1212797E+03  0.7546771E-02  0.1241001E+00
         21   -1    0    0  503  501  0.00000000000E+00  0.00000000000E+00  0.66598816218E+03  0.66598816218E+03  0.00000000000E+00 0. -1.
         21   -1    0    0  506  502 -0.00000000000E+00 -0.00000000000E+00 -0.10066547897E+03  0.10066547897E+03  0.00000000000E+00 0. -1.
         21    1    1    2  503  504  0.70192863846E+02 -0.21528668578E+02  0.11798191115E+03  0.13896133658E+03  0.00000000000E+00 0.  1.
         21    1    1    2  504  502  0.10803886644E+03  0.20054676729E+02  0.57623375434E+02  0.12407675091E+03  0.00000000000E+00 0. -1.
         21    1    1    2  505  501 -0.44844359828E+02 -0.27424068067E+02  0.36015243290E+03  0.36396822807E+03  0.00000000000E+00 0. -1.
         21    1    1    2  506  505 -0.13338737046E+03  0.28898059916E+02  0.29564963729E+02  0.13964732559E+03  0.00000000000E+00 0. -1.
<scales pt_clust_3="61.01002" pt_clust_4="121.27970" pt_clust_5="52.56516" pt_clust_6="14000.00000"></scales>
<clustering>
<clus scale="   52.565">  1  5  2 -1</clus>
<clus scale="   61.010">  1  3  2 -1</clus>
<clus scale="  121.280">  1  4  2 -1</clus>
<clus scale="   52.565">  1  3  2 -1</clus>
</clustering>
</event>
<event>
 6    0  0.6207838E+002  0.1300350E+03  0.7546771E-02  0.1227404E+00
         21   -1    0    0  505  501  0.00000000000E+00  0.00000000000E+00  0.64694366538E+03  0.64694366538E+03  0.00000000000E+00 0.  1.
         21   -1    0    0  506  502 -0.00000000000E+00 -0.00000000000E+00 -0.94644549149E+02  0.94644549149E+02  0.00000000000E+00 0.  1.
         21    1    1    2  503  501  0.73002619822E+02  0.85789517382E+02  0.26009814789E+03  0.28344359285E+03  0.00000000000E+00 0.  1.
         21    1    1    2  504  502 -0.42594734929E+02 -0.84026612131E+02  0.18917291275E+03  0.21133190461E+03  0.00000000000E+00 0.  1.
         21    1    1    2  505  504  0.22396776432E+01 -0.47561212641E+02  0.15989290080E+03  0.16683172609E+03  0.00000000000E+00 0.  1.
         21    1    1    2  506  503 -0.32647562536E+02  0.45798307391E+02 -0.56864845196E+02  0.79980990983E+02  0.00000000000E+00 0.  1.
<scales pt_clust_3="121.21140" pt_clust_4="33.47348" pt_clust_5="33.47348" pt_clust_6="56.24365"></scales>
<clustering>
<clus scale="   33.473">  4  5 -1 -1</clus>
<clus scale="   56.244">  2  6  1 -1</clus>
<clus scale="  121.211">  1  3  2 -1</clus>
<clus scale="  121.211">  1  3  2 -1</clus>
</clustering>
</event>
<event>
 6    0  0.6207838E+002  0.1317637E+03  0.7546771E-02  0.1224862E+00
         21   -1    0    0  503  501  0.00000000000E+00  0.00000000000E+00  0.31324268415E+03  0.31324268415E+03  0.00000000000E+00 0.  1.
         21   -1    0    0  505  502 -0.00000000000E+00 -0.00000000000E+00 -0.16383930161E+03  0.16383930161E+03  0.00000000000E+00 0.  1.
         21    1    1    2  503  504  0.45710386578E+02  0.27238366787E+02  0.11436782188E+03  0.12614026616E+03  0.00000000000E+00 0.  1.
         21    1    1    2  504  506  0.86957824313E+02 -0.14451464548E+02  0.10293259117E+03  0.13551983752E+03  0.00000000000E+00 0.  1.
         21    1    1    2  505  501 -0.87076839112E+02 -0.43851472148E+02  0.30891822305E+02  0.10227234330E+03  0.00000000000E+00 0. -1.
         21    1    1    2  506  502 -0.45591371779E+02  0.31064569908E+02 -0.98788852812E+02  0.11314953877E+03  0.00000000000E+00 0.  1.
<scales pt_clust_3="45.84716" pt_clust_4="45.84716" pt_clust_5="117.81129" pt_clust_6="55.16866"></scales>
<clustering>
<clus scale="   45.847">  3  4 -1 -1</clus>
<clus scale="   55.169">  2  6  1 -1</clus>
<clus scale="  117.811">  2  5  1 -1</clus>
<clus scale="  131.764">  1  3  2 -1</clus>
</clustering>
</event>
<event>
 6    0  0.6207838E+002  0.1816117E+03  0.7546771E-02  0.1166252E+00
         21   -1    0    0  506  501  0.00000000000E+00  0.00000000000E+00  0.20171988062E+04  0.20171988062E+04  0.00000000000E+00 0.  1.
         21   -1    0    0  505  502 -0.00000000000E+00 -0.00000000000E+00 -0.74088331830E+02  0.74088331830E+02  0.00000000000E+00 0. -1.
         21    1    1    2  503  502  0.44751669550E+02  0.36905093998E+02  0.44131932788E+02  0.72885700807E+02  0.00000000000E+00 0. -1.
         21    1    1    2  504  503 -0.11540774255E+03  0.14207632120E+03  0.11857403969E+03  0.21809271188E+03  0.00000000000E+00 0. -1.
         21    1    1    2  505  501  0.79685378752E+02 -0.14016825446E+03  0.66772954882E+03  0.68692040988E+03  0.00000000000E+00 0.  1.
         21    1    1    2  506  504 -0.90293057532E+01 -0.38813160743E+02  0.11126749531E+04  0.11133883154E+04  0.00000000000E+00 0.  1.
<scales pt_clust_3="55.97919" pt_clust_4="181.61175" pt_clust_5="14000.00000" pt_clust_6="39.84959"></scales>
<clustering>
<clus scale="   39.850">  1  6  2 -1</clus>
<clus scale="   55.979">  2  3  1 -1</clus>
<clus scale="  181.612">  2  4  1 -1</clus>
<clus scale="   39.850">  1  3  2 -1</clus>
</clustering>
</event>
<event>
 6    0  0.6207838E+002  0.4684944E+03  0.7546771E-02  0.1022346E+00
         21   -1    0    0  504  501  0.00000000000E+00  0.00000000000E+00  0.15348747497E+04  0.15348747497E+04  0.00000000000E+00 0.  1.
         21   -1    0    0  503  502 -0.00000000000E+00 -0.00000000000E+00 -0.61820251495E+03  0.61820251495E+03  0.00000000000E+00 0.  1.
         21    1    1    2  503  501  0.55212001004E+02  0.30442345767E+03  0.18398485254E+03  0.35996170991E+03  0.00000000000E+00 0.  1.
         21    1    1    2  504  506 -0.30297887805E+03  0.27570395310E+03  0.78330558547E+03  0.88395503875E+03  0.00000000000E+00 0.  1.
         21    1    1    2  505  502  0.37506057171E+03 -0.84131071268E+02 -0.92583492837E+02  0.39537345984E+03  0.00000000000E+00 0.  1.
         21    1    1    2  506  505 -0.12729369466E+03 -0.49599633950E+03  0.41965289529E+02  0.51378705611E+03  0.00000000000E+00 0.  1.
<scales pt_clust_3="309.38973" pt_clust_4="14000.00000" pt_clust_5="384.64061" pt_clust_6="468.49437"></scales>
<clustering>
<clus scale="  309.390">  1  3  2 -1</clus>
<clus scale="  384.641">  2  5  1 -1</clus>
<clus scale="  468.494">  2  6  1 -1</clus>
<clus scale="  309.390">  1  3  2 -1</clus>
</clustering>
</event>
<event>
 6    0  0.6207838E+002  0.1427396E+03  0.7546771E-02  0.1209689E+00
         21   -1    0    0  506  501  0.00000000000E+00  0.00000000000E+00  0.13171163447E+04  0.13171163447E+04  0.00000000000E+00 0.  1.
         21   -1    0    0  505  502 -0.00000000000E+00 -0.00000000000E+00 -0.65084750011E+02  0.65084750011E+02  0.00000000000E+00 0.  1.
         21    1    1    2  503  502 -0.21039313951E+02 -0.13810966829E+03  0.61866949781E+02  0.15278891544E+03  0.00000000000E+00 0.  1.
         21    1    1    2  504  503 -0.58113703257E+02  0.10466156202E+03  0.37320770189E+03  0.39193779331E+03  0.00000000000E+00 0.  1.
         21    1    1    2  505  501  0.57238048001E+02 -0.35725984996E+02  0.12788986317E+03  0.14459722420E+03  0.00000000000E+00 0.  1.
         21    1    1    2  506  504  0.21914969207E+02  0.69174091262E+02  0.68906707987E+03  0.69287716179E+03  0.00000000000E+00 0.  1.
<scales pt_clust_3="142.73963" pt_clust_4="14000.00000" pt_clust_5="67.47251" pt_clust_6="72.03280"></scales>
<clustering>
<clus scale="   67.473">  2  5  1 -1</clus>
<clus scale="   72.033">  1  6  2 -1</clus>
<clus scale="  142.740">  2  3  1 -1</clus>
<clus scale="   72.033">  1  3  2 -1</clus>
</clustering>
</event>
<event>
 6    0  0.6207838E+002  0.8342309E+02  0.7546771E-02  0.1319609E+00
         21   -1    0    0  504  501  0.00000000000E+00  0.00000000000E+00  0.40255730630E+02  0.40255730630E+02  0.00000000000E+00 0.  1.
         21   -1    0    0  506  502 -0.00000000000E+00 -0.00000000000E+00 -0.49674878690E+03  0.49674878690E+03  0.00000000000E+00 0.  1.
         21    1    1    2  503  502 -0.78584067490E+02  0.75613562866E+02 -0.17806584266E+03  0.20880687459E+03  0.00000000000E+00 0.  1.
         21    1    1    2  504  503  0.40037473560E+02  0.17630791616E+02 -0.24015317624E+02  0.49905706914E+02  0.00000000000E+00 0. -1.
         21    1    1    2  505  501  0.25312879315E+02 -0.62819149083E+02 -0.10289069795E+03  0.12318069279E+03  0.00000000000E+00 0.  1.
         21    1    1    2  506  505  0.13233714616E+02 -0.30425205399E+02 -0.15152119804E+03  0.15511124324E+03  0.00000000000E+00 0.  1.
<scales pt_clust_3="14000.00000" pt_clust_4="43.87686" pt_clust_5="83.42309" pt_clust_6="33.17867"></scales>
<clustering>
<clus scale="   33.179">  2  6  1 -1</clus>
<clus scale="   43.877">  1  4  2 -1</clus>
<clus scale="   83.423">  1  5  2 -1</clus>
<clus scale="   43.877">  1  3  2 -1</clus>
</clustering>
</event>
<event>
 6    0  0.6207838E+002  0.1109433E+03  0.7546771E-02  0.1258833E+00
         21   -1    0    0  504  501  0.00000000000E+00  0.00000000000E+00  0.57164049375E+03  0.57164049375E+03  0.00000000000E+00 0.  1.
         21   -1    0    0  506  502 -0.00000000000E+00 -0.00000000000E+00 -0.49533952557E+03  0.49533952557E+03  0.00000000000E+00 0. -1.
         21    1    1    2  503  502  0.30021332937E+02  0.23666483814E+02 -0.13877899663E+03  0.14394788221E+03  0.00000000000E+00 0. -1.
         21    1    1    2  504  505  0.47037731791E+02 -0.72904774947E-01  0.40626609818E+03  0.40898006805E+03  0.00000000000E+00 0.  1.
         21    1    1    2  505  503 -0.14015901121E+03  0.55551542201E+01 -0.33012920051E+03  0.35869304034E+03  0.00000000000E+00 0. -1.
         21    1    1    2  506  501  0.63099946488E+02 -0.29148733259E+02  0.13894306714E+03  0.15535902872E+03  0.00000000000E+00 0.  1.
<scales pt_clust_3="38.22804" pt_clust_4="47.15282" pt_clust_5="14000.00000" pt_clust_6="110.94325"></scales>
<clustering>
<clus scale="   38.228">  2  3  1 -1</clus>
<clus scale="   47.153">  1  4  2 -1</clus>
<clus scale="  110.943">  1  6  2 -1</clus>
<clus scale="   47.153">  1  3  2 -1</clus>
</clustering>
</event>
<event>
 6    0  0.6207838E+002  0.1040534E+03  0.7546771E-02  0.1271996E+00
         21   -1    0    0  506  501  0.00000000000E+00  0.00000000000E+00  0.47652611724E+03  0.47652611724E+03  0.00000000000E+00 0.  1.
         21   -1    0    0  504  502 -0.00000000000E+00 -0.00000000000E+00 -0.49616448891E+03  0.49616448891E+03  0.00000000000E+00 0.  1.
         21    1    1    2  503  501 -0.92063972285E+02 -0.22267043157E+02  0.60439419014E+02  0.11235888739E+03  0.00000000000E+00 0.  1.
         21    1    1    2  504  503 -0.51315231548E+02  0.20454121909E+02  0.29347112936E+02  0.62552994569E+02  0.00000000000E+00 0.  1.
         21    1    1    2  505  502  0.89424239754E+02 -0.23715572896E+02 -0.44623293472E+03  0.45572245400E+03  0.00000000000E+00 0.  1.
         21    1    1    2  506  505  0.53954964079E+02  0.25528494144E+02  0.33680803110E+03  0.34205627019E+03  0.00000000000E+00 0.  1.
<scales pt_clust_3="33.91030" pt_clust_4="33.91030" pt_clust_5="94.10344" pt_clust_6="59.68955"></scales>
<clustering>
<clus scale="   33.910">  3  4 -1 -1</clus>
<clus scale="   59.690">  1  6  2 -1</clus>
<clus scale="   94.103">  2  5  1 -1</clus>
<clus scale="   59.690">  1  3  2 -1</clus>
</clustering>
</event>
<event>
 6    0  0.6207838E+002  0.1271914E+03  0.7546771E-02  0.1231684E+00
         21   -1    0    0  504  501  0.00000000000E+00  0.00000000000E+00  0.17527505032E+03  0.17527505032E+03  0.00000000000E+00 0. -1.
         21   -1    0    0  503  502 -0.00000000000E+00 -0.00000000000E+00 -0.85610408115E+03  0.85610408115E+03  0.00000000000E+00 0.  1.
         21    1    1    2  503  505 -0.50104066739E+02  0.49199966053E+01 -0.10715323753E+03  0.11839104773E+03  0.00000000000E+00 0. -1.
         21    1    1    2  504  506  0.14646437359E+02  0.57839048086E+02  0.86369111917E+02  0.10497379246E+03  0.00000000000E+00 0. -1.
         21    1    1    2  505  501  0.90465970228E+02  0.29149431246E+02  0.37586242337E+02  0.10220815390E+03  0.00000000000E+00 0. -1.
         21    1    1    2  506  502 -0.55008340847E+02 -0.91908475937E+02 -0.69763114756E+03  0.70580613737E+03  0.00000000000E+00 0.  1.
<scales pt_clust_3="50.34505" pt_clust_4="59.57370" pt_clust_5="14000.00000" pt_clust_6="127.19144"></scales>
<clustering>
<clus scale="   50.345">  2  3  1 -1</clus>
<clus scale="   59.574">  1  4  2 -1</clus>
<clus scale="  127.191">  2  6  1 -1</clus>
<clus scale="   59.574">  1  3  2 -1</clus>
</clustering>
</event>
<event>
 6    0  0.6207838E+002  0.8770388E+02  0.7546771E-02  0.1308509E+00
         21   -1    0    0  505  501  0.00000000000E+00  0.00000000000E+00  0.61813438806E+03  0.61813438806E+03  0.00000000000E+00 0. -1.
         21   -1    0    0  506  502 -0.00000000000E+00 -0.00000000000E+00 -0.19177832989E+03  0.19177832989E+03  0.00000000000E+00 0.  1.
         21    1    1    2  503  502  0.45874848059E+02  0.31845157121E+01 -0.16632213874E+03  0.17256215303E+03  0.00000000000E+00 0.  1.
         21    1    1    2  504  503  0.54701230677E+02 -0.55894178513E+02  0.11658263655E+03  0.14038481034E+03  0.00000000000E+00 0. -1.
         21    1    1    2  505  504 -0.92255991466E+02  0.91111698368E+01  0.37952828032E+03  0.39068644325E+03  0.00000000000E+00 0. -1.
         21    1    1    2  506  501 -0.83200872698E+01  0.43598492964E+02  0.96567280044E+02  0.10627931133E+03  0.00000000000E+00 0. -1.
<scales pt_clust_3="45.95413" pt_clust_4="87.70388" pt_clust_5="14000.00000" pt_clust_6="44.38527"></scales>
<clustering>
<clus scale="   44.385">  1  6  2 -1</clus>
<clus scale="   45.954">  2  3  1 -1</clus>
<clus scale="   87.704">  2  4  1 -1</clus>
<clus scale="   44.385">  1  3  2 -1</clus>
</clustering>
</event>
<event>
 6    0  0.6207838E+002  0.1455223E+03  0.7546771E-02  0.1206086E+00
         21   -1    0    0  505  501  0.00000000000E+00  0.00000000000E+00  0.23423585410E+03  0.23423585410E+03  0.00000000000E+00 0.  1.
         21   -1    0    0  506  502 -0.00000000000E+00 -0.00000000000E+00 -0.16458194598E+03  0.16458194598E+03  0.00000000000E+00 0. -1.
         21    1    1    2  503  502 -0.45988792683E+02  0.55231620634E+01 -0.68120648282E+02  0.82376556701E+02  0.00000000000E+00 0. -1.
         21    1    1    2  504  501  0.99097503583E+02  0.48150731355E+02  0.10159199313E+03  0.14986574396E+03  0.00000000000E+00 0.  1.
         21    1    1    2  505  503 -0.89603151903E+02 -0.77450333634E+02  0.32763830857E+02  0.12288509927E+03  0.00000000000E+00 0. -1.
         21    1    1    2  506  504  0.36494441004E+02  0.23776440216E+02  0.34187324155E+01  0.43690400145E+02  0.00000000000E+00 0. -1.
<scales pt_clust_3="46.31927" pt_clust_4="33.73108" pt_clust_5="135.27266" pt_clust_6="33.73108"></scales>
<clustering>
<clus scale="   33.731">  4  6 -1 -1</clus>
<clus scale="   46.319">  2  3  1 -1</clus>
<clus scale="  135.273">  2  5  1 -1</clus>
<clus scale="  145.522">  1  3  2 -1</clus>
</clustering>
</event>
<event>
 6    0  0.6207838E+002  0.2084929E+03  0.7546771E-02  0.1142765E+00
         21   -1    0    0  504  501  0.00000000000E+00  0.00000000000E+00  0.29237553634E+03  0.29237553634E+03  0.00000000000E+00 0. -1.
         21   -1    0    0  506  502 -0.00000000000E+00 -0.00000000000E+00 -0.74638293448E+03  0.74638293448E+03  0.00000000000E+00 0. -1.
         21    1    1    2  503  502 -0.11460407345E+02 -0.65117155875E+02 -0.43719508697E+03  0.44216640419E+03  0.00000000000E+00 0. -1.
         21    1    1    2  504  505 -0.18103933849E+03  0.20454768252E+03  0.76118668344E+02  0.28356489236E+03  0.00000000000E+00 0. -1.
         21    1    1    2  505  503  0.42209972097E+02 -0.61093163590E+02 -0.12027852390E+03  0.14135409330E+03  0.00000000000E+00 0. -1.
         21    1    1    2  506  501  0.15028977374E+03 -0.78337363060E+02  0.27347544385E+02  0.17167308096E+03  0.00000000000E+00 0. -1.
<scales pt_clust_3="66.11796" pt_clust_4="14000.00000" pt_clust_5="96.38627" pt_clust_6="208.49288"></scales>
<clustering>
<clus scale="   66.118">  2  3  1 -1</clus>
<clus scale="   96.386">  2  5  1 -1</clus>
<clus scale="  208.493">  1  6  2 -1</clus>
<clus scale="  208.493">  1  3  2 -1</clus>
</clustering>
</event>
<event>
 6    0  0.6207838E+002  0.1919546E+03  0.7546771E-02  0.1156710E+00
         21   -1    0    0  506  501  0.00000000000E+00  0.00000000000E+00  0.52311659749E+03  0.52311659749E+03  0.00000000000E+00 0. -1.
         21   -1    0    0  505  502 -0.00000000000E+00 -0.00000000000E+00 -0.72869597646E+03  0.72869597646E+03  0.00000000000E+00 0.  1.
         21    1    1    2  503  504 -0.11442396614E+02 -0.40980410512E+02 -0.98563802962E+02  0.10735523155E+03  0.00000000000E+00 0.  1.
         21    1    1    2  504  501  0.10951026542E+03  0.13377195600E+03  0.30939835682E+02  0.17562661494E+03  0.00000000000E+00 0. -1.
         21    1    1    2  505  503 -0.13018968283E+03 -0.69077919772E+02 -0.54258035204E+03  0.56224065216E+03  0.00000000000E+00 0.  1.
         21    1    1    2  506  502  0.32121814022E+02 -0.23713625713E+02  0.40462494035E+03  0.40659007531E+03  0.00000000000E+00 0. -1.
<scales pt_clust_3="38.44747" pt_clust_4="178.11857" pt_clust_5="38.44747" pt_clust_6="39.92677"></scales>
<clustering>
<clus scale="   38.447">  3  5 -1 -1</clus>
<clus scale="   39.927">  1  6  2 -1</clus>
<clus scale="  178.119">  1  4  2 -1</clus>
<clus scale="   39.927">  1  3  2 -1</clus>
</clustering>
</event>
<event>
 6    0  0.6207838E+002  0.9953838E+02  0.7546771E-02  0.1281270E+00
         21   -1    0    0  503  501  0.00000000000E+00  0.00000000000E+00  0.16742829189E+03  0.16742829189E+03  0.00000000000E+00 0. -1.
         21   -1    0    0  506  502 -0.00000000000E+00 -0.00000000000E+00 -0.45213537794E+03  0.45213537794E+03  0.00000000000E+00 0. -1.
         21    1    1    2  503  502  0.78408236874E+02  0.77386628066E+02 -0.34713744639E+03  0.36419905066E+03  0.00000000000E+00 0. -1.
         21    1    1    2  504  505 -0.90249637733E+02 -0.16060437505E+02  0.27637160422E+02  0.95743132391E+02  0.00000000000E+00 0. -1.
         21    1    1    2  505  501  0.53212212288E+02 -0.39145446384E+01  0.63775721627E+02  0.83151703924E+02  0.00000000000E+00 0. -1.
         21    1    1    2  506  504 -0.41370811429E+02 -0.57411645923E+02 -0.28982521711E+02  0.76469782860E+02  0.00000000000E+00 0. -1.
<scales pt_clust_3="14000.00000" pt_clust_4="58.36765" pt_clust_5="53.35600" pt_clust_6="99.53838"></scales>
<clustering>
<clus scale="   53.356">  1  5  2 -1</clus>
<clus scale="   58.368">  1  4  2 -1</clus>
<clus scale="   99.538">  1  6  2 -1</clus>
<clus scale="   53.356">  1  3  2 -1</clus>
</clustering>
</event>
<event>
 6    0  0.6207838E+002  0.1039753E+03  0.7546771E-02  0.1272152E+00
         21   -1    0    0  504  501  0.00000000000E+00  0.00000000000E+00  0.23358712467E+03  0.23358712467E+03  0.00000000000E+00 0.  1.
         21   -1    0    0  506  502 -0.00000000000E+00 -0.00000000000E+00 -0.44004203540E+03  0.44004203540E+03  0.00000000000E+00 0.  1.
         21    1    1    2  503  505  0.73759451686E+02  0.56916001178E+01 -0.43882502618E+02  0.86014679334E+02  0.00000000000E+00 0.  1.
         21    1    1    2  504  502 -0.13589945730E+03 -0.40659386127E+02 -0.23531836969E+03  0.27476641586E+03  0.00000000000E+00 0.  1.
         21    1    1    2  505  501  0.40407274339E+02  0.77559637933E+01  0.18799885805E+03  0.19244862541E+03  0.00000000000E+00 0.  1.
         21    1    1    2  506  503  0.21732731273E+02  0.27211822216E+02 -0.11525289648E+03  0.12039943946E+03  0.00000000000E+00 0.  1.
<scales pt_clust_3="103.97530" pt_clust_4="14000.00000" pt_clust_5="41.32799" pt_clust_6="34.82520"></scales>
<clustering>
<clus scale="   34.825">  2  6  1 -1</clus>
<clus scale="   41.328">  1  5  2 -1</clus>
<clus scale="  103.975">  1  3  2 -1</clus>
<clus scale="   41.328">  1  3  2 -1</clus>
</clustering>
</event>
<event>
 6    0  0.6207838E+002  0.8597534E+02  0.7546771E-02  0.1312901E+00
         21   -1    0    0  506  501  0.00000000000E+00  0.00000000000E+00  0.94366446628E+03  0.94366446628E+03  0.00000000000E+00 0. -1.
         21   -1    0    0  503  502 -0.00000000000E+00 -0.00000000000E+00 -0.39172499769E+02  0.39172499769E+02  0.00000000000E+00 0.  1.
         21    1    1    2  503  504 -0.36412641017E+02  0.29931885672E+02  0.76644499944E+02  0.89978761813E+02  0.00000000000E+00 0. -1.
         21    1    1    2  504  505 -0.40222891999E+02 -0.94639419232E+02  0.80176410008E+02  0.13039462196E+03  0.00000000000E+00 0.  1.
         21    1    1    2  505  501 -0.45870974656E+01  0.62893756986E+02  0.42847614251E+03  0.43309175798E+03  0.00000000000E+00 0. -1.
         21    1    1    2  506  502  0.81222630481E+02  0.18137765733E+01  0.31919491405E+03  0.32937182430E+03  0.00000000000E+00 0. -1.
<scales pt_clust_3="47.13595" pt_clust_4="14000.00000" pt_clust_5="65.41325" pt_clust_6="85.97534"></scales>
<clustering>
<clus scale="   47.136">  2  3  1 -1</clus>
<clus scale="   65.413">  1  5  2 -1</clus>
<clus scale="   85.975">  1  6  2 -1</clus>
<clus scale="   65.413">  1  3  2 -1</clus>
</clustering>
</event>
<event>
 6    0  0.6207838E+002  0.1998222E+03  0.7546771E-02  0.1149889E+00
         21   -1    0    0  504  501  0.00000000000E+00  0.00000000000E+00  0.24785983086E+03  0.24785983086E+03  0.00000000000E+00 0. -1.
         21   -1    0    0  506  502 -0.00000000000E+00 -0.00000000000E+00 -0.26889231669E+03  0.26889231669E+03  0.00000000000E+00 0. -1.
         21    1    1    2  503  505 -0.17320736463E+03 -0.73274525213E+02  0.54702585916E+02  0.19586301364E+03  0.00000000000E+00 0. -1.
         21    1    1    2  504  503 -0.23992899143E+02 -0.37319491413E+02 -0.78154029860E+01  0.45049796586E+02  0.00000000000E+00 0. -1.
         21    1    1    2  505  502  0.50224450724E+02  0.46202276761E+02 -0.90978304640E+02  0.11372861445E+03  0.00000000000E+00 0. -1.
         21    1    1    2  506  501  0.14697581305E+03  0.64391739865E+02  0.23058635885E+02  0.16211072288E+03  0.00000000000E+00 0. -1.
<scales pt_clust_3="33.37446" pt_clust_4="33.37446" pt_clust_5="68.24328" pt_clust_6="187.63615"></scales>
<clustering>
<clus scale="   33.374">  3  4 -1 -1</clus>
<clus scale="   68.243">  2  5  1 -1</clus>
<clus scale="  187.636">  1  6  2 -1</clus>
<clus scale="  187.636">  1  3  2 -1</clus>
</clustering>
</event>
<event>
 6    0  0.6207838E+002  0.1898866E+03  0.7546771E-02  0.1158564E+00
         21   -1    0    0  505  501  0.00000000000E+00  0.00000000000E+00  0.61652784603E+03  0.61652784603E+03  0.00000000000E+00 0. -1.
         21   -1    0    0  503  502 -0.00000000000E+00 -0.00000000000E+00 -0.36390989402E+03  0.36390989402E+03  0.00000000000E+00 0. -1.
         21    1    1    2  503  506 -0.14341999548E+03  0.75664588328E+02 -0.29487546559E+03  0.33652037864E+03  0.00000000000E+00 0. -1.
         21    1    1    2  504  501  0.15687584328E+03 -0.70093088342E+02  0.20831698245E+03  0.27003525032E+03  0.00000000000E+00 0. -1.
         21    1    1    2  505  502 -0.65007275225E+02 -0.36053203985E+02  0.27995906581E+03  0.28965990036E+03  0.00000000000E+00 0. -1.
         21    1    1    2  506  504  0.51551427429E+02  0.30481704000E+02  0.59217369346E+02  0.84222210734E+02  0.00000000000E+00 0. -1.
<scales pt_clust_3="164.75498" pt_clust_4="55.73632" pt_clust_5="74.33559" pt_clust_6="55.73632"></scales>
<clustering>
<clus scale="   55.736">  4  6 -1 -1</clus>
<clus scale="   74.336">  1  5  2 -1</clus>
<clus scale="  164.755">  2  3  1 -1</clus>
<clus scale="   74.336">  1  3  2 -1</clus>
</clustering>
</event>
<event>
 6    0  0.6207838E+002  0.1307161E+03  0.7546771E-02  0.1226397E+00
         21   -1    0    0  504  501  0.00000000000E+00  0.00000000000E+00  0.70252565508E+02  0.70252565508E+02  0.00000000000E+00 0. -1.
         21   -1    0    0  503  502 -0.00000000000E+00 -0.00000000000E+00 -0.11257913212E+04  0.11257913212E+04  0.00000000000E+00 0. -1.
         21    1    1    2  503  506 -0.20789862912E+02  0.24608896548E+02 -0.11368719223E+03  0.11816342017E+03  0.00000000000E+00 0. -1.
         21    1    1    2  504  502 -0.97836414666E+02 -0.63248606049E+02 -0.43201184224E+03  0.44744450163E+03  0.00000000000E+00 0. -1.
         21    1    1    2  505  501  0.79552432444E+01 -0.60960223911E+02  0.31441375645E+02  0.69050669054E+02  0.00000000000E+00 0. -1.
         21    1    1    2  506  505  0.11067103433E+03  0.99599933412E+02 -0.54128109686E+03  0.56138529585E+03  0.00000000000E+00 0. -1.
<scales pt_clust_3="32.21515" pt_clust_4="130.71613" pt_clust_5="60.97349" pt_clust_6="14000.00000"></scales>
<clustering>
<clus scale="   32.215">  2  3  1 -1</clus>
<clus scale="   60.973">  1  5  2 -1</clus>
<clus scale="  130.716">  2  4  1 -1</clus>
<clus scale="   60.973">  1  3  2 -1</clus>
</clustering>
</event>
<event>
 6    0  0.6207838E+002  0.2167235E+03  0.7546771E-02  0.1136350E+00
         21   -1    0    0  505  501  0.00000000000E+00  0.00000000000E+00  0.44932448070E+02  0.44932448070E+02  0.00000000000E+00 0. -1.
         21   -1    0    0  504  502 -0.00000000000E+00 -0.00000000000E+00 -0.17980631209E+04  0.17980631209E+04  0.00000000000E+00 0. -1.
         21    1    1    2  503  502 -0.11655169578E+03  0.10779599244E+03 -0.41742944931E+03  0.44660006597E+03  0.00000000000E+00 0. -1.
         21    1    1    2  504  506 -0.28821835278E+02  0.18402470379E+02 -0.77699251285E+03  0.77774463298E+03  0.00000000000E+00 0. -1.
         21    1    1    2  505  503 -0.12281136201E+00  0.38397032735E+02 -0.14776995840E+03  0.15267713585E+03  0.00000000000E+00 0. -1.
         21    1    1    2  506  501  0.14549634241E+03 -0.16459549556E+03 -0.41093875223E+03  0.46597373413E+03  0.00000000000E+00 0. -1.
<scales pt_clust_3="33.70642" pt_clust_4="34.19575" pt_clust_5="33.70642" pt_clust_6="205.60060"></scales>
<clustering>
<clus scale="   33.706">  3  5 -1 -1</clus>
<clus scale="   34.196">  2  4  1 -1</clus>
<clus scale="  205.601">  1  6  2 -1</clus>
<clus scale="  205.601">  1  3  2 -1</clus>
</clustering>
</event>
<event>
 6    0  0.6207838E+002  0.8818557E+02  0.7546771E-02  0.1307306E+00
         21   -1    0    0  506  501  0.00000000000E+00  0.00000000000E+00  0.12223620565E+03  0.12223620565E+03  0.00000000000E+00 0.  1.
         21   -1    0    0  503  502 -0.00000000000E+00 -0.00000000000E+00 -0.67104645321E+03  0.67104645321E+03  0.00000000000E+00 0.  1.
         21    1    1    2  503  501 -0.46939526367E+02 -0.20036224329E+02 -0.78504872841E+02  0.93636448462E+02  0.00000000000E+00 0. -1.
         21    1    1    2  504  502  0.55959504914E+01 -0.30120942945E+02 -0.45297558470E+03  0.45401042521E+03  0.00000000000E+00 0.  1.
         21    1    1    2  505  504 -0.52325257656E+02  0.57609130872E+02 -0.95649572275E+02  0.12331092906E+03  0.00000000000E+00 0.  1.
         21    1    1    2  506  505  0.93668833531E+02 -0.74519635972E+01  0.78319782253E+02  0.12232485614E+03  0.00000000000E+00 0.  1.
<scales pt_clust_3="54.96701" pt_clust_4="30.63635" pt_clust_5="14000.00000" pt_clust_6="88.18557"></scales>
<clustering>
<clus scale="   30.636">  2  4  1 -1</clus>
<clus scale="   54.967">  2  3  1 -1</clus>
<clus scale="   88.186">  1  6  2 -1</clus>
<clus scale="   88.186">  1  3  2 -1</clus>
</clustering>
</event>
<event>
 6    0  0.6207838E+002  0.2312138E+03  0.7546771E-02  0.1125788E+00
         21   -1    0    0  504  501  0.00000000000E+00  0.00000000000E+00  0.54582590038E+03  0.54582590038E+03  0.00000000000E+00 0. -1.
         21   -1    0    0  505  502 -0.00000000000E+00 -0.00000000000E+00 -0.21054616917E+03  0.21054616917E+03  0.00000000000E+00 0. -1.
         21    1    1    2  503  502 -0.16021711421E+03 -0.13421670889E+03 -0.83323735379E+02  0.22500331888E+03  0.00000000000E+00 0. -1.
         21    1    1    2  504  503 -0.24209215508E+02 -0.46857573054E+02  0.42965210572E+02  0.68027403210E+02  0.00000000000E+00 0. -1.
         21    1    1    2  505  506  0.72843744250E+02  0.20589329474E+02  0.11047979539E+03  0.13392504155E+03  0.00000000000E+00 0. -1.
         21    1    1    2  506  501  0.11158258546E+03  0.16048495248E+03  0.26515846063E+03  0.32941630590E+03  0.00000000000E+00 0. -1.
<scales pt_clust_3="216.05479" pt_clust_4="52.74200" pt_clust_5="51.24214" pt_clust_6="51.24214"></scales>
<clustering>
<clus scale="   51.242">  5  6 -1 -1</clus>
<clus scale="   52.742">  1  4  2 -1</clus>
<clus scale="  216.055">  2  3  1 -1</clus>
<clus scale="   52.742">  1  3  2 -1</clus>
</clustering>
</event>
<event>
 6    0  0.6207838E+002  0.8463898E+02  0.7546771E-02  0.1316379E+00
         21   -1    0    0  505  501  0.00000000000E+00  0.00000000000E+00  0.45073933777E+03  0.45073933777E+03  0.00000000000E+00 0. -1.
         21   -1    0    0  503  502 -0.00000000000E+00 -0.00000000000E+00 -0.51652162023E+03  0.51652162023E+03  0.00000000000E+00 0.  1.
         21    1    1    2  503  506 -0.53683328918E+02  0.54404966842E+01 -0.17977249812E+03  0.18769563098E+03  0.00000000000E+00 0.  1.
         21    1    1    2  504  501  0.45169035118E+02 -0.25668924944E+02  0.40406085686E+03  0.40738717639E+03  0.00000000000E+00 0. -1.
         21    1    1    2  505  502  0.11091750265E+03  0.18474220593E+02 -0.22302015332E+03  0.24976384448E+03  0.00000000000E+00 0.  1.
         21    1    1    2  506  504 -0.10240320885E+03  0.17542076671E+01 -0.67050487879E+02  0.12241430615E+03  0.00000000000E+00 0.  1.
<scales pt_clust_3="49.80994" pt_clust_4="51.95320" pt_clust_5="84.63898" pt_clust_6="14000.00000"></scales>
<clustering>
<clus scale="   51.953">  1  4  2 -1</clus>
<clus scale="   49.810">  2  3  1 -1</clus>
<clus scale="   84.639">  2  5  1 -1</clus>
<clus scale="   51.953">  1  3  2 -1</clus>
</clustering>
</event>
<event>
 6    0  0.6207838E+002  0.9665928E+02  0.7546771E-02  0.1287482E+00
         21   -1    0    0  503  501  0.00000000000E+00  0.00000000000E+00  0.21490756157E+03  0.21490756157E+03  0.00000000000E+00 0.  1.
         21   -1    0    0  505  502 -0.00000000000E+00 -0.00000000000E+00 -0.86201722509E+03  0.86201722509E+03  0.00000000000E+00 0. -1.
         21    1    1    2  503  504  0.76258610088E+02  0.53117913550E+02 -0.54159043001E+03  0.54950621674E+03  0.00000000000E+00 0. -1.
         21    1    1    2  504  502 -0.24589255794E+02  0.66480848037E+02 -0.91734681691E+02  0.11592923049E+03  0.00000000000E+00 0. -1.
         21    1    1    2  505  506  0.29523668340E+02 -0.66996424996E+02 -0.19377616603E+03  0.20714577108E+03  0.00000000000E+00 0. -1.
         21    1    1    2  506  501 -0.81193022634E+02 -0.52602336591E+02  0.17999161422E+03  0.20434356836E+03  0.00000000000E+00 0.  1.
<scales pt_clust_3="14000.00000" pt_clust_4="70.88254" pt_clust_5="54.51866" pt_clust_6="96.65928"></scales>
<clustering>
<clus scale="   70.883">  2  4  1 -1</clus>
<clus scale="   54.519">  2  5  1 -1</clus>
<clus scale="   96.659">  1  6  2 -1</clus>
<clus scale="   96.659">  1  3  2 -1</clus>
</clustering>
</event>
<event>
 6    0  0.6207838E+002  0.2877203E+03  0.7546771E-02  0.1091545E+00
         21   -1    0    0  505  501  0.00000000000E+00  0.00000000000E+00  0.60358449801E+03  0.60358449801E+03  0.00000000000E+00 0.  1.
         21   -1    0    0  503  502 -0.00000000000E+00 -0.00000000000E+00 -0.68862543716E+03  0.68862543716E+03  0.00000000000E+00 0. -1.
         21    1    1    2  503  501  0.14500264427E+03  0.22464453198E+03 -0.23941683371E+03  0.35890298530E+03  0.00000000000E+00 0.  1.
         21    1    1    2  504  506 -0.90472665058E+02 -0.11336988031E+03 -0.12818560091E+03  0.19357061028E+03  0.00000000000E+00 0. -1.
         21    1    1    2  505  504 -0.65686512460E+02  0.25253286027E+02  0.48787294642E+03  0.49292236531E+03  0.00000000000E+00 0.  1.
         21    1    1    2  506  502  0.11156533252E+02 -0.13652793770E+03 -0.20531145095E+03  0.24681397428E+03  0.00000000000E+00 0. -1.
<scales pt_clust_3="262.30635" pt_clust_4="109.98611" pt_clust_5="70.37362" pt_clust_6="109.98611"></scales>
<clustering>
<clus scale="   70.374">  1  5  2 -1</clus>
<clus scale="  109.986">  4  6 -1 -1</clus>
<clus scale="  262.306">  1  3  2 -1</clus>
<clus scale="   70.374">  1  3  2 -1</clus>
</clustering>
</event>
<event>
 6    0  0.6207838E+002  0.7951572E+02  0.7546771E-02  0.1330431E+00
         21   -1    0    0  504  501  0.00000000000E+00  0.00000000000E+00  0.74039444698E+03  0.74039444698E+03  0.00000000000E+00 0. -1.
         21   -1    0    0  506  502 -0.00000000000E+00 -0.00000000000E+00 -0.12087967015E+03  0.12087967015E+03  0.00000000000E+00 0.  1.
         21    1    1    2  503  502 -0.53835900392E+02 -0.78808542507E+01 -0.84523052696E+02  0.10052143290E+03  0.00000000000E+00 0.  1.
         21    1    1    2  504  505  0.25764876472E+02 -0.32831479471E+02  0.56373907557E+02  0.70140946366E+02  0.00000000000E+00 0.  1.
         21    1    1    2  505  503  0.11074244587E+03  0.19111005090E+02  0.16002491024E+03  0.19554306874E+03  0.00000000000E+00 0.  1.
         21    1    1    2  506  501 -0.82671421948E+02  0.21601328632E+02  0.48763901173E+03  0.49506866914E+03  0.00000000000E+00 0. -1.
<scales pt_clust_3="54.16638" pt_clust_4="41.73410" pt_clust_5="14000.00000" pt_clust_6="79.51572"></scales>
<clustering>
<clus scale="   41.734">  1  4  2 -1</clus>
<clus scale="   54.166">  2  3  1 -1</clus>
<clus scale="   79.516">  1  6  2 -1</clus>
<clus scale="   41.734">  1  3  2 -1</clus>
</clustering>
</event>
<event>
 6    0  0.6207838E+002  0.7743387E+02  0.7546771E-02  0.1336496E+00
         21   -1    0    0  506  501  0.00000000000E+00  0.00000000000E+00  0.75732947026E+02  0.75732947026E+02  0.00000000000E+00 0.  1.
         21   -1    0    0  505  502 -0.00000000000E+00 -0.00000000000E+00 -0.32227370735E+03  0.32227370735E+03  0.00000000000E+00 0.  1.
         21    1    1    2  503  501  0.28029033683E+02  0.82957663017E+02 -0.14577928518E+02  0.88770020740E+02  0.00000000000E+00 0.  1.
         21    1    1    2  504  502 -0.31317371624E+02 -0.50940305919E+02 -0.11608617495E+03  0.13058212951E+03  0.00000000000E+00 0.  1.
         21    1    1    2  505  503  0.25235178852E+02  0.33271745419E+02 -0.99424088026E+02  0.10783771406E+03  0.00000000000E+00 0.  1.
         21    1    1    2  506  504 -0.21946840911E+02 -0.65289102517E+02 -0.16452568829E+02  0.70816790061E+02  0.00000000000E+00 0.  1.
<scales pt_clust_3="77.43387" pt_clust_4="36.42598" pt_clust_5="41.75911" pt_clust_6="14000.00000"></scales>
<clustering>
<clus scale="   41.759">  2  5  1 -1</clus>
<clus scale="   36.426">  2  4  1 -1</clus>
<clus scale="   77.434">  2  3  1 -1</clus>
<clus scale="   77.434">  1  3  2 -1</clus>
</clustering>
</event>
<event>
 6    0  0.6207838E+002  0.9597304E+02  0.7546771E-02  0.1288999E+00
         21   -1    0    0  506  501  0.00000000000E+00  0.00000000000E+00  0.37557671560E+02  0.37557671560E+02  0.00000000000E+00 0. -1.
         21   -1    0    0  503  502 -0.00000000000E+00 -0.00000000000E+00 -0.14195069280E+04  0.14195069280E+04  0.00000000000E+00 0. -1.
         21    1    1    2  503  504 -0.39287135126E+02  0.85299481789E+02 -0.74498516850E+02  0.11987288931E+03  0.00000000000E+00 0. -1.
         21    1    1    2  504  501  0.66612452124E+02  0.25732767896E+02 -0.11292238962E+03  0.13360711133E+03  0.00000000000E+00 0. -1.
         21    1    1    2  505  502 -0.50240208012E+02 -0.34267345673E+02 -0.69696555707E+03  0.69961369142E+03  0.00000000000E+00 0. -1.
         21    1    1    2  506  505  0.22914891014E+02 -0.76764904011E+02 -0.49756279292E+03  0.50397090751E+03  0.00000000000E+00 0. -1.
<scales pt_clust_3="14000.00000" pt_clust_4="61.33556" pt_clust_5="60.81389" pt_clust_6="95.97304"></scales>
<clustering>
<clus scale="   60.814">  2  5  1 -1</clus>
<clus scale="   61.336">  1  4  2 -1</clus>
<clus scale="   95.973">  2  6  1 -1</clus>
<clus scale="   61.336">  1  3  2 -1</clus>
</clustering>
</event>
<event>
 6    0  0.6207838E+002  0.2433932E+03  0.7546771E-02  0.1117553E+00
         21   -1    0    0  506  501  0.00000000000E+00  0.00000000000E+00  0.32215247102E+03  0.32215247102E+03  0.00000000000E+00 0. -1.
         21   -1    0    0  504  502 -0.00000000000E+00 -0.00000000000E+00 -0.77168379295E+03  0.77168379295E+03  0.00000000000E+00 0.  1.
         21    1    1    2  503  505  0.79478947042E+02 -0.57635116135E+02 -0.18515775587E+03  0.20957601054E+03  0.00000000000E+00 0.  1.
         21    1    1    2  504  503 -0.42695636388E+02 -0.91874499293E+02 -0.33214135556E+03  0.34724878842E+03  0.00000000000E+00 0.  1.
         21    1    1    2  505  501  0.30233311025E+02 -0.86897064991E+02 -0.17113270848E+03  0.19429759883E+03  0.00000000000E+00 0.  1.
         21    1    1    2  506  502 -0.67016621679E+02  0.23640668042E+03  0.23890049799E+03  0.34271386617E+03  0.00000000000E+00 0. -1.
<scales pt_clust_3="55.14282" pt_clust_4="101.31062" pt_clust_5="55.14282" pt_clust_6="236.63383"></scales>
<clustering>
<clus scale="   55.143">  3  5 -1 -1</clus>
<clus scale="  101.311">  2  4  1 -1</clus>
<clus scale="  236.634">  1  6  2 -1</clus>
<clus scale="  236.634">  1  3  2 -1</clus>
</clustering>
</event>
<event>
 6    0  0.6207838E+002  0.1245718E+03  0.7546771E-02  0.1235740E+00
         21   -1    0    0  503  501  0.00000000000E+00  0.00000000000E+00  0.12946243827E+03  0.12946243827E+03  0.00000000000E+00 0.  1.
         21   -1    0    0  505  502 -0.00000000000E+00 -0.00000000000E+00 -0.72712273015E+03  0.72712273015E+03  0.00000000000E+00 0.  1.
         21    1    1    2  503  502 -0.25111560145E+02  0.84943431840E+02 -0.54352212288E+02  0.10392372225E+03  0.00000000000E+00 0. -1.
         21    1    1    2  504  506  0.61260382231E+02  0.44713939512E+02 -0.38447366642E+03  0.39188285365E+03  0.00000000000E+00 0.  1.
         21    1    1    2  505  504 -0.28852433557E+02  0.24770033533E+02 -0.19773634820E+03  0.20135958106E+03  0.00000000000E+00 0.  1.
         21    1    1    2  506  501 -0.72963885291E+01 -0.15442740488E+03  0.38901935025E+02  0.15941901146E+03  0.00000000000E+00 0.  1.
<scales pt_clust_3="14000.00000" pt_clust_4="74.59125" pt_clust_5="38.02654" pt_clust_6="124.57177"></scales>
<clustering>
<clus scale="   38.027">  2  5  1 -1</clus>
<clus scale="   74.591">  2  4  1 -1</clus>
<clus scale="  124.572">  1  6  2 -1</clus>
<clus scale="  124.572">  1  3  2 -1</clus>
</clustering>
</event>
<event>
 6    0  0.6207838E+002  0.8325035E+02  0.7546771E-02  0.1320073E+00
         21   -1    0    0  505  501  0.00000000000E+00  0.00000000000E+00  0.17226883804E+03  0.17226883804E+03  0.00000000000E+00 0. -1.
         21   -1    0    0  506  502 -0.00000000000E+00 -0.00000000000E+00 -0.30051806410E+03  0.30051806410E+03  0.00000000000E+00 0.  1.
         21    1    1    2  503  502 -0.23409141721E+01 -0.31941725515E+02 -0.21781599307E+02  0.38732309206E+02  0.00000000000E+00 0. -1.
         21    1    1    2  504  501 -0.24434548522E+02 -0.48416014502E+02  0.87785516028E+02  0.10318650322E+03  0.00000000000E+00 0. -1.
         21    1    1    2  505  503  0.36042944729E+02 -0.37676867525E+02  0.41773114150E+02  0.66810427906E+02  0.00000000000E+00 0. -1.
         21    1    1    2  506  504 -0.92674820348E+01  0.11803460754E+03 -0.23602625693E+03  0.26405766181E+03  0.00000000000E+00 0.  1.
<scales pt_clust_3="32.02739" pt_clust_4="14000.00000" pt_clust_5="53.14617" pt_clust_6="83.25035"></scales>
<clustering>
<clus scale="   32.027">  2  3  1 -1</clus>
<clus scale="   53.146">  1  5  2 -1</clus>
<clus scale="   83.250">  2  6  1 -1</clus>
<clus scale="   53.146">  1  3  2 -1</clus>
</clustering>
</event>
<event>
 6    0  0.6207838E+002  0.1380837E+03  0.7546771E-02  0.1215931E+00
         21   -1    0    0  504  501  0.00000000000E+00  0.00000000000E+00  0.19938998502E+03  0.19938998502E+03  0.00000000000E+00 0.  1.
         21   -1    0    0  505  502 -0.00000000000E+00 -0.00000000000E+00 -0.15204955125E+04  0.15204955125E+04  0.00000000000E+00 0. -1.
         21    1    1    2  503  506  0.62578961111E+02 -0.40612198539E+02 -0.77563692702E+02  0.10761785851E+03  0.00000000000E+00 0. -1.
         21    1    1    2  504  502 -0.32270798950E+02  0.12191450384E+01 -0.12175523552E+04  0.12179805534E+04  0.00000000000E+00 0. -1.
         21    1    1    2  505  503  0.81695633125E+02 -0.62243385790E+01 -0.18041145707E+03  0.19814442385E+03  0.00000000000E+00 0. -1.
         21    1    1    2  506  501 -0.11200379529E+03  0.45617392079E+02  0.15442197751E+03  0.19614266175E+03  0.00000000000E+00 0.  1.
<scales pt_clust_3="60.50407" pt_clust_4="32.29382" pt_clust_5="60.50407" pt_clust_6="123.03065"></scales>
<clustering>
<clus scale="   32.294">  2  4  1 -1</clus>
<clus scale="   60.504">  3  5 -1 -1</clus>
<clus scale="  123.031">  1  6  2 -1</clus>
<clus scale="  123.031">  1  3  2 -1</clus>
</clustering>
</event>
<event>
 6    0  0.6207838E+002  0.1141400E+03  0.7546771E-02  0.1253090E+00
         21   -1    0    0  505  501  0.00000000000E+00  0.00000000000E+00  0.38918990543E+03  0.38918990543E+03  0.00000000000E+00 0. -1.
         21   -1    0    0  503  502 -0.00000000000E+00 -0.00000000000E+00 -0.18589806335E+03  0.18589806335E+03  0.00000000000E+00 0. -1.
         21    1    1    2  503  504 -0.45297278382E+02  0.93704955997E+02 -0.12828032542E+03  0.16519171922E+03  0.00000000000E+00 0. -1.
         21    1    1    2  504  501 -0.56225702156E+02  0.69388281521E+01  0.21249352465E+03  0.21991583603E+03  0.00000000000E+00 0. -1.
         21    1    1    2  505  506  0.49477787775E+02 -0.61506034769E+02  0.86714966283E+02  0.11726265038E+03  0.00000000000E+00 0. -1.
         21    1    1    2  506  502  0.52045192763E+02 -0.39137749381E+02  0.32363676572E+02  0.72717763151E+02  0.00000000000E+00 0. -1.
<scales pt_clust_3="107.47643" pt_clust_4="56.65225" pt_clust_5="34.90328" pt_clust_6="34.90328"></scales>
<clustering>
<clus scale="   34.903">  5  6 -1 -1</clus>
<clus scale="   56.652">  1  4  2 -1</clus>
<clus scale="  107.476">  2  3  1 -1</clus>
<clus scale="   56.652">  1  3  2 -1</clus>
</clustering>
</event>
<event>
 6    0  0.6207838E+002  0.9044655E+02  0.7546771E-02  0.1301774E+00
         21   -1    0    0  505  501  0.00000000000E+00  0.00000000000E+00  0.17036080543E+04  0.17036080543E+04  0.00000000000E+00 0. -1.
         21   -1    0    0  506  502 -0.00000000000E+00 -0.00000000000E+00 -0.32232681405E+02  0.32232681405E+02  0.00000000000E+00 0.  1.
         21    1    1    2  503  501 -0.22100547601E+02 -0.87913011206E+02  0.13881774971E+04  0.13911340321E+04  0.00000000000E+00 0. -1.
         21    1    1    2  504  502 -0.55041350175E+02  0.20351441517E+02  0.99944937292E+02  0.11589961989E+03  0.00000000000E+00 0.  1.
         21    1    1    2  505  504  0.32320643160E+02  0.82829239640E+02  0.10791437631E+03  0.13982424514E+03  0.00000000000E+00 0.  1.
         21    1    1    2  506  503  0.44821254617E+02 -0.15267669951E+02  0.75338562162E+02  0.88982838569E+02  0.00000000000E+00 0. -1.
<scales pt_clust_3="14000.00000" pt_clust_4="43.82491" pt_clust_5="90.44655" pt_clust_6="47.35025"></scales>
<clustering>
<clus scale="   47.350">  2  6  1 -1</clus>
<clus scale="   43.825">  2  4  1 -1</clus>
<clus scale="   90.447">  2  5  1 -1</clus>
<clus scale="   90.447">  1  3  2 -1</clus>
</clustering>
</event>
<event>
 6    0  0.6207838E+002  0.6206410E+02  0.7546771E-02  0.1389368E+00
         21   -1    0    0  503  501  0.00000000000E+00  0.00000000000E+00  0.12601506923E+04  0.12601506923E+04  0.00000000000E+00 0. -1.
         21   -1    0    0  506  502 -0.00000000000E+00 -0.00000000000E+00 -0.69732872478E+02  0.69732872478E+02  0.00000000000E+00 0. -1.
         21    1    1    2  503  505  0.55266820035E+02 -0.23494769077E+02  0.98693400637E+03  0.98875940375E+03  0.00000000000E+00 0. -1.
         21    1    1    2  504  501 -0.94897654404E+02  0.65241295785E+02  0.12020676159E+03  0.16646818621E+03  0.00000000000E+00 0. -1.
         21    1    1    2  505  502  0.12500321508E+02 -0.60809681948E+02  0.11377157825E+03  0.12960728171E+03  0.00000000000E+00 0. -1.
         21    1    1    2  506  504  0.27130512861E+02  0.19063155240E+02 -0.30494526356E+02  0.45048693139E+02  0.00000000000E+00 0. -1.
<scales pt_clust_3="62.06410" pt_clust_4="14000.00000" pt_clust_5="59.28936" pt_clust_6="33.15824"></scales>
<clustering>
<clus scale="   33.158">  2  6  1 -1</clus>
<clus scale="   59.289">  2  5  1 -1</clus>
<clus scale="   62.064">  1  3  2 -1</clus>
<clus scale="   62.064">  1  3  2 -1</clus>
</clustering>
</event>
<event>
 6    0  0.6207838E+002  0.6212349E+02  0.7546771E-02  0.1389130E+00
         21   -1    0    0  504  501  0.00000000000E+00  0.00000000000E+00  0.74573822220E+03  0.74573822220E+03  0.00000000000E+00 0. -1.
         21   -1    0    0  503  502 -0.00000000000E+00 -0.00000000000E+00 -0.82559234449E+02  0.82559234449E+02  0.00000000000E+00 0. -1.
         21    1    1    2  503  505 -0.41554175476E+02 -0.34732475867E+02  0.61452678053E+02  0.81911696474E+02  0.00000000000E+00 0.  1.
         21    1    1    2  504  506 -0.31084114867E+01  0.56821114590E+02  0.89011220564E+02  0.10564704762E+03  0.00000000000E+00 0.  1.
         21    1    1    2  505  501  0.63159337732E+01 -0.10566473068E+03  0.53561666748E+03  0.54597631891E+03  0.00000000000E+00 0. -1.
         21    1    1    2  506  502  0.38346653189E+02  0.83576091958E+02 -0.22901578345E+02  0.94762393641E+02  0.00000000000E+00 0. -1.
<scales pt_clust_3="54.15805" pt_clust_4="53.41242" pt_clust_5="14000.00000" pt_clust_6="62.12349"></scales>
<clustering>
<clus scale="   54.158">  2  3  1 -1</clus>
<clus scale="   53.412">  1  4  2 -1</clus>
<clus scale="   62.123">  2  6  1 -1</clus>
<clus scale="   53.412">  1  3  2 -1</clus>
</clustering>
</event>
<event>
 6    0  0.6207838E+002  0.9403207E+02  0.7546771E-02  0.1293371E+00
         21   -1    0    0  504  501  0.00000000000E+00  0.00000000000E+00  0.32440942719E+02  0.32440942719E+02  0.00000000000E+00 0. -1.
         21   -1    0    0  506  502 -0.00000000000E+00 -0.00000000000E+00 -0.17881793908E+04  0.17881793908E+04  0.00000000000E+00 0. -1.
         21    1    1    2  503  502 -0.45335396123E+02 -0.22736628132E+02 -0.13395409795E+03  0.14323390924E+03  0.00000000000E+00 0.  1.
         21    1    1    2  504  503 -0.33031902401E+02 -0.85012661939E+02 -0.11391476731E+03  0.14592749390E+03  0.00000000000E+00 0. -1.
         21    1    1    2  505  501  0.56976156092E+02  0.82674556225E+02 -0.20594520031E+03  0.22911741562E+03  0.00000000000E+00 0. -1.
         21    1    1    2  506  505  0.21391142432E+02  0.25074733846E+02 -0.13019243825E+04  0.13023415148E+04  0.00000000000E+00 0. -1.
<scales pt_clust_3="42.21840" pt_clust_4="94.03207" pt_clust_5="14000.00000" pt_clust_6="32.95942"></scales>
<clustering>
<clus scale="   32.959">  2  6  1 -1</clus>
<clus scale="   42.218">  2  3  1 -1</clus>
<clus scale="   94.032">  1  4  2 -1</clus>
<clus scale="   94.032">  1  3  2 -1</clus>
</clustering>
</event>
<event>
 6    0  0.6207838E+002  0.1020619E+03  0.7546771E-02  0.1276019E+00
         21   -1    0    0  504  501  0.00000000000E+00  0.00000000000E+00  0.46183891239E+02  0.46183891239E+02  0.00000000000E+00 0.  1.
         21   -1    0    0  505  502 -0.00000000000E+00 -0.00000000000E+00 -0.71557036531E+03  0.71557036531E+03  0.00000000000E+00 0.  1.
         21    1    1    2  503  502 -0.50012745779E+02  0.28007116682E+02 -0.35944627786E+03  0.36398804924E+03  0.00000000000E+00 0.  1.
         21    1    1    2  504  503  0.22053839940E+02 -0.26970017671E+02 -0.36584403161E+02  0.50519028731E+02  0.00000000000E+00 0.  1.
         21    1    1    2  505  506 -0.77687285728E+02 -0.17343818115E+02 -0.20613749772E+03  0.22097237464E+03  0.00000000000E+00 0.  1.
         21    1    1    2  506  501  0.10564619157E+03  0.16306719105E+02 -0.67218295336E+02  0.12627480393E+03  0.00000000000E+00 0.  1.
<scales pt_clust_3="55.44841" pt_clust_4="34.83897" pt_clust_5="14000.00000" pt_clust_6="102.06185"></scales>
<clustering>
<clus scale="   34.839">  1  4  2 -1</clus>
<clus scale="   55.448">  2  3  1 -1</clus>
<clus scale="  102.062">  1  6  2 -1</clus>
<clus scale="   34.839">  1  3  2 -1</clus>
</clustering>
</event>
<event>
 6    0  0.6207838E+002  0.1909937E+03  0.7546771E-02  0.1157568E+00
         21   -1    0    0  503  501  0.00000000000E+00  0.00000000000E+00  0.23224926008E+04  0.23224926008E+04  0.00000000000E+00 0. -1.
         21   -1    0    0  506  502 -0.00000000000E+00 -0.00000000000E+00 -0.54097392244E+03  0.54097392244E+03  0.00000000000E+00 0.  1.
         21    1    1    2  503  505  0.55162728083E+02 -0.50748406224E+02  0.20744185664E+04  0.20757723179E+04  0.00000000000E+00 0. -1.
         21    1    1    2  504  502 -0.18452707242E+03 -0.36365654051E+02 -0.42120386735E+03  0.46128667781E+03  0.00000000000E+00 0.  1.
         21    1    1    2  505  504 -0.78309636899E+02  0.34603535389E+02  0.43385276388E+02  0.95979612939E+02  0.00000000000E+00 0. -1.
         21    1    1    2  506  501  0.20767398124E+03  0.52510524886E+02  0.84918702951E+02  0.23042791458E+03  0.00000000000E+00 0.  1.
<scales pt_clust_3="74.95550" pt_clust_4="14000.00000" pt_clust_5="65.97615" pt_clust_6="190.99375"></scales>
<clustering>
<clus scale="   74.956">  1  3  2 -1</clus>
<clus scale="   65.976">  1  5  2 -1</clus>
<clus scale="  190.994">  1  6  2 -1</clus>
<clus scale="   74.956">  1  3  2 -1</clus>
</clustering>
</event>
<event>
 6    0  0.6207838E+002  0.9934542E+02  0.7546771E-02  0.1281678E+00
         21   -1    0    0  506  501  0.00000000000E+00  0.00000000000E+00  0.13105363468E+03  0.13105363468E+03  0.00000000000E+00 0. -1.
         21   -1    0    0  505  502 -0.00000000000E+00 -0.00000000000E+00 -0.31665166230E+03  0.31665166230E+03  0.00000000000E+00 0. -1.
         21    1    1    2  503  501 -0.40739668478E+02 -0.19878663624E+02 -0.15660387006E+02  0.47959666141E+02  0.00000000000E+00 0.  1.
         21    1    1    2  504  502  0.11765010609E+03  0.47427570496E+02 -0.39586502713E+01  0.12691175209E+03  0.00000000000E+00 0. -1.
         21    1    1    2  505  503 -0.95894884740E+02  0.10383544044E+01 -0.20167653030E+03  0.22331665852E+03  0.00000000000E+00 0. -1.
         21    1    1    2  506  504  0.18984447124E+02 -0.28587261276E+02  0.35697539961E+02  0.49517220228E+02  0.00000000000E+00 0. -1.
<scales pt_clust_3="44.93583" pt_clust_4="14000.00000" pt_clust_5="99.34542" pt_clust_6="34.31677"></scales>
<clustering>
<clus scale="   34.317">  1  6  2 -1</clus>
<clus scale="   44.936">  1  3  2 -1</clus>
<clus scale="   99.345">  2  5  1 -1</clus>
<clus scale="   34.317">  1  3  2 -1</clus>
</clustering>
</event>
<event>
 6    0  0.6207838E+002  0.1217405E+03  0.7546771E-02  0.1240253E+00
         21   -1    0    0  505  501  0.00000000000E+00  0.00000000000E+00  0.10441425757E+04  0.10441425757E+04  0.00000000000E+00 0. -1.
         21   -1    0    0  506  502 -0.00000000000E+00 -0.00000000000E+00 -0.53450658012E+02  0.53450658012E+02  0.00000000000E+00 0. -1.
         21    1    1    2  503  502  0.77920639567E+02 -0.10555979035E+03  0.52234503853E+02  0.14121947033E+03  0.00000000000E+00 0. -1.
         21    1    1    2  504  501 -0.22471417699E+02  0.37132574364E+02  0.16669089084E+03  0.17224879036E+03  0.00000000000E+00 0. -1.
         21    1    1    2  505  503 -0.33725119271E+02  0.34645930607E+02  0.70169714169E+03  0.70336093354E+03  0.00000000000E+00 0. -1.
         21    1    1    2  506  504 -0.21724102597E+02  0.33781285376E+02  0.70069381287E+02  0.80764039456E+02  0.00000000000E+00 0. -1.
<scales pt_clust_3="117.65499" pt_clust_4="30.08413" pt_clust_5="48.35002" pt_clust_6="30.08413"></scales>
<clustering>
<clus scale="   30.084">  4  6 -1 -1</clus>
<clus scale="   48.350">  1  5  2 -1</clus>
<clus scale="  117.655">  2  3  1 -1</clus>
<clus scale="   48.350">  1  3  2 -1</clus>
</clustering>
</event>
<event>
 6    0  0.6207838E+002  0.1395541E+03  0.7546771E-02  0.1213930E+00
         21   -1    0    0  504  501  0.00000000000E+00  0.00000000000E+00  0.71304895960E+03  0.71304895960E+03  0.00000000000E+00 0.  1.
         21   -1    0    0  506  502 -0.00000000000E+00 -0.00000000000E+00 -0.37404071525E+03  0.37404071525E+03  0.00000000000E+00 0.  1.
         21    1    1    2  503  502  0.16459532621E+02 -0.59103706666E+02  0.20587143771E+03  0.21481902434E+03  0.00000000000E+00 0.  1.
         21    1    1    2  504  503 -0.44706558040E+01 -0.69605485643E+02  0.90334351663E+02  0.11412802235E+03  0.00000000000E+00 0.  1.
         21    1    1    2  505  501 -0.42558168756E+02  0.70097077677E+01  0.38823597920E+03  0.39062451187E+03  0.00000000000E+00 0.  1.
         21    1    1    2  506  505  0.30569291939E+02  0.12169948454E+03 -0.34543352421E+03  0.36751811628E+03  0.00000000000E+00 0.  1.
<scales pt_clust_3="54.78545" pt_clust_4="54.78545" pt_clust_5="43.13159" pt_clust_6="125.36685"></scales>
<clustering>
<clus scale="   43.132">  1  5  2 -1</clus>
<clus scale="   54.785">  3  4 -1 -1</clus>
<clus scale="  125.367">  2  6  1 -1</clus>
<clus scale="   43.132">  1  3  2 -1</clus>
</clustering>
</event>
<event>
 6    0  0.6207838E+002  0.1649994E+03  0.7546771E-02  0.1183165E+00
         21   -1    0    0  505  501  0.00000000000E+00  0.00000000000E+00  0.13281937211E+04  0.13281937211E+04  0.00000000000E+00 0. -1.
         21   -1    0    0  503  502 -0.00000000000E+00 -0.00000000000E+00 -0.76320020013E+02  0.76320020013E+02  0.00000000000E+00 0. -1.
         21    1    1    2  503  501 -0.76666169924E+02 -0.14587891740E+03  0.10132842524E+04  0.10265979428E+04  0.00000000000E+00 0. -1.
         21    1    1    2  504  502  0.24801791844E+02  0.37827085140E+02 -0.44565608956E+02  0.63498903537E+02  0.00000000000E+00 0. -1.
         21    1    1    2  505  506  0.42572307876E+02  0.26154510986E+02  0.14697992883E+03  0.15524032763E+03  0.00000000000E+00 0. -1.
         21    1    1    2  506  504  0.92920702041E+01  0.81897321279E+02  0.13617512889E+03  0.15917656715E+03  0.00000000000E+00 0. -1.
<scales pt_clust_3="151.35631" pt_clust_4="45.23292" pt_clust_5="48.96628" pt_clust_6="48.96628"></scales>
<clustering>
<clus scale="   45.233">  2  4  1 -1</clus>
<clus scale="   48.966">  5  6 -1 -1</clus>
<clus scale="  151.356">  1  3  2 -1</clus>
<clus scale="  151.356">  1  3  2 -1</clus>
</clustering>
</event>
<event>
 6    0  0.6207838E+002  0.9910070E+02  0.7546771E-02  0.1282198E+00
         21   -1    0    0  504  501  0.00000000000E+00  0.00000000000E+00  0.12266250003E+03  0.12266250003E+03  0.00000000000E+00 0. -1.
         21   -1    0    0  505  502 -0.00000000000E+00 -0.00000000000E+00 -0.20004288444E+03  0.20004288444E+03  0.00000000000E+00 0. -1.
         21    1    1    2  503  502  0.81685997656E+02 -0.24296462087E+02 -0.14199443451E+02  0.86397595322E+02  0.00000000000E+00 0. -1.
         21    1    1    2  504  506  0.25011402679E+02 -0.20748498595E+02  0.40176806719E+02  0.51674425551E+02  0.00000000000E+00 0. -1.
         21    1    1    2  505  501 -0.11102370002E+03  0.41054826129E+01 -0.83174821006E+02  0.13878460938E+03  0.00000000000E+00 0. -1.
         21    1    1    2  506  503  0.43262996806E+01  0.40939478069E+02 -0.20182926680E+02  0.45848754213E+02  0.00000000000E+00 0. -1.
<scales pt_clust_3="99.10070" pt_clust_4="32.49724" pt_clust_5="14000.00000" pt_clust_6="38.42367"></scales>
<clustering>
<clus scale="   32.497">  1  4  2 -1</clus>
<clus scale="   38.424">  1  6  2 -1</clus>
<clus scale="   99.101">  1  3  2 -1</clus>
<clus scale="   32.497">  1  3  2 -1</clus>
</clustering>
</event>
<event>
 6    0  0.6207838E+002  0.8594113E+02  0.7546771E-02  0.1312990E+00
         21   -1    0    0  505  501  0.00000000000E+00  0.00000000000E+00  0.89086207655E+03  0.89086207655E+03  0.00000000000E+00 0.  1.
         21   -1    0    0  503  502 -0.00000000000E+00 -0.00000000000E+00 -0.20929950786E+03  0.20929950786E+03  0.00000000000E+00 0.  1.
         21    1    1    2  503  504 -0.62325101648E+02 -0.58261930513E+02 -0.15037043960E+03  0.17288765123E+03  0.00000000000E+00 0.  1.
         21    1    1    2  504  506 -0.79076691807E+02 -0.27198080425E+02  0.34999241270E+02  0.90652113353E+02  0.00000000000E+00 0.  1.
         21    1    1    2  505  502  0.11095972101E+03  0.19754350973E+02  0.16071249793E+03  0.19629264138E+03  0.00000000000E+00 0.  1.
         21    1    1    2  506  501  0.30442072449E+02  0.65705659965E+02  0.63622126909E+03  0.64032917845E+03  0.00000000000E+00 0.  1.
<scales pt_clust_3="14000.00000" pt_clust_4="72.32414" pt_clust_5="85.94113" pt_clust_6="72.41515"></scales>
<clustering>
<clus scale="   72.415">  1  6  2 -1</clus>
<clus scale="   72.324">  1  4  2 -1</clus>
<clus scale="   85.941">  1  5  2 -1</clus>
<clus scale="   72.415">  1  3  2 -1</clus>
</clustering>
</event>
<event>
 6    0  0.6207838E+002  0.9389887E+02  0.7546771E-02  0.1293676E+00
         21   -1    0    0  503  501  0.00000000000E+00  0.00000000000E+00  0.67248722715E+03  0.67248722715E+03  0.00000000000E+00 0. -1.
         21   -1    0    0  505  502 -0.00000000000E+00 -0.00000000000E+00 -0.13911623404E+03  0.13911623404E+03  0.00000000000E+00 0.  1.
         21    1    1    2  503  502  0.82097214690E+02  0.93647875047E+02  0.40735742439E+02  0.13103159113E+03  0.00000000000E+00 0.  1.
         21    1    1    2  504  501 -0.70862911017E+01  0.32569338630E+02  0.51247587764E+03  0.51355866510E+03  0.00000000000E+00 0. -1.
         21    1    1    2  505  506 -0.39198128171E+02 -0.76320349985E+02 -0.49237045984E+02  0.98922069182E+02  0.00000000000E+00 0.  1.
         21    1    1    2  506  504 -0.35812795417E+02 -0.49896863692E+02  0.29396419015E+02  0.68091135787E+02  0.00000000000E+00 0.  1.
<scales pt_clust_3="14000.00000" pt_clust_4="33.33133" pt_clust_5="93.89887" pt_clust_6="55.11558"></scales>
<clustering>
<clus scale="   33.331">  1  4  2 -1</clus>
<clus scale="   55.116">  1  6  2 -1</clus>
<clus scale="   93.899">  2  5  1 -1</clus>
<clus scale="   33.331">  1  3  2 -1</clus>
</clustering>
</event>
<event>
 6    0  0.6207838E+002  0.8995628E+02  0.7546771E-02  0.1302958E+00
         21   -1    0    0  506  501  0.00000000000E+00  0.00000000000E+00  0.50161258378E+03  0.50161258378E+03  0.00000000000E+00 0. -1.
         21   -1    0    0  503  502 -0.00000000000E+00 -0.00000000000E+00 -0.37071553898E+03  0.37071553898E+03  0.00000000000E+00 0. -1.
         21    1    1    2  503  504  0.32869463702E+02  0.13327926736E+02 -0.13904277969E+03  0.14349540013E+03  0.00000000000E+00 0. -1.
         21    1    1    2  504  505 -0.10809590726E+03 -0.90010888669E+01 -0.16395778681E+02  0.10970217101E+03  0.00000000000E+00 0. -1.
         21    1    1    2  505  501  0.59288505486E+02 -0.70021098236E+02  0.44094464198E+03  0.45038900783E+03  0.00000000000E+00 0. -1.
         21    1    1    2  506  502  0.15937938069E+02  0.65694260367E+02 -0.15460903882E+03  0.16874154379E+03  0.00000000000E+00 0.  1.
<scales pt_clust_3="35.46879" pt_clust_4="89.95628" pt_clust_5="14000.00000" pt_clust_6="84.65551"></scales>
<clustering>
<clus scale="   35.469">  2  3  1 -1</clus>
<clus scale="   84.656">  2  6  1 -1</clus>
<clus scale="   89.956">  2  4  1 -1</clus>
<clus scale="   89.956">  1  3  2 -1</clus>
</clustering>
</event>
<event>
 6    0  0.6207838E+002  0.1001602E+03  0.7546771E-02  0.1279959E+00
         21   -1    0    0  503  501  0.00000000000E+00  0.00000000000E+00  0.29426932568E+03  0.29426932568E+03  0.00000000000E+00 0. -1.
         21   -1    0    0  504  502 -0.00000000000E+00 -0.00000000000E+00 -0.11880757525E+03  0.11880757525E+03  0.00000000000E+00 0. -1.
         21    1    1    2  503  506  0.74765559919E+02 -0.72583369357E+02  0.15092742436E+03  0.18340480332E+03  0.00000000000E+00 0. -1.
         21    1    1    2  504  505  0.37454390108E+01  0.55305578096E+02  0.37431662627E+02  0.66886954251E+02  0.00000000000E+00 0. -1.
         21    1    1    2  505  501 -0.75311261459E+02  0.54544793926E+02  0.37294574714E+02  0.10018885143E+03  0.00000000000E+00 0. -1.
         21    1    1    2  506  502 -0.31997374711E+01 -0.37267002665E+02 -0.50191911269E+02  0.62596291938E+02  0.00000000000E+00 0. -1.
<scales pt_clust_3="14000.00000" pt_clust_4="46.60775" pt_clust_5="100.16020" pt_clust_6="37.40411"></scales>
<clustering>
<clus scale="   37.404">  2  6  1 -1</clus>
<clus scale="   46.608">  2  4  1 -1</clus>
<clus scale="  100.160">  2  5  1 -1</clus>
<clus scale="  100.160">  1  3  2 -1</clus>
</clustering>
</event>
<event>
 6    0  0.6207838E+002  0.1576514E+03  0.7546771E-02  0.1191374E+00
         21   -1    0    0  506  501  0.00000000000E+00  0.00000000000E+00  0.85563672772E+03  0.85563672772E+03  0.00000000000E+00 0.  1.
         21   -1    0    0  504  502 -0.00000000000E+00 -0.00000000000E+00 -0.35922966009E+03  0.35922966009E+03  0.00000000000E+00 0.  1.
         21    1    1    2  503  501 -0.93939726016E+02 -0.15680876132E+03  0.30857798688E+03  0.35865587091E+03  0.00000000000E+00 0.  1.
         21    1    1    2  504  505  0.58189355685E+02 -0.43948792368E+02 -0.25724320803E+03  0.26737906714E+03  0.00000000000E+00 0.  1.
         21    1    1    2  505  503  0.89991115720E+02  0.42611989607E+02 -0.13733905703E+02  0.10051269936E+03  0.00000000000E+00 0.  1.
         21    1    1    2  506  502 -0.54240745389E+02  0.15814556408E+03  0.45880619448E+03  0.48831875040E+03  0.00000000000E+00 0.  1.
<scales pt_clust_3="157.65145" pt_clust_4="72.92117" pt_clust_5="125.40574" pt_clust_6="14000.00000"></scales>
<clustering>
<clus scale="   72.921">  2  4  1 -1</clus>
<clus scale="  125.406">  2  5  1 -1</clus>
<clus scale="  157.651">  2  3  1 -1</clus>
<clus scale="  157.651">  1  3  2 -1</clus>
</clustering>
</event>
<event>
 6    0  0.6207838E+002  0.1714652E+03  0.7546771E-02  0.1176328E+00
         21   -1    0    0  503  501  0.00000000000E+00  0.00000000000E+00  0.28846536993E+03  0.28846536993E+03  0.00000000000E+00 0. -1.
         21   -1    0    0  504  502 -0.00000000000E+00 -0.00000000000E+00 -0.93389067460E+03  0.93389067460E+03  0.00000000000E+00 0.  1.
         21    1    1    2  503  505  0.44483396878E+02 -0.67643772906E+02  0.23184206606E+03  0.24557116322E+03  0.00000000000E+00 0. -1.
         21    1    1    2  504  501  0.11651921173E+03  0.51077034031E+02 -0.61352436270E+02  0.14124344779E+03  0.00000000000E+00 0. -1.
         21    1    1    2  505  506 -0.91428482349E+02  0.31697846859E+00 -0.27202462553E+03  0.28697850922E+03  0.00000000000E+00 0.  1.
         21    1    1    2  506  502 -0.69574126258E+02  0.16249760407E+02 -0.54389030894E+03  0.54856292430E+03  0.00000000000E+00 0.  1.
<scales pt_clust_3="80.95957" pt_clust_4="152.26393" pt_clust_5="69.69546" pt_clust_6="69.69546"></scales>
<clustering>
<clus scale="   69.695">  5  6 -1 -1</clus>
<clus scale="   80.960">  1  3  2 -1</clus>
<clus scale="  152.264">  1  4  2 -1</clus>
<clus scale="   80.960">  1  3  2 -1</clus>
</clustering>
</event>
<event>
 6    0  0.6207838E+002  0.1545996E+03  0.7546771E-02  0.1194932E+00
         21   -1    0    0  505  501  0.00000000000E+00  0.00000000000E+00  0.13645895122E+03  0.13645895122E+03  0.00000000000E+00 0.  1.
         21   -1    0    0  504  502 -0.00000000000E+00 -0.00000000000E+00 -0.92195738642E+03  0.92195738642E+03  0.00000000000E+00 0. -1.
         21    1    1    2  503  502 -0.45753728042E+01 -0.35496236592E+02 -0.31875074919E+03  0.32075373257E+03  0.00000000000E+00 0. -1.
         21    1    1    2  504  501 -0.16807433858E+02  0.39239363659E+02 -0.49133799800E+02  0.65087232051E+02  0.00000000000E+00 0.  1.
         21    1    1    2  505  506 -0.67373173428E+02  0.13778659811E+03  0.61442924368E+02  0.16522567619E+03  0.00000000000E+00 0.  1.
         21    1    1    2  506  503  0.88755980090E+02 -0.14152972518E+03 -0.47905681057E+03  0.50734969683E+03  0.00000000000E+00 0. -1.
<scales pt_clust_3="35.78990" pt_clust_4="39.80126" pt_clust_5="154.59963" pt_clust_6="14000.00000"></scales>
<clustering>
<clus scale="   35.790">  2  3  1 -1</clus>
<clus scale="   39.801">  2  4  1 -1</clus>
<clus scale="  154.600">  1  5  2 -1</clus>
<clus scale="  154.600">  1  3  2 -1</clus>
</clustering>
</event>
<event>
 6    0  0.6207838E+002  0.7356486E+02  0.7546771E-02  0.1348374E+00
         21   -1    0    0  504  501  0.00000000000E+00  0.00000000000E+00  0.18225502936E+03  0.18225502936E+03  0.00000000000E+00 0.  1.
         21   -1    0    0  506  502 -0.00000000000E+00 -0.00000000000E+00 -0.47826445932E+03  0.47826445932E+03  0.00000000000E+00 0. -1.
         21    1    1    2  503  501  0.45802511654E+02 -0.28154423496E+02 -0.25503955578E+02  0.59506246616E+02  0.00000000000E+00 0. -1.
         21    1    1    2  504  505  0.42014650440E+02  0.67962401509E+02  0.11662198560E+03  0.14136762853E+03  0.00000000000E+00 0.  1.
         21    1    1    2  505  502 -0.70956282340E+02  0.24631851063E+02 -0.38577895102E+03  0.39302279977E+03  0.00000000000E+00 0. -1.
         21    1    1    2  506  503 -0.16860879754E+02 -0.64439829076E+02 -0.13485089615E+01  0.66622813764E+02  0.00000000000E+00 0. -1.
<scales pt_clust_3="53.76376" pt_clust_4="73.56486" pt_clust_5="14000.00000" pt_clust_6="70.43514"></scales>
<clustering>
<clus scale="   53.764">  1  3  2 -1</clus>
<clus scale="   70.435">  1  6  2 -1</clus>
<clus scale="   73.565">  1  4  2 -1</clus>
<clus scale="   53.764">  1  3  2 -1</clus>
</clustering>
</event>
<event>
 6    0  0.6207838E+002  0.1451205E+03  0.7546771E-02  0.1206600E+00
         21   -1    0    0  504  501  0.00000000000E+00  0.00000000000E+00  0.78752144809E+02  0.78752144809E+02  0.00000000000E+00 0.  1.
         21   -1    0    0  505  502 -0.00000000000E+00 -0.00000000000E+00 -0.40664780135E+03  0.40664780135E+03  0.00000000000E+00 0.  1.
         21    1    1    2  503  502  0.37663533954E+02 -0.31263392098E+02 -0.12344894244E+03  0.13279903187E+03  0.00000000000E+00 0. -1.
         21    1    1    2  504  503  0.46981770126E+02 -0.10530194954E+03 -0.73005783323E+02  0.13647575499E+03  0.00000000000E+00 0.  1.
         21    1    1    2  505  506 -0.71907006625E+02  0.81455896813E+02 -0.11267963381E+03  0.15653236280E+03  0.00000000000E+00 0.  1.
         21    1    1    2  506  501 -0.12738297455E+02  0.55109444830E+02 -0.18761296976E+02  0.59592796509E+02  0.00000000000E+00 0.  1.
<scales pt_clust_3="48.94836" pt_clust_4="132.06632" pt_clust_5="43.40128" pt_clust_6="43.40128"></scales>
<clustering>
<clus scale="   43.401">  5  6 -1 -1</clus>
<clus scale="   48.948">  2  3  1 -1</clus>
<clus scale="  132.066">  1  4  2 -1</clus>
<clus scale="  132.066">  1  3  2 -1</clus>
</clustering>
</event>
<event>
 6    0  0.6207838E+002  0.1142995E+03  0.7546771E-02  0.1252809E+00
         21   -1    0    0  504  501  0.00000000000E+00  0.00000000000E+00  0.59029699798E+03  0.59029699798E+03  0.00000000000E+00 0.  1.
         21   -1    0    0  506  502 -0.00000000000E+00 -0.00000000000E+00 -0.13730453054E+03  0.13730453054E+03  0.00000000000E+00 0. -1.
         21    1    1    2  503  505 -0.61264843370E+02  0.29441894289E+02  0.29006019981E+03  0.29791798483E+03  0.00000000000E+00 0.  1.
         21    1    1    2  504  503 -0.30083202045E+02  0.47308917585E+02  0.19841006951E+03  0.20617877779E+03  0.00000000000E+00 0.  1.
         21    1    1    2  505  502  0.46544545064E+01 -0.63555872642E+02 -0.97229308900E+02  0.11625210279E+03  0.00000000000E+00 0. -1.
         21    1    1    2  506  501  0.86693590909E+02 -0.13194939232E+02  0.61751507019E+02  0.10725266311E+03  0.00000000000E+00 0.  1.
<scales pt_clust_3="32.43118" pt_clust_4="32.43118" pt_clust_5="63.72608" pt_clust_6="108.57800"></scales>
<clustering>
<clus scale="   32.431">  3  4 -1 -1</clus>
<clus scale="   63.726">  2  5  1 -1</clus>
<clus scale="  108.578">  2  6  1 -1</clus>
<clus scale="  114.299">  1  3  2 -1</clus>
</clustering>
</event>
<event>
 6    0  0.6207838E+002  0.1305008E+03  0.7546771E-02  0.1226715E+00
         21   -1    0    0  504  501  0.00000000000E+00  0.00000000000E+00  0.87022432380E+03  0.87022432380E+03  0.00000000000E+00 0. -1.
         21   -1    0    0  503  502 -0.00000000000E+00 -0.00000000000E+00 -0.15148662483E+04  0.15148662483E+04  0.00000000000E+00 0. -1.
         21    1    1    2  503  506 -0.71037215720E+02  0.22022530521E+02 -0.61069349476E+03  0.61520551234E+03  0.00000000000E+00 0. -1.
         21    1    1    2  504  502  0.30174726171E+02 -0.19010937420E+02 -0.52110191933E+02  0.63145878285E+02  0.00000000000E+00 0. -1.
         21    1    1    2  505  501  0.11347948100E+03  0.29176548840E+02  0.85658508446E+03  0.86456166381E+03  0.00000000000E+00 0. -1.
         21    1    1    2  506  505 -0.72616991447E+02 -0.32188141942E+02 -0.83842332231E+03  0.84217751770E+03  0.00000000000E+00 0. -1.
<scales pt_clust_3="53.04411" pt_clust_4="35.66413" pt_clust_5="117.23728" pt_clust_6="53.04411"></scales>
<clustering>
<clus scale="   35.664">  2  4  1 -1</clus>
<clus scale="   53.044">  3  6 -1 -1</clus>
<clus scale="  117.237">  1  5  2 -1</clus>
<clus scale="  117.237">  1  3  2 -1</clus>
</clustering>
</event>
<event>
 6    0  0.6207838E+002  0.9549294E+02  0.7546771E-02  0.1290070E+00
         21   -1    0    0  505  501  0.00000000000E+00  0.00000000000E+00  0.38017509954E+03  0.38017509954E+03  0.00000000000E+00 0. -1.
         21   -1    0    0  503  502 -0.00000000000E+00 -0.00000000000E+00 -0.35903290709E+03  0.35903290709E+03  0.00000000000E+00 0. -1.
         21    1    1    2  503  501  0.36540594029E+02  0.28279436029E+02 -0.10530263146E+03  0.11499385073E+03  0.00000000000E+00 0. -1.
         21    1    1    2  504  506  0.54887031297E+02 -0.65630337988E+02 -0.40160135161E+02  0.94513300255E+02  0.00000000000E+00 0. -1.
         21    1    1    2  505  504  0.28997409611E+02  0.16387895754E+02  0.32663421264E+03  0.32832807032E+03  0.00000000000E+00 0. -1.
         21    1    1    2  506  502 -0.12042503494E+03  0.20963006205E+02 -0.16002925357E+03  0.20137278532E+03  0.00000000000E+00 0. -1.
<scales pt_clust_3="49.23850" pt_clust_4="14000.00000" pt_clust_5="33.30785" pt_clust_6="95.49294"></scales>
<clustering>
<clus scale="   33.308">  1  5  2 -1</clus>
<clus scale="   49.239">  2  3  1 -1</clus>
<clus scale="   95.493">  2  6  1 -1</clus>
<clus scale="   33.308">  1  3  2 -1</clus>
</clustering>
</event>
<event>
 6    0  0.6207838E+002  0.9472285E+02  0.7546771E-02  0.1291802E+00
         21   -1    0    0  505  501  0.00000000000E+00  0.00000000000E+00  0.23634946935E+03  0.23634946935E+03  0.00000000000E+00 0.  1.
         21   -1    0    0  504  502 -0.00000000000E+00 -0.00000000000E+00 -0.18296496155E+03  0.18296496155E+03  0.00000000000E+00 0.  1.
         21    1    1    2  503  502 -0.22060350038E+02 -0.80322478358E+02 -0.12072074745E+03  0.14666921435E+03  0.00000000000E+00 0.  1.
         21    1    1    2  504  506 -0.27636526551E+02  0.64581244231E+02  0.53442216026E+02  0.88264291534E+02  0.00000000000E+00 0.  1.
         21    1    1    2  505  503  0.40130676600E+02 -0.54749964829E+02  0.65868304361E+02  0.94586803374E+02  0.00000000000E+00 0.  1.
         21    1    1    2  506  501  0.95661999891E+01  0.70491198956E+02  0.54794734863E+02  0.89794121640E+02  0.00000000000E+00 0.  1.
<scales pt_clust_3="86.91352" pt_clust_4="37.42577" pt_clust_5="67.88247" pt_clust_6="37.42577"></scales>
<clustering>
<clus scale="   37.426">  4  6 -1 -1</clus>
<clus scale="   67.882">  1  5  2 -1</clus>
<clus scale="   86.914">  2  3  1 -1</clus>
<clus scale="   67.882">  1  3  2 -1</clus>
</clustering>
</event>
<event>
 6    0  0.6207838E+002  0.1214433E+03  0.7546771E-02  0.1240735E+00
         21   -1    0    0  503  501  0.00000000000E+00  0.00000000000E+00  0.32191708969E+02  0.32191708969E+02  0.00000000000E+00 0.  1.
         21   -1    0    0  505  502 -0.00000000000E+00 -0.00000000000E+00 -0.19648214535E+04  0.19648214535E+04  0.00000000000E+00 0.  1.
         21    1    1    2  503  506 -0.36029183440E+02 -0.14006001858E+03 -0.26670078379E+03  0.30338790176E+03  0.00000000000E+00 0.  1.
         21    1    1    2  504  501  0.35918151835E+01  0.33903454383E+02 -0.53348357588E+02  0.63311867867E+02  0.00000000000E+00 0.  1.
         21    1    1    2  505  504 -0.51837966854E+02  0.12852102719E+03 -0.12373118167E+04  0.12450483368E+04  0.00000000000E+00 0.  1.
         21    1    1    2  506  502  0.84275335110E+02 -0.22364462994E+02 -0.37526878641E+03  0.38526505599E+03  0.00000000000E+00 0.  1.
<scales pt_clust_3="14000.00000" pt_clust_4="34.09319" pt_clust_5="121.44331" pt_clust_6="86.45443"></scales>
<clustering>
<clus scale="   34.093">  1  4  2 -1</clus>
<clus scale="   86.454">  2  6  1 -1</clus>
<clus scale="  121.443">  2  5  1 -1</clus>
<clus scale="   34.093">  1  3  2 -1</clus>
</clustering>
</event>
<event>
 6    0  0.6207838E+002  0.9599834E+02  0.7546771E-02  0.1288943E+00
         21   -1    0    0  504  501  0.00000000000E+00  0.00000000000E+00  0.75420523119E+03  0.75420523119E+03  0.00000000000E+00 0.  1.
         21   -1    0    0  505  502 -0.00000000000E+00 -0.00000000000E+00 -0.44401001559E+03  0.44401001559E+03  0.00000000000E+00 0.  1.
         21    1    1    2  503  502 -0.12713711451E+03 -0.84946882028E+02  0.49586031759E+03  0.51890006091E+03  0.00000000000E+00 0.  1.
         21    1    1    2  504  503  0.56148726029E+02  0.10286825004E+02  0.19741904145E+03  0.20550614621E+03  0.00000000000E+00 0. -1.
         21    1    1    2  505  506  0.45863066245E+01  0.60386907241E+02 -0.39939402561E+03  0.40395940447E+03  0.00000000000E+00 0.  1.
         21    1    1    2  506  501  0.66402081852E+02  0.14273149783E+02  0.16309882169E+02  0.69849635184E+02  0.00000000000E+00 0. -1.
<scales pt_clust_3="95.99834" pt_clust_4="57.08326" pt_clust_5="60.62117" pt_clust_6="14000.00000"></scales>
<clustering>
<clus scale="   57.083">  1  4  2 -1</clus>
<clus scale="   60.621">  2  5  1 -1</clus>
<clus scale="   95.998">  1  3  2 -1</clus>
<clus scale="   57.083">  1  3  2 -1</clus>
</clustering>
</event>
<event>
 6    0  0.6207838E+002  0.1070278E+03  0.7546771E-02  0.1266175E+00
         21   -1    0    0  503  501  0.00000000000E+00  0.00000000000E+00  0.44829627283E+03  0.44829627283E+03  0.00000000000E+00 0.  1.
         21   -1    0    0  505  502 -0.00000000000E+00 -0.00000000000E+00 -0.18023824854E+03  0.18023824854E+03  0.00000000000E+00 0.  1.
         21    1    1    2  503  504 -0.57272137755E+02  0.16986085671E+01  0.19715360052E+03  0.20531080155E+03  0.00000000000E+00 0.  1.
         21    1    1    2  504  506 -0.45661898511E+02  0.37544722139E+02  0.19190365067E+03  0.20080245585E+03  0.00000000000E+00 0. -1.
         21    1    1    2  505  501  0.37018815466E+02 -0.65431835937E+02  0.75982433803E+01  0.75560910232E+02  0.00000000000E+00 0. -1.
         21    1    1    2  506  502  0.65915220799E+02  0.26188505231E+02 -0.12859747028E+03  0.14686035374E+03  0.00000000000E+00 0.  1.
<scales pt_clust_3="37.18999" pt_clust_4="37.18999" pt_clust_5="100.13972" pt_clust_6="70.92710"></scales>
<clustering>
<clus scale="   37.190">  3  4 -1 -1</clus>
<clus scale="   70.927">  2  6  1 -1</clus>
<clus scale="  100.140">  2  5  1 -1</clus>
<clus scale="  107.028">  1  3  2 -1</clus>
</clustering>
</event>
<event>
 6    0  0.6207838E+002  0.8982708E+02  0.7546771E-02  0.1303271E+00
         21   -1    0    0  506  501  0.00000000000E+00  0.00000000000E+00  0.21529979268E+03  0.21529979268E+03  0.00000000000E+00 0. -1.
         21   -1    0    0  505  502 -0.00000000000E+00 -0.00000000000E+00 -0.17996916054E+04  0.17996916054E+04  0.00000000000E+00 0.  1.
         21    1    1    2  503  502 -0.58859493535E+02 -0.12976043421E+02 -0.14394218703E+04  0.14406832193E+04  0.00000000000E+00 0.  1.
         21    1    1    2  504  501  0.47105668985E+02  0.44574952055E+02 -0.18165216743E+03  0.19288177813E+03  0.00000000000E+00 0.  1.
         21    1    1    2  505  504 -0.31023665425E+02  0.47966355965E+02 -0.15734859317E+03  0.16739718903E+03  0.00000000000E+00 0. -1.
         21    1    1    2  506  503  0.42777489975E+02 -0.79565264599E+02  0.19403081824E+03  0.21402921157E+03  0.00000000000E+00 0. -1.
<scales pt_clust_3="89.82708" pt_clust_4="66.35777" pt_clust_5="57.12477" pt_clust_6="14000.00000"></scales>
<clustering>
<clus scale="   57.125">  2  5  1 -1</clus>
<clus scale="   66.358">  2  4  1 -1</clus>
<clus scale="   89.827">  2  3  1 -1</clus>
<clus scale="   89.827">  1  3  2 -1</clus>
</clustering>
</event>
<event>
 6    0  0.6207838E+002  0.2416503E+03  0.7546771E-02  0.1118698E+00
         21   -1    0    0  502  501  0.00000000000E+00  0.00000000000E+00  0.38867813489E+03  0.38867813489E+03  0.00000000000E+00 0. -1.
         21   -1    0    0  506  502 -0.00000000000E+00 -0.00000000000E+00 -0.17130594687E+04  0.17130594687E+04  0.00000000000E+00 0. -1.
         21    1    1    2  503  504 -0.18940955558E+03 -0.15548689866E+03 -0.95615279507E+02  0.26304835502E+03  0.00000000000E+00 0.  1.
         21    1    1    2  504  501  0.15644696318E+00  0.31966434852E+02  0.29470602571E+03  0.29643467918E+03  0.00000000000E+00 0. -1.
         21    1    1    2  505  503  0.14868267458E+03  0.89050961686E+02 -0.90148399974E+03  0.91799238194E+03  0.00000000000E+00 0. -1.
         21    1    1    2  506  505  0.40570434040E+02  0.34469502127E+02 -0.62198808025E+03  0.62426218744E+03  0.00000000000E+00 0.  1.
<scales pt_clust_3="227.78705" pt_clust_4="31.96682" pt_clust_5="44.62706" pt_clust_6="44.62706"></scales>
<clustering>
<clus scale="   31.967">  1  4  2 -1</clus>
<clus scale="   44.627">  5  6 -1 -1</clus>
<clus scale="  227.787">  1  3  2 -1</clus>
<clus scale="   31.967">  1  3  2 -1</clus>
</clustering>
</event>
<event>
 6    0  0.6207838E+002  0.1195856E+03  0.7546771E-02  0.1243782E+00
         21   -1    0    0  504  501  0.00000000000E+00  0.00000000000E+00  0.16344948196E+03  0.16344948196E+03  0.00000000000E+00 0.  1.
         21   -1    0    0  503  502 -0.00000000000E+00 -0.00000000000E+00 -0.81870881085E+03  0.81870881085E+03  0.00000000000E+00 0. -1.
         21    1    1    2  503  505 -0.75757409677E+02 -0.14619521430E+02 -0.59847077896E+03  0.60342372243E+03  0.00000000000E+00 0. -1.
         21    1    1    2  504  502  0.23914612870E+02  0.56874268931E+02 -0.81583873652E+02  0.10228645861E+03  0.00000000000E+00 0. -1.
         21    1    1    2  505  506 -0.43852541871E+02  0.57156505731E+02 -0.76644849793E+02  0.10518718827E+03  0.00000000000E+00 0. -1.
         21    1    1    2  506  501  0.95695338678E+02 -0.99411253232E+02  0.10144017352E+03  0.17126092350E+03  0.00000000000E+00 0.  1.
<scales pt_clust_3="64.68691" pt_clust_4="61.69758" pt_clust_5="119.58560" pt_clust_6="14000.00000"></scales>
<clustering>
<clus scale="   61.698">  2  4  1 -1</clus>
<clus scale="   64.687">  2  3  1 -1</clus>
<clus scale="  119.586">  2  5  1 -1</clus>
<clus scale="  119.586">  1  3  2 -1</clus>
</clustering>
</event>
<event>
 6    0  0.6207838E+002  0.1205461E+03  0.7546771E-02  0.1242199E+00
         21   -1    0    0  504  501  0.00000000000E+00  0.00000000000E+00  0.14668696823E+03  0.14668696823E+03  0.00000000000E+00 0.  1.
         21   -1    0    0  506  502 -0.00000000000E+00 -0.00000000000E+00 -0.24672620636E+03  0.24672620636E+03  0.00000000000E+00 0.  1.
         21    1    1    2  503  505  0.38510323313E+02  0.19881824639E+02 -0.74361833160E+02  0.86069821561E+02  0.00000000000E+00 0.  1.
         21    1    1    2  504  502  0.22889453520E+02 -0.42991375111E+02 -0.66592204022E+02  0.82502769971E+02  0.00000000000E+00 0.  1.
         21    1    1    2  505  501 -0.11490319200E+03  0.33177549697E+02  0.91453480925E+02  0.15055640972E+03  0.00000000000E+00 0.  1.
         21    1    1    2  506  503  0.53503415162E+02 -0.10067999225E+02 -0.50538681877E+02  0.74284173336E+02  0.00000000000E+00 0.  1.
<scales pt_clust_3="35.13175" pt_clust_4="48.70509" pt_clust_5="113.93395" pt_clust_6="35.13175"></scales>
<clustering>
<clus scale="   35.132">  3  6 -1 -1</clus>
<clus scale="   48.705">  2  4  1 -1</clus>
<clus scale="  113.934">  1  5  2 -1</clus>
<clus scale="  113.934">  1  3  2 -1</clus>
</clustering>
</event>
<event>
 6    0  0.6207838E+002  0.1636798E+03  0.7546771E-02  0.1184604E+00
         21   -1    0    0  503  501  0.00000000000E+00  0.00000000000E+00  0.93945881859E+03  0.93945881859E+03  0.00000000000E+00 0.  1.
         21   -1    0    0  504  502 -0.00000000000E+00 -0.00000000000E+00 -0.53990554823E+02  0.53990554823E+02  0.00000000000E+00 0.  1.
         21    1    1    2  503  506 -0.11755430941E+03 -0.68868990727E+02  0.37217636798E+03  0.39632966383E+03  0.00000000000E+00 0.  1.
         21    1    1    2  504  505  0.56043473698E+02  0.55981218844E+02  0.16142095052E+03  0.17980959672E+03  0.00000000000E+00 0.  1.
         21    1    1    2  505  501  0.93940550190E+02  0.48441311758E+02  0.35369867364E+03  0.36915327358E+03  0.00000000000E+00 0.  1.
         21    1    1    2  506  502 -0.32429714481E+02 -0.35553539874E+02 -0.18277283788E+01  0.48156839285E+02  0.00000000000E+00 0.  1.
<scales pt_clust_3="155.49387" pt_clust_4="44.25070" pt_clust_5="44.25070" pt_clust_6="48.12214"></scales>
<clustering>
<clus scale="   44.251">  4  5 -1 -1</clus>
<clus scale="   48.122">  2  6  1 -1</clus>
<clus scale="  155.494">  1  3  2 -1</clus>
<clus scale="  155.494">  1  3  2 -1</clus>
</clustering>
</event>
<event>
 6    0  0.6207838E+002  0.9498029E+02  0.7546771E-02  0.1291220E+00
         21   -1    0    0  506  501  0.00000000000E+00  0.00000000000E+00  0.44714547789E+03  0.44714547789E+03  0.00000000000E+00 0. -1.
         21   -1    0    0  503  502 -0.00000000000E+00 -0.00000000000E+00 -0.25285598864E+03  0.25285598864E+03  0.00000000000E+00 0. -1.
         21    1    1    2  503  505  0.23546510641E+02  0.81486449602E+02 -0.94200411978E+02  0.12676039306E+03  0.00000000000E+00 0. -1.
         21    1    1    2  504  502  0.45266373997E+02 -0.33766483751E+02 -0.43717180348E+02  0.71417168085E+02  0.00000000000E+00 0. -1.
         21    1    1    2  505  501 -0.21101727845E+02 -0.12909215925E+03 -0.24304647323E+02  0.13304429480E+03  0.00000000000E+00 0. -1.
         21    1    1    2  506  504 -0.47711156793E+02  0.81372193395E+02  0.35651172890E+03  0.36877961059E+03  0.00000000000E+00 0. -1.
<scales pt_clust_3="79.42260" pt_clust_4="56.47318" pt_clust_5="14000.00000" pt_clust_6="94.98029"></scales>
<clustering>
<clus scale="   56.473">  2  4  1 -1</clus>
<clus scale="   79.423">  2  3  1 -1</clus>
<clus scale="   94.980">  1  6  2 -1</clus>
<clus scale="   94.980">  1  3  2 -1</clus>
</clustering>
</event>
<event>
 6    0  0.6207838E+002  0.1338873E+03  0.7546771E-02  0.1221799E+00
         21   -1    0    0  504  501  0.00000000000E+00  0.00000000000E+00  0.34279173675E+03  0.34279173675E+03  0.00000000000E+00 0.  1.
         21   -1    0    0  505  502 -0.00000000000E+00 -0.00000000000E+00 -0.15859426640E+04  0.15859426640E+04  0.00000000000E+00 0.  1.
         21    1    1    2  503  502 -0.10497905928E+03 -0.42970481323E+02 -0.54153530445E+03  0.55328794594E+03  0.00000000000E+00 0.  1.
         21    1    1    2  504  503 -0.32836368040E+02  0.13642158493E+02  0.33077861641E+03  0.33268427770E+03  0.00000000000E+00 0.  1.
         21    1    1    2  505  506  0.58868041539E+02  0.24729100939E+02 -0.58044254882E+03  0.58394394186E+03  0.00000000000E+00 0.  1.
         21    1    1    2  506  501  0.78947385779E+02  0.45992218910E+01 -0.45195169042E+03  0.45881823529E+03  0.00000000000E+00 0.  1.
<scales pt_clust_3="127.53027" pt_clust_4="35.55750" pt_clust_5="37.93578" pt_clust_6="37.93578"></scales>
<clustering>
<clus scale="   35.557">  1  4  2 -1</clus>
<clus scale="   37.936">  5  6 -1 -1</clus>
<clus scale="  127.530">  1  3  2 -1</clus>
<clus scale="   35.557">  1  3  2 -1</clus>
</clustering>
</event>
<event>
 6    0  0.6207838E+002  0.1647168E+03  0.7546771E-02  0.1183472E+00
         21   -1    0    0  505  501  0.00000000000E+00  0.00000000000E+00  0.12634936696E+03  0.12634936696E+03  0.00000000000E+00 0.  1.
         21   -1    0    0  503  502 -0.00000000000E+00 -0.00000000000E+00 -0.17663413978E+04  0.17663413978E+04  0.00000000000E+00 0. -1.
         21    1    1    2  503  506  0.33506050737E+02 -0.23408908542E+02 -0.69181415980E+03  0.69302053659E+03  0.00000000000E+00 0. -1.
         21    1    1    2  504  502  0.10497600405E+03  0.74312182672E+02 -0.66512617409E+03  0.67744748090E+03  0.00000000000E+00 0. -1.
         21    1    1    2  505  504 -0.78211915325E+02 -0.15042936918E+03  0.43939246498E+02  0.17514781241E+03  0.00000000000E+00 0.  1.
         21    1    1    2  506  501 -0.60270139462E+02  0.99526095048E+02 -0.32699094344E+03  0.34707493484E+03  0.00000000000E+00 0.  1.
<scales pt_clust_3="40.87337" pt_clust_4="164.71679" pt_clust_5="14000.00000" pt_clust_6="104.75029"></scales>
<clustering>
<clus scale="   40.873">  2  3  1 -1</clus>
<clus scale="  104.750">  2  6  1 -1</clus>
<clus scale="  164.717">  2  4  1 -1</clus>
<clus scale="  164.717">  1  3  2 -1</clus>
</clustering>
</event>
<event>
 6    0  0.6207838E+002  0.1666495E+03  0.7546771E-02  0.1181388E+00
         21   -1    0    0  504  501  0.00000000000E+00  0.00000000000E+00  0.16091685662E+04  0.16091685662E+04  0.00000000000E+00 0. -1.
         21   -1    0    0  503  502 -0.00000000000E+00 -0.00000000000E+00 -0.63657194521E+03  0.63657194521E+03  0.00000000000E+00 0.  1.
         21    1    1    2  503  501 -0.13603002791E+03  0.15416584602E+03  0.85734030699E+03  0.88164827372E+03  0.00000000000E+00 0. -1.
         21    1    1    2  504  506  0.76035772226E+02  0.28404830394E+02  0.30470743569E+03  0.31533298973E+03  0.00000000000E+00 0. -1.
         21    1    1    2  505  502  0.35382627380E+02 -0.41811276856E+02 -0.60595464805E+03  0.60842513812E+03  0.00000000000E+00 0.  1.
         21    1    1    2  506  505  0.24611628303E+02 -0.14075939956E+03  0.41650352638E+03  0.44033410986E+03  0.00000000000E+00 0. -1.
<scales pt_clust_3="14000.00000" pt_clust_4="85.02817" pt_clust_5="54.77329" pt_clust_6="166.64952"></scales>
<clustering>
<clus scale="   54.773">  2  5  1 -1</clus>
<clus scale="   85.028">  1  4  2 -1</clus>
<clus scale="  166.650">  2  6  1 -1</clus>
<clus scale="   85.028">  1  3  2 -1</clus>
</clustering>
</event>
<event>
 6    0  0.6207838E+002  0.1630766E+03  0.7546771E-02  0.1185266E+00
         21   -1    0    0  504  501  0.00000000000E+00  0.00000000000E+00  0.52711965628E+03  0.52711965628E+03  0.00000000000E+00 0. -1.
         21   -1    0    0  506  502 -0.00000000000E+00 -0.00000000000E+00 -0.11395036950E+04  0.11395036950E+04  0.00000000000E+00 0. -1.
         21    1    1    2  503  505 -0.10536686663E+03 -0.68026840020E+02 -0.26246496436E+03  0.29089119110E+03  0.00000000000E+00 0. -1.
         21    1    1    2  504  502  0.33841864731E+02  0.57916581052E+02 -0.20557707718E+03  0.21624416022E+03  0.00000000000E+00 0. -1.
         21    1    1    2  505  501  0.11792542973E+03  0.11546553434E+03  0.48882810422E+03  0.51593760483E+03  0.00000000000E+00 0. -1.
         21    1    1    2  506  503 -0.46400427824E+02 -0.10535527537E+03 -0.63317010141E+03  0.64355039513E+03  0.00000000000E+00 0. -1.
<scales pt_clust_3="163.07662" pt_clust_4="67.07907" pt_clust_5="14000.00000" pt_clust_6="69.50423"></scales>
<clustering>
<clus scale="   67.079">  2  4  1 -1</clus>
<clus scale="   69.504">  2  6  1 -1</clus>
<clus scale="  163.077">  2  3  1 -1</clus>
<clus scale="  163.077">  1  3  2 -1</clus>
</clustering>
</event>
<event>
 6    0  0.6207838E+002  0.1278237E+03  0.7546771E-02  0.1230721E+00
         21   -1    0    0  505  501  0.00000000000E+00  0.00000000000E+00  0.10537404950E+03  0.10537404950E+03  0.00000000000E+00 0.  1.
         21   -1    0    0  506  502 -0.00000000000E+00 -0.00000000000E+00 -0.49420938841E+03  0.49420938841E+03  0.00000000000E+00 0.  1.
         21    1    1    2  503  502 -0.10587289445E+03 -0.72194992055E+02 -0.50083792802E+02  0.13758478462E+03  0.00000000000E+00 0.  1.
         21    1    1    2  504  501  0.12036531785E+02 -0.57717208826E+02 -0.62120544782E+02  0.85645293952E+02  0.00000000000E+00 0.  1.
         21    1    1    2  505  503  0.75253405634E+01  0.34653178826E+02  0.28342746882E+02  0.45395868250E+02  0.00000000000E+00 0.  1.
         21    1    1    2  506  504  0.86311022099E+02  0.95259022055E+02 -0.30497374821E+03  0.33095749110E+03  0.00000000000E+00 0.  1.
<scales pt_clust_3="127.82370" pt_clust_4="53.45555" pt_clust_5="35.46087" pt_clust_6="14000.00000"></scales>
<clustering>
<clus scale="   35.461">  1  5  2 -1</clus>
<clus scale="   53.456">  1  4  2 -1</clus>
<clus scale="  127.824">  1  3  2 -1</clus>
<clus scale="   35.461">  1  3  2 -1</clus>
</clustering>
</event>
<event>
 6    0  0.6207838E+002  0.1166680E+03  0.7546771E-02  0.1248697E+00
         21   -1    0    0  504  501  0.00000000000E+00  0.00000000000E+00  0.11094806262E+03  0.11094806262E+03  0.00000000000E+00 0. -1.
         21   -1    0    0  503  502 -0.00000000000E+00 -0.00000000000E+00 -0.23874344833E+03  0.23874344833E+03  0.00000000000E+00 0.  1.
         21    1    1    2  503  505 -0.91276690509E+02  0.95908337216E+01 -0.65417269647E+02  0.11270686532E+03  0.00000000000E+00 0.  1.
         21    1    1    2  504  506  0.46169743129E+02 -0.60958175533E+01  0.35313114245E+02  0.58445018693E+02  0.00000000000E+00 0. -1.
         21    1    1    2  505  501 -0.46193669598E+02 -0.20858534404E+02 -0.11909340497E+02  0.52065016657E+02  0.00000000000E+00 0.  1.
         21    1    1    2  506  502  0.91300616978E+02  0.17363518236E+02 -0.85781889817E+02  0.12647461028E+03  0.00000000000E+00 0. -1.
<scales pt_clust_3="34.42000" pt_clust_4="46.57042" pt_clust_5="34.42000" pt_clust_6="107.07993"></scales>
<clustering>
<clus scale="   34.420">  3  5 -1 -1</clus>
<clus scale="   46.570">  1  4  2 -1</clus>
<clus scale="  107.080">  2  6  1 -1</clus>
<clus scale="   46.570">  1  3  2 -1</clus>
</clustering>
</event>
<event>
 6    0  0.6207838E+002  0.1381289E+03  0.7546771E-02  0.1215869E+00
         21   -1    0    0  503  501  0.00000000000E+00  0.00000000000E+00  0.17537717608E+03  0.17537717608E+03  0.00000000000E+00 0. -1.
         21   -1    0    0  504  502 -0.00000000000E+00 -0.00000000000E+00 -0.91713037390E+03  0.91713037390E+03  0.00000000000E+00 0. -1.
         21    1    1    2  503  506 -0.13345972325E+02  0.64971282167E+02 -0.18786651515E+02  0.68937078258E+02  0.00000000000E+00 0. -1.
         21    1    1    2  504  505  0.13070004248E+02 -0.28034974059E+02 -0.79861182810E+03  0.79921063354E+03  0.00000000000E+00 0. -1.
         21    1    1    2  505  501  0.47659165745E+02 -0.11108873813E+03  0.60107449311E+02  0.13500003437E+03  0.00000000000E+00 0. -1.
         21    1    1    2  506  502 -0.47383197668E+02  0.74152430020E+02  0.15537832487E+02  0.89359803813E+02  0.00000000000E+00 0. -1.
<scales pt_clust_3="37.56287" pt_clust_4="30.93194" pt_clust_5="130.67398" pt_clust_6="37.56287"></scales>
<clustering>
<clus scale="   30.932">  2  4  1 -1</clus>
<clus scale="   37.563">  3  6 -1 -1</clus>
<clus scale="  130.674">  1  5  2 -1</clus>
<clus scale="  130.674">  1  3  2 -1</clus>
</clustering>
</event>
<event>
 6    0  0.6207838E+002  0.1670057E+03  0.7546771E-02  0.1181007E+00
         21   -1    0    0  504  501  0.00000000000E+00  0.00000000000E+00  0.43613902337E+03  0.43613902337E+03  0.00000000000E+00 0.  1.
         21   -1    0    0  503  502 -0.00000000000E+00 -0.00000000000E+00 -0.17810480662E+03  0.17810480662E+03  0.00000000000E+00 0.  1.
         21    1    1    2  503  505  0.91781651320E+02 -0.30335150674E+01 -0.77730101434E+02  0.12031227037E+03  0.00000000000E+00 0.  1.
         21    1    1    2  504  506 -0.91887209684E+02 -0.12010750581E+03  0.99316229102E+02  0.18092204293E+03  0.00000000000E+00 0.  1.
         21    1    1    2  505  501  0.49280249387E+02  0.13958701053E+03  0.20324058780E+03  0.25143550469E+03  0.00000000000E+00 0.  1.
         21    1    1    2  506  502 -0.49174691023E+02 -0.16445989647E+02  0.33207501285E+02  0.61574012004E+02  0.00000000000E+00 0.  1.
<scales pt_clust_3="91.83177" pt_clust_4="30.40667" pt_clust_5="158.72751" pt_clust_6="30.40667"></scales>
<clustering>
<clus scale="   30.407">  4  6 -1 -1</clus>
<clus scale="   91.832">  2  3  1 -1</clus>
<clus scale="  158.728">  1  5  2 -1</clus>
<clus scale="  158.728">  1  3  2 -1</clus>
</clustering>
</event>
<event>
 6    0  0.6207838E+002  0.1835400E+03  0.7546771E-02  0.1164420E+00
         21   -1    0    0  502  501  0.00000000000E+00  0.00000000000E+00  0.22469239457E+03  0.22469239457E+03  0.00000000000E+00 0.  1.
         21   -1    0    0  505  502 -0.00000000000E+00 -0.00000000000E+00 -0.52488301005E+03  0.52488301005E+03  0.00000000000E+00 0.  1.
         21    1    1    2  503  506 -0.57623182453E+01  0.87883366163E+02  0.37520804845E+02  0.95731401097E+02  0.00000000000E+00 0.  1.
         21    1    1    2  504  503  0.31080666616E+02  0.12218426721E+03  0.30489435305E+02  0.12970970918E+03  0.00000000000E+00 0.  1.
         21    1    1    2  505  504  0.74954650357E+02 -0.16249363288E+03 -0.37229879865E+03  0.41307236148E+03  0.00000000000E+00 0.  1.
         21    1    1    2  506  501 -0.10027299873E+03 -0.47574000489E+02  0.40979430226E+01  0.11106193287E+03  0.00000000000E+00 0. -1.
<scales pt_clust_3="31.59371" pt_clust_4="31.59371" pt_clust_5="179.60526" pt_clust_6="110.98630"></scales>
<clustering>
<clus scale="   31.594">  3  4 -1 -1</clus>
<clus scale="  110.986">  1  6  2 -1</clus>
<clus scale="  179.605">  2  5  1 -1</clus>
<clus scale="  110.986">  1  3  2 -1</clus>
</clustering>
</event>
<event>
 6    0  0.6207838E+002  0.9339326E+02  0.7546771E-02  0.1294836E+00
         21   -1    0    0  504  501  0.00000000000E+00  0.00000000000E+00  0.24056418192E+04  0.24056418192E+04  0.00000000000E+00 0.  1.
         21   -1    0    0  503  502 -0.00000000000E+00 -0.00000000000E+00 -0.50270837725E+02  0.50270837725E+02  0.00000000000E+00 0.  1.
         21    1    1    2  503  505  0.74667762729E+02 -0.54351322940E+02  0.32507219662E+02  0.97908428782E+02  0.00000000000E+00 0.  1.
         21    1    1    2  504  502 -0.69861203956E+02  0.12906428544E+02  0.18908777011E+03  0.20199343683E+03  0.00000000000E+00 0.  1.
         21    1    1    2  505  506  0.88336413449E+02  0.25324978158E+02  0.20196618843E+03  0.22188965214E+03  0.00000000000E+00 0.  1.
         21    1    1    2  506  501 -0.93142972223E+02  0.16119916239E+02  0.19318098033E+04  0.19341211392E+04  0.00000000000E+00 0.  1.
<scales pt_clust_3="50.07498" pt_clust_4="71.04339" pt_clust_5="14000.00000" pt_clust_6="93.39326"></scales>
<clustering>
<clus scale="   71.043">  2  4  1 -1</clus>
<clus scale="   50.075">  2  3  1 -1</clus>
<clus scale="   93.393">  1  6  2 -1</clus>
<clus scale="   93.393">  1  3  2 -1</clus>
</clustering>
</event>
<event>
 6    0  0.6207838E+002  0.1370096E+03  0.7546771E-02  0.1217410E+00
         21   -1    0    0  506  501  0.00000000000E+00  0.00000000000E+00  0.15082624918E+04  0.15082624918E+04  0.00000000000E+00 0. -1.
         21   -1    0    0  504  502 -0.00000000000E+00 -0.00000000000E+00 -0.14302031442E+03  0.14302031442E+03  0.00000000000E+00 0.  1.
         21    1    1    2  503  502  0.76574303068E+02 -0.26941349308E+02 -0.20814253323E+02  0.83801511528E+02  0.00000000000E+00 0.  1.
         21    1    1    2  504  501  0.17889961588E+02 -0.26453512286E+02  0.44927042005E+02  0.55120578201E+02  0.00000000000E+00 0.  1.
         21    1    1    2  505  503  0.60735199022E+01  0.14830335287E+03 -0.15016483959E+02  0.14918534414E+03  0.00000000000E+00 0.  1.
         21    1    1    2  506  505 -0.10053778456E+03 -0.94908491273E+02  0.13561458727E+04  0.13631753724E+04  0.00000000000E+00 0. -1.
<scales pt_clust_3="91.19108" pt_clust_4="31.93492" pt_clust_5="137.00955" pt_clust_6="14000.00000"></scales>
<clustering>
<clus scale="   31.935">  2  4  1 -1</clus>
<clus scale="   91.191">  2  3  1 -1</clus>
<clus scale="  137.010">  2  5  1 -1</clus>
<clus scale="  137.010">  1  3  2 -1</clus>
</clustering>
</event>
<event>
 6    0  0.6207838E+002  0.9530746E+02  0.7546771E-02  0.1290485E+00
         21   -1    0    0  504  501  0.00000000000E+00  0.00000000000E+00  0.90453887564E+02  0.90453887564E+02  0.00000000000E+00 0. -1.
         21   -1    0    0  505  502 -0.00000000000E+00 -0.00000000000E+00 -0.17038391445E+04  0.17038391445E+04  0.00000000000E+00 0. -1.
         21    1    1    2  503  502  0.18956471415E+02 -0.30249664830E+02 -0.34185351278E+03  0.34371240046E+03  0.00000000000E+00 0. -1.
         21    1    1    2  504  506 -0.67184895928E+02  0.33235590983E+02  0.64034851279E+02  0.98584364517E+02  0.00000000000E+00 0. -1.
         21    1    1    2  505  501 -0.73440683367E+02  0.11229197162E+02 -0.29360968097E+03  0.30286345703E+03  0.00000000000E+00 0. -1.
         21    1    1    2  506  503  0.12166910788E+03 -0.14215123315E+02 -0.10419569145E+04  0.10491328101E+04  0.00000000000E+00 0. -1.
<scales pt_clust_3="31.16979" pt_clust_4="75.82679" pt_clust_5="74.29420" pt_clust_6="31.16979"></scales>
<clustering>
<clus scale="   31.170">  3  6 -1 -1</clus>
<clus scale="   74.294">  2  5  1 -1</clus>
<clus scale="   75.827">  1  4  2 -1</clus>
<clus scale="   75.827">  1  3  2 -1</clus>
</clustering>
</event>
<event>
 6    0  0.6207838E+002  0.1002632E+03  0.7546771E-02  0.1279743E+00
         21   -1    0    0  503  501  0.00000000000E+00  0.00000000000E+00  0.26675940527E+02  0.26675940527E+02  0.00000000000E+00 0.  1.
         21   -1    0    0  504  502 -0.00000000000E+00 -0.00000000000E+00 -0.22235639864E+04  0.22235639864E+04  0.00000000000E+00 0.  1.
         21    1    1    2  503  505 -0.91514115376E+02  0.94401165688E+01 -0.19626424339E+03  0.21675701222E+03  0.00000000000E+00 0.  1.
         21    1    1    2  504  506 -0.22505004725E+02  0.36658823918E+02 -0.11355708105E+04  0.11363852385E+04  0.00000000000E+00 0.  1.
         21    1    1    2  505  502 -0.83963593279E+01 -0.10133800611E+03 -0.32142438666E+03  0.33712538716E+03  0.00000000000E+00 0.  1.
         21    1    1    2  506  501  0.12241547943E+03  0.55239065618E+02 -0.54362860534E+03  0.55997228906E+03  0.00000000000E+00 0.  1.
<scales pt_clust_3="100.26322" pt_clust_4="43.01563" pt_clust_5="91.51212" pt_clust_6="14000.00000"></scales>
<clustering>
<clus scale="   43.016">  2  4  1 -1</clus>
<clus scale="   91.512">  2  5  1 -1</clus>
<clus scale="  100.263">  1  3  2 -1</clus>
<clus scale="  100.263">  1  3  2 -1</clus>
</clustering>
</event>
<event>
 6    0  0.6207838E+002  0.1086066E+03  0.7546771E-02  0.1263172E+00
         21   -1    0    0  503  501  0.00000000000E+00  0.00000000000E+00  0.13534161838E+03  0.13534161838E+03  0.00000000000E+00 0. -1.
         21   -1    0    0  504  502 -0.00000000000E+00 -0.00000000000E+00 -0.18582051958E+04  0.18582051958E+04  0.00000000000E+00 0. -1.
         21    1    1    2  503  502  0.46522758933E+02 -0.62473044655E+02  0.10898431885E+03  0.13395831502E+03  0.00000000000E+00 0. -1.
         21    1    1    2  504  506 -0.52272239345E+02 -0.80422045821E+02 -0.13867564374E+04  0.13900696059E+04  0.00000000000E+00 0. -1.
         21    1    1    2  505  501 -0.17275665220E+02  0.72055423676E+02 -0.19644705926E+03  0.20995685219E+03  0.00000000000E+00 0.  1.
         21    1    1    2  506  505  0.23025145632E+02  0.70839666801E+02 -0.24864439965E+03  0.25956204114E+03  0.00000000000E+00 0. -1.
<scales pt_clust_3="77.89254" pt_clust_4="99.52824" pt_clust_5="43.35461" pt_clust_6="43.35461"></scales>
<clustering>
<clus scale="   43.355">  5  6 -1 -1</clus>
<clus scale="   77.893">  1  3  2 -1</clus>
<clus scale="   99.528">  2  4  1 -1</clus>
<clus scale="   77.893">  1  3  2 -1</clus>
</clustering>
</event>
<event>
 6    0  0.6207838E+002  0.1121987E+03  0.7546771E-02  0.1256552E+00
         21   -1    0    0  506  501  0.00000000000E+00  0.00000000000E+00  0.12722334178E+04  0.12722334178E+04  0.00000000000E+00 0. -1.
         21   -1    0    0  505  502 -0.00000000000E+00 -0.00000000000E+00 -0.12943817279E+03  0.12943817279E+03  0.00000000000E+00 0. -1.
         21    1    1    2  503  502  0.27734238931E+02 -0.11867864513E+02 -0.84633858213E+01  0.31331503583E+02  0.00000000000E+00 0.  1.
         21    1    1    2  504  503 -0.23713416077E+02 -0.13296650791E+03  0.12891070915E+03  0.18670937111E+03  0.00000000000E+00 0. -1.
         21    1    1    2  505  501 -0.62935648753E+01  0.11311599743E+03 -0.40496054875E+02  0.12031113122E+03  0.00000000000E+00 0. -1.
         21    1    1    2  506  504  0.22727420214E+01  0.31718374989E+02  0.10628439765E+04  0.10633195846E+04  0.00000000000E+00 0. -1.
<scales pt_clust_3="30.16677" pt_clust_4="14000.00000" pt_clust_5="112.19868" pt_clust_6="31.77836"></scales>
<clustering>
<clus scale="   30.167">  2  3  1 -1</clus>
<clus scale="   31.778">  1  6  2 -1</clus>
<clus scale="  112.199">  2  5  1 -1</clus>
<clus scale="   31.778">  1  3  2 -1</clus>
</clustering>
</event>
<event>
 6    0  0.6207838E+002  0.9120843E+02  0.7546771E-02  0.1299951E+00
         21   -1    0    0  504  501  0.00000000000E+00  0.00000000000E+00  0.17766677981E+04  0.17766677981E+04  0.00000000000E+00 0.  1.
         21   -1    0    0  506  502 -0.00000000000E+00 -0.00000000000E+00 -0.19949775073E+03  0.19949775073E+03  0.00000000000E+00 0.  1.
         21    1    1    2  503  501 -0.45013969040E+02 -0.18597865387E+02  0.15989238414E+04  0.15996654614E+04  0.00000000000E+00 0.  1.
         21    1    1    2  504  502 -0.78632794250E+02 -0.30472177763E+01  0.28192625452E+01  0.78742301903E+02  0.00000000000E+00 0.  1.
         21    1    1    2  505  503  0.31238614148E+02  0.10316810657E+03  0.81522181773E+02  0.13514945560E+03  0.00000000000E+00 0.  1.
         21    1    1    2  506  505  0.92408149142E+02 -0.81523023405E+02 -0.10609523829E+03  0.16260832992E+03  0.00000000000E+00 0.  1.
<scales pt_clust_3="48.70460" pt_clust_4="89.28303" pt_clust_5="91.20843" pt_clust_6="14000.00000"></scales>
<clustering>
<clus scale="   48.705">  1  3  2 -1</clus>
<clus scale="   89.283">  2  4  1 -1</clus>
<clus scale="   91.208">  1  5  2 -1</clus>
<clus scale="   48.705">  1  3  2 -1</clus>
</clustering>
</event>
<event>
 6    0  0.6207838E+002  0.1069984E+03  0.7546771E-02  0.1266232E+00
         21   -1    0    0  503  501  0.00000000000E+00  0.00000000000E+00  0.99614694644E+02  0.99614694644E+02  0.00000000000E+00 0.  1.
         21   -1    0    0  506  502 -0.00000000000E+00 -0.00000000000E+00 -0.73496732373E+03  0.73496732373E+03  0.00000000000E+00 0. -1.
         21    1    1    2  503  505 -0.11373950193E+03 -0.37562076569E+01 -0.56532894508E+02  0.12706986880E+03  0.00000000000E+00 0.  1.
         21    1    1    2  504  501  0.83701586396E+02  0.78645156994E+02 -0.47926335580E+02  0.12445059231E+03  0.00000000000E+00 0.  1.
         21    1    1    2  505  502 -0.45350148597E+02 -0.14973986792E+02 -0.46247284731E+03  0.46493224319E+03  0.00000000000E+00 0. -1.
         21    1    1    2  506  504  0.75388064133E+02 -0.59914962545E+02 -0.68420551688E+02  0.11812931407E+03  0.00000000000E+00 0.  1.
<scales pt_clust_3="14000.00000" pt_clust_4="106.99836" pt_clust_5="47.75831" pt_clust_6="88.36662"></scales>
<clustering>
<clus scale="   47.758">  2  5  1 -1</clus>
<clus scale="   88.367">  2  6  1 -1</clus>
<clus scale="  106.998">  1  4  2 -1</clus>
<clus scale="  106.998">  1  3  2 -1</clus>
</clustering>
</event>
<event>
 6    0  0.6207838E+002  0.8522803E+02  0.7546771E-02  0.1314837E+00
         21   -1    0    0  503  501  0.00000000000E+00  0.00000000000E+00  0.45597185582E+03  0.45597185582E+03  0.00000000000E+00 0. -1.
         21   -1    0    0  504  502 -0.00000000000E+00 -0.00000000000E+00 -0.21841475111E+03  0.21841475111E+03  0.00000000000E+00 0.  1.
         21    1    1    2  503  506  0.16816269272E+01 -0.66292130304E+02  0.19989135334E+03  0.21060395900E+03  0.00000000000E+00 0. -1.
         21    1    1    2  504  501  0.57545842969E+02  0.95906700600E+02  0.15124439933E+03  0.18810764894E+03  0.00000000000E+00 0. -1.
         21    1    1    2  505  502 -0.12416956748E+02  0.50556239456E+02 -0.16257210827E+03  0.17070385042E+03  0.00000000000E+00 0.  1.
         21    1    1    2  506  505 -0.46810513148E+02 -0.80170809752E+02  0.48993460317E+02  0.10497114857E+03  0.00000000000E+00 0.  1.
<scales pt_clust_3="61.06338" pt_clust_4="14000.00000" pt_clust_5="52.05876" pt_clust_6="85.22803"></scales>
<clustering>
<clus scale="   52.059">  2  5  1 -1</clus>
<clus scale="   61.063">  1  3  2 -1</clus>
<clus scale="   85.228">  2  6  1 -1</clus>
<clus scale="   61.063">  1  3  2 -1</clus>
</clustering>
</event>
<event>
 6    0  0.6207838E+002  0.1683758E+03  0.7546771E-02  0.1179552E+00
         21   -1    0    0  504  501  0.00000000000E+00  0.00000000000E+00  0.63425881958E+03  0.63425881958E+03  0.00000000000E+00 0.  1.
         21   -1    0    0  503  502 -0.00000000000E+00 -0.00000000000E+00 -0.44090355729E+02  0.44090355729E+02  0.00000000000E+00 0.  1.
         21    1    1    2  503  506  0.56873872524E+02 -0.56483236586E+02  0.13079579818E+03  0.15340317537E+03  0.00000000000E+00 0.  1.
         21    1    1    2  504  505 -0.44876845737E+02  0.69091712306E+02  0.78111264799E+02  0.11352958064E+03  0.00000000000E+00 0.  1.
         21    1    1    2  505  502 -0.59024983616E+02  0.48705028340E+02  0.16869583932E+03  0.18524150367E+03  0.00000000000E+00 0.  1.
         21    1    1    2  506  501  0.47027956830E+02 -0.61313504060E+02  0.21256556154E+03  0.22617491563E+03  0.00000000000E+00 0.  1.
<scales pt_clust_3="161.81009" pt_clust_4="58.45530" pt_clust_5="58.45530" pt_clust_6="38.16389"></scales>
<clustering>
<clus scale="   38.164">  3  6 -1 -1</clus>
<clus scale="   58.455">  4  5 -1 -1</clus>
<clus scale="  161.810">  1  3  2 -1</clus>
<clus scale="  161.810">  1  3  2 -1</clus>
</clustering>
</event>
<event>
 6    0  0.6207838E+002  0.1611203E+03  0.7546771E-02  0.1187438E+00
         21   -1    0    0  503  501  0.00000000000E+00  0.00000000000E+00  0.31764776314E+03  0.31764776314E+03  0.00000000000E+00 0.  1.
         21   -1    0    0  504  502 -0.00000000000E+00 -0.00000000000E+00 -0.15599511460E+03  0.15599511460E+03  0.00000000000E+00 0. -1.
         21    1    1    2  503  506 -0.42143944665E+02  0.85549812924E+02  0.17008465052E+03  0.19499659204E+03  0.00000000000E+00 0.  1.
         21    1    1    2  504  501 -0.86409750843E+01 -0.81259927770E+02  0.22331149141E+02  0.84714358485E+02  0.00000000000E+00 0. -1.
         21    1    1    2  505  502  0.42338435759E+02 -0.74525103566E+02 -0.72095141766E+02  0.11200108781E+03  0.00000000000E+00 0. -1.
         21    1    1    2  506  505  0.84464839908E+01  0.70235218411E+02  0.41331990644E+02  0.81930839418E+02  0.00000000000E+00 0. -1.
<scales pt_clust_3="69.90227" pt_clust_4="81.71807" pt_clust_5="139.18488" pt_clust_6="69.90227"></scales>
<clustering>
<clus scale="   69.902">  3  6 -1 -1</clus>
<clus scale="   81.718">  2  4  1 -1</clus>
<clus scale="  139.185">  2  5  1 -1</clus>
<clus scale="  161.120">  1  3  2 -1</clus>
</clustering>
</event>
<event>
 6    0  0.6207838E+002  0.1121927E+03  0.7546771E-02  0.1256562E+00
         21   -1    0    0  506  501  0.00000000000E+00  0.00000000000E+00  0.23367331845E+03  0.23367331845E+03  0.00000000000E+00 0.  1.
         21   -1    0    0  505  502 -0.00000000000E+00 -0.00000000000E+00 -0.38601905545E+03  0.38601905545E+03  0.00000000000E+00 0. -1.
         21    1    1    2  503  504 -0.21026143835E+02  0.51340650727E+02 -0.58730867877E+02  0.80791558862E+02  0.00000000000E+00 0. -1.
         21    1    1    2  504  501  0.15013927274E+02  0.93991055947E+02 -0.22918118998E+03  0.24816074317E+03  0.00000000000E+00 0. -1.
         21    1    1    2  505  503 -0.22166643821E+02 -0.35074174723E+02 -0.54930393452E+02  0.68839712053E+02  0.00000000000E+00 0. -1.
         21    1    1    2  506  502  0.28178860382E+02 -0.11025753195E+03  0.19049671431E+03  0.22190035982E+03  0.00000000000E+00 0.  1.
<scales pt_clust_3="50.82528" pt_clust_4="14000.00000" pt_clust_5="41.49166" pt_clust_6="112.19274"></scales>
<clustering>
<clus scale="   41.492">  2  5  1 -1</clus>
<clus scale="   50.825">  2  3  1 -1</clus>
<clus scale="  112.193">  1  6  2 -1</clus>
<clus scale="  112.193">  1  3  2 -1</clus>
</clustering>
</event>
<event>
 6    0  0.6207838E+002  0.1353379E+03  0.7546771E-02  0.1219744E+00
         21   -1    0    0  503  501  0.00000000000E+00  0.00000000000E+00  0.38373432081E+02  0.38373432081E+02  0.00000000000E+00 0. -1.
         21   -1    0    0  506  502 -0.00000000000E+00 -0.00000000000E+00 -0.19636704509E+04  0.19636704509E+04  0.00000000000E+00 0.  1.
         21    1    1    2  503  504 -0.53998554931E+02  0.92983908696E+02 -0.14509488837E+03  0.18059451221E+03  0.00000000000E+00 0. -1.
         21    1    1    2  504  502 -0.39156088815E+02  0.72492044361E+01 -0.84293701049E+02  0.93226489223E+02  0.00000000000E+00 0. -1.
         21    1    1    2  505  501  0.50718246276E+02 -0.98843310769E+02 -0.17868832963E+03  0.21040879196E+03  0.00000000000E+00 0. -1.
         21    1    1    2  506  505  0.42436397470E+02 -0.13898023634E+01 -0.15172200998E+04  0.15178140896E+04  0.00000000000E+00 0.  1.
<scales pt_clust_3="36.68726" pt_clust_4="36.68726" pt_clust_5="121.16926" pt_clust_6="42.45915"></scales>
<clustering>
<clus scale="   36.687">  3  4 -1 -1</clus>
<clus scale="   42.459">  2  6  1 -1</clus>
<clus scale="  121.169">  1  5  2 -1</clus>
<clus scale="  121.169">  1  3  2 -1</clus>
</clustering>
</event>
<event>
 6    0  0.6207838E+002  0.3695309E+03  0.7546771E-02  0.1054872E+00
         21   -1    0    0  503  501  0.00000000000E+00  0.00000000000E+00  0.12120973203E+04  0.12120973203E+04  0.00000000000E+00 0. -1.
         21   -1    0    0  505  502 -0.00000000000E+00 -0.00000000000E+00 -0.47386084962E+03  0.47386084962E+03  0.00000000000E+00 0.  1.
         21    1    1    2  503  504 -0.36117031613E+03 -0.79274837980E+01  0.84633696718E+03  0.92021361882E+03  0.00000000000E+00 0. -1.
         21    1    1    2  504  506  0.39920197787E+03 -0.11681798544E+03  0.16750726067E+03  0.44840533364E+03  0.00000000000E+00 0.  1.
         21    1    1    2  505  501 -0.12405963472E+02  0.71172226525E+02 -0.23381245780E+03  0.24471955210E+03  0.00000000000E+00 0.  1.
         21    1    1    2  506  502 -0.25625698266E+02  0.53573242718E+02 -0.41795299377E+02  0.72619665359E+02  0.00000000000E+00 0.  1.
<scales pt_clust_3="14000.00000" pt_clust_4="369.53090" pt_clust_5="105.48338" pt_clust_6="59.38660"></scales>
<clustering>
<clus scale="   59.387">  2  6  1 -1</clus>
<clus scale="  105.483">  2  5  1 -1</clus>
<clus scale="  369.531">  2  4  1 -1</clus>
<clus scale="  369.531">  1  3  2 -1</clus>
</clustering>
</event>
<event>
 6    0  0.6207838E+002  0.1051882E+03  0.7546771E-02  0.1269749E+00
         21   -1    0    0  504  501  0.00000000000E+00  0.00000000000E+00  0.25280890983E+03  0.25280890983E+03  0.00000000000E+00 0.  1.
         21   -1    0    0  505  502 -0.00000000000E+00 -0.00000000000E+00 -0.33472600618E+03  0.33472600618E+03  0.00000000000E+00 0.  1.
         21    1    1    2  503  506  0.62555917718E+02  0.32276743374E+02  0.13448729260E+02  0.71665189060E+02  0.00000000000E+00 0.  1.
         21    1    1    2  504  503  0.12123919919E+01 -0.10402414209E+03  0.16543642036E+03  0.19542697156E+03  0.00000000000E+00 0.  1.
         21    1    1    2  505  501 -0.17607819404E+02  0.11777902016E+03 -0.14585369152E+03  0.18829559799E+03  0.00000000000E+00 0.  1.
         21    1    1    2  506  502 -0.46160490305E+02 -0.46031621440E+02 -0.11494855446E+03  0.13214715740E+03  0.00000000000E+00 0.  1.
<scales pt_clust_3="61.88818" pt_clust_4="14000.00000" pt_clust_5="105.18822" pt_clust_6="65.18973"></scales>
<clustering>
<clus scale="   65.190">  2  6  1 -1</clus>
<clus scale="   61.888">  2  3  1 -1</clus>
<clus scale="  105.188">  2  5  1 -1</clus>
<clus scale="  105.188">  1  3  2 -1</clus>
</clustering>
</event>
<event>
 6    0  0.6207838E+002  0.1201246E+03  0.7546771E-02  0.1242892E+00
         21   -1    0    0  503  501  0.00000000000E+00  0.00000000000E+00  0.25827394437E+04  0.25827394437E+04  0.00000000000E+00 0. -1.
         21   -1    0    0  504  502 -0.00000000000E+00 -0.00000000000E+00 -0.13064367893E+03  0.13064367893E+03  0.00000000000E+00 0.  1.
         21    1    1    2  503  505  0.40133864574E+02  0.75144443036E+01  0.18842915086E+03  0.19280233103E+03  0.00000000000E+00 0. -1.
         21    1    1    2  504  506 -0.11956964823E+03  0.71780708983E+01 -0.89625966140E+02  0.14960360719E+03  0.00000000000E+00 0.  1.
         21    1    1    2  505  502  0.14543632095E+03  0.75510930863E+01  0.21702657081E+04  0.21751464287E+04  0.00000000000E+00 0. -1.
         21    1    1    2  506  501 -0.66000537298E+02 -0.22243608288E+02  0.18302687201E+03  0.19583075579E+03  0.00000000000E+00 0.  1.
<scales pt_clust_3="40.83129" pt_clust_4="120.12463" pt_clust_5="14000.00000" pt_clust_6="66.44782"></scales>
<clustering>
<clus scale="   40.831">  1  3  2 -1</clus>
<clus scale="   66.448">  1  6  2 -1</clus>
<clus scale="  120.125">  2  4  1 -1</clus>
<clus scale="   40.831">  1  3  2 -1</clus>
</clustering>
</event>
<event>
 6    0  0.6207838E+002  0.1464496E+03  0.7546771E-02  0.1204905E+00
         21   -1    0    0  504  501  0.00000000000E+00  0.00000000000E+00  0.46411864212E+03  0.46411864212E+03  0.00000000000E+00 0. -1.
         21   -1    0    0  505  502 -0.00000000000E+00 -0.00000000000E+00 -0.20115688830E+03  0.20115688830E+03  0.00000000000E+00 0. -1.
         21    1    1    2  503  502 -0.33005988117E+02 -0.30059837176E+02 -0.67434982702E+02  0.80873147303E+02  0.00000000000E+00 0. -1.
         21    1    1    2  504  506 -0.33066928581E+02  0.15324587902E+03  0.38193546840E+03  0.41285884176E+03  0.00000000000E+00 0. -1.
         21    1    1    2  505  501  0.21730908706E+02 -0.47671847165E+02  0.22355890768E+02  0.56961594582E+02  0.00000000000E+00 0. -1.
         21    1    1    2  506  503  0.44342007992E+02 -0.75514194675E+02 -0.73894622642E+02  0.11458194677E+03  0.00000000000E+00 0. -1.
<scales pt_clust_3="44.64291" pt_clust_4="14000.00000" pt_clust_5="54.56060" pt_clust_6="146.44958"></scales>
<clustering>
<clus scale="   44.643">  2  3  1 -1</clus>
<clus scale="   54.561">  2  5  1 -1</clus>
<clus scale="  146.450">  2  6  1 -1</clus>
<clus scale="  146.450">  1  3  2 -1</clus>
</clustering>
</event>
<event>
 6    0  0.6207838E+002  0.1490335E+03  0.7546771E-02  0.1201666E+00
         21   -1    0    0  506  501  0.00000000000E+00  0.00000000000E+00  0.29650107073E+03  0.29650107073E+03  0.00000000000E+00 0.  1.
         21   -1    0    0  504  502 -0.00000000000E+00 -0.00000000000E+00 -0.39963996175E+03  0.39963996175E+03  0.00000000000E+00 0.  1.
         21    1    1    2  503  502 -0.14963739309E+03 -0.27191046232E+02 -0.30546365970E+03  0.34123122630E+03  0.00000000000E+00 0.  1.
         21    1    1    2  504  501 -0.10625455987E+02  0.81580039807E+02  0.55030642897E+01  0.82452937646E+02  0.00000000000E+00 0.  1.
         21    1    1    2  505  503  0.12046389413E+03 -0.30666803591E+02  0.18786423905E+03  0.22526645322E+03  0.00000000000E+00 0.  1.
         21    1    1    2  506  505  0.39798954951E+02 -0.23722189984E+02  0.89574653382E+01  0.47190415320E+02  0.00000000000E+00 0.  1.
<scales pt_clust_3="14000.00000" pt_clust_4="77.80186" pt_clust_5="149.03352" pt_clust_6="46.33248"></scales>
<clustering>
<clus scale="   46.332">  1  6  2 -1</clus>
<clus scale="   77.802">  1  4  2 -1</clus>
<clus scale="  149.034">  1  5  2 -1</clus>
<clus scale="   46.332">  1  3  2 -1</clus>
</clustering>
</event>
<event>
 6    0  0.6207838E+002  0.6903512E+02  0.7546771E-02  0.1363405E+00
         21   -1    0    0  504  501  0.00000000000E+00  0.00000000000E+00  0.11736326596E+04  0.11736326596E+04  0.00000000000E+00 0. -1.
         21   -1    0    0  501  502 -0.00000000000E+00 -0.00000000000E+00 -0.61902583196E+02  0.61902583196E+02  0.00000000000E+00 0. -1.
         21    1    1    2  503  505 -0.67139414621E+02 -0.11813038715E+02  0.30098013659E+03  0.30860377753E+03  0.00000000000E+00 0. -1.
         21    1    1    2  504  503  0.61229670437E+02  0.37335709314E+02  0.45746604385E+03  0.46305313843E+03  0.00000000000E+00 0. -1.
         21    1    1    2  505  506  0.68926060395E+02 -0.24495805900E+02  0.38599866689E+03  0.39286870218E+03  0.00000000000E+00 0. -1.
         21    1    1    2  506  502 -0.63016316211E+02 -0.10268646980E+01 -0.32714770922E+02  0.71009624675E+02  0.00000000000E+00 0. -1.
<scales pt_clust_3="69.03512" pt_clust_4="14000.00000" pt_clust_5="53.48835" pt_clust_6="63.02468"></scales>
<clustering>
<clus scale="   63.025">  2  6  1 -1</clus>
<clus scale="   53.488">  2  5  1 -1</clus>
<clus scale="   69.035">  2  3  1 -1</clus>
<clus scale="   69.035">  1  3  2 -1</clus>
</clustering>
</event>
<event>
 6    0  0.6207838E+002  0.8234138E+02  0.7546771E-02  0.1322535E+00
         21   -1    0    0  505  501  0.00000000000E+00  0.00000000000E+00  0.94504475555E+03  0.94504475555E+03  0.00000000000E+00 0.  1.
         21   -1    0    0  504  502 -0.00000000000E+00 -0.00000000000E+00 -0.44665223372E+02  0.44665223372E+02  0.00000000000E+00 0.  1.
         21    1    1    2  503  501  0.78936436536E+02  0.45262415637E+02  0.71337757016E+03  0.71915728800E+03  0.00000000000E+00 0.  1.
         21    1    1    2  504  506  0.24542969384E+02  0.28892212420E+02  0.96510022653E+01  0.39118526678E+02  0.00000000000E+00 0.  1.
         21    1    1    2  505  502 -0.56153749931E+02 -0.31537736942E+02  0.30281525416E+02  0.71167712231E+02  0.00000000000E+00 0.  1.
         21    1    1    2  506  503 -0.47325655990E+02 -0.42616891114E+02  0.14706943434E+03  0.16026645201E+03  0.00000000000E+00 0.  1.
<scales pt_clust_3="82.34138" pt_clust_4="37.90933" pt_clust_5="41.12170" pt_clust_6="14000.00000"></scales>
<clustering>
<clus scale="   37.909">  2  4  1 -1</clus>
<clus scale="   41.122">  2  5  1 -1</clus>
<clus scale="   82.341">  1  3  2 -1</clus>
<clus scale="   82.341">  1  3  2 -1</clus>
</clustering>
</event>
<event>
 6    0  0.6207838E+002  0.1738200E+03  0.7546771E-02  0.1173922E+00
         21   -1    0    0  504  501  0.00000000000E+00  0.00000000000E+00  0.58278878025E+03  0.58278878025E+03  0.00000000000E+00 0. -1.
         21   -1    0    0  503  502 -0.00000000000E+00 -0.00000000000E+00 -0.38142574676E+03  0.38142574676E+03  0.00000000000E+00 0. -1.
         21    1    1    2  503  506  0.96165522508E+02 -0.35892972695E+02  0.25442072439E+03  0.27434652943E+03  0.00000000000E+00 0. -1.
         21    1    1    2  504  502 -0.11863592570E+03  0.13670833092E+03 -0.33548008079E+03  0.38119618993E+03  0.00000000000E+00 0. -1.
         21    1    1    2  505  501  0.15882161019E+02 -0.44013468922E+02  0.21607260003E+03  0.22108097378E+03  0.00000000000E+00 0. -1.
         21    1    1    2  506  505  0.65882421753E+01 -0.56801889302E+02  0.66349789856E+02  0.87590833865E+02  0.00000000000E+00 0. -1.
<scales pt_clust_3="173.82004" pt_clust_4="14000.00000" pt_clust_5="46.79133" pt_clust_6="66.84728"></scales>
<clustering>
<clus scale="   46.791">  1  5  2 -1</clus>
<clus scale="   66.847">  1  6  2 -1</clus>
<clus scale="  173.820">  1  3  2 -1</clus>
<clus scale="   46.791">  1  3  2 -1</clus>
</clustering>
</event>
<event>
 6    0  0.6256640E+002  0.1872912E+03  0.7546771E-02  0.1160927E+00
         21   -1    0    0  503  501  0.00000000000E+00  0.00000000000E+00  0.11672622212E+04  0.11672622212E+04  0.00000000000E+00 0. -1.
         21   -1    0    0  504  502 -0.00000000000E+00 -0.00000000000E+00 -0.12975103864E+04  0.12975103864E+04  0.00000000000E+00 0.  1.
         21    1    1    2  503  506 -0.89059380139E+02 -0.43202419753E+02  0.56428325106E+03  0.57289930153E+03  0.00000000000E+00 0. -1.
         21    1    1    2  504  501 -0.17603997497E+02  0.32991265525E+02  0.42569657908E+03  0.42733581850E+03  0.00000000000E+00 0. -1.
         21    1    1    2  505  502  0.18415888496E+03 -0.52306467955E+02 -0.12701867605E+04  0.12845329377E+04  0.00000000000E+00 0.  1.
         21    1    1    2  506  505 -0.77495507321E+02  0.62517622183E+02  0.14995876509E+03  0.18000454984E+03  0.00000000000E+00 0. -1.
<scales pt_clust_3="104.11856" pt_clust_4="37.39418" pt_clust_5="14000.00000" pt_clust_6="187.29119"></scales>
<clustering>
<clus scale="   37.394">  1  4  2 -1</clus>
<clus scale="  104.119">  1  3  2 -1</clus>
<clus scale="  187.291">  1  6  2 -1</clus>
<clus scale="   37.394">  1  3  2 -1</clus>
</clustering>
</event>
<event>
 6    0  0.6207838E+002  0.7509519E+02  0.7546771E-02  0.1343576E+00
         21   -1    0    0  506  501  0.00000000000E+00  0.00000000000E+00  0.11380525439E+03  0.11380525439E+03  0.00000000000E+00 0. -1.
         21   -1    0    0  505  502 -0.00000000000E+00 -0.00000000000E+00 -0.25818659909E+03  0.25818659909E+03  0.00000000000E+00 0. -1.
         21    1    1    2  503  504  0.81830668650E+02  0.13570952546E+02  0.43968630246E+01  0.83064802950E+02  0.00000000000E+00 0. -1.
         21    1    1    2  504  501  0.23909144505E+02 -0.47994637137E+02  0.19549353003E+02  0.57072844573E+02  0.00000000000E+00 0. -1.
         21    1    1    2  505  503 -0.40713640363E+02 -0.70634904091E+01 -0.14573503595E+03  0.15148001225E+03  0.00000000000E+00 0. -1.
         21    1    1    2  506  502 -0.65026172792E+02  0.41487175000E+02 -0.22592524785E+02  0.80374193705E+02  0.00000000000E+00 0. -1.
<scales pt_clust_3="14000.00000" pt_clust_4="52.03789" pt_clust_5="41.32183" pt_clust_6="75.09519"></scales>
<clustering>
<clus scale="   41.322">  2  5  1 -1</clus>
<clus scale="   52.038">  1  4  2 -1</clus>
<clus scale="   75.095">  1  6  2 -1</clus>
<clus scale="   52.038">  1  3  2 -1</clus>
</clustering>
</event>
<event>
 6    0  0.6207838E+002  0.1635772E+03  0.7546771E-02  0.1184716E+00
         21   -1    0    0  504  501  0.00000000000E+00  0.00000000000E+00  0.25343188939E+03  0.25343188939E+03  0.00000000000E+00 0.  1.
         21   -1    0    0  505  502 -0.00000000000E+00 -0.00000000000E+00 -0.19640476688E+03  0.19640476688E+03  0.00000000000E+00 0.  1.
         21    1    1    2  503  502 -0.36700307205E+02 -0.10497213525E+01 -0.84132474322E+02  0.91794813031E+02  0.00000000000E+00 0.  1.
         21    1    1    2  504  506  0.88387540434E+02 -0.48993280738E+02  0.11072941650E+03  0.14991231617E+03  0.00000000000E+00 0.  1.
         21    1    1    2  505  501 -0.10853998684E+03  0.84680272497E+02  0.80690965055E+01  0.13790136915E+03  0.00000000000E+00 0.  1.
         21    1    1    2  506  503  0.56852753613E+02 -0.34637270406E+02  0.22361083828E+02  0.70228157918E+02  0.00000000000E+00 0.  1.
<scales pt_clust_3="36.71532" pt_clust_4="40.87820" pt_clust_5="155.23386" pt_clust_6="40.87820"></scales>
<clustering>
<clus scale="   36.715">  2  3  1 -1</clus>
<clus scale="   40.878">  4  6 -1 -1</clus>
<clus scale="  155.234">  2  5  1 -1</clus>
<clus scale="  163.577">  1  3  2 -1</clus>
</clustering>
</event>
<event>
 6    0  0.6207838E+002  0.1227178E+03  0.7546771E-02  0.1238680E+00
         21   -1    0    0  506  501  0.00000000000E+00  0.00000000000E+00  0.44035223957E+03  0.44035223957E+03  0.00000000000E+00 0. -1.
         21   -1    0    0  505  502 -0.00000000000E+00 -0.00000000000E+00 -0.18431846222E+03  0.18431846222E+03  0.00000000000E+00 0. -1.
         21    1    1    2  503  501  0.85290424524E+01  0.43019291584E+02  0.97570010046E+02  0.10697341199E+03  0.00000000000E+00 0. -1.
         21    1    1    2  504  503 -0.26237367481E+02 -0.15735522082E+03  0.84998303367E+02  0.18075889064E+03  0.00000000000E+00 0. -1.
         21    1    1    2  505  504 -0.13491093850E+02  0.11569792489E+03 -0.10435863936E+03  0.15639291878E+03  0.00000000000E+00 0. -1.
         21    1    1    2  506  502  0.31199418878E+02 -0.13619956543E+01  0.17782410329E+03  0.18054548037E+03  0.00000000000E+00 0. -1.
<scales pt_clust_3="47.28081" pt_clust_4="122.71779" pt_clust_5="14000.00000" pt_clust_6="31.22913"></scales>
<clustering>
<clus scale="   31.229">  1  6  2 -1</clus>
<clus scale="   47.281">  1  3  2 -1</clus>
<clus scale="  122.718">  1  4  2 -1</clus>
<clus scale="   31.229">  1  3  2 -1</clus>
</clustering>
</event>
<event>
 6    0  0.6207838E+002  0.1810149E+03  0.7546771E-02  0.1166824E+00
         21   -1    0    0  504  501  0.00000000000E+00  0.00000000000E+00  0.14801966491E+04  0.14801966491E+04  0.00000000000E+00 0.  1.
         21   -1    0    0  505  502 -0.00000000000E+00 -0.00000000000E+00 -0.16516756213E+03  0.16516756213E+03  0.00000000000E+00 0.  1.
         21    1    1    2  503  506 -0.12001027311E+03  0.13848648836E+02  0.84575689510E+03  0.85434125286E+03  0.00000000000E+00 0.  1.
         21    1    1    2  504  502  0.36978294586E+02 -0.11438519208E+02 -0.12725659628E+03  0.13301306435E+03  0.00000000000E+00 0.  1.
         21    1    1    2  505  503  0.11969218490E+03 -0.58327964479E+02  0.12786964885E+03  0.18460503152E+03  0.00000000000E+00 0.  1.
         21    1    1    2  506  501 -0.36660206378E+02  0.55917834851E+02  0.46865913928E+03  0.47340486248E+03  0.00000000000E+00 0.  1.
<scales pt_clust_3="56.94821" pt_clust_4="38.70703" pt_clust_5="164.19247" pt_clust_6="56.94821"></scales>
<clustering>
<clus scale="   38.707">  2  4  1 -1</clus>
<clus scale="   56.948">  3  6 -1 -1</clus>
<clus scale="  164.192">  2  5  1 -1</clus>
<clus scale="  181.015">  1  3  2 -1</clus>
</clustering>
</event>
<event>
 6    0  0.6207838E+002  0.1031357E+03  0.7546771E-02  0.1273837E+00
         21   -1    0    0  506  501  0.00000000000E+00  0.00000000000E+00  0.67459930511E+03  0.67459930511E+03  0.00000000000E+00 0.  1.
         21   -1    0    0  505  502 -0.00000000000E+00 -0.00000000000E+00 -0.51318525720E+03  0.51318525720E+03  0.00000000000E+00 0.  1.
         21    1    1    2  503  504 -0.21742825210E+02 -0.39629467826E+02  0.48460468908E+01  0.45461294952E+02  0.00000000000E+00 0.  1.
         21    1    1    2  504  501  0.80240627861E+02  0.31253422382E+02  0.61802893178E+03  0.62399927507E+03  0.00000000000E+00 0.  1.
         21    1    1    2  505  503 -0.19443577109E+02 -0.77240762576E+02 -0.45248028191E+02  0.91605524666E+02  0.00000000000E+00 0.  1.
         21    1    1    2  506  502 -0.39054225542E+02  0.85616808020E+02 -0.41621290257E+03  0.42671846763E+03  0.00000000000E+00 0.  1.
<scales pt_clust_3="31.96135" pt_clust_4="86.11234" pt_clust_5="31.96135" pt_clust_6="94.00505"></scales>
<clustering>
<clus scale="   31.961">  3  5 -1 -1</clus>
<clus scale="   86.112">  1  4  2 -1</clus>
<clus scale="   94.005">  2  6  1 -1</clus>
<clus scale="   86.112">  1  3  2 -1</clus>
</clustering>
</event>
<event>
 6    0  0.6207838E+002  0.1389911E+03  0.7546771E-02  0.1214693E+00
         21   -1    0    0  503  501  0.00000000000E+00  0.00000000000E+00  0.14459145057E+04  0.14459145057E+04  0.00000000000E+00 0.  1.
         21   -1    0    0  505  502 -0.00000000000E+00 -0.00000000000E+00 -0.83824253947E+02  0.83824253947E+02  0.00000000000E+00 0.  1.
         21    1    1    2  503  504  0.24999849732E+02  0.46186416545E+02  0.86213527515E+03  0.86373341386E+03  0.00000000000E+00 0.  1.
         21    1    1    2  504  502  0.91920770567E+01 -0.16787778257E+03  0.55993529390E+02  0.17720812480E+03  0.00000000000E+00 0.  1.
         21    1    1    2  505  506  0.46628302488E+02  0.33012109871E+02  0.46630077169E+02  0.73745251290E+02  0.00000000000E+00 0.  1.
         21    1    1    2  506  501 -0.80820229277E+02  0.88679256152E+02  0.39733137008E+03  0.41505196973E+03  0.00000000000E+00 0.  1.
<scales pt_clust_3="52.51835" pt_clust_4="138.99109" pt_clust_5="62.03967" pt_clust_6="14000.00000"></scales>
<clustering>
<clus scale="   52.518">  1  3  2 -1</clus>
<clus scale="   62.040">  2  5  1 -1</clus>
<clus scale="  138.991">  2  4  1 -1</clus>
<clus scale="   52.518">  1  3  2 -1</clus>
</clustering>
</event>
<event>
 6    0  0.6207838E+002  0.1542934E+03  0.7546771E-02  0.1195294E+00
         21   -1    0    0  506  501  0.00000000000E+00  0.00000000000E+00  0.26041775821E+04  0.26041775821E+04  0.00000000000E+00 0. -1.
         21   -1    0    0  505  502 -0.00000000000E+00 -0.00000000000E+00 -0.15441731628E+02  0.15441731628E+02  0.00000000000E+00 0. -1.
         21    1    1    2  503  504 -0.39174326266E+02 -0.71260187525E+02  0.24118740660E+03  0.25452702660E+03  0.00000000000E+00 0. -1.
         21    1    1    2  504  502 -0.31626859265E+02 -0.69046041228E+02  0.50068512023E+03  0.50641208877E+03  0.00000000000E+00 0. -1.
         21    1    1    2  505  501  0.10669100565E+03  0.73303042130E+02  0.98451011916E+03  0.99298362595E+03  0.00000000000E+00 0. -1.
         21    1    1    2  506  503 -0.35889820122E+02  0.67003186623E+02  0.86235320448E+03  0.86569657241E+03  0.00000000000E+00 0. -1.
<scales pt_clust_3="60.77431" pt_clust_4="60.77431" pt_clust_5="140.89571" pt_clust_6="76.00991"></scales>
<clustering>
<clus scale="   60.774">  3  4 -1 -1</clus>
<clus scale="   76.010">  1  6  2 -1</clus>
<clus scale="  140.896">  1  5  2 -1</clus>
<clus scale="   76.010">  1  3  2 -1</clus>
</clustering>
</event>
<event>
 6    0  0.6207838E+002  0.5699400E+03  0.7546771E-02  0.9969811E-01
         21   -1    0    0  503  501  0.00000000000E+00  0.00000000000E+00  0.19750258285E+04  0.19750258285E+04  0.00000000000E+00 0.  1.
         21   -1    0    0  506  502 -0.00000000000E+00 -0.00000000000E+00 -0.18039854455E+03  0.18039854455E+03  0.00000000000E+00 0.  1.
         21    1    1    2  503  505  0.43595299662E+02 -0.30318117121E+02  0.11530505986E+03  0.12694485105E+03  0.00000000000E+00 0. -1.
         21    1    1    2  504  501 -0.17587293164E+03  0.41251942339E+03  0.98779903444E+03  0.10848274034E+04  0.00000000000E+00 0.  1.
         21    1    1    2  505  502  0.23223562657E+03 -0.44804441150E+03  0.45919395277E+03  0.68230218172E+03  0.00000000000E+00 0.  1.
         21    1    1    2  506  504 -0.99957994593E+02  0.65843105233E+02  0.23232923689E+03  0.26134993688E+03  0.00000000000E+00 0. -1.
<scales pt_clust_3="45.78046" pt_clust_4="568.75340" pt_clust_5="45.78046" pt_clust_6="70.39704"></scales>
<clustering>
<clus scale="   45.780">  3  5 -1 -1</clus>
<clus scale="   70.397">  4  6 -1 -1</clus>
<clus scale="  568.753">  1  4  2 -1</clus>
<clus scale="  568.753">  1  3  2 -1</clus>
</clustering>
</event>
<event>
 6    0  0.6207838E+002  0.1722200E+03  0.7546771E-02  0.1175552E+00
         21   -1    0    0  504  501  0.00000000000E+00  0.00000000000E+00  0.23518720527E+03  0.23518720527E+03  0.00000000000E+00 0.  1.
         21   -1    0    0  505  502 -0.00000000000E+00 -0.00000000000E+00 -0.82145239065E+03  0.82145239065E+03  0.00000000000E+00 0.  1.
         21    1    1    2  503  501  0.38266516210E+02  0.28895211322E+02  0.25405381768E+02  0.54265024859E+02  0.00000000000E+00 0.  1.
         21    1    1    2  504  502  0.11942078009E+03  0.24782576291E+02 -0.60178868674E+03  0.61402371477E+03  0.00000000000E+00 0.  1.
         21    1    1    2  505  506 -0.73627195806E+02 -0.19953683330E+03 -0.42448757788E+02  0.21688201595E+03  0.00000000000E+00 0.  1.
         21    1    1    2  506  503 -0.84060100497E+02  0.14585904569E+03  0.32566877381E+02  0.17146884034E+03  0.00000000000E+00 0.  1.
<scales pt_clust_3="47.95059" pt_clust_4="123.32402" pt_clust_5="172.21995" pt_clust_6="14000.00000"></scales>
<clustering>
<clus scale="   47.951">  1  3  2 -1</clus>
<clus scale="  123.324">  2  4  1 -1</clus>
<clus scale="  172.220">  2  5  1 -1</clus>
<clus scale="   47.951">  1  3  2 -1</clus>
</clustering>
</event>
<event>
 6    0  0.6207838E+002  0.1341890E+03  0.7546771E-02  0.1221369E+00
         21   -1    0    0  506  501  0.00000000000E+00  0.00000000000E+00  0.12496050597E+03  0.12496050597E+03  0.00000000000E+00 0. -1.
         21   -1    0    0  503  502 -0.00000000000E+00 -0.00000000000E+00 -0.40611037511E+03  0.40611037511E+03  0.00000000000E+00 0. -1.
         21    1    1    2  503  505 -0.11612024689E+03  0.27364646830E+02 -0.30175951021E+03  0.32448657544E+03  0.00000000000E+00 0. -1.
         21    1    1    2  504  501  0.69308239160E+02 -0.64132561002E+02 -0.43759339790E+01  0.94529181708E+02  0.00000000000E+00 0. -1.
         21    1    1    2  505  504  0.57946747215E+02 -0.94641466108E+01  0.26632989907E+02  0.64472565757E+02  0.00000000000E+00 0. -1.
         21    1    1    2  506  502 -0.11134739481E+02  0.46232060783E+02 -0.16474148594E+01  0.47582558184E+02  0.00000000000E+00 0. -1.
<scales pt_clust_3="121.78188" pt_clust_4="44.43797" pt_clust_5="44.43797" pt_clust_6="47.55403"></scales>
<clustering>
<clus scale="   44.438">  4  5 -1 -1</clus>
<clus scale="   47.554">  1  6  2 -1</clus>
<clus scale="  121.782">  2  3  1 -1</clus>
<clus scale="   47.554">  1  3  2 -1</clus>
</clustering>
</event>
<event>
 6    0  0.6207838E+002  0.7864190E+02  0.7546771E-02  0.1332950E+00
         21   -1    0    0  506  501  0.00000000000E+00  0.00000000000E+00  0.31551796044E+03  0.31551796044E+03  0.00000000000E+00 0.  1.
         21   -1    0    0  504  502 -0.00000000000E+00 -0.00000000000E+00 -0.72068512089E+03  0.72068512089E+03  0.00000000000E+00 0.  1.
         21    1    1    2  503  501 -0.48718216903E+02 -0.23974343193E+02  0.55138559928E+02  0.77385364125E+02  0.00000000000E+00 0.  1.
         21    1    1    2  504  505  0.57090458938E+02  0.98357935228E+01 -0.67833195965E+03  0.68080122710E+03  0.00000000000E+00 0.  1.
         21    1    1    2  505  503 -0.40943523977E+02  0.71888113528E+02  0.18767027506E+03  0.20509608763E+03  0.00000000000E+00 0.  1.
         21    1    1    2  506  502  0.32571281942E+02 -0.57749563857E+02  0.30355964215E+02  0.72920402471E+02  0.00000000000E+00 0. -1.
<scales pt_clust_3="54.29764" pt_clust_4="57.67362" pt_clust_5="78.64190" pt_clust_6="14000.00000"></scales>
<clustering>
<clus scale="   54.298">  1  3  2 -1</clus>
<clus scale="   57.674">  2  4  1 -1</clus>
<clus scale="   78.642">  1  5  2 -1</clus>
<clus scale="   54.298">  1  3  2 -1</clus>
</clustering>
</event>
<event>
 6    0  0.6207838E+002  0.7600079E+02  0.7546771E-02  0.1340800E+00
         21   -1    0    0  505  501  0.00000000000E+00  0.00000000000E+00  0.88294673030E+03  0.88294673030E+03  0.00000000000E+00 0. -1.
         21   -1    0    0  506  502 -0.00000000000E+00 -0.00000000000E+00 -0.88449588459E+02  0.88449588459E+02  0.00000000000E+00 0. -1.
         21    1    1    2  503  502  0.51403415723E+02 -0.15689231678E+02 -0.57487159781E+02  0.78697119886E+02  0.00000000000E+00 0. -1.
         21    1    1    2  504  503 -0.11712102593E+02  0.85195144071E+02  0.12038506398E+03  0.14794576557E+03  0.00000000000E+00 0.  1.
         21    1    1    2  505  504 -0.74390737354E+02 -0.44711455291E+02  0.60428027467E+03  0.61048156925E+03  0.00000000000E+00 0. -1.
         21    1    1    2  506  501  0.34699424224E+02 -0.24794457101E+02  0.12731896298E+03  0.13427186406E+03  0.00000000000E+00 0.  1.
<scales pt_clust_3="54.31475" pt_clust_4="76.00079" pt_clust_5="14000.00000" pt_clust_6="42.64757"></scales>
<clustering>
<clus scale="   42.648">  1  6  2 -1</clus>
<clus scale="   54.315">  2  3  1 -1</clus>
<clus scale="   76.001">  2  4  1 -1</clus>
<clus scale="   42.648">  1  3  2 -1</clus>
</clustering>
</event>
<event>
 6    0  0.6207838E+002  0.1067308E+03  0.7546771E-02  0.1266747E+00
         21   -1    0    0  503  501  0.00000000000E+00  0.00000000000E+00  0.15862692080E+03  0.15862692080E+03  0.00000000000E+00 0. -1.
         21   -1    0    0  506  502 -0.00000000000E+00 -0.00000000000E+00 -0.66217122079E+03  0.66217122079E+03  0.00000000000E+00 0. -1.
         21    1    1    2  503  505  0.75977828475E+01 -0.46724340227E+02  0.18646875793E+02  0.50878249289E+02  0.00000000000E+00 0. -1.
         21    1    1    2  504  502 -0.86442150177E+02  0.42847407816E+02 -0.57863156226E+03  0.58661966428E+03  0.00000000000E+00 0. -1.
         21    1    1    2  505  504  0.68622953114E+02 -0.69845741359E+02  0.18090344300E+02  0.99573077872E+02  0.00000000000E+00 0. -1.
         21    1    1    2  506  501  0.10221414216E+02  0.73722673771E+02  0.38350042172E+02  0.83727150143E+02  0.00000000000E+00 0. -1.
<scales pt_clust_3="30.21034" pt_clust_4="97.48675" pt_clust_5="30.21034" pt_clust_6="74.42788"></scales>
<clustering>
<clus scale="   30.210">  3  5 -1 -1</clus>
<clus scale="   74.428">  1  6  2 -1</clus>
<clus scale="   97.487">  2  4  1 -1</clus>
<clus scale="   74.428">  1  3  2 -1</clus>
</clustering>
</event>
<event>
 6    0  0.6207838E+002  0.1214076E+03  0.7546771E-02  0.1240793E+00
         21   -1    0    0  506  501  0.00000000000E+00  0.00000000000E+00  0.31461240785E+03  0.31461240785E+03  0.00000000000E+00 0. -1.
         21   -1    0    0  501  502 -0.00000000000E+00 -0.00000000000E+00 -0.93767919078E+02  0.93767919078E+02  0.00000000000E+00 0.  1.
         21    1    1    2  503  502 -0.77228389576E+01  0.37998497649E+02 -0.41515135998E+02  0.56806994130E+02  0.00000000000E+00 0.  1.
         21    1    1    2  504  505  0.33508627519E+01 -0.38146853125E+02  0.64270495298E+02  0.74813817242E+02  0.00000000000E+00 0. -1.
         21    1    1    2  505  503  0.74013772998E+02  0.62642860048E+02  0.77533797131E+02  0.12415174669E+03  0.00000000000E+00 0.  1.
         21    1    1    2  506  504 -0.69641796792E+02 -0.62494504572E+02  0.12055533234E+03  0.15260776886E+03  0.00000000000E+00 0. -1.
<scales pt_clust_3="38.77535" pt_clust_4="35.25354" pt_clust_5="108.18036" pt_clust_6="35.25354"></scales>
<clustering>
<clus scale="   35.254">  4  6 -1 -1</clus>
<clus scale="   38.775">  2  3  1 -1</clus>
<clus scale="  108.180">  2  5  1 -1</clus>
<clus scale="  121.408">  1  3  2 -1</clus>
</clustering>
</event>
<event>
 6    0  0.6207838E+002  0.1477543E+03  0.7546771E-02  0.1203260E+00
         21   -1    0    0  504  501  0.00000000000E+00  0.00000000000E+00  0.13481668685E+03  0.13481668685E+03  0.00000000000E+00 0.  1.
         21   -1    0    0  501  502 -0.00000000000E+00 -0.00000000000E+00 -0.67259734659E+03  0.67259734659E+03  0.00000000000E+00 0.  1.
         21    1    1    2  503  506  0.14336764438E+03 -0.78438892614E+02 -0.12018799923E+03  0.20285979515E+03  0.00000000000E+00 0.  1.
         21    1    1    2  504  505 -0.55848443689E+02  0.43480734404E+02  0.87996164887E+01  0.71323601824E+02  0.00000000000E+00 0.  1.
         21    1    1    2  505  503 -0.68098436492E+02  0.75117098330E+01  0.30577666454E+02  0.75025439172E+02  0.00000000000E+00 0.  1.
         21    1    1    2  506  502 -0.19420764201E+02  0.27446448377E+02 -0.45696994345E+03  0.45820519730E+03  0.00000000000E+00 0.  1.
<scales pt_clust_3="141.16277" pt_clust_4="42.28694" pt_clust_5="42.28694" pt_clust_6="33.62252"></scales>
<clustering>
<clus scale="   33.623">  2  6  1 -1</clus>
<clus scale="   42.287">  4  5 -1 -1</clus>
<clus scale="  141.163">  2  3  1 -1</clus>
<clus scale="  147.754">  1  3  2 -1</clus>
</clustering>
</event>
<event>
 6    0  0.6207838E+002  0.1316296E+03  0.7546771E-02  0.1225058E+00
         21   -1    0    0  505  501  0.00000000000E+00  0.00000000000E+00  0.31404892149E+03  0.31404892149E+03  0.00000000000E+00 0. -1.
         21   -1    0    0  504  502 -0.00000000000E+00 -0.00000000000E+00 -0.16797834993E+03  0.16797834993E+03  0.00000000000E+00 0. -1.
         21    1    1    2  503  506  0.19703108470E+02 -0.13464935940E+03  0.12531685106E+03  0.18499452864E+03  0.00000000000E+00 0. -1.
         21    1    1    2  504  501  0.53749074893E+02  0.14671218829E+03 -0.44742475215E+02  0.16252790017E+03  0.00000000000E+00 0. -1.
         21    1    1    2  505  503 -0.52425277876E+02  0.17048754778E+02  0.78833733040E+02  0.96196815253E+02  0.00000000000E+00 0. -1.
         21    1    1    2  506  502 -0.21026905487E+02 -0.29111583670E+02 -0.13337537329E+02  0.38308027359E+02  0.00000000000E+00 0.  1.
<scales pt_clust_3="131.62957" pt_clust_4="14000.00000" pt_clust_5="55.83816" pt_clust_6="35.91121"></scales>
<clustering>
<clus scale="   35.911">  2  6  1 -1</clus>
<clus scale="   55.838">  1  5  2 -1</clus>
<clus scale="  131.630">  1  3  2 -1</clus>
<clus scale="   55.838">  1  3  2 -1</clus>
</clustering>
</event>
<event>
 6    0  0.6207838E+002  0.7277700E+02  0.7546771E-02  0.1350896E+00
         21   -1    0    0  506  501  0.00000000000E+00  0.00000000000E+00  0.38699985737E+03  0.38699985737E+03  0.00000000000E+00 0.  1.
         21   -1    0    0  504  502 -0.00000000000E+00 -0.00000000000E+00 -0.14533249800E+04  0.14533249800E+04  0.00000000000E+00 0. -1.
         21    1    1    2  503  502 -0.21627463783E+02 -0.37008912031E+02 -0.61553635502E+03  0.61702707486E+03  0.00000000000E+00 0. -1.
         21    1    1    2  504  505 -0.26018805101E+02  0.91550783406E+02 -0.82184872621E+03  0.82734143673E+03  0.00000000000E+00 0. -1.
         21    1    1    2  505  501  0.25233982631E+02 -0.91431330584E+02  0.24561663238E+03  0.26329445910E+03  0.00000000000E+00 0.  1.
         21    1    1    2  506  503  0.22412286253E+02  0.36889459209E+02  0.12544332622E+03  0.13266186667E+03  0.00000000000E+00 0.  1.
<scales pt_clust_3="42.86498" pt_clust_4="72.77700" pt_clust_5="14000.00000" pt_clust_6="42.97933"></scales>
<clustering>
<clus scale="   42.865">  2  3  1 -1</clus>
<clus scale="   42.979">  1  6  2 -1</clus>
<clus scale="   72.777">  2  4  1 -1</clus>
<clus scale="   42.979">  1  3  2 -1</clus>
</clustering>
</event>
<event>
 6    0  0.6207838E+002  0.1692042E+03  0.7546771E-02  0.1178680E+00
         21   -1    0    0  503  501  0.00000000000E+00  0.00000000000E+00  0.25075763371E+03  0.25075763371E+03  0.00000000000E+00 0. -1.
         21   -1    0    0  506  502 -0.00000000000E+00 -0.00000000000E+00 -0.26434767078E+03  0.26434767078E+03  0.00000000000E+00 0. -1.
         21    1    1    2  503  502 -0.39186866701E+02  0.16331295065E+03 -0.12537225230E+03  0.20958275697E+03  0.00000000000E+00 0. -1.
         21    1    1    2  504  501  0.55326298804E+02 -0.72891153739E+02  0.80086336411E+02  0.12160567796E+03  0.00000000000E+00 0. -1.
         21    1    1    2  505  504  0.11184443275E+02 -0.75435346418E+02  0.89904130994E+02  0.11789120421E+03  0.00000000000E+00 0.  1.
         21    1    1    2  506  505 -0.27323875377E+02 -0.14986450495E+02 -0.58208252175E+02  0.66025665353E+02  0.00000000000E+00 0. -1.
<scales pt_clust_3="163.07207" pt_clust_4="41.51006" pt_clust_5="41.51006" pt_clust_6="31.16389"></scales>
<clustering>
<clus scale="   31.164">  2  6  1 -1</clus>
<clus scale="   41.510">  4  5 -1 -1</clus>
<clus scale="  163.072">  2  3  1 -1</clus>
<clus scale="  169.204">  1  3  2 -1</clus>
</clustering>
</event>
<event>
 6    0  0.6207838E+002  0.7277851E+02  0.7546771E-02  0.1350892E+00
         21   -1    0    0  505  501  0.00000000000E+00  0.00000000000E+00  0.25472275007E+03  0.25472275007E+03  0.00000000000E+00 0.  1.
         21   -1    0    0  506  502 -0.00000000000E+00 -0.00000000000E+00 -0.23580917773E+03  0.23580917773E+03  0.00000000000E+00 0.  1.
         21    1    1    2  503  502 -0.51941190617E+02 -0.75641866577E+01 -0.18694389668E+03  0.19417292476E+03  0.00000000000E+00 0.  1.
         21    1    1    2  504  501 -0.61308366587E+02 -0.11858626443E+02  0.49934151931E+02  0.79954751977E+02  0.00000000000E+00 0.  1.
         21    1    1    2  505  503  0.68508936109E+02  0.47965423031E+02  0.13612271539E+03  0.15976091442E+03  0.00000000000E+00 0.  1.
         21    1    1    2  506  504  0.44740621095E+02 -0.28542609931E+02  0.19800601710E+02  0.56643336640E+02  0.00000000000E+00 0.  1.
<scales pt_clust_3="52.48909" pt_clust_4="72.77851" pt_clust_5="14000.00000" pt_clust_6="39.45505"></scales>
<clustering>
<clus scale="   52.489">  2  3  1 -1</clus>
<clus scale="   39.455">  2  6  1 -1</clus>
<clus scale="   72.779">  2  4  1 -1</clus>
<clus scale="   72.779">  1  3  2 -1</clus>
</clustering>
</event>
<event>
 6    0  0.6207838E+002  0.7073208E+02  0.7546771E-02  0.1357621E+00
         21   -1    0    0  506  501  0.00000000000E+00  0.00000000000E+00  0.77322651034E+02  0.77322651034E+02  0.00000000000E+00 0. -1.
         21   -1    0    0  505  502 -0.00000000000E+00 -0.00000000000E+00 -0.91580266950E+03  0.91580266950E+03  0.00000000000E+00 0. -1.
         21    1    1    2  503  504  0.68900377697E+02  0.58010512936E+02 -0.13804263975E+03  0.16482794680E+03  0.00000000000E+00 0. -1.
         21    1    1    2  504  501 -0.60312412325E+02  0.67870487797E+02 -0.12668772938E+03  0.15586459178E+03  0.00000000000E+00 0. -1.
         21    1    1    2  505  503  0.88641042917E+00 -0.60167714031E+02 -0.59854412361E+03  0.60156130814E+03  0.00000000000E+00 0. -1.
         21    1    1    2  506  502 -0.94743758018E+01 -0.65713286702E+02  0.24794474279E+02  0.70871473816E+02  0.00000000000E+00 0. -1.
<scales pt_clust_3="14000.00000" pt_clust_4="64.88679" pt_clust_5="60.17424" pt_clust_6="70.73208"></scales>
<clustering>
<clus scale="   60.174">  2  5  1 -1</clus>
<clus scale="   70.732">  1  6  2 -1</clus>
<clus scale="   64.887">  1  4  2 -1</clus>
<clus scale="   70.732">  1  3  2 -1</clus>
</clustering>
</event>
<event>
 6    0  0.6207838E+002  0.1371353E+03  0.7546771E-02  0.1217236E+00
         21   -1    0    0  506  501  0.00000000000E+00  0.00000000000E+00  0.25574458202E+03  0.25574458202E+03  0.00000000000E+00 0. -1.
         21   -1    0    0  504  502 -0.00000000000E+00 -0.00000000000E+00 -0.46449695287E+03  0.46449695287E+03  0.00000000000E+00 0. -1.
         21    1    1    2  503  501 -0.36003489219E+01  0.52833472504E+02  0.65581747881E+01  0.53360547090E+02  0.00000000000E+00 0. -1.
         21    1    1    2  504  503  0.91451932967E+02  0.10536274082E+03 -0.37578673478E+03  0.40084963918E+03  0.00000000000E+00 0. -1.
         21    1    1    2  505  502 -0.94091237782E+02 -0.75698463011E+02  0.56975151489E+02  0.13352747364E+03  0.00000000000E+00 0. -1.
         21    1    1    2  506  505  0.62396537371E+01 -0.82497750316E+02  0.10350103766E+03  0.13250387497E+03  0.00000000000E+00 0. -1.
<scales pt_clust_3="52.95600" pt_clust_4="137.13533" pt_clust_5="14000.00000" pt_clust_6="55.05806"></scales>
<clustering>
<clus scale="   52.956">  1  3  2 -1</clus>
<clus scale="   55.058">  1  6  2 -1</clus>
<clus scale="  137.135">  2  4  1 -1</clus>
<clus scale="   52.956">  1  3  2 -1</clus>
</clustering>
</event>
<event>
 6    0  0.6207838E+002  0.1390437E+03  0.7546771E-02  0.1214622E+00
         21   -1    0    0  504  501  0.00000000000E+00  0.00000000000E+00  0.20248808431E+03  0.20248808431E+03  0.00000000000E+00 0.  1.
         21   -1    0    0  506  502 -0.00000000000E+00 -0.00000000000E+00 -0.13826643484E+04  0.13826643484E+04  0.00000000000E+00 0.  1.
         21    1    1    2  503  502 -0.20602674455E+03 -0.42800604081E+02 -0.92607832246E+02  0.22990241794E+03  0.00000000000E+00 0.  1.
         21    1    1    2  504  503  0.40314650673E+02 -0.57097134363E+01  0.95625866570E+02  0.10393352801E+03  0.00000000000E+00 0.  1.
         21    1    1    2  505  501  0.94990900800E+02 -0.17480921696E+01 -0.37180344567E+02  0.10202306153E+03  0.00000000000E+00 0.  1.
         21    1    1    2  506  505  0.70721193081E+02  0.50258409687E+02 -0.11460139538E+04  0.11492934252E+04  0.00000000000E+00 0.  1.
<scales pt_clust_3="14000.00000" pt_clust_4="40.71697" pt_clust_5="139.04368" pt_clust_6="87.23354"></scales>
<clustering>
<clus scale="   40.717">  1  4  2 -1</clus>
<clus scale="   87.234">  2  6  1 -1</clus>
<clus scale="  139.044">  1  5  2 -1</clus>
<clus scale="   40.717">  1  3  2 -1</clus>
</clustering>
</event>
<event>
 6    0  0.6207838E+002  0.8568032E+02  0.7546771E-02  0.1313663E+00
         21   -1    0    0  504  501  0.00000000000E+00  0.00000000000E+00  0.89707873527E+02  0.89707873527E+02  0.00000000000E+00 0.  1.
         21   -1    0    0  503  502 -0.00000000000E+00 -0.00000000000E+00 -0.10398321074E+04  0.10398321074E+04  0.00000000000E+00 0.  1.
         21    1    1    2  503  506  0.57797166100E+01 -0.33748415346E+02 -0.36697696975E+03  0.36857083036E+03  0.00000000000E+00 0.  1.
         21    1    1    2  504  505 -0.82893836607E+02  0.17092002223E+02  0.47928660854E+02  0.97266033222E+02  0.00000000000E+00 0.  1.
         21    1    1    2  505  502 -0.27511373745E+02  0.52161913489E+02 -0.68533522161E+02  0.90413409204E+02  0.00000000000E+00 0. -1.
         21    1    1    2  506  501  0.10462549374E+03 -0.35505500366E+02 -0.56254240277E+03  0.57328970810E+03  0.00000000000E+00 0.  1.
<scales pt_clust_3="34.23975" pt_clust_4="85.68032" pt_clust_5="55.13787" pt_clust_6="14000.00000"></scales>
<clustering>
<clus scale="   34.240">  2  3  1 -1</clus>
<clus scale="   55.138">  2  5  1 -1</clus>
<clus scale="   85.680">  1  4  2 -1</clus>
<clus scale="   85.680">  1  3  2 -1</clus>
</clustering>
</event>
<event>
 6    0  0.6207838E+002  0.6722713E+02  0.7546771E-02  0.1369784E+00
         21   -1    0    0  506  501  0.00000000000E+00  0.00000000000E+00  0.14315389003E+03  0.14315389003E+03  0.00000000000E+00 0. -1.
         21   -1    0    0  505  502 -0.00000000000E+00 -0.00000000000E+00 -0.15746185247E+04  0.15746185247E+04  0.00000000000E+00 0. -1.
         21    1    1    2  503  501  0.50294155558E+02 -0.10372207618E+03 -0.15826892395E+03  0.19579791485E+03  0.00000000000E+00 0. -1.
         21    1    1    2  504  502  0.12036159371E+02  0.63723776947E+02 -0.48426466289E+03  0.48858760996E+03  0.00000000000E+00 0. -1.
         21    1    1    2  505  503 -0.56238585214E+02 -0.17852013078E+02 -0.90322040758E+03  0.90514561122E+03  0.00000000000E+00 0. -1.
         21    1    1    2  506  504 -0.60917297149E+01  0.57850312315E+02  0.11428935976E+03  0.12824127869E+03  0.00000000000E+00 0. -1.
<scales pt_clust_3="67.22713" pt_clust_4="14000.00000" pt_clust_5="58.54327" pt_clust_6="58.17016"></scales>
<clustering>
<clus scale="   58.170">  1  6  2 -1</clus>
<clus scale="   58.543">  2  5  1 -1</clus>
<clus scale="   67.227">  1  3  2 -1</clus>
<clus scale="   58.170">  1  3  2 -1</clus>
</clustering>
</event>
<event>
 6    0  0.6207838E+002  0.1211426E+03  0.7546771E-02  0.1241224E+00
         21   -1    0    0  505  501  0.00000000000E+00  0.00000000000E+00  0.44132093738E+03  0.44132093738E+03  0.00000000000E+00 0.  1.
         21   -1    0    0  503  502 -0.00000000000E+00 -0.00000000000E+00 -0.35414230215E+04  0.35414230215E+04  0.00000000000E+00 0.  1.
         21    1    1    2  503  506 -0.27463354687E+02 -0.45183097954E+02 -0.40239252767E+03  0.40585156710E+03  0.00000000000E+00 0.  1.
         21    1    1    2  504  502 -0.28819378317E+02  0.15542070767E+03 -0.30447389354E+04  0.30488393427E+04  0.00000000000E+00 0.  1.
         21    1    1    2  505  504  0.26688174643E+02 -0.21393265484E+02  0.41242128013E+03  0.41383721773E+03  0.00000000000E+00 0.  1.
         21    1    1    2  506  501  0.29594558361E+02 -0.88844344232E+02 -0.65391901153E+02  0.11421583132E+03  0.00000000000E+00 0.  1.
<scales pt_clust_3="53.18667" pt_clust_4="14000.00000" pt_clust_5="34.20425" pt_clust_6="121.14257"></scales>
<clustering>
<clus scale="   34.204">  1  5  2 -1</clus>
<clus scale="   53.187">  2  3  1 -1</clus>
<clus scale="  121.143">  1  6  2 -1</clus>
<clus scale="   34.204">  1  3  2 -1</clus>
</clustering>
</event>
<event>
 6    0  0.6207838E+002  0.1780617E+03  0.7546771E-02  0.1169692E+00
         21   -1    0    0  505  501  0.00000000000E+00  0.00000000000E+00  0.48317780257E+03  0.48317780257E+03  0.00000000000E+00 0. -1.
         21   -1    0    0  503  502 -0.00000000000E+00 -0.00000000000E+00 -0.23149848153E+03  0.23149848153E+03  0.00000000000E+00 0. -1.
         21    1    1    2  503  504  0.28807763503E+02  0.40437384731E+02 -0.66734209348E+02  0.83177665386E+02  0.00000000000E+00 0. -1.
         21    1    1    2  504  501 -0.52597972959E+02  0.14872107390E+03  0.38448840288E+03  0.41559094857E+03  0.00000000000E+00 0. -1.
         21    1    1    2  505  506 -0.24020202932E+02 -0.83632764219E+02 -0.11247815985E+02  0.87737806927E+02  0.00000000000E+00 0. -1.
         21    1    1    2  506  502  0.47810412389E+02 -0.10552569441E+03 -0.54827056513E+02  0.12816986322E+03  0.00000000000E+00 0. -1.
<scales pt_clust_3="49.64946" pt_clust_4="160.63202" pt_clust_5="64.00411" pt_clust_6="64.00411"></scales>
<clustering>
<clus scale="   49.649">  2  3  1 -1</clus>
<clus scale="   64.004">  5  6 -1 -1</clus>
<clus scale="  160.632">  1  4  2 -1</clus>
<clus scale="  160.632">  1  3  2 -1</clus>
</clustering>
</event>
<event>
 6    0  0.6207838E+002  0.1321191E+03  0.7546771E-02  0.1224345E+00
         21   -1    0    0  505  501  0.00000000000E+00  0.00000000000E+00  0.77847934058E+03  0.77847934058E+03  0.00000000000E+00 0.  1.
         21   -1    0    0  503  502 -0.00000000000E+00 -0.00000000000E+00 -0.24584656749E+03  0.24584656749E+03  0.00000000000E+00 0.  1.
         21    1    1    2  503  501 -0.62531432130E+02 -0.11149018063E+02 -0.10025390647E+02  0.64303880642E+02  0.00000000000E+00 0.  1.
         21    1    1    2  504  502 -0.63242857280E+02  0.36605323586E+02 -0.19609077616E+03  0.20926347318E+03  0.00000000000E+00 0.  1.
         21    1    1    2  505  506  0.57695967785E+02 -0.21737860409E+02  0.26185836385E+03  0.26901888780E+03  0.00000000000E+00 0.  1.
         21    1    1    2  506  504  0.68078321625E+02 -0.37184451141E+01  0.47689057605E+03  0.48173966645E+03  0.00000000000E+00 0.  1.
<scales pt_clust_3="63.51756" pt_clust_4="126.62641" pt_clust_5="35.84981" pt_clust_6="35.84981"></scales>
<clustering>
<clus scale="   35.850">  5  6 -1 -1</clus>
<clus scale="   63.518">  2  3  1 -1</clus>
<clus scale="  126.626">  2  4  1 -1</clus>
<clus scale="  132.119">  1  3  2 -1</clus>
</clustering>
</event>
<event>
 6    0  0.6207838E+002  0.2436064E+03  0.7546771E-02  0.1117413E+00
         21   -1    0    0  504  501  0.00000000000E+00  0.00000000000E+00  0.91851114098E+03  0.91851114098E+03  0.00000000000E+00 0. -1.
         21   -1    0    0  505  502 -0.00000000000E+00 -0.00000000000E+00 -0.69832951010E+03  0.69832951010E+03  0.00000000000E+00 0.  1.
         21    1    1    2  503  506 -0.11927085230E+03 -0.11746942694E+03 -0.32831442511E+03  0.36853081854E+03  0.00000000000E+00 0.  1.
         21    1    1    2  504  503 -0.65886502143E+01 -0.43431423299E+02 -0.61177831651E+02  0.75315509206E+02  0.00000000000E+00 0.  1.
         21    1    1    2  505  501  0.13663682933E+03  0.19413173340E+03  0.87435911791E+03  0.90601358716E+03  0.00000000000E+00 0. -1.
         21    1    1    2  506  502 -0.10777326817E+02 -0.33230883159E+02 -0.26468523027E+03  0.26698073618E+03  0.00000000000E+00 0.  1.
<scales pt_clust_3="30.58839" pt_clust_4="30.58839" pt_clust_5="236.17461" pt_clust_6="34.93483"></scales>
<clustering>
<clus scale="   30.588">  3  4 -1 -1</clus>
<clus scale="   34.935">  2  6  1 -1</clus>
<clus scale="  236.175">  1  5  2 -1</clus>
<clus scale="  236.175">  1  3  2 -1</clus>
</clustering>
</event>
<event>
 6    0  0.6207838E+002  0.1260760E+03  0.7546771E-02  0.1233397E+00
         21   -1    0    0  503  501  0.00000000000E+00  0.00000000000E+00  0.62482326870E+03  0.62482326870E+03  0.00000000000E+00 0. -1.
         21   -1    0    0  504  502 -0.00000000000E+00 -0.00000000000E+00 -0.10177483985E+03  0.10177483985E+03  0.00000000000E+00 0.  1.
         21    1    1    2  503  506 -0.23530636621E+02 -0.13276416887E+03  0.17677760542E+03  0.22232934393E+03  0.00000000000E+00 0. -1.
         21    1    1    2  504  505  0.46966917640E+01  0.89442844915E+02 -0.21358045417E+02  0.92077399638E+02  0.00000000000E+00 0.  1.
         21    1    1    2  505  501  0.47148810116E+02  0.89176819839E+02  0.33345014201E+03  0.34837409878E+03  0.00000000000E+00 0. -1.
         21    1    1    2  506  502 -0.28314865259E+02 -0.45855495887E+02  0.34178726841E+02  0.63817266207E+02  0.00000000000E+00 0. -1.
<scales pt_clust_3="33.36038" pt_clust_4="89.56607" pt_clust_5="114.50239" pt_clust_6="33.36038"></scales>
<clustering>
<clus scale="   33.360">  3  6 -1 -1</clus>
<clus scale="   89.566">  2  4  1 -1</clus>
<clus scale="  114.502">  1  5  2 -1</clus>
<clus scale="  114.502">  1  3  2 -1</clus>
</clustering>
</event>
<event>
 6    0  0.6207838E+002  0.2366115E+03  0.7546771E-02  0.1122071E+00
         21   -1    0    0  503  501  0.00000000000E+00  0.00000000000E+00  0.11469764658E+04  0.11469764658E+04  0.00000000000E+00 0. -1.
         21   -1    0    0  505  502 -0.00000000000E+00 -0.00000000000E+00 -0.63100938686E+02  0.63100938686E+02  0.00000000000E+00 0. -1.
         21    1    1    2  503  504 -0.91845503275E+02 -0.18713449365E+03  0.44323512305E+03  0.48980842122E+03  0.00000000000E+00 0. -1.
         21    1    1    2  504  502  0.15876914989E+02 -0.37172980970E+02  0.99698219518E+01  0.41632971231E+02  0.00000000000E+00 0. -1.
         21    1    1    2  505  506  0.68760630653E+02  0.82727170061E+02  0.30627723787E+03  0.32461909283E+03  0.00000000000E+00 0. -1.
         21    1    1    2  506  501  0.72079576331E+01  0.14158030456E+03  0.32439334420E+03  0.35401691916E+03  0.00000000000E+00 0. -1.
<scales pt_clust_3="221.96534" pt_clust_4="40.42161" pt_clust_5="73.24078" pt_clust_6="73.24078"></scales>
<clustering>
<clus scale="   40.422">  2  4  1 -1</clus>
<clus scale="   73.241">  5  6 -1 -1</clus>
<clus scale="  221.965">  2  3  1 -1</clus>
<clus scale="  236.611">  1  3  2 -1</clus>
</clustering>
</event>
<event>
 6    0  0.6207838E+002  0.1193410E+03  0.7546771E-02  0.1244188E+00
         21   -1    0    0  504  501  0.00000000000E+00  0.00000000000E+00  0.23166222275E+03  0.23166222275E+03  0.00000000000E+00 0. -1.
         21   -1    0    0  503  502 -0.00000000000E+00 -0.00000000000E+00 -0.24449496627E+03  0.24449496627E+03  0.00000000000E+00 0.  1.
         21    1    1    2  503  505  0.35122841044E+02 -0.42113424112E+02  0.56458548006E+01  0.55127399085E+02  0.00000000000E+00 0. -1.
         21    1    1    2  504  506 -0.10821530757E+03  0.61235452223E+02  0.15817566761E+03  0.20119611136E+03  0.00000000000E+00 0. -1.
         21    1    1    2  505  501  0.66616890159E+02 -0.59879370775E+02 -0.12152106066E+03  0.15096594743E+03  0.00000000000E+00 0.  1.
         21    1    1    2  506  502  0.64755763713E+01  0.40757342664E+02 -0.55133205271E+02  0.68867731151E+02  0.00000000000E+00 0.  1.
<scales pt_clust_3="51.32963" pt_clust_4="119.34104" pt_clust_5="14000.00000" pt_clust_6="41.26856"></scales>
<clustering>
<clus scale="   41.269">  2  6  1 -1</clus>
<clus scale="   51.330">  2  3  1 -1</clus>
<clus scale="  119.341">  1  4  2 -1</clus>
<clus scale="  119.341">  1  3  2 -1</clus>
</clustering>
</event>
<event>
 6    0  0.6207838E+002  0.1537999E+03  0.7546771E-02  0.1195880E+00
         21   -1    0    0  504  501  0.00000000000E+00  0.00000000000E+00  0.16119797246E+02  0.16119797246E+02  0.00000000000E+00 0.  1.
         21   -1    0    0  503  502 -0.00000000000E+00 -0.00000000000E+00 -0.23085131448E+04  0.23085131448E+04  0.00000000000E+00 0.  1.
         21    1    1    2  503  506 -0.51588707555E+02  0.54858639937E+02 -0.54813219761E+03  0.55328091525E+03  0.00000000000E+00 0.  1.
         21    1    1    2  504  505  0.11756504709E+03  0.34438087188E+01 -0.39761168918E+03  0.41464256353E+03  0.00000000000E+00 0.  1.
         21    1    1    2  505  502  0.42623861288E+02 -0.22122072674E+01 -0.34710687532E+03  0.34972113220E+03  0.00000000000E+00 0.  1.
         21    1    1    2  506  501 -0.10860020082E+03 -0.56090241388E+02 -0.99954258548E+03  0.10069883311E+04  0.00000000000E+00 0.  1.
<scales pt_clust_3="75.30515" pt_clust_4="38.02351" pt_clust_5="38.02351" pt_clust_6="140.25080"></scales>
<clustering>
<clus scale="   38.024">  4  5 -1 -1</clus>
<clus scale="   75.305">  2  3  1 -1</clus>
<clus scale="  140.251">  2  6  1 -1</clus>
<clus scale="  153.800">  1  3  2 -1</clus>
</clustering>
</event>
<event>
 6    0  0.6207838E+002  0.1239700E+03  0.7546771E-02  0.1236688E+00
         21   -1    0    0  505  501  0.00000000000E+00  0.00000000000E+00  0.31094039027E+02  0.31094039027E+02  0.00000000000E+00 0. -1.
         21   -1    0    0  501  502 -0.00000000000E+00 -0.00000000000E+00 -0.13800930508E+04  0.13800930508E+04  0.00000000000E+00 0.  1.
         21    1    1    2  503  504  0.40379600285E+01 -0.61728387878E+02 -0.60000306120E+03  0.60318353130E+03  0.00000000000E+00 0.  1.
         21    1    1    2  504  506  0.28366729184E+02 -0.42602728622E+02 -0.34842629675E+03  0.35216551233E+03  0.00000000000E+00 0.  1.
         21    1    1    2  505  503 -0.64626044680E+02  0.10197289426E+03 -0.10952362422E+03  0.16300435907E+03  0.00000000000E+00 0. -1.
         21    1    1    2  506  502  0.32221355467E+02  0.23582222445E+01 -0.29104602965E+03  0.29283368715E+03  0.00000000000E+00 0.  1.
<scales pt_clust_3="32.01133" pt_clust_4="32.01133" pt_clust_5="118.86997" pt_clust_6="32.30754"></scales>
<clustering>
<clus scale="   32.011">  3  4 -1 -1</clus>
<clus scale="   32.308">  2  6  1 -1</clus>
<clus scale="  118.870">  1  5  2 -1</clus>
<clus scale="  118.870">  1  3  2 -1</clus>
</clustering>
</event>
<event>
 6    0  0.6207838E+002  0.9093960E+02  0.7546771E-02  0.1300592E+00
         21   -1    0    0  505  501  0.00000000000E+00  0.00000000000E+00  0.69038327374E+03  0.69038327374E+03  0.00000000000E+00 0.  1.
         21   -1    0    0  503  502 -0.00000000000E+00 -0.00000000000E+00 -0.22390027552E+03  0.22390027552E+03  0.00000000000E+00 0.  1.
         21    1    1    2  503  501  0.47520436861E+02 -0.26717031270E+01  0.39717363714E+03  0.40001528466E+03  0.00000000000E+00 0.  1.
         21    1    1    2  504  506 -0.83135103172E+02 -0.46431318409E+02  0.13613965223E+03  0.16613644278E+03  0.00000000000E+00 0.  1.
         21    1    1    2  505  504 -0.14032182116E+02 -0.27576653519E+02  0.12867250806E+03  0.13234042574E+03  0.00000000000E+00 0.  1.
         21    1    1    2  506  502  0.49646848427E+02  0.76679675055E+02 -0.19550279921E+03  0.21579139609E+03  0.00000000000E+00 0.  1.
<scales pt_clust_3="43.65803" pt_clust_4="14000.00000" pt_clust_5="30.94146" pt_clust_6="90.93960"></scales>
<clustering>
<clus scale="   30.941">  1  5  2 -1</clus>
<clus scale="   43.658">  1  3  2 -1</clus>
<clus scale="   90.940">  2  6  1 -1</clus>
<clus scale="   30.941">  1  3  2 -1</clus>
</clustering>
</event>
<event>
 6    0  0.6207838E+002  0.2766845E+03  0.7546771E-02  0.1097514E+00
         21   -1    0    0  506  501  0.00000000000E+00  0.00000000000E+00  0.49484778499E+03  0.49484778499E+03  0.00000000000E+00 0. -1.
         21   -1    0    0  504  502 -0.00000000000E+00 -0.00000000000E+00 -0.54493950452E+03  0.54493950452E+03  0.00000000000E+00 0. -1.
         21    1    1    2  503  501  0.13328859100E+03  0.25432262936E+03  0.29483978630E+03  0.41155357838E+03  0.00000000000E+00 0. -1.
         21    1    1    2  504  503 -0.35933008995E+01 -0.28549608179E+03 -0.22127417398E+03  0.36122456256E+03  0.00000000000E+00 0. -1.
         21    1    1    2  505  502 -0.74901637782E+02  0.21114576367E+02 -0.17482773990E+03  0.19136566912E+03  0.00000000000E+00 0. -1.
         21    1    1    2  506  505 -0.54793652314E+02  0.10058876055E+02  0.51170408056E+02  0.75643479441E+02  0.00000000000E+00 0. -1.
<scales pt_clust_3="276.68447" pt_clust_4="14000.00000" pt_clust_5="78.88397" pt_clust_6="55.70929"></scales>
<clustering>
<clus scale="   55.709">  1  6  2 -1</clus>
<clus scale="   78.884">  2  5  1 -1</clus>
<clus scale="  276.684">  1  3  2 -1</clus>
<clus scale="   55.709">  1  3  2 -1</clus>
</clustering>
</event>
<event>
 6    0  0.6207838E+002  0.8207385E+02  0.7546771E-02  0.1323267E+00
         21   -1    0    0  505  501  0.00000000000E+00  0.00000000000E+00  0.43527890743E+03  0.43527890743E+03  0.00000000000E+00 0. -1.
         21   -1    0    0  504  502 -0.00000000000E+00 -0.00000000000E+00 -0.66256475659E+03  0.66256475659E+03  0.00000000000E+00 0.  1.
         21    1    1    2  503  501 -0.30795064668E+02 -0.34260821819E+02  0.40532497622E+03  0.40793440192E+03  0.00000000000E+00 0. -1.
         21    1    1    2  504  506  0.98230207324E+02 -0.36181862481E+02 -0.48423459893E+03  0.49542047556E+03  0.00000000000E+00 0.  1.
         21    1    1    2  505  502 -0.12684828673E+02  0.29762981054E+02 -0.11322201187E+03  0.11775382750E+03  0.00000000000E+00 0.  1.
         21    1    1    2  506  503 -0.54750313983E+02  0.40679703246E+02 -0.35154214581E+02  0.76734959049E+02  0.00000000000E+00 0. -1.
<scales pt_clust_3="46.03418" pt_clust_4="14000.00000" pt_clust_5="32.35336" pt_clust_6="82.07385"></scales>
<clustering>
<clus scale="   32.353">  2  5  1 -1</clus>
<clus scale="   46.034">  1  3  2 -1</clus>
<clus scale="   82.074">  1  6  2 -1</clus>
<clus scale="   46.034">  1  3  2 -1</clus>
</clustering>
</event>
<event>
 6    0  0.6207838E+002  0.1601605E+03  0.7546771E-02  0.1188516E+00
         21   -1    0    0  502  501  0.00000000000E+00  0.00000000000E+00  0.93503830145E+03  0.93503830145E+03  0.00000000000E+00 0. -1.
         21   -1    0    0  505  502 -0.00000000000E+00 -0.00000000000E+00 -0.21777485812E+03  0.21777485812E+03  0.00000000000E+00 0.  1.
         21    1    1    2  503  501  0.10759008480E+03 -0.10526797174E+03  0.88008407502E+03  0.89286334414E+03  0.00000000000E+00 0. -1.
         21    1    1    2  504  503  0.55737033222E+01  0.52037131892E+02 -0.48972504332E+02  0.71674510426E+02  0.00000000000E+00 0.  1.
         21    1    1    2  505  506 -0.59436803459E+02 -0.83427105184E+01 -0.79547579975E+02  0.99650147537E+02  0.00000000000E+00 0.  1.
         21    1    1    2  506  504 -0.53726984659E+02  0.61573550366E+02 -0.34300547382E+02  0.88625157466E+02  0.00000000000E+00 0.  1.
<scales pt_clust_3="148.71421" pt_clust_4="47.58369" pt_clust_5="60.01945" pt_clust_6="47.58369"></scales>
<clustering>
<clus scale="   47.584">  4  6 -1 -1</clus>
<clus scale="   60.019">  2  5  1 -1</clus>
<clus scale="  148.714">  1  3  2 -1</clus>
<clus scale="  148.714">  1  3  2 -1</clus>
</clustering>
</event>
<event>
 6    0  0.6207838E+002  0.4916999E+03  0.7546771E-02  0.1015968E+00
         21   -1    0    0  503  501  0.00000000000E+00  0.00000000000E+00  0.12687433611E+04  0.12687433611E+04  0.00000000000E+00 0. -1.
         21   -1    0    0  506  502 -0.00000000000E+00 -0.00000000000E+00 -0.44670628958E+03  0.44670628958E+03  0.00000000000E+00 0. -1.
         21    1    1    2  503  504  0.38150370914E+03 -0.30225798744E+03  0.10198151169E+04  0.11300123202E+04  0.00000000000E+00 0. -1.
         21    1    1    2  504  505 -0.15354524828E+03  0.96629618768E+02  0.34287249662E+01  0.18145297640E+03  0.00000000000E+00 0. -1.
         21    1    1    2  505  502 -0.13390176658E+03  0.20758432255E+03 -0.10197236962E+03  0.26724389278E+03  0.00000000000E+00 0. -1.
         21    1    1    2  506  501 -0.94056694286E+02 -0.19559538790E+01 -0.99234400693E+02  0.13674046137E+03  0.00000000000E+00 0. -1.
<scales pt_clust_3="474.68166" pt_clust_4="109.55740" pt_clust_5="109.55740" pt_clust_6="94.07703"></scales>
<clustering>
<clus scale="   94.077">  2  6  1 -1</clus>
<clus scale="  109.557">  4  5 -1 -1</clus>
<clus scale="  474.682">  1  3  2 -1</clus>
<clus scale="  474.682">  1  3  2 -1</clus>
</clustering>
</event>
<event>
 6    0  0.6207838E+002  0.1046475E+03  0.7546771E-02  0.1270816E+00
         21   -1    0    0  505  501  0.00000000000E+00  0.00000000000E+00  0.59617627926E+02  0.59617627926E+02  0.00000000000E+00 0. -1.
         21   -1    0    0  503  502 -0.00000000000E+00 -0.00000000000E+00 -0.59215703653E+03  0.59215703653E+03  0.00000000000E+00 0. -1.
         21    1    1    2  503  506  0.38825822602E+01  0.31657604462E+02 -0.46509859685E+02  0.56395437875E+02  0.00000000000E+00 0. -1.
         21    1    1    2  504  502  0.92309819782E+02 -0.44747154122E+02 -0.31996366904E+03  0.33600619062E+03  0.00000000000E+00 0. -1.
         21    1    1    2  505  504  0.24411361129E+02  0.27600555687E+02  0.16269771401E+02  0.40279159473E+02  0.00000000000E+00 0. -1.
         21    1    1    2  506  501 -0.12060376317E+03 -0.14511006026E+02 -0.18233565129E+03  0.21909387650E+03  0.00000000000E+00 0. -1.
<scales pt_clust_3="31.89480" pt_clust_4="104.64751" pt_clust_5="37.43279" pt_clust_6="14000.00000"></scales>
<clustering>
<clus scale="   31.895">  2  3  1 -1</clus>
<clus scale="   37.433">  1  5  2 -1</clus>
<clus scale="  104.648">  2  4  1 -1</clus>
<clus scale="   37.433">  1  3  2 -1</clus>
</clustering>
</event>
<event>
 6    0  0.6207838E+002  0.9819304E+02  0.7546771E-02  0.1284142E+00
         21   -1    0    0  506  501  0.00000000000E+00  0.00000000000E+00  0.11482501719E+04  0.11482501719E+04  0.00000000000E+00 0.  1.
         21   -1    0    0  503  502 -0.00000000000E+00 -0.00000000000E+00 -0.18932757723E+03  0.18932757723E+03  0.00000000000E+00 0.  1.
         21    1    1    2  503  504 -0.51623287239E+02 -0.21996315095E+02 -0.35144484185E+02  0.66211301389E+02  0.00000000000E+00 0.  1.
         21    1    1    2  504  501  0.80955483942E+02 -0.56973836374E+02  0.10293334670E+04  0.10340827794E+04  0.00000000000E+00 0.  1.
         21    1    1    2  505  502 -0.19381033871E+02 -0.47819178668E+02 -0.86055026193E+02  0.10033825719E+03  0.00000000000E+00 0.  1.
         21    1    1    2  506  505 -0.99511628326E+01  0.12678933014E+03  0.50788638064E+02  0.13694541115E+03  0.00000000000E+00 0.  1.
<scales pt_clust_3="77.79845" pt_clust_4="98.19304" pt_clust_5="51.59746" pt_clust_6="14000.00000"></scales>
<clustering>
<clus scale="   51.597">  2  5  1 -1</clus>
<clus scale="   77.798">  2  3  1 -1</clus>
<clus scale="   98.193">  1  4  2 -1</clus>
<clus scale="   98.193">  1  3  2 -1</clus>
</clustering>
</event>
<event>
 6    0  0.6207838E+002  0.9526968E+02  0.7546771E-02  0.1290570E+00
         21   -1    0    0  503  501  0.00000000000E+00  0.00000000000E+00  0.29493595217E+03  0.29493595217E+03  0.00000000000E+00 0. -1.
         21   -1    0    0  505  502 -0.00000000000E+00 -0.00000000000E+00 -0.12223092165E+03  0.12223092165E+03  0.00000000000E+00 0.  1.
         21    1    1    2  503  504 -0.21064514762E+02 -0.29199832306E+02  0.27957683846E+02  0.45584822857E+02  0.00000000000E+00 0. -1.
         21    1    1    2  504  502 -0.82315506467E+02 -0.62038631002E+02 -0.50904235714E+02  0.11496032166E+03  0.00000000000E+00 0.  1.
         21    1    1    2  505  506  0.63173585989E+02  0.48884949107E+02  0.37912421378E+02  0.88419409129E+02  0.00000000000E+00 0. -1.
         21    1    1    2  506  501  0.40206435239E+02  0.42353514201E+02  0.15773916101E+03  0.16820232019E+03  0.00000000000E+00 0. -1.
<scales pt_clust_3="36.00478" pt_clust_4="14000.00000" pt_clust_5="95.26968" pt_clust_6="36.00413"></scales>
<clustering>
<clus scale="   36.005">  1  3  2 -1</clus>
<clus scale="   36.004">  1  6  2 -1</clus>
<clus scale="   95.270">  1  5  2 -1</clus>
<clus scale="   36.005">  1  3  2 -1</clus>
</clustering>
</event>
<event>
 6    0  0.6207838E+002  0.6914618E+02  0.7546771E-02  0.1363021E+00
         21   -1    0    0  503  501  0.00000000000E+00  0.00000000000E+00  0.19225715787E+03  0.19225715787E+03  0.00000000000E+00 0.  1.
         21   -1    0    0  504  502 -0.00000000000E+00 -0.00000000000E+00 -0.11103981315E+03  0.11103981315E+03  0.00000000000E+00 0.  1.
         21    1    1    2  503  506 -0.16628933579E+02 -0.61031925009E+02  0.34604837120E+02  0.72103481569E+02  0.00000000000E+00 0.  1.
         21    1    1    2  504  505 -0.17714553156E+02  0.71949788450E+02  0.11731030793E+02  0.75021293877E+02  0.00000000000E+00 0.  1.
         21    1    1    2  505  501  0.76915733898E+02 -0.18102362073E+02  0.65997681180E+02  0.10295348248E+03  0.00000000000E+00 0.  1.
         21    1    1    2  506  502 -0.42572247163E+02  0.71844986322E+01 -0.31116204374E+02  0.53218713097E+02  0.00000000000E+00 0.  1.
<scales pt_clust_3="65.46958" pt_clust_4="69.14618" pt_clust_5="14000.00000" pt_clust_6="43.17422"></scales>
<clustering>
<clus scale="   43.174">  2  6  1 -1</clus>
<clus scale="   65.470">  1  3  2 -1</clus>
<clus scale="   69.146">  2  4  1 -1</clus>
<clus scale="   65.470">  1  3  2 -1</clus>
</clustering>
</event>
<event>
 6    0  0.6207838E+002  0.1206785E+03  0.7546771E-02  0.1241982E+00
         21   -1    0    0  506  501  0.00000000000E+00  0.00000000000E+00  0.48191462524E+03  0.48191462524E+03  0.00000000000E+00 0.  1.
         21   -1    0    0  505  502 -0.00000000000E+00 -0.00000000000E+00 -0.16591789762E+03  0.16591789762E+03  0.00000000000E+00 0.  1.
         21    1    1    2  503  502 -0.42706898853E+02 -0.16379287742E+02 -0.11570515241E+03  0.12441801546E+03  0.00000000000E+00 0.  1.
         21    1    1    2  504  501 -0.16513459958E+02  0.11433825554E+03  0.19943355565E+03  0.23047705777E+03  0.00000000000E+00 0.  1.
         21    1    1    2  505  504 -0.31427765614E+02  0.75075332277E+01  0.16620353237E+02  0.36335982832E+02  0.00000000000E+00 0.  1.
         21    1    1    2  506  503  0.90648124425E+02 -0.10546650103E+03  0.21564797115E+03  0.25660146680E+03  0.00000000000E+00 0.  1.
<scales pt_clust_3="67.72049" pt_clust_4="14000.00000" pt_clust_5="32.31203" pt_clust_6="120.67848"></scales>
<clustering>
<clus scale="   32.312">  2  5  1 -1</clus>
<clus scale="   67.720">  2  3  1 -1</clus>
<clus scale="  120.678">  2  6  1 -1</clus>
<clus scale="  120.678">  1  3  2 -1</clus>
</clustering>
</event>
<event>
 6    0  0.6207838E+002  0.9907269E+02  0.7546771E-02  0.1282258E+00
         21   -1    0    0  504  501  0.00000000000E+00  0.00000000000E+00  0.25775669882E+03  0.25775669882E+03  0.00000000000E+00 0. -1.
         21   -1    0    0  505  502 -0.00000000000E+00 -0.00000000000E+00 -0.38119698023E+03  0.38119698023E+03  0.00000000000E+00 0. -1.
         21    1    1    2  503  502 -0.14684314054E+02  0.41834781112E+02 -0.52398775888E+02  0.68639709385E+02  0.00000000000E+00 0. -1.
         21    1    1    2  504  503  0.79277694463E+02  0.57688017258E+01  0.10152392614E+02  0.80133033067E+02  0.00000000000E+00 0. -1.
         21    1    1    2  505  506  0.10422375806E+03 -0.38160421768E+02 -0.23608815686E+03  0.26087626827E+03  0.00000000000E+00 0. -1.
         21    1    1    2  506  501 -0.16881713847E+03 -0.94431610694E+01  0.15489425872E+03  0.22930466833E+03  0.00000000000E+00 0. -1.
<scales pt_clust_3="44.33709" pt_clust_4="78.35978" pt_clust_5="14000.00000" pt_clust_6="99.07269"></scales>
<clustering>
<clus scale="   44.337">  2  3  1 -1</clus>
<clus scale="   78.360">  1  4  2 -1</clus>
<clus scale="   99.073">  1  6  2 -1</clus>
<clus scale="   78.360">  1  3  2 -1</clus>
</clustering>
</event>
<event>
 6    0  0.6207838E+002  0.8199328E+02  0.7546771E-02  0.1323488E+00
         21   -1    0    0  503  501  0.00000000000E+00  0.00000000000E+00  0.10443773495E+03  0.10443773495E+03  0.00000000000E+00 0.  1.
         21   -1    0    0  504  502 -0.00000000000E+00 -0.00000000000E+00 -0.17996271908E+04  0.17996271908E+04  0.00000000000E+00 0.  1.
         21    1    1    2  503  505  0.44729565382E+01  0.57448583493E+02 -0.35051008949E+03  0.35521496297E+03  0.00000000000E+00 0.  1.
         21    1    1    2  504  506 -0.49778979066E+02 -0.93592884318E+02 -0.12518488682E+04  0.12563292417E+04  0.00000000000E+00 0.  1.
         21    1    1    2  505  502 -0.31676034197E+02  0.78183385731E+01 -0.17405252069E+03  0.17708409731E+03  0.00000000000E+00 0.  1.
         21    1    1    2  506  501  0.76982056725E+02  0.28325962252E+02  0.81222022448E+02  0.11543662385E+03  0.00000000000E+00 0.  1.
<scales pt_clust_3="59.19634" pt_clust_4="14000.00000" pt_clust_5="32.62664" pt_clust_6="81.99328"></scales>
<clustering>
<clus scale="   32.627">  2  5  1 -1</clus>
<clus scale="   59.196">  2  3  1 -1</clus>
<clus scale="   81.993">  1  6  2 -1</clus>
<clus scale="   81.993">  1  3  2 -1</clus>
</clustering>
</event>
<event>
 6    0  0.6207838E+002  0.2586607E+03  0.7546771E-02  0.1107951E+00
         21   -1    0    0  505  501  0.00000000000E+00  0.00000000000E+00  0.13091484978E+04  0.13091484978E+04  0.00000000000E+00 0.  1.
         21   -1    0    0  504  502 -0.00000000000E+00 -0.00000000000E+00 -0.23550321653E+03  0.23550321653E+03  0.00000000000E+00 0.  1.
         21    1    1    2  503  502 -0.12267949667E+03 -0.80076698086E+02 -0.79081448212E+02  0.16648246734E+03  0.00000000000E+00 0.  1.
         21    1    1    2  504  501  0.16175208075E+03  0.26088658232E+02  0.10640763864E+04  0.10766164172E+04  0.00000000000E+00 0.  1.
         21    1    1    2  505  506  0.78790039442E+02  0.67263643583E+02  0.13844688217E+03  0.17291560730E+03  0.00000000000E+00 0.  1.
         21    1    1    2  506  503 -0.11786262353E+03 -0.13275603729E+02 -0.49796539160E+02  0.12863722242E+03  0.00000000000E+00 0.  1.
<scales pt_clust_3="56.26997" pt_clust_4="250.98693" pt_clust_5="103.59666" pt_clust_6="56.26997"></scales>
<clustering>
<clus scale="   56.270">  3  6 -1 -1</clus>
<clus scale="  103.597">  1  5  2 -1</clus>
<clus scale="  250.987">  1  4  2 -1</clus>
<clus scale="  103.597">  1  3  2 -1</clus>
</clustering>
</event>
<event>
 6    0  0.6207838E+002  0.2170479E+03  0.7546771E-02  0.1136103E+00
         21   -1    0    0  505  501  0.00000000000E+00  0.00000000000E+00  0.18862559553E+03  0.18862559553E+03  0.00000000000E+00 0. -1.
         21   -1    0    0  506  502 -0.00000000000E+00 -0.00000000000E+00 -0.25411936839E+04  0.25411936839E+04  0.00000000000E+00 0. -1.
         21    1    1    2  503  501 -0.13577066315E+03 -0.16429201688E+03  0.82450498820E+02  0.22852488822E+03  0.00000000000E+00 0. -1.
         21    1    1    2  504  503  0.11471980654E+03 -0.14027005544E+03 -0.91098383879E+03  0.92883145780E+03  0.00000000000E+00 0. -1.
         21    1    1    2  505  502  0.87803862649E+02  0.30171743152E+03 -0.13488639609E+04  0.13849826395E+04  0.00000000000E+00 0. -1.
         21    1    1    2  506  504 -0.66753006035E+02  0.28446407981E+01 -0.17517078754E+03  0.18748029391E+03  0.00000000000E+00 0. -1.
<scales pt_clust_3="217.04786" pt_clust_4="165.02508" pt_clust_5="14000.00000" pt_clust_6="66.81359"></scales>
<clustering>
<clus scale="   66.814">  2  6  1 -1</clus>
<clus scale="  165.025">  2  4  1 -1</clus>
<clus scale="  217.048">  1  3  2 -1</clus>
<clus scale="  217.048">  1  3  2 -1</clus>
</clustering>
</event>
<event>
 6    0  0.6207838E+002  0.8844338E+02  0.7546771E-02  0.1306666E+00
         21   -1    0    0  506  501  0.00000000000E+00  0.00000000000E+00  0.32681008437E+03  0.32681008437E+03  0.00000000000E+00 0.  1.
         21   -1    0    0  503  502 -0.00000000000E+00 -0.00000000000E+00 -0.19959462151E+03  0.19959462151E+03  0.00000000000E+00 0.  1.
         21    1    1    2  503  505  0.18284549739E+02 -0.38728291015E+02 -0.10690740235E+03  0.11516682665E+03  0.00000000000E+00 0.  1.
         21    1    1    2  504  501  0.45184090992E+02  0.14412382556E+02  0.83746837775E+02  0.96243709857E+02  0.00000000000E+00 0.  1.
         21    1    1    2  505  504  0.46131520671E+02  0.84569132068E+02 -0.25060835009E+02  0.99539443184E+02  0.00000000000E+00 0.  1.
         21    1    1    2  506  502 -0.10960016140E+03 -0.60253223609E+02  0.17543686244E+03  0.21545472619E+03  0.00000000000E+00 0.  1.
<scales pt_clust_3="42.82762" pt_clust_4="47.91941" pt_clust_5="14000.00000" pt_clust_6="88.44338"></scales>
<clustering>
<clus scale="   42.828">  2  3  1 -1</clus>
<clus scale="   47.919">  1  4  2 -1</clus>
<clus scale="   88.443">  1  6  2 -1</clus>
<clus scale="   47.919">  1  3  2 -1</clus>
</clustering>
</event>
<event>
 6    0  0.6207838E+002  0.1383960E+03  0.7546771E-02  0.1215504E+00
         21   -1    0    0  503  501  0.00000000000E+00  0.00000000000E+00  0.10848647329E+04  0.10848647329E+04  0.00000000000E+00 0.  1.
         21   -1    0    0  506  502 -0.00000000000E+00 -0.00000000000E+00 -0.26484635151E+03  0.26484635151E+03  0.00000000000E+00 0. -1.
         21    1    1    2  503  502  0.12780046082E+03  0.42655582547E+02  0.10486727838E+04  0.10572923266E+04  0.00000000000E+00 0.  1.
         21    1    1    2  504  501 -0.61414835099E+02  0.58756479566E+01 -0.27819674914E+02  0.67677466866E+02  0.00000000000E+00 0. -1.
         21    1    1    2  505  504 -0.33278555699E+02 -0.23219387155E+02 -0.34490040868E+02  0.53255658182E+02  0.00000000000E+00 0. -1.
         21    1    1    2  506  505 -0.33107070019E+02 -0.25311843348E+02 -0.16634468656E+03  0.17148563277E+03  0.00000000000E+00 0. -1.
<scales pt_clust_3="132.96157" pt_clust_4="31.14366" pt_clust_5="31.14366" pt_clust_6="41.67454"></scales>
<clustering>
<clus scale="   31.144">  4  5 -1 -1</clus>
<clus scale="   41.675">  2  6  1 -1</clus>
<clus scale="  132.962">  1  3  2 -1</clus>
<clus scale="  132.962">  1  3  2 -1</clus>
</clustering>
</event>
<event>
 6    0  0.6207838E+002  0.1178555E+03  0.7546771E-02  0.1246677E+00
         21   -1    0    0  505  501  0.00000000000E+00  0.00000000000E+00  0.63658070205E+03  0.63658070205E+03  0.00000000000E+00 0. -1.
         21   -1    0    0  503  502 -0.00000000000E+00 -0.00000000000E+00 -0.11152234779E+04  0.11152234779E+04  0.00000000000E+00 0.  1.
         21    1    1    2  503  501 -0.92079811764E+02 -0.10200846117E+03 -0.33776535953E+03  0.36465032015E+03  0.00000000000E+00 0.  1.
         21    1    1    2  504  506  0.95771726001E+02  0.47511838031E+02 -0.22142043920E+03  0.24587925726E+03  0.00000000000E+00 0.  1.
         21    1    1    2  505  504 -0.33861513172E+02  0.49503200880E+02  0.60899366359E+03  0.61193990821E+03  0.00000000000E+00 0. -1.
         21    1    1    2  506  502  0.30169598934E+02  0.49934222599E+01 -0.52845064075E+03  0.52933469438E+03  0.00000000000E+00 0.  1.
<scales pt_clust_3="117.85547" pt_clust_4="14000.00000" pt_clust_5="59.94400" pt_clust_6="30.58004"></scales>
<clustering>
<clus scale="   30.580">  2  6  1 -1</clus>
<clus scale="   59.944">  1  5  2 -1</clus>
<clus scale="  117.855">  2  3  1 -1</clus>
<clus scale="   59.944">  1  3  2 -1</clus>
</clustering>
</event>
<event>
 6    0  0.6207838E+002  0.9689117E+02  0.7546771E-02  0.1286973E+00
         21   -1    0    0  503  501  0.00000000000E+00  0.00000000000E+00  0.41440366019E+03  0.41440366019E+03  0.00000000000E+00 0.  1.
         21   -1    0    0  504  502 -0.00000000000E+00 -0.00000000000E+00 -0.20996648143E+03  0.20996648143E+03  0.00000000000E+00 0. -1.
         21    1    1    2  503  505 -0.42837664617E+02  0.10406319060E+02  0.14091562686E+03  0.14765016383E+03  0.00000000000E+00 0.  1.
         21    1    1    2  504  501  0.13561620219E+02 -0.28975397481E+02  0.16432367329E+03  0.16740896274E+03  0.00000000000E+00 0.  1.
         21    1    1    2  505  506 -0.71318230331E+02  0.18755852348E+02  0.75998800363E+02  0.10589565445E+03  0.00000000000E+00 0. -1.
         21    1    1    2  506  502  0.10059427473E+03 -0.18677392701E+00 -0.17680092175E+03  0.20341536060E+03  0.00000000000E+00 0. -1.
<scales pt_clust_3="35.54832" pt_clust_4="31.99205" pt_clust_5="14000.00000" pt_clust_6="96.89117"></scales>
<clustering>
<clus scale="   31.992">  1  4  2 -1</clus>
<clus scale="   35.548">  1  3  2 -1</clus>
<clus scale="   96.891">  2  6  1 -1</clus>
<clus scale="   31.992">  1  3  2 -1</clus>
</clustering>
</event>
<event>
 6    0  0.6207838E+002  0.1393901E+03  0.7546771E-02  0.1214152E+00
         21   -1    0    0  506  501  0.00000000000E+00  0.00000000000E+00  0.11677393694E+03  0.11677393694E+03  0.00000000000E+00 0. -1.
         21   -1    0    0  503  502 -0.00000000000E+00 -0.00000000000E+00 -0.61008093909E+03  0.61008093909E+03  0.00000000000E+00 0.  1.
         21    1    1    2  503  504  0.36978443984E+02 -0.33408401236E+02 -0.88985520534E+02  0.10198994782E+03  0.00000000000E+00 0.  1.
         21    1    1    2  504  501  0.80169338453E+02 -0.74659169581E+02 -0.70460728528E+02  0.13025294122E+03  0.00000000000E+00 0. -1.
         21    1    1    2  505  502 -0.46728568919E+02  0.98489921536E+01 -0.36636391641E+03  0.36946323369E+03  0.00000000000E+00 0.  1.
         21    1    1    2  506  505 -0.70419213519E+02  0.98218578663E+02  0.32503163320E+02  0.12514875330E+03  0.00000000000E+00 0.  1.
<scales pt_clust_3="37.62212" pt_clust_4="37.62212" pt_clust_5="47.75523" pt_clust_6="127.74253"></scales>
<clustering>
<clus scale="   37.622">  3  4 -1 -1</clus>
<clus scale="   47.755">  2  5  1 -1</clus>
<clus scale="  127.743">  1  6  2 -1</clus>
<clus scale="  127.743">  1  3  2 -1</clus>
</clustering>
</event>
<event>
 6    0  0.6207838E+002  0.7362973E+02  0.7546771E-02  0.1348168E+00
         21   -1    0    0  504  501  0.00000000000E+00  0.00000000000E+00  0.97185201787E+02  0.97185201787E+02  0.00000000000E+00 0. -1.
         21   -1    0    0  503  502 -0.00000000000E+00 -0.00000000000E+00 -0.87018849719E+03  0.87018849719E+03  0.00000000000E+00 0.  1.
         21    1    1    2  503  501 -0.64455911197E+02  0.35391153736E+02 -0.25751697683E+02  0.77911797468E+02  0.00000000000E+00 0. -1.
         21    1    1    2  504  505  0.14533657971E+02 -0.49855830102E+02 -0.12884736050E+02  0.53505583187E+02  0.00000000000E+00 0. -1.
         21    1    1    2  505  506  0.80077664362E+02  0.49671438858E+02  0.57328369402E+01  0.94406300570E+02  0.00000000000E+00 0. -1.
         21    1    1    2  506  502 -0.30155411136E+02 -0.35206762493E+02 -0.74009969861E+03  0.74155001775E+03  0.00000000000E+00 0.  1.
<scales pt_clust_3="14000.00000" pt_clust_4="59.28081" pt_clust_5="73.62973" pt_clust_6="46.35585"></scales>
<clustering>
<clus scale="   46.356">  2  6  1 -1</clus>
<clus scale="   59.281">  1  4  2 -1</clus>
<clus scale="   73.630">  1  5  2 -1</clus>
<clus scale="   59.281">  1  3  2 -1</clus>
</clustering>
</event>
<event>
 6    0  0.6207838E+002  0.8309269E+02  0.7546771E-02  0.1320497E+00
         21   -1    0    0  506  501  0.00000000000E+00  0.00000000000E+00  0.11291142193E+04  0.11291142193E+04  0.00000000000E+00 0. -1.
         21   -1    0    0  504  502 -0.00000000000E+00 -0.00000000000E+00 -0.20100481470E+02  0.20100481470E+02  0.00000000000E+00 0. -1.
         21    1    1    2  503  505 -0.74173386374E+02  0.52036751799E+02  0.28479112511E+03  0.29885698876E+03  0.00000000000E+00 0. -1.
         21    1    1    2  504  503 -0.22443084684E+02 -0.20991431212E+02  0.25724295475E+02  0.40075823286E+02  0.00000000000E+00 0.  1.
         21    1    1    2  505  501  0.47543803478E+02  0.26644202048E+02  0.47085803715E+03  0.47400170664E+03  0.00000000000E+00 0. -1.
         21    1    1    2  506  502  0.49072667580E+02 -0.57689522635E+02  0.32764028008E+03  0.33628018208E+03  0.00000000000E+00 0. -1.
<scales pt_clust_3="83.09269" pt_clust_4="30.72999" pt_clust_5="50.87949" pt_clust_6="14000.00000"></scales>
<clustering>
<clus scale="   30.730">  2  4  1 -1</clus>
<clus scale="   50.879">  1  5  2 -1</clus>
<clus scale="   83.093">  2  3  1 -1</clus>
<clus scale="   50.879">  1  3  2 -1</clus>
</clustering>
</event>
<event>
 6    0  0.6207838E+002  0.8503735E+02  0.7546771E-02  0.1315335E+00
         21   -1    0    0  506  501  0.00000000000E+00  0.00000000000E+00  0.10323948902E+03  0.10323948902E+03  0.00000000000E+00 0. -1.
         21   -1    0    0  504  502 -0.00000000000E+00 -0.00000000000E+00 -0.54072007351E+03  0.54072007351E+03  0.00000000000E+00 0. -1.
         21    1    1    2  503  501  0.63951349374E+02 -0.51228653781E+02  0.16614760526E+01  0.81956760293E+02  0.00000000000E+00 0. -1.
         21    1    1    2  504  505 -0.35516009895E+02 -0.25769529220E+02 -0.40989994889E+03  0.41224194800E+03  0.00000000000E+00 0. -1.
         21    1    1    2  505  503 -0.31842937356E+01  0.10535039649E+03 -0.35635376426E+02  0.11125972236E+03  0.00000000000E+00 0. -1.
         21    1    1    2  506  502 -0.25251045743E+02 -0.28352213491E+02  0.63932647675E+01  0.38501131871E+02  0.00000000000E+00 0. -1.
<scales pt_clust_3="85.03735" pt_clust_4="44.41773" pt_clust_5="14000.00000" pt_clust_6="37.96661"></scales>
<clustering>
<clus scale="   37.967">  1  6  2 -1</clus>
<clus scale="   44.418">  2  4  1 -1</clus>
<clus scale="   85.037">  1  3  2 -1</clus>
<clus scale="   37.967">  1  3  2 -1</clus>
</clustering>
</event>
<event>
 6    0  0.6207838E+002  0.1200265E+03  0.7546771E-02  0.1243053E+00
         21   -1    0    0  503  501  0.00000000000E+00  0.00000000000E+00  0.15424019247E+03  0.15424019247E+03  0.00000000000E+00 0.  1.
         21   -1    0    0  505  502 -0.00000000000E+00 -0.00000000000E+00 -0.25729079606E+03  0.25729079606E+03  0.00000000000E+00 0.  1.
         21    1    1    2  503  506 -0.39743402355E+02  0.21718256567E+02 -0.84870800869E+02  0.96199134815E+02  0.00000000000E+00 0. -1.
         21    1    1    2  504  501  0.60048646410E+02 -0.89337790370E+02  0.10063061791E+03  0.14735535954E+03  0.00000000000E+00 0.  1.
         21    1    1    2  505  504  0.31266309891E+02  0.46055759156E+01 -0.59042172491E+02  0.66968437314E+02  0.00000000000E+00 0.  1.
         21    1    1    2  506  502 -0.51571553945E+02  0.63013957887E+02 -0.59768248138E+02  0.10100805686E+03  0.00000000000E+00 0.  1.
<scales pt_clust_3="33.55548" pt_clust_4="109.33481" pt_clust_5="31.60369" pt_clust_6="33.55548"></scales>
<clustering>
<clus scale="   31.604">  2  5  1 -1</clus>
<clus scale="   33.555">  3  6 -1 -1</clus>
<clus scale="  109.335">  1  4  2 -1</clus>
<clus scale="  109.335">  1  3  2 -1</clus>
</clustering>
</event>
<event>
 6    0  0.6207838E+002  0.1304903E+03  0.7546771E-02  0.1226730E+00
         21   -1    0    0  505  501  0.00000000000E+00  0.00000000000E+00  0.15265318052E+03  0.15265318052E+03  0.00000000000E+00 0.  1.
         21   -1    0    0  503  502 -0.00000000000E+00 -0.00000000000E+00 -0.53870529454E+03  0.53870529454E+03  0.00000000000E+00 0.  1.
         21    1    1    2  503  504 -0.55261323841E+02  0.12783952176E+02 -0.40249985677E+03  0.40647678661E+03  0.00000000000E+00 0.  1.
         21    1    1    2  504  506 -0.39245350918E+02  0.10555914966E+02 -0.41541875851E+02  0.58114992547E+02  0.00000000000E+00 0. -1.
         21    1    1    2  505  502  0.13755780961E+03  0.91240088353E+01  0.89452966960E+02  0.16433877150E+03  0.00000000000E+00 0.  1.
         21    1    1    2  506  501 -0.43051134848E+02 -0.32463875977E+02 -0.31463348357E+02  0.62427924401E+02  0.00000000000E+00 0.  1.
<scales pt_clust_3="56.72075" pt_clust_4="38.31932" pt_clust_5="122.79889" pt_clust_6="38.31932"></scales>
<clustering>
<clus scale="   38.319">  4  6 -1 -1</clus>
<clus scale="   56.721">  2  3  1 -1</clus>
<clus scale="  122.799">  1  5  2 -1</clus>
<clus scale="  122.799">  1  3  2 -1</clus>
</clustering>
</event>
<event>
 6    0  0.6207838E+002  0.1409389E+03  0.7546771E-02  0.1212071E+00
         21   -1    0    0  505  501  0.00000000000E+00  0.00000000000E+00  0.62721787683E+03  0.62721787683E+03  0.00000000000E+00 0. -1.
         21   -1    0    0  503  502 -0.00000000000E+00 -0.00000000000E+00 -0.14666819266E+03  0.14666819266E+03  0.00000000000E+00 0. -1.
         21    1    1    2  503  504  0.11275920801E+03  0.82076122448E+02  0.73924700132E+02  0.15784799700E+03  0.00000000000E+00 0. -1.
         21    1    1    2  504  506 -0.11028965783E+03 -0.56038257717E+02  0.23995075153E+03  0.26996380889E+03  0.00000000000E+00 0. -1.
         21    1    1    2  505  502  0.39147305095E+02 -0.18103296026E+02 -0.82622832152E+02  0.93202860557E+02  0.00000000000E+00 0. -1.
         21    1    1    2  506  501 -0.41616855276E+02 -0.79345687041E+01  0.24929706467E+03  0.25287140304E+03  0.00000000000E+00 0. -1.
<scales pt_clust_3="14000.00000" pt_clust_4="140.93889" pt_clust_5="42.64751" pt_clust_6="42.36650"></scales>
<clustering>
<clus scale="   42.366">  1  6  2 -1</clus>
<clus scale="   42.648">  2  5  1 -1</clus>
<clus scale="  140.939">  1  4  2 -1</clus>
<clus scale="   42.366">  1  3  2 -1</clus>
</clustering>
</event>
<event>
 6    0  0.6207838E+002  0.9193431E+02  0.7546771E-02  0.1298234E+00
         21   -1    0    0  503  501  0.00000000000E+00  0.00000000000E+00  0.11099932564E+04  0.11099932564E+04  0.00000000000E+00 0. -1.
         21   -1    0    0  506  502 -0.00000000000E+00 -0.00000000000E+00 -0.42907537067E+03  0.42907537067E+03  0.00000000000E+00 0.  1.
         21    1    1    2  503  505  0.49799235130E+02 -0.10149152715E+03 -0.92405271198E+02  0.14601105454E+03  0.00000000000E+00 0. -1.
         21    1    1    2  504  501  0.48875872204E+01  0.91686984866E+02  0.10594859559E+04  0.10634570431E+04  0.00000000000E+00 0. -1.
         21    1    1    2  505  502 -0.26954404251E+02 -0.22705655267E+02 -0.28466938635E+03  0.28684272034E+03  0.00000000000E+00 0.  1.
         21    1    1    2  506  504 -0.27732418100E+02  0.32510197551E+02 -0.14934126433E+01  0.42757809109E+02  0.00000000000E+00 0.  1.
<scales pt_clust_3="91.93431" pt_clust_4="14000.00000" pt_clust_5="35.24325" pt_clust_6="43.11019"></scales>
<clustering>
<clus scale="   35.243">  2  5  1 -1</clus>
<clus scale="   43.110">  2  6  1 -1</clus>
<clus scale="   91.934">  2  3  1 -1</clus>
<clus scale="   91.934">  1  3  2 -1</clus>
</clustering>
</event>
<event>
 6    0  0.6207838E+002  0.9712331E+02  0.7546771E-02  0.1286464E+00
         21   -1    0    0  504  501  0.00000000000E+00  0.00000000000E+00  0.41741434383E+03  0.41741434383E+03  0.00000000000E+00 0.  1.
         21   -1    0    0  503  502 -0.00000000000E+00 -0.00000000000E+00 -0.12679190630E+03  0.12679190630E+03  0.00000000000E+00 0.  1.
         21    1    1    2  503  506 -0.65881883159E+02  0.33819294545E+02 -0.68155031749E+02  0.10064430220E+03  0.00000000000E+00 0.  1.
         21    1    1    2  504  505  0.91689238523E+02 -0.85682624231E+02  0.33058144052E+03  0.35359937411E+03  0.00000000000E+00 0.  1.
         21    1    1    2  505  502  0.49499984286E+01  0.44194641387E+02 -0.41616628823E+01  0.44665291332E+02  0.00000000000E+00 0.  1.
         21    1    1    2  506  501 -0.30757353793E+02  0.76686882981E+01  0.32357691642E+02  0.45297282490E+02  0.00000000000E+00 0.  1.
<scales pt_clust_3="97.12331" pt_clust_4="14000.00000" pt_clust_5="44.72712" pt_clust_6="31.69895"></scales>
<clustering>
<clus scale="   31.699">  1  6  2 -1</clus>
<clus scale="   44.727">  2  5  1 -1</clus>
<clus scale="   97.123">  2  3  1 -1</clus>
<clus scale="   31.699">  1  3  2 -1</clus>
</clustering>
</event>
<event>
 6    0  0.6207838E+002  0.1034852E+03  0.7546771E-02  0.1273133E+00
         21   -1    0    0  506  501  0.00000000000E+00  0.00000000000E+00  0.22357368532E+04  0.22357368532E+04  0.00000000000E+00 0. -1.
         21   -1    0    0  503  502 -0.00000000000E+00 -0.00000000000E+00 -0.60374829380E+02  0.60374829380E+02  0.00000000000E+00 0. -1.
         21    1    1    2  503  504 -0.32340268713E+02  0.39697334097E+02  0.10535111991E+03  0.11713509202E+03  0.00000000000E+00 0. -1.
         21    1    1    2  504  505 -0.10419430152E+03 -0.19686388307E+02  0.66928332832E+02  0.12539301451E+03  0.00000000000E+00 0. -1.
         21    1    1    2  505  501  0.90239040052E+02  0.50926675794E+02  0.19518275273E+04  0.19545759916E+04  0.00000000000E+00 0. -1.
         21    1    1    2  506  502  0.46295530178E+02 -0.70937621584E+02  0.51255043844E+02  0.99007584507E+02  0.00000000000E+00 0. -1.
<scales pt_clust_3="51.20324" pt_clust_4="103.48521" pt_clust_5="14000.00000" pt_clust_6="62.43802"></scales>
<clustering>
<clus scale="   51.203">  2  3  1 -1</clus>
<clus scale="   62.438">  2  6  1 -1</clus>
<clus scale="  103.485">  2  4  1 -1</clus>
<clus scale="  103.485">  1  3  2 -1</clus>
</clustering>
</event>
<event>
 6    0  0.6207838E+002  0.9275895E+02  0.7546771E-02  0.1296305E+00
         21   -1    0    0  502  501  0.00000000000E+00  0.00000000000E+00  0.47399345819E+03  0.47399345819E+03  0.00000000000E+00 0. -1.
         21   -1    0    0  506  502 -0.00000000000E+00 -0.00000000000E+00 -0.16039633875E+04  0.16039633875E+04  0.00000000000E+00 0.  1.
         21    1    1    2  503  505  0.11709571013E+02  0.92283473780E+02 -0.88739185966E+03  0.89225426095E+03  0.00000000000E+00 0. -1.
         21    1    1    2  504  501 -0.28173861176E+02 -0.42167397649E+02  0.44540916016E+03  0.44828693471E+03  0.00000000000E+00 0. -1.
         21    1    1    2  505  504  0.57289615072E+02 -0.51304956537E+02 -0.37344297529E+02  0.85492076348E+02  0.00000000000E+00 0. -1.
         21    1    1    2  506  503 -0.40825324908E+02  0.11888804056E+01 -0.65064293230E+03  0.65192357369E+03  0.00000000000E+00 0.  1.
<scales pt_clust_3="92.75895" pt_clust_4="50.74626" pt_clust_5="14000.00000" pt_clust_6="40.84263"></scales>
<clustering>
<clus scale="   40.843">  2  6  1 -1</clus>
<clus scale="   50.746">  1  4  2 -1</clus>
<clus scale="   92.759">  2  3  1 -1</clus>
<clus scale="   50.746">  1  3  2 -1</clus>
</clustering>
</event>
<event>
 6    0  0.6207838E+002  0.1036042E+03  0.7546771E-02  0.1272894E+00
         21   -1    0    0  503  501  0.00000000000E+00  0.00000000000E+00  0.78397390440E+03  0.78397390440E+03  0.00000000000E+00 0. -1.
         21   -1    0    0  505  502 -0.00000000000E+00 -0.00000000000E+00 -0.78867879061E+03  0.78867879061E+03  0.00000000000E+00 0. -1.
         21    1    1    2  503  502  0.82039238900E+02 -0.49179175782E+02  0.80077787360E+02  0.12474566156E+03  0.00000000000E+00 0. -1.
         21    1    1    2  504  506  0.18898096160E+02  0.62953878366E+02 -0.72670122467E+02  0.97986098704E+02  0.00000000000E+00 0. -1.
         21    1    1    2  505  504  0.25567103106E+01  0.30679795212E+02 -0.67592209369E+03  0.67662283685E+03  0.00000000000E+00 0. -1.
         21    1    1    2  506  501 -0.10349404537E+03 -0.44454497797E+02  0.66380954259E+03  0.67329809790E+03  0.00000000000E+00 0. -1.
<scales pt_clust_3="103.60423" pt_clust_4="88.72498" pt_clust_5="30.78614" pt_clust_6="14000.00000"></scales>
<clustering>
<clus scale="   30.786">  2  5  1 -1</clus>
<clus scale="   88.725">  2  4  1 -1</clus>
<clus scale="  103.604">  2  3  1 -1</clus>
<clus scale="  103.604">  1  3  2 -1</clus>
</clustering>
</event>
<event>
 6    0  0.6207838E+002  0.1538747E+03  0.7546771E-02  0.1195791E+00
         21   -1    0    0  504  501  0.00000000000E+00  0.00000000000E+00  0.60215041581E+02  0.60215041581E+02  0.00000000000E+00 0. -1.
         21   -1    0    0  503  502 -0.00000000000E+00 -0.00000000000E+00 -0.38214738341E+03  0.38214738341E+03  0.00000000000E+00 0. -1.
         21    1    1    2  503  506 -0.44460105512E+02 -0.21044726801E+02 -0.78120450893E+02  0.92316771802E+02  0.00000000000E+00 0. -1.
         21    1    1    2  504  505  0.17775814506E+02  0.50283067897E+02 -0.95865545243E+02  0.10970218440E+03  0.00000000000E+00 0. -1.
         21    1    1    2  505  502  0.68861850301E+02  0.56902995828E+02 -0.96517163821E+02  0.13151223621E+03  0.00000000000E+00 0. -1.
         21    1    1    2  506  501 -0.42177559295E+02 -0.86141336924E+02 -0.51429181870E+02  0.10883123257E+03  0.00000000000E+00 0. -1.
<scales pt_clust_3="49.00432" pt_clust_4="36.06293" pt_clust_5="145.51045" pt_clust_6="49.00432"></scales>
<clustering>
<clus scale="   36.063">  4  5 -1 -1</clus>
<clus scale="   49.004">  3  6 -1 -1</clus>
<clus scale="  145.510">  2  4  1 -1</clus>
<clus scale="  153.875">  1  3  2 -1</clus>
</clustering>
</event>
<event>
 6    0  0.1067222E+003  0.1125627E+03  0.7546771E-02  0.1255896E+00
         21   -1    0    0  505  501  0.00000000000E+00  0.00000000000E+00  0.36464650693E+03  0.36464650693E+03  0.00000000000E+00 0.  1.
         21   -1    0    0  506  502 -0.00000000000E+00 -0.00000000000E+00 -0.10000691810E+04  0.10000691810E+04  0.00000000000E+00 0. -1.
         21    1    1    2  503  501  0.42649049656E+02  0.62851219611E+01  0.27404762474E+02  0.51082924749E+02  0.00000000000E+00 0.  1.
         21    1    1    2  504  503 -0.37661332726E+02  0.53731329295E+02  0.29919589661E+02  0.72115279767E+02  0.00000000000E+00 0.  1.
         21    1    1    2  505  502  0.17743762678E+02  0.50967275979E+02  0.26837218733E+03  0.27374465340E+03  0.00000000000E+00 0.  1.
         21    1    1    2  506  504 -0.22731479608E+02 -0.11098372724E+03 -0.96111921357E+03  0.96777283004E+03  0.00000000000E+00 0. -1.
<scales pt_clust_3="43.10968" pt_clust_4="62.87569" pt_clust_5="14000.00000" pt_clust_6="112.56275"></scales>
<clustering>
<clus scale="   43.110">  1  3  2 -1</clus>
<clus scale="   62.876">  1  4  2 -1</clus>
<clus scale="  112.563">  2  6  1 -1</clus>
<clus scale="   43.110">  1  3  2 -1</clus>
</clustering>
</event>
<event>
 6    0  0.6207838E+002  0.2420040E+03  0.7546771E-02  0.1118465E+00
         21   -1    0    0  502  501  0.00000000000E+00  0.00000000000E+00  0.79211608447E+02  0.79211608447E+02  0.00000000000E+00 0. -1.
         21   -1    0    0  504  502 -0.00000000000E+00 -0.00000000000E+00 -0.11028211539E+04  0.11028211539E+04  0.00000000000E+00 0. -1.
         21    1    1    2  503  501 -0.12740460670E+03  0.17304328921E+03 -0.11904988152E+03  0.24565990320E+03  0.00000000000E+00 0. -1.
         21    1    1    2  504  506  0.42684250598E+02 -0.49603958105E+01 -0.13943546554E+03  0.14590681898E+03  0.00000000000E+00 0. -1.
         21    1    1    2  505  503  0.57789389464E+02 -0.13111331476E+03 -0.66684325518E+03  0.68206322421E+03  0.00000000000E+00 0. -1.
         21    1    1    2  506  505  0.26930966634E+02 -0.36969578640E+02 -0.98280943222E+02  0.10840281597E+03  0.00000000000E+00 0. -1.
<scales pt_clust_3="214.88582" pt_clust_4="41.65443" pt_clust_5="41.65443" pt_clust_6="35.69808"></scales>
<clustering>
<clus scale="   35.698">  5  6 -1 -1</clus>
<clus scale="   41.654">  4  5 -1 -1</clus>
<clus scale="  214.886">  1  3  2 -1</clus>
<clus scale="  214.886">  1  3  2 -1</clus>
</clustering>
</event>
<event>
 6    0  0.6207838E+002  0.1099992E+03  0.7546771E-02  0.1260571E+00
         21   -1    0    0  503  501  0.00000000000E+00  0.00000000000E+00  0.57326218260E+03  0.57326218260E+03  0.00000000000E+00 0. -1.
         21   -1    0    0  505  502 -0.00000000000E+00 -0.00000000000E+00 -0.28665914042E+03  0.28665914042E+03  0.00000000000E+00 0.  1.
         21    1    1    2  503  504 -0.62836409553E+02  0.13364266165E+03  0.37186179934E+03  0.40011245068E+03  0.00000000000E+00 0. -1.
         21    1    1    2  504  502 -0.48919975888E+02 -0.32866361656E+02 -0.17588970614E+02  0.61503932043E+02  0.00000000000E+00 0. -1.
         21    1    1    2  505  506  0.21347727354E+02 -0.77740514345E+02 -0.21179403496E+03  0.22661868034E+03  0.00000000000E+00 0.  1.
         21    1    1    2  506  501  0.90408658087E+02 -0.23035785647E+02  0.14412424842E+03  0.17168625996E+03  0.00000000000E+00 0. -1.
<scales pt_clust_3="109.99917" pt_clust_4="58.93523" pt_clust_5="14000.00000" pt_clust_6="91.13901"></scales>
<clustering>
<clus scale="   58.935">  2  4  1 -1</clus>
<clus scale="   91.139">  1  6  2 -1</clus>
<clus scale="  109.999">  1  3  2 -1</clus>
<clus scale="   91.139">  1  3  2 -1</clus>
</clustering>
</event>
<event>
 6    0  0.6207838E+002  0.9674776E+02  0.7546771E-02  0.1287288E+00
         21   -1    0    0  506  501  0.00000000000E+00  0.00000000000E+00  0.67177464558E+03  0.67177464558E+03  0.00000000000E+00 0.  1.
         21   -1    0    0  503  502 -0.00000000000E+00 -0.00000000000E+00 -0.16780122367E+03  0.16780122367E+03  0.00000000000E+00 0.  1.
         21    1    1    2  503  504 -0.68023304067E+02  0.41882551694E+02 -0.31439323289E+02  0.85847242713E+02  0.00000000000E+00 0.  1.
         21    1    1    2  504  501 -0.89081933899E+01  0.83056232664E+02 -0.64146215078E+01  0.83778523876E+02  0.00000000000E+00 0.  1.
         21    1    1    2  505  502  0.47974757883E+02 -0.31244325850E+02 -0.46344602389E+02  0.73658722921E+02  0.00000000000E+00 0.  1.
         21    1    1    2  506  505  0.28956739574E+02 -0.93694458507E+02  0.58817196910E+03  0.59629137974E+03  0.00000000000E+00 0.  1.
<scales pt_clust_3="48.75435" pt_clust_4="96.74776" pt_clust_5="57.25195" pt_clust_6="14000.00000"></scales>
<clustering>
<clus scale="   57.252">  2  5  1 -1</clus>
<clus scale="   48.754">  2  3  1 -1</clus>
<clus scale="   96.748">  2  4  1 -1</clus>
<clus scale="   96.748">  1  3  2 -1</clus>
</clustering>
</event>
<event>
 6    0  0.6207838E+002  0.1208809E+03  0.7546771E-02  0.1241651E+00
         21   -1    0    0  502  501  0.00000000000E+00  0.00000000000E+00  0.18429606316E+03  0.18429606316E+03  0.00000000000E+00 0.  1.
         21   -1    0    0  505  502 -0.00000000000E+00 -0.00000000000E+00 -0.45257505254E+03  0.45257505254E+03  0.00000000000E+00 0.  1.
         21    1    1    2  503  504  0.72897516674E+02  0.21352112355E+02 -0.19036798940E+03  0.20496324555E+03  0.00000000000E+00 0.  1.
         21    1    1    2  504  506 -0.71404724709E+02 -0.61955347303E+02 -0.87470587962E+01  0.94940037960E+02  0.00000000000E+00 0.  1.
         21    1    1    2  505  503  0.33997098865E+02  0.30716999078E+02 -0.19786341018E+03  0.20309915276E+03  0.00000000000E+00 0.  1.
         21    1    1    2  506  501 -0.35489890830E+02  0.98862358698E+01  0.12869946899E+03  0.13386867942E+03  0.00000000000E+00 0.  1.
<scales pt_clust_3="31.58269" pt_clust_4="113.83560" pt_clust_5="31.58269" pt_clust_6="36.84115"></scales>
<clustering>
<clus scale="   31.583">  3  5 -1 -1</clus>
<clus scale="   36.841">  1  6  2 -1</clus>
<clus scale="  113.836">  1  4  2 -1</clus>
<clus scale="   36.841">  1  3  2 -1</clus>
</clustering>
</event>
<event>
 6    0  0.6207838E+002  0.7705577E+02  0.7546771E-02  0.1337621E+00
         21   -1    0    0  504  501  0.00000000000E+00  0.00000000000E+00  0.37782188481E+03  0.37782188481E+03  0.00000000000E+00 0. -1.
         21   -1    0    0  506  502 -0.00000000000E+00 -0.00000000000E+00 -0.16809727725E+03  0.16809727725E+03  0.00000000000E+00 0.  1.
         21    1    1    2  503  505  0.10368171825E+03 -0.26558483508E+02  0.60806815736E+02  0.12309638738E+03  0.00000000000E+00 0. -1.
         21    1    1    2  504  502 -0.23773769045E+02 -0.52695405964E+02  0.21750749121E+02  0.61766439039E+02  0.00000000000E+00 0. -1.
         21    1    1    2  505  501 -0.71775378969E+02  0.47865045698E+01  0.22592579810E+03  0.23710141691E+03  0.00000000000E+00 0.  1.
         21    1    1    2  506  503 -0.81325702342E+01  0.74467384901E+02 -0.98758755399E+02  0.12395491874E+03  0.00000000000E+00 0.  1.
<scales pt_clust_3="77.05577" pt_clust_4="57.81002" pt_clust_5="14000.00000" pt_clust_6="43.47994"></scales>
<clustering>
<clus scale="   57.810">  2  4  1 -1</clus>
<clus scale="   43.480">  2  6  1 -1</clus>
<clus scale="   77.056">  2  3  1 -1</clus>
<clus scale="   77.056">  1  3  2 -1</clus>
</clustering>
</event>
<event>
 6    0  0.6207838E+002  0.8828252E+02  0.7546771E-02  0.1307065E+00
         21   -1    0    0  505  501  0.00000000000E+00  0.00000000000E+00  0.10904723036E+04  0.10904723036E+04  0.00000000000E+00 0.  1.
         21   -1    0    0  503  502 -0.00000000000E+00 -0.00000000000E+00 -0.13586113737E+03  0.13586113737E+03  0.00000000000E+00 0.  1.
         21    1    1    2  503  506 -0.33014645366E+02 -0.10951893360E+02 -0.34187597426E+01  0.34951376153E+02  0.00000000000E+00 0.  1.
         21    1    1    2  504  502  0.47197804269E+02 -0.18092791176E+02  0.45427024726E+02  0.67960256002E+02  0.00000000000E+00 0.  1.
         21    1    1    2  505  504  0.29962945533E+02  0.10510942531E+03 -0.74587361707E+02  0.13232174394E+03  0.00000000000E+00 0.  1.
         21    1    1    2  506  501 -0.44146104436E+02 -0.76064740772E+02  0.98719026300E+03  0.99110006492E+03  0.00000000000E+00 0.  1.
<scales pt_clust_3="34.78377" pt_clust_4="47.99582" pt_clust_5="14000.00000" pt_clust_6="88.28252"></scales>
<clustering>
<clus scale="   34.784">  2  3  1 -1</clus>
<clus scale="   47.996">  2  4  1 -1</clus>
<clus scale="   88.283">  1  6  2 -1</clus>
<clus scale="   88.283">  1  3  2 -1</clus>
</clustering>
</event>
<event>
 6    0  0.6207838E+002  0.7823145E+02  0.7546771E-02  0.1334147E+00
         21   -1    0    0  503  501  0.00000000000E+00  0.00000000000E+00  0.16375911232E+03  0.16375911232E+03  0.00000000000E+00 0. -1.
         21   -1    0    0  504  502 -0.00000000000E+00 -0.00000000000E+00 -0.16148577423E+03  0.16148577423E+03  0.00000000000E+00 0. -1.
         21    1    1    2  503  505 -0.43301943548E+02  0.69854408425E+02  0.23240242385E+02  0.85409633869E+02  0.00000000000E+00 0. -1.
         21    1    1    2  504  506  0.11777080694E+02 -0.56936030154E+02 -0.21294302621E+02  0.61918159561E+02  0.00000000000E+00 0. -1.
         21    1    1    2  505  502 -0.68945910767E+01  0.52567297566E+02 -0.60636965620E+02  0.80546246090E+02  0.00000000000E+00 0. -1.
         21    1    1    2  506  501  0.38419453930E+02 -0.65485675838E+02  0.60964363952E+02  0.97370847035E+02  0.00000000000E+00 0. -1.
<scales pt_clust_3="14000.00000" pt_clust_4="33.98533" pt_clust_5="53.01751" pt_clust_6="78.23145"></scales>
<clustering>
<clus scale="   53.018">  2  5  1 -1</clus>
<clus scale="   33.985">  2  4  1 -1</clus>
<clus scale="   78.231">  1  6  2 -1</clus>
<clus scale="   78.231">  1  3  2 -1</clus>
</clustering>
</event>
<event>
 6    0  0.6207838E+002  0.4761322E+03  0.7546771E-02  0.1020204E+00
         21   -1    0    0  505  501  0.00000000000E+00  0.00000000000E+00  0.21847274791E+04  0.21847274791E+04  0.00000000000E+00 0. -1.
         21   -1    0    0  503  502 -0.00000000000E+00 -0.00000000000E+00 -0.18886634920E+03  0.18886634920E+03  0.00000000000E+00 0. -1.
         21    1    1    2  503  504  0.33785043813E+02 -0.50063992746E+03  0.47965995161E+03  0.69415807662E+03  0.00000000000E+00 0. -1.
         21    1    1    2  504  501 -0.17324241723E+02 -0.38592725247E+02  0.25789949367E+01  0.42381352127E+02  0.00000000000E+00 0.  1.
         21    1    1    2  505  506  0.14751328144E+03  0.22339406990E+03  0.64021451519E+03  0.69393061910E+03  0.00000000000E+00 0. -1.
         21    1    1    2  506  502 -0.16397408353E+03  0.31583858280E+03  0.87340766816E+03  0.94312378045E+03  0.00000000000E+00 0. -1.
<scales pt_clust_3="39.90987" pt_clust_4="39.90987" pt_clust_5="267.70334" pt_clust_6="455.86047"></scales>
<clustering>
<clus scale="   39.910">  3  4 -1 -1</clus>
<clus scale="  267.703">  1  5  2 -1</clus>
<clus scale="  455.860">  1  6  2 -1</clus>
<clus scale="  267.703">  1  3  2 -1</clus>
</clustering>
</event>
<event>
 6    0  0.6207838E+002  0.1205393E+03  0.7546771E-02  0.1242210E+00
         21   -1    0    0  506  501  0.00000000000E+00  0.00000000000E+00  0.62895551504E+03  0.62895551504E+03  0.00000000000E+00 0.  1.
         21   -1    0    0  505  502 -0.00000000000E+00 -0.00000000000E+00 -0.30617326120E+03  0.30617326120E+03  0.00000000000E+00 0. -1.
         21    1    1    2  503  502  0.32760668997E+02 -0.80424371403E+01 -0.15682974942E+02  0.37200778638E+02  0.00000000000E+00 0. -1.
         21    1    1    2  504  501 -0.99860507700E+02 -0.42017231198E+02 -0.22163213731E+01  0.10836272789E+03  0.00000000000E+00 0.  1.
         21    1    1    2  505  504  0.99770043731E+02  0.40466247517E+02 -0.21097512466E+03  0.23685878080E+03  0.00000000000E+00 0. -1.
         21    1    1    2  506  503 -0.32670205028E+02  0.95934208213E+01  0.55165667481E+03  0.55270648891E+03  0.00000000000E+00 0.  1.
<scales pt_clust_3="33.73340" pt_clust_4="120.53931" pt_clust_5="14000.00000" pt_clust_6="33.98638"></scales>
<clustering>
<clus scale="   33.733">  2  3  1 -1</clus>
<clus scale="   33.986">  1  6  2 -1</clus>
<clus scale="  120.539">  1  4  2 -1</clus>
<clus scale="   33.986">  1  3  2 -1</clus>
</clustering>
</event>
<event>
 6    0  0.6207838E+002  0.1698669E+03  0.7546771E-02  0.1177987E+00
         21   -1    0    0  504  501  0.00000000000E+00  0.00000000000E+00  0.33684351519E+03  0.33684351519E+03  0.00000000000E+00 0.  1.
         21   -1    0    0  506  502 -0.00000000000E+00 -0.00000000000E+00 -0.12321419460E+03  0.12321419460E+03  0.00000000000E+00 0.  1.
         21    1    1    2  503  502  0.52191805589E+02  0.21902448139E+02  0.26840631463E+02  0.62642807268E+02  0.00000000000E+00 0. -1.
         21    1    1    2  504  503  0.91829260198E+02  0.84279756481E+02  0.13711494166E+03  0.18530029036E+03  0.00000000000E+00 0.  1.
         21    1    1    2  505  501 -0.13269676293E+03 -0.59629273371E+02  0.68296001465E+02  0.16071224269E+03  0.00000000000E+00 0.  1.
         21    1    1    2  506  505 -0.11324302853E+02 -0.46552931249E+02 -0.18622253994E+02  0.51402369467E+02  0.00000000000E+00 0.  1.
<scales pt_clust_3="34.21291" pt_clust_4="34.21291" pt_clust_5="162.10224" pt_clust_6="47.91049"></scales>
<clustering>
<clus scale="   34.213">  3  4 -1 -1</clus>
<clus scale="   47.910">  2  6  1 -1</clus>
<clus scale="  162.102">  2  5  1 -1</clus>
<clus scale="  169.867">  1  3  2 -1</clus>
</clustering>
</event>
<event>
 6    0  0.6207838E+002  0.1052288E+03  0.7546771E-02  0.1269669E+00
         21   -1    0    0  504  501  0.00000000000E+00  0.00000000000E+00  0.10421001201E+04  0.10421001201E+04  0.00000000000E+00 0. -1.
         21   -1    0    0  503  502 -0.00000000000E+00 -0.00000000000E+00 -0.29345813030E+03  0.29345813030E+03  0.00000000000E+00 0.  1.
         21    1    1    2  503  505 -0.42197012844E+02  0.71094042342E+01 -0.36918039045E+01  0.42950680293E+02  0.00000000000E+00 0. -1.
         21    1    1    2  504  502  0.84422924373E+02  0.88333099023E+02 -0.22995770573E+03  0.26040451795E+03  0.00000000000E+00 0.  1.
         21    1    1    2  505  506  0.38095680587E+01 -0.11434823581E+03  0.11072543823E+03  0.15921731851E+03  0.00000000000E+00 0. -1.
         21    1    1    2  506  501 -0.46035479587E+02  0.18905732553E+02  0.87156606123E+03  0.87298573367E+03  0.00000000000E+00 0. -1.
<scales pt_clust_3="42.79172" pt_clust_4="14000.00000" pt_clust_5="105.22880" pt_clust_6="49.87605"></scales>
<clustering>
<clus scale="   42.792">  2  3  1 -1</clus>
<clus scale="   49.876">  1  6  2 -1</clus>
<clus scale="  105.229">  1  5  2 -1</clus>
<clus scale="   49.876">  1  3  2 -1</clus>
</clustering>
</event>
<event>
 6    0  0.6207838E+002  0.8179380E+02  0.7546771E-02  0.1324037E+00
         21   -1    0    0  502  501  0.00000000000E+00  0.00000000000E+00  0.35832954640E+03  0.35832954640E+03  0.00000000000E+00 0.  1.
         21   -1    0    0  504  502 -0.00000000000E+00 -0.00000000000E+00 -0.11362075688E+03  0.11362075688E+03  0.00000000000E+00 0.  1.
         21    1    1    2  503  501  0.20071643285E+02  0.59032105727E+02  0.24875651671E+03  0.25645168156E+03  0.00000000000E+00 0.  1.
         21    1    1    2  504  506  0.28570144154E+02  0.10190491115E+02  0.63608531077E+01  0.30992897548E+02  0.00000000000E+00 0.  1.
         21    1    1    2  505  503 -0.10329171198E+03 -0.12536068632E+02  0.54194601599E+01  0.10419069694E+03  0.00000000000E+00 0.  1.
         21    1    1    2  506  505  0.54649924540E+02 -0.56686528210E+02 -0.15828040461E+02  0.80315027221E+02  0.00000000000E+00 0.  1.
<scales pt_clust_3="63.07331" pt_clust_4="30.33314" pt_clust_5="14000.00000" pt_clust_6="81.79380"></scales>
<clustering>
<clus scale="   30.333">  2  4  1 -1</clus>
<clus scale="   63.073">  1  3  2 -1</clus>
<clus scale="   81.794">  2  6  1 -1</clus>
<clus scale="   63.073">  1  3  2 -1</clus>
</clustering>
</event>
<event>
 6    0  0.6207838E+002  0.3115437E+03  0.7546771E-02  0.1079608E+00
         21   -1    0    0  505  501  0.00000000000E+00  0.00000000000E+00  0.37300792758E+03  0.37300792758E+03  0.00000000000E+00 0.  1.
         21   -1    0    0  506  502 -0.00000000000E+00 -0.00000000000E+00 -0.35581699006E+03  0.35581699006E+03  0.00000000000E+00 0.  1.
         21    1    1    2  503  501  0.10388975593E+03 -0.44743933908E+02  0.18077969740E+02  0.11455092317E+03  0.00000000000E+00 0.  1.
         21    1    1    2  504  503  0.11855986827E+03 -0.13640253317E+03  0.10354498439E+03  0.20828743892E+03  0.00000000000E+00 0.  1.
         21    1    1    2  505  502 -0.22410392642E+03  0.23764994372E+03 -0.55724405842E+02  0.33136879001E+03  0.00000000000E+00 0.  1.
         21    1    1    2  506  504  0.16543022225E+01 -0.56503476640E+02 -0.48707610772E+02  0.74617765547E+02  0.00000000000E+00 0.  1.
<scales pt_clust_3="66.61876" pt_clust_4="66.61876" pt_clust_5="299.87481" pt_clust_6="56.52769"></scales>
<clustering>
<clus scale="   56.528">  2  6  1 -1</clus>
<clus scale="   66.619">  3  4 -1 -1</clus>
<clus scale="  299.875">  2  5  1 -1</clus>
<clus scale="  311.544">  1  3  2 -1</clus>
</clustering>
</event>
<event>
 6    0  0.6207838E+002  0.1820200E+03  0.7546771E-02  0.1165862E+00
         21   -1    0    0  505  501  0.00000000000E+00  0.00000000000E+00  0.39719614245E+03  0.39719614245E+03  0.00000000000E+00 0.  1.
         21   -1    0    0  504  502 -0.00000000000E+00 -0.00000000000E+00 -0.41949199016E+03  0.41949199016E+03  0.00000000000E+00 0.  1.
         21    1    1    2  503  502 -0.57862720710E+02  0.74479627063E+02 -0.32572261557E+03  0.33910253846E+03  0.00000000000E+00 0.  1.
         21    1    1    2  504  501  0.34711466900E+02  0.13909779852E+03  0.84625560749E+02  0.16647693239E+03  0.00000000000E+00 0.  1.
         21    1    1    2  505  506  0.21327248117E+02 -0.75969577456E+02  0.11152643916E+03  0.13661762273E+03  0.00000000000E+00 0.  1.
         21    1    1    2  506  503  0.18240056931E+01 -0.13760784812E+03  0.10727476795E+03  0.17449103903E+03  0.00000000000E+00 0.  1.
<scales pt_clust_3="94.31495" pt_clust_4="174.26403" pt_clust_5="39.80451" pt_clust_6="39.80451"></scales>
<clustering>
<clus scale="   39.805">  5  6 -1 -1</clus>
<clus scale="   94.315">  2  3  1 -1</clus>
<clus scale="  174.264">  1  4  2 -1</clus>
<clus scale="  174.264">  1  3  2 -1</clus>
</clustering>
</event>
<event>
 6    0  0.6207838E+002  0.8612249E+02  0.7546771E-02  0.1312523E+00
         21   -1    0    0  503  501  0.00000000000E+00  0.00000000000E+00  0.51083617301E+03  0.51083617301E+03  0.00000000000E+00 0. -1.
         21   -1    0    0  506  502 -0.00000000000E+00 -0.00000000000E+00 -0.74159384405E+02  0.74159384405E+02  0.00000000000E+00 0. -1.
         21    1    1    2  503  504 -0.93573184222E+02 -0.42830246860E+01  0.39383237833E+03  0.40481875862E+03  0.00000000000E+00 0. -1.
         21    1    1    2  504  502  0.63157834432E+02 -0.36029459400E+02 -0.62440821111E+01  0.72979603699E+02  0.00000000000E+00 0. -1.
         21    1    1    2  505  501  0.58101982734E+02  0.22295438715E+02  0.30748542165E+02  0.69414694629E+02  0.00000000000E+00 0. -1.
         21    1    1    2  506  505 -0.27686632944E+02  0.18017045371E+02  0.18339950216E+02  0.37782500468E+02  0.00000000000E+00 0.  1.
<scales pt_clust_3="86.12249" pt_clust_4="52.45400" pt_clust_5="14000.00000" pt_clust_6="33.03277"></scales>
<clustering>
<clus scale="   33.033">  2  6  1 -1</clus>
<clus scale="   52.454">  2  4  1 -1</clus>
<clus scale="   86.122">  1  3  2 -1</clus>
<clus scale="   86.122">  1  3  2 -1</clus>
</clustering>
</event>
<event>
 6    0  0.6207838E+002  0.7208780E+02  0.7546771E-02  0.1353134E+00
         21   -1    0    0  506  501  0.00000000000E+00  0.00000000000E+00  0.32884610246E+03  0.32884610246E+03  0.00000000000E+00 0.  1.
         21   -1    0    0  503  502 -0.00000000000E+00 -0.00000000000E+00 -0.79237624746E+02  0.79237624746E+02  0.00000000000E+00 0. -1.
         21    1    1    2  503  505 -0.47909419736E+02  0.59819698120E+02 -0.20041719723E+02  0.79217291749E+02  0.00000000000E+00 0. -1.
         21    1    1    2  504  502  0.25792389258E+02  0.19991738730E+02  0.22048965258E+02  0.39383674665E+02  0.00000000000E+00 0.  1.
         21    1    1    2  505  501 -0.48309461469E+02 -0.57589868964E+02  0.14124535407E+03  0.16000202224E+03  0.00000000000E+00 0.  1.
         21    1    1    2  506  504  0.70426491947E+02 -0.22221567887E+02  0.10635587811E+03  0.12948073855E+03  0.00000000000E+00 0.  1.
<scales pt_clust_3="14000.00000" pt_clust_4="32.63307" pt_clust_5="70.93675" pt_clust_6="72.08780"></scales>
<clustering>
<clus scale="   32.633">  2  4  1 -1</clus>
<clus scale="   70.937">  1  5  2 -1</clus>
<clus scale="   72.088">  1  6  2 -1</clus>
<clus scale="   70.937">  1  3  2 -1</clus>
</clustering>
</event>
<event>
 6    0  0.6207838E+002  0.1456543E+03  0.7546771E-02  0.1205917E+00
         21   -1    0    0  504  501  0.00000000000E+00  0.00000000000E+00  0.88887547330E+03  0.88887547330E+03  0.00000000000E+00 0. -1.
         21   -1    0    0  506  502 -0.00000000000E+00 -0.00000000000E+00 -0.16511348328E+03  0.16511348328E+03  0.00000000000E+00 0.  1.
         21    1    1    2  503  501 -0.50305755098E+02 -0.11629812401E+03  0.17141073424E+03  0.21316088397E+03  0.00000000000E+00 0. -1.
         21    1    1    2  504  505 -0.10768790402E+02  0.60356874523E+02  0.42683110579E+03  0.43121191080E+03  0.00000000000E+00 0. -1.
         21    1    1    2  505  502  0.26877726604E+01  0.80249816947E+02  0.25401309472E+03  0.26640178215E+03  0.00000000000E+00 0. -1.
         21    1    1    2  506  503  0.58386772840E+02 -0.24308567464E+02 -0.12849294473E+03  0.14321437966E+03  0.00000000000E+00 0.  1.
<scales pt_clust_3="133.92046" pt_clust_4="50.04857" pt_clust_5="50.04857" pt_clust_6="63.24493"></scales>
<clustering>
<clus scale="   50.049">  4  5 -1 -1</clus>
<clus scale="   63.245">  2  6  1 -1</clus>
<clus scale="  133.920">  2  3  1 -1</clus>
<clus scale="  145.654">  1  3  2 -1</clus>
</clustering>
</event>
<event>
 6    0  0.6207838E+002  0.1425014E+03  0.7546771E-02  0.1210002E+00
         21   -1    0    0  503  501  0.00000000000E+00  0.00000000000E+00  0.11915106619E+04  0.11915106619E+04  0.00000000000E+00 0. -1.
         21   -1    0    0  506  502 -0.00000000000E+00 -0.00000000000E+00 -0.23257861120E+03  0.23257861120E+03  0.00000000000E+00 0. -1.
         21    1    1    2  503  505  0.11797887338E+02 -0.32952735140E+02  0.97250898565E+03  0.97313863353E+03  0.00000000000E+00 0. -1.
         21    1    1    2  504  502  0.11410210883E+03 -0.24968818487E+02 -0.11198241512E+03  0.16181098366E+03  0.00000000000E+00 0. -1.
         21    1    1    2  505  504 -0.15712125351E+03 -0.71183029769E+00  0.14026538991E+03  0.21062282548E+03  0.00000000000E+00 0. -1.
         21    1    1    2  506  501  0.31221257336E+02  0.58633383925E+02 -0.41859909740E+02  0.78516830448E+02  0.00000000000E+00 0. -1.
<scales pt_clust_3="35.00104" pt_clust_4="142.50142" pt_clust_5="14000.00000" pt_clust_6="64.49124"></scales>
<clustering>
<clus scale="   35.001">  1  3  2 -1</clus>
<clus scale="   64.491">  2  6  1 -1</clus>
<clus scale="  142.501">  2  4  1 -1</clus>
<clus scale="   35.001">  1  3  2 -1</clus>
</clustering>
</event>
<event>
 6    0  0.6207838E+002  0.2248605E+03  0.7546771E-02  0.1130310E+00
         21   -1    0    0  505  501  0.00000000000E+00  0.00000000000E+00  0.37898113065E+03  0.37898113065E+03  0.00000000000E+00 0.  1.
         21   -1    0    0  506  502 -0.00000000000E+00 -0.00000000000E+00 -0.13784051331E+03  0.13784051331E+03  0.00000000000E+00 0.  1.
         21    1    1    2  503  504  0.58887967726E+02  0.61101952258E+02  0.70617287609E+02  0.11039946840E+03  0.00000000000E+00 0.  1.
         21    1    1    2  504  502  0.55458610217E+02  0.52485231208E+02  0.13165244832E+03  0.15219304876E+03  0.00000000000E+00 0.  1.
         21    1    1    2  505  503 -0.10180904263E+01  0.50085209011E+02  0.21106095167E+02  0.54360205325E+02  0.00000000000E+00 0.  1.
         21    1    1    2  506  501 -0.11332848752E+03 -0.16367239248E+03  0.17764786234E+02  0.19986892148E+03  0.00000000000E+00 0.  1.
<scales pt_clust_3="58.21721" pt_clust_4="58.21721" pt_clust_5="42.23064" pt_clust_6="199.07787"></scales>
<clustering>
<clus scale="   42.231">  3  5 -1 -1</clus>
<clus scale="   58.217">  3  4 -1 -1</clus>
<clus scale="  199.078">  2  6  1 -1</clus>
<clus scale="  224.861">  1  3  2 -1</clus>
</clustering>
</event>
<event>
 6    0  0.6207838E+002  0.2351936E+03  0.7546771E-02  0.1123037E+00
         21   -1    0    0  503  501  0.00000000000E+00  0.00000000000E+00  0.76044534111E+03  0.76044534111E+03  0.00000000000E+00 0. -1.
         21   -1    0    0  506  502 -0.00000000000E+00 -0.00000000000E+00 -0.37374641000E+03  0.37374641000E+03  0.00000000000E+00 0. -1.
         21    1    1    2  503  505  0.18347053963E+03  0.22515925143E+03  0.62163432157E+03  0.68613945898E+03  0.00000000000E+00 0. -1.
         21    1    1    2  504  501 -0.18958231476E+02 -0.24736033608E+02  0.26457027832E+02  0.40881049657E+02  0.00000000000E+00 0.  1.
         21    1    1    2  505  502 -0.12140650667E+03 -0.57075416454E+02 -0.20944396658E+03  0.24872458295E+03  0.00000000000E+00 0. -1.
         21    1    1    2  506  504 -0.43105801485E+02 -0.14334780137E+03 -0.51948451711E+02  0.15844665952E+03  0.00000000000E+00 0.  1.
<scales pt_clust_3="14000.00000" pt_clust_4="31.16546" pt_clust_5="134.90203" pt_clust_6="235.19359"></scales>
<clustering>
<clus scale="   31.165">  1  4  2 -1</clus>
<clus scale="  134.902">  2  5  1 -1</clus>
<clus scale="  235.194">  2  6  1 -1</clus>
<clus scale="   31.165">  1  3  2 -1</clus>
</clustering>
</event>
<event>
 6    0  0.6207838E+002  0.1858867E+03  0.7546771E-02  0.1162224E+00
         21   -1    0    0  506  501  0.00000000000E+00  0.00000000000E+00  0.11583442986E+03  0.11583442986E+03  0.00000000000E+00 0. -1.
         21   -1    0    0  505  502 -0.00000000000E+00 -0.00000000000E+00 -0.14174457439E+04  0.14174457439E+04  0.00000000000E+00 0.  1.
         21    1    1    2  503  501  0.14080516247E+03  0.17702989548E+02 -0.43025998730E+03  0.45305976017E+03  0.00000000000E+00 0.  1.
         21    1    1    2  504  503  0.78739132091E+02 -0.18338734225E+02 -0.74100876491E+03  0.74540603014E+03  0.00000000000E+00 0.  1.
         21    1    1    2  505  504 -0.26093264753E+02  0.28492993040E+02 -0.13387240158E+03  0.13933602916E+03  0.00000000000E+00 0. -1.
         21    1    1    2  506  502 -0.19345102981E+03 -0.27857248363E+02  0.35298397665E+01  0.19547835427E+03  0.00000000000E+00 0. -1.
<scales pt_clust_3="185.88670" pt_clust_4="63.62416" pt_clust_5="38.63559" pt_clust_6="14000.00000"></scales>
<clustering>
<clus scale="   38.636">  2  5  1 -1</clus>
<clus scale="   63.624">  2  4  1 -1</clus>
<clus scale="  185.887">  2  3  1 -1</clus>
<clus scale="  185.887">  1  3  2 -1</clus>
</clustering>
</event>
<event>
 6    0  0.6207838E+002  0.1539108E+03  0.7546771E-02  0.1195748E+00
         21   -1    0    0  506  501  0.00000000000E+00  0.00000000000E+00  0.13352820168E+03  0.13352820168E+03  0.00000000000E+00 0. -1.
         21   -1    0    0  501  502 -0.00000000000E+00 -0.00000000000E+00 -0.18083571597E+04  0.18083571597E+04  0.00000000000E+00 0. -1.
         21    1    1    2  503  504  0.17286356938E+02  0.68781866760E+02 -0.44003274333E+03  0.44571131748E+03  0.00000000000E+00 0. -1.
         21    1    1    2  504  502 -0.25255613894E+02  0.17925159885E+02 -0.10235469267E+04  0.10240153654E+04  0.00000000000E+00 0. -1.
         21    1    1    2  505  503  0.36153220703E+02  0.61186685068E+02 -0.29254696134E+03  0.30105579282E+03  0.00000000000E+00 0. -1.
         21    1    1    2  506  505 -0.28183963746E+02 -0.14789371171E+03  0.81297673405E+02  0.17110288565E+03  0.00000000000E+00 0. -1.
<scales pt_clust_3="33.86251" pt_clust_4="30.97027" pt_clust_5="33.86251" pt_clust_6="149.82676"></scales>
<clustering>
<clus scale="   30.970">  2  4  1 -1</clus>
<clus scale="   33.863">  3  5 -1 -1</clus>
<clus scale="  149.827">  1  6  2 -1</clus>
<clus scale="  149.827">  1  3  2 -1</clus>
</clustering>
</event>
<event>
 6    0  0.6207838E+002  0.1027308E+03  0.7546771E-02  0.1274656E+00
         21   -1    0    0  506  501  0.00000000000E+00  0.00000000000E+00  0.44100049071E+02  0.44100049071E+02  0.00000000000E+00 0. -1.
         21   -1    0    0  504  502 -0.00000000000E+00 -0.00000000000E+00 -0.82061660400E+03  0.82061660400E+03  0.00000000000E+00 0. -1.
         21    1    1    2  503  502 -0.41329050804E+02  0.18938350053E+02 -0.47674013271E+03  0.47890281445E+03  0.00000000000E+00 0. -1.
         21    1    1    2  504  505  0.58747028029E+02  0.13308322904E+02 -0.16336854184E+03  0.17411951420E+03  0.00000000000E+00 0. -1.
         21    1    1    2  505  501  0.65257780554E+02 -0.18239171971E+02 -0.98776789230E+02  0.11978355232E+03  0.00000000000E+00 0.  1.
         21    1    1    2  506  503 -0.82675757778E+02 -0.14007500985E+02 -0.37631091144E+02  0.91910772104E+02  0.00000000000E+00 0. -1.
<scales pt_clust_3="45.46154" pt_clust_4="44.79625" pt_clust_5="44.79625" pt_clust_6="91.08389"></scales>
<clustering>
<clus scale="   44.796">  4  5 -1 -1</clus>
<clus scale="   45.462">  2  3  1 -1</clus>
<clus scale="   91.084">  1  6  2 -1</clus>
<clus scale="   91.084">  1  3  2 -1</clus>
</clustering>
</event>
<event>
 6    0  0.6207838E+002  0.1276039E+03  0.7546771E-02  0.1231055E+00
         21   -1    0    0  506  501  0.00000000000E+00  0.00000000000E+00  0.68685929827E+02  0.68685929827E+02  0.00000000000E+00 0.  1.
         21   -1    0    0  504  502 -0.00000000000E+00 -0.00000000000E+00 -0.15225059513E+04  0.15225059513E+04  0.00000000000E+00 0. -1.
         21    1    1    2  503  505  0.11885498506E+03  0.11346813358E+03 -0.80278561025E+03  0.81943044905E+03  0.00000000000E+00 0. -1.
         21    1    1    2  504  503 -0.70862063937E+02 -0.65599940146E+01 -0.53763396110E+03  0.54232346598E+03  0.00000000000E+00 0. -1.
         21    1    1    2  505  501  0.95619117356E+01  0.33472788991E+02 -0.58528738632E+02  0.68098979470E+02  0.00000000000E+00 0.  1.
         21    1    1    2  506  502 -0.57554832855E+02 -0.14038092856E+03 -0.54871711519E+02  0.16133898665E+03  0.00000000000E+00 0.  1.
<scales pt_clust_3="14000.00000" pt_clust_4="70.71250" pt_clust_5="34.81175" pt_clust_6="127.60392"></scales>
<clustering>
<clus scale="   34.812">  1  5  2 -1</clus>
<clus scale="   70.712">  2  4  1 -1</clus>
<clus scale="  127.604">  1  6  2 -1</clus>
<clus scale="   34.812">  1  3  2 -1</clus>
</clustering>
</event>
<event>
 6    0  0.6207838E+002  0.1002657E+03  0.7546771E-02  0.1279738E+00
         21   -1    0    0  506  501  0.00000000000E+00  0.00000000000E+00  0.43767157355E+03  0.43767157355E+03  0.00000000000E+00 0.  1.
         21   -1    0    0  505  502 -0.00000000000E+00 -0.00000000000E+00 -0.41241335801E+03  0.41241335801E+03  0.00000000000E+00 0. -1.
         21    1    1    2  503  504 -0.36076828035E+02  0.94296058867E+00  0.32622124506E+02  0.48648018490E+02  0.00000000000E+00 0.  1.
         21    1    1    2  504  501  0.50554641376E+02  0.72309914710E+02  0.96591912460E+02  0.13082237226E+03  0.00000000000E+00 0.  1.
         21    1    1    2  505  503  0.11565394694E+02  0.34032017742E+02 -0.37564012498E+03  0.37735585338E+03  0.00000000000E+00 0. -1.
         21    1    1    2  506  502 -0.26043208036E+02 -0.10728489304E+03  0.27168430355E+03  0.29325868743E+03  0.00000000000E+00 0.  1.
<scales pt_clust_3="34.56696" pt_clust_4="100.26569" pt_clust_5="35.94352" pt_clust_6="14000.00000"></scales>
<clustering>
<clus scale="   35.944">  2  5  1 -1</clus>
<clus scale="   34.567">  2  3  1 -1</clus>
<clus scale="  100.266">  2  4  1 -1</clus>
<clus scale="  100.266">  1  3  2 -1</clus>
</clustering>
</event>
<event>
 6    0  0.6207838E+002  0.1355195E+03  0.7546771E-02  0.1219488E+00
         21   -1    0    0  505  501  0.00000000000E+00  0.00000000000E+00  0.71879042778E+03  0.71879042778E+03  0.00000000000E+00 0.  1.
         21   -1    0    0  506  502 -0.00000000000E+00 -0.00000000000E+00 -0.33029281260E+03  0.33029281260E+03  0.00000000000E+00 0. -1.
         21    1    1    2  503  504 -0.42282221201E+02 -0.87955207645E+02  0.35327772207E+02  0.10378803530E+03  0.00000000000E+00 0.  1.
         21    1    1    2  504  501 -0.13474567785E+03  0.11479877746E+02  0.60167406513E+03  0.61668457573E+03  0.00000000000E+00 0.  1.
         21    1    1    2  505  502  0.14949721367E+03  0.44637521137E+02 -0.23907057405E+03  0.28547620666E+03  0.00000000000E+00 0. -1.
         21    1    1    2  506  503  0.27530685376E+02  0.31837808762E+02 -0.94336481035E+01  0.43134422687E+02  0.00000000000E+00 0.  1.
<scales pt_clust_3="93.02485" pt_clust_4="135.51953" pt_clust_5="14000.00000" pt_clust_6="42.09020"></scales>
<clustering>
<clus scale="   42.090">  2  6  1 -1</clus>
<clus scale="   93.025">  2  3  1 -1</clus>
<clus scale="  135.520">  1  4  2 -1</clus>
<clus scale="  135.520">  1  3  2 -1</clus>
</clustering>
</event>
<event>
 6    0  0.6207838E+002  0.8324509E+02  0.7546771E-02  0.1320087E+00
         21   -1    0    0  505  501  0.00000000000E+00  0.00000000000E+00  0.74316948907E+03  0.74316948907E+03  0.00000000000E+00 0.  1.
         21   -1    0    0  506  502 -0.00000000000E+00 -0.00000000000E+00 -0.42186137028E+03  0.42186137028E+03  0.00000000000E+00 0. -1.
         21    1    1    2  503  501 -0.26044556736E+02  0.78876148272E+02  0.68680368262E+03  0.69180854589E+03  0.00000000000E+00 0.  1.
         21    1    1    2  504  503  0.94640607778E+02 -0.62103063034E+02 -0.49577087672E+02  0.12357800250E+03  0.00000000000E+00 0. -1.
         21    1    1    2  505  502 -0.13290377540E+02  0.31386167826E+02 -0.10677492762E+02  0.35717425966E+02  0.00000000000E+00 0. -1.
         21    1    1    2  506  504 -0.55305673502E+02 -0.48159253064E+02 -0.30524098340E+03  0.31392688500E+03  0.00000000000E+00 0. -1.
<scales pt_clust_3="14000.00000" pt_clust_4="83.24509" pt_clust_5="34.08410" pt_clust_6="69.80404"></scales>
<clustering>
<clus scale="   34.084">  2  5  1 -1</clus>
<clus scale="   69.804">  2  6  1 -1</clus>
<clus scale="   83.245">  2  4  1 -1</clus>
<clus scale="   83.245">  1  3  2 -1</clus>
</clustering>
</event>
<event>
 6    0  0.6207838E+002  0.1050201E+03  0.7546771E-02  0.1270080E+00
         21   -1    0    0  503  501  0.00000000000E+00  0.00000000000E+00  0.86697140137E+03  0.86697140137E+03  0.00000000000E+00 0.  1.
         21   -1    0    0  506  502 -0.00000000000E+00 -0.00000000000E+00 -0.96638270952E+02  0.96638270952E+02  0.00000000000E+00 0. -1.
         21    1    1    2  503  505 -0.37957560937E+02 -0.90974105488E+02  0.67179352440E+03  0.67898718966E+03  0.00000000000E+00 0.  1.
         21    1    1    2  504  501  0.28696458124E+02  0.32714538070E+02  0.10073600543E+03  0.10973363432E+03  0.00000000000E+00 0. -1.
         21    1    1    2  505  502 -0.45599876462E+02  0.31343724188E+02 -0.66279147320E+02  0.86340622819E+02  0.00000000000E+00 0. -1.
         21    1    1    2  506  504  0.54860979275E+02  0.26915843231E+02  0.64082747900E+02  0.88548225517E+02  0.00000000000E+00 0. -1.
<scales pt_clust_3="97.03796" pt_clust_4="33.89041" pt_clust_5="55.33333" pt_clust_6="33.89041"></scales>
<clustering>
<clus scale="   33.890">  4  6 -1 -1</clus>
<clus scale="   55.333">  2  5  1 -1</clus>
<clus scale="   97.038">  1  3  2 -1</clus>
<clus scale="   97.038">  1  3  2 -1</clus>
</clustering>
</event>
<event>
 6    0  0.6207838E+002  0.4415587E+03  0.7546771E-02  0.1030270E+00
         21   -1    0    0  506  501  0.00000000000E+00  0.00000000000E+00  0.17764492215E+03  0.17764492215E+03  0.00000000000E+00 0. -1.
         21   -1    0    0  503  502 -0.00000000000E+00 -0.00000000000E+00 -0.17548259025E+04  0.17548259025E+04  0.00000000000E+00 0. -1.
         21    1    1    2  503  505 -0.41657085025E+03 -0.90734518868E+02 -0.10431791001E+04  0.11269368487E+04  0.00000000000E+00 0. -1.
         21    1    1    2  504  502  0.73229665719E+02  0.36316340170E+02 -0.75289655022E+02  0.11113052082E+03  0.00000000000E+00 0.  1.
         21    1    1    2  505  501 -0.24965773050E+02 -0.20925376503E+02  0.51325693205E+02  0.60790525485E+02  0.00000000000E+00 0. -1.
         21    1    1    2  506  504  0.36830695759E+03  0.75343555200E+02 -0.51003791847E+03  0.63361292963E+03  0.00000000000E+00 0. -1.
<scales pt_clust_3="436.30508" pt_clust_4="31.66668" pt_clust_5="32.57547" pt_clust_6="31.66668"></scales>
<clustering>
<clus scale="   31.667">  4  6 -1 -1</clus>
<clus scale="   32.575">  1  5  2 -1</clus>
<clus scale="  436.305">  2  3  1 -1</clus>
<clus scale="   32.575">  1  3  2 -1</clus>
</clustering>
</event>
<event>
 6    0  0.6207838E+002  0.8181747E+02  0.7546771E-02  0.1323971E+00
         21   -1    0    0  505  501  0.00000000000E+00  0.00000000000E+00  0.84372226149E+02  0.84372226149E+02  0.00000000000E+00 0. -1.
         21   -1    0    0  503  502 -0.00000000000E+00 -0.00000000000E+00 -0.37644082068E+03  0.37644082068E+03  0.00000000000E+00 0. -1.
         21    1    1    2  503  506  0.47940849479E+02  0.31358423414E+01 -0.66111179476E+01  0.48496035265E+02  0.00000000000E+00 0. -1.
         21    1    1    2  504  502 -0.84043786183E+02  0.22265328730E+02 -0.26292431252E+03  0.27692651908E+03  0.00000000000E+00 0. -1.
         21    1    1    2  505  504  0.28948439592E+02 -0.72273318988E+02  0.91098035847E+01  0.78386435776E+02  0.00000000000E+00 0. -1.
         21    1    1    2  506  501  0.71544971126E+01  0.46872147916E+02 -0.31642967657E+02  0.57004056709E+02  0.00000000000E+00 0. -1.
<scales pt_clust_3="52.78509" pt_clust_4="14000.00000" pt_clust_5="81.81747" pt_clust_6="47.41503"></scales>
<clustering>
<clus scale="   47.415">  1  6  2 -1</clus>
<clus scale="   52.785">  1  3  2 -1</clus>
<clus scale="   81.817">  1  5  2 -1</clus>
<clus scale="   47.415">  1  3  2 -1</clus>
</clustering>
</event>
<event>
 6    0  0.6207838E+002  0.1720030E+03  0.7546771E-02  0.1175775E+00
         21   -1    0    0  505  501  0.00000000000E+00  0.00000000000E+00  0.16648546515E+04  0.16648546515E+04  0.00000000000E+00 0.  1.
         21   -1    0    0  506  502 -0.00000000000E+00 -0.00000000000E+00 -0.14616263795E+03  0.14616263795E+03  0.00000000000E+00 0.  1.
         21    1    1    2  503  502  0.73153606261E+02  0.13446910605E+02  0.10506175240E+03  0.12872544943E+03  0.00000000000E+00 0.  1.
         21    1    1    2  504  501 -0.56919597019E+02  0.54661485149E+02  0.22457201250E+01  0.78947841911E+02  0.00000000000E+00 0. -1.
         21    1    1    2  505  503  0.13072194974E+03 -0.72356714606E+02  0.14448591691E+04  0.14525638508E+04  0.00000000000E+00 0.  1.
         21    1    1    2  506  504 -0.14695595898E+03  0.42483188522E+01 -0.33474628040E+02  0.15078014729E+03  0.00000000000E+00 0.  1.
<scales pt_clust_3="74.37923" pt_clust_4="60.25635" pt_clust_5="151.06604" pt_clust_6="60.25635"></scales>
<clustering>
<clus scale="   60.256">  4  6 -1 -1</clus>
<clus scale="   74.379">  2  3  1 -1</clus>
<clus scale="  151.066">  1  5  2 -1</clus>
<clus scale="  151.066">  1  3  2 -1</clus>
</clustering>
</event>
<event>
 6    0  0.6207838E+002  0.1017516E+03  0.7546771E-02  0.1276655E+00
         21   -1    0    0  503  501  0.00000000000E+00  0.00000000000E+00  0.14096254251E+03  0.14096254251E+03  0.00000000000E+00 0. -1.
         21   -1    0    0  506  502 -0.00000000000E+00 -0.00000000000E+00 -0.31216199564E+03  0.31216199564E+03  0.00000000000E+00 0. -1.
         21    1    1    2  503  505 -0.33776062752E+02 -0.10012409810E+03  0.62184199188E+02  0.12260722681E+03  0.00000000000E+00 0. -1.
         21    1    1    2  504  502 -0.78524629896E+01 -0.33312315016E+02 -0.86482874169E+02  0.93008919096E+02  0.00000000000E+00 0. -1.
         21    1    1    2  505  504  0.60261397139E+02  0.41966314607E+02 -0.13460342757E+02  0.74657808527E+02  0.00000000000E+00 0. -1.
         21    1    1    2  506  501 -0.18632871398E+02  0.91470098514E+02 -0.13344043540E+03  0.16285058372E+03  0.00000000000E+00 0. -1.
<scales pt_clust_3="14000.00000" pt_clust_4="34.22531" pt_clust_5="68.53635" pt_clust_6="101.75159"></scales>
<clustering>
<clus scale="   34.225">  2  4  1 -1</clus>
<clus scale="   68.536">  2  5  1 -1</clus>
<clus scale="  101.752">  2  6  1 -1</clus>
<clus scale="  101.752">  1  3  2 -1</clus>
</clustering>
</event>
<event>
 6    0  0.6207838E+002  0.8566750E+02  0.7546771E-02  0.1313696E+00
         21   -1    0    0  504  501  0.00000000000E+00  0.00000000000E+00  0.33279125040E+03  0.33279125040E+03  0.00000000000E+00 0. -1.
         21   -1    0    0  505  502 -0.00000000000E+00 -0.00000000000E+00 -0.37988602511E+03  0.37988602511E+03  0.00000000000E+00 0. -1.
         21    1    1    2  503  506  0.45908808965E+02 -0.36211355934E+02 -0.30836693624E+02  0.66104332028E+02  0.00000000000E+00 0. -1.
         21    1    1    2  504  503  0.38785958127E+02  0.10416918900E+02  0.27482102768E+03  0.27773991432E+03  0.00000000000E+00 0. -1.
         21    1    1    2  505  501 -0.98250691830E+02  0.90782924421E+02 -0.10136292200E+03  0.16783676524E+03  0.00000000000E+00 0. -1.
         21    1    1    2  506  502  0.13555924738E+02 -0.64988487387E+02 -0.18971618677E+03  0.20099626392E+03  0.00000000000E+00 0. -1.
<scales pt_clust_3="14000.00000" pt_clust_4="40.16046" pt_clust_5="85.66750" pt_clust_6="66.28085"></scales>
<clustering>
<clus scale="   40.160">  1  4  2 -1</clus>
<clus scale="   66.281">  2  6  1 -1</clus>
<clus scale="   85.667">  2  5  1 -1</clus>
<clus scale="   40.160">  1  3  2 -1</clus>
</clustering>
</event>
<event>
 6    0  0.6207838E+002  0.1092376E+03  0.7546771E-02  0.1261988E+00
         21   -1    0    0  505  501  0.00000000000E+00  0.00000000000E+00  0.50499803437E+03  0.50499803437E+03  0.00000000000E+00 0.  1.
         21   -1    0    0  506  502 -0.00000000000E+00 -0.00000000000E+00 -0.11034221306E+03  0.11034221306E+03  0.00000000000E+00 0.  1.
         21    1    1    2  503  502 -0.55878652994E+02 -0.29868220299E+02  0.23571699966E+02  0.67602954695E+02  0.00000000000E+00 0.  1.
         21    1    1    2  504  503 -0.33777912288E+02 -0.70340640877E+02  0.49024375141E+02  0.92152821311E+02  0.00000000000E+00 0.  1.
         21    1    1    2  505  504  0.38477984170E+02  0.26722100368E+02  0.35655432997E+03  0.35961870937E+03  0.00000000000E+00 0.  1.
         21    1    1    2  506  501  0.51178581112E+02  0.73486760808E+02 -0.34494583764E+02  0.95965762060E+02  0.00000000000E+00 0.  1.
<scales pt_clust_3="41.99203" pt_clust_4="41.99203" pt_clust_5="46.84683" pt_clust_6="98.79906"></scales>
<clustering>
<clus scale="   41.992">  3  4 -1 -1</clus>
<clus scale="   46.847">  1  5  2 -1</clus>
<clus scale="   98.799">  2  6  1 -1</clus>
<clus scale="   46.847">  1  3  2 -1</clus>
</clustering>
</event>
<event>
 6    0  0.6207838E+002  0.1348640E+03  0.7546771E-02  0.1220412E+00
         21   -1    0    0  505  501  0.00000000000E+00  0.00000000000E+00  0.12334478497E+03  0.12334478497E+03  0.00000000000E+00 0.  1.
         21   -1    0    0  501  502 -0.00000000000E+00 -0.00000000000E+00 -0.70698260301E+03  0.70698260301E+03  0.00000000000E+00 0. -1.
         21    1    1    2  503  506  0.23382472071E+02 -0.34048477145E+02 -0.62655389592E+02  0.75044897501E+02  0.00000000000E+00 0. -1.
         21    1    1    2  504  503 -0.78723129574E+02 -0.11551212330E+03 -0.58642236620E+02  0.15158922678E+03  0.00000000000E+00 0. -1.
         21    1    1    2  505  504  0.57155225557E+02  0.11956880372E+03  0.76461589466E+01  0.13274743831E+03  0.00000000000E+00 0.  1.
         21    1    1    2  506  502 -0.18145680542E+01  0.29991796725E+02 -0.46998635077E+03  0.47094582538E+03  0.00000000000E+00 0. -1.
<scales pt_clust_3="34.10733" pt_clust_4="134.86404" pt_clust_5="14000.00000" pt_clust_6="30.04664"></scales>
<clustering>
<clus scale="   30.047">  2  6  1 -1</clus>
<clus scale="   34.107">  2  3  1 -1</clus>
<clus scale="  134.864">  2  4  1 -1</clus>
<clus scale="  134.864">  1  3  2 -1</clus>
</clustering>
</event>
<event>
 6    0  0.6207838E+002  0.6853838E+02  0.7546771E-02  0.1365135E+00
         21   -1    0    0  504  501  0.00000000000E+00  0.00000000000E+00  0.33797210141E+03  0.33797210141E+03  0.00000000000E+00 0.  1.
         21   -1    0    0  505  502 -0.00000000000E+00 -0.00000000000E+00 -0.45762226568E+03  0.45762226568E+03  0.00000000000E+00 0.  1.
         21    1    1    2  503  502  0.62755486258E+02  0.11221097473E+02 -0.20638752157E+02  0.67008373914E+02  0.00000000000E+00 0.  1.
         21    1    1    2  504  503 -0.35595153130E+02  0.42453739230E+02  0.19091247286E+03  0.19878859925E+03  0.00000000000E+00 0.  1.
         21    1    1    2  505  506 -0.12877671425E+02  0.44989759825E+02 -0.38749028389E+03  0.39030581986E+03  0.00000000000E+00 0.  1.
         21    1    1    2  506  501 -0.14282661704E+02 -0.98664596528E+02  0.97566398926E+02  0.13949157406E+03  0.00000000000E+00 0.  1.
<scales pt_clust_3="14000.00000" pt_clust_4="57.86149" pt_clust_5="46.79651" pt_clust_6="68.53838"></scales>
<clustering>
<clus scale="   46.797">  2  5  1 -1</clus>
<clus scale="   57.861">  1  4  2 -1</clus>
<clus scale="   68.538">  1  6  2 -1</clus>
<clus scale="   57.861">  1  3  2 -1</clus>
</clustering>
</event>
<event>
 6    0  0.6207838E+002  0.1661452E+03  0.7546771E-02  0.1181928E+00
         21   -1    0    0  505  501  0.00000000000E+00  0.00000000000E+00  0.74917565880E+03  0.74917565880E+03  0.00000000000E+00 0. -1.
         21   -1    0    0  504  502 -0.00000000000E+00 -0.00000000000E+00 -0.54010737980E+03  0.54010737980E+03  0.00000000000E+00 0.  1.
         21    1    1    2  503  501 -0.31799143944E+02  0.39647027660E+02  0.34392464826E+03  0.34765965546E+03  0.00000000000E+00 0. -1.
         21    1    1    2  504  503  0.15650015928E+03 -0.28320451543E+02 -0.51450851211E+03  0.53852888211E+03  0.00000000000E+00 0.  1.
         21    1    1    2  505  506 -0.89368100256E+02 -0.18697049680E+02  0.32514029312E+03  0.33771651902E+03  0.00000000000E+00 0. -1.
         21    1    1    2  506  502 -0.35332915084E+02  0.73704735635E+01  0.54511849736E+02  0.65377982001E+02  0.00000000000E+00 0.  1.
<scales pt_clust_3="50.82393" pt_clust_4="157.90325" pt_clust_5="32.49316" pt_clust_6="32.49316"></scales>
<clustering>
<clus scale="   32.493">  5  6 -1 -1</clus>
<clus scale="   50.824">  1  3  2 -1</clus>
<clus scale="  157.903">  2  4  1 -1</clus>
<clus scale="   50.824">  1  3  2 -1</clus>
</clustering>
</event>
<event>
 6    0  0.6207838E+002  0.1058286E+03  0.7546771E-02  0.1268496E+00
         21   -1    0    0  504  501  0.00000000000E+00  0.00000000000E+00  0.62170713183E+03  0.62170713183E+03  0.00000000000E+00 0. -1.
         21   -1    0    0  503  502 -0.00000000000E+00 -0.00000000000E+00 -0.69829519257E+03  0.69829519257E+03  0.00000000000E+00 0. -1.
         21    1    1    2  503  505  0.23800411302E+01  0.69630424130E+02 -0.27015122058E+03  0.27899057787E+03  0.00000000000E+00 0. -1.
         21    1    1    2  504  502 -0.64907153013E+02 -0.52405921392E+02 -0.30228807430E+02  0.88730490294E+02  0.00000000000E+00 0.  1.
         21    1    1    2  505  506  0.82731137352E+02  0.29569053013E+02 -0.35781606528E+03  0.36844417020E+03  0.00000000000E+00 0. -1.
         21    1    1    2  506  501 -0.20204025469E+02 -0.46793555752E+02  0.58160803255E+03  0.58383708603E+03  0.00000000000E+00 0. -1.
<scales pt_clust_3="64.32550" pt_clust_4="105.82864" pt_clust_5="14000.00000" pt_clust_6="50.96901"></scales>
<clustering>
<clus scale="   50.969">  1  6  2 -1</clus>
<clus scale="   64.326">  2  3  1 -1</clus>
<clus scale="  105.829">  1  4  2 -1</clus>
<clus scale="   50.969">  1  3  2 -1</clus>
</clustering>
</event>
<event>
 6    0  0.6207838E+002  0.1870166E+03  0.7546771E-02  0.1161180E+00
         21   -1    0    0  503  501  0.00000000000E+00  0.00000000000E+00  0.12626488005E+04  0.12626488005E+04  0.00000000000E+00 0.  1.
         21   -1    0    0  501  502 -0.00000000000E+00 -0.00000000000E+00 -0.26559529787E+03  0.26559529787E+03  0.00000000000E+00 0.  1.
         21    1    1    2  503  505 -0.26465551926E+02 -0.25396019828E+02  0.20621888527E+03  0.20945551294E+03  0.00000000000E+00 0.  1.
         21    1    1    2  504  502  0.18596003239E+02 -0.30952802173E+02 -0.22070554535E+03  0.22363994510E+03  0.00000000000E+00 0.  1.
         21    1    1    2  505  506 -0.17131309436E+03  0.50055888721E+02  0.79119145393E+03  0.81107193582E+03  0.00000000000E+00 0.  1.
         21    1    1    2  506  504  0.17918264305E+03  0.62929332800E+01  0.22034870880E+03  0.28407670451E+03  0.00000000000E+00 0.  1.
<scales pt_clust_3="37.00139" pt_clust_4="36.10938" pt_clust_5="14000.00000" pt_clust_6="187.01663"></scales>
<clustering>
<clus scale="   36.109">  2  4  1 -1</clus>
<clus scale="   37.001">  1  3  2 -1</clus>
<clus scale="  187.017">  2  6  1 -1</clus>
<clus scale="   37.001">  1  3  2 -1</clus>
</clustering>
</event>
<event>
 6    0  0.6207838E+002  0.8775062E+02  0.7546771E-02  0.1308392E+00
         21   -1    0    0  503  501  0.00000000000E+00  0.00000000000E+00  0.71010917348E+02  0.71010917348E+02  0.00000000000E+00 0. -1.
         21   -1    0    0  505  502 -0.00000000000E+00 -0.00000000000E+00 -0.74976126596E+03  0.74976126596E+03  0.00000000000E+00 0.  1.
         21    1    1    2  503  506 -0.32722284598E+02  0.42627998105E+02 -0.77279140931E+02  0.94127359225E+02  0.00000000000E+00 0. -1.
         21    1    1    2  504  501  0.22967205346E+02 -0.52459406963E+02 -0.17965649039E+02  0.60018717462E+02  0.00000000000E+00 0. -1.
         21    1    1    2  505  504  0.37909331180E+01 -0.68554081730E+02  0.87159737354E+01  0.69209836684E+02  0.00000000000E+00 0. -1.
         21    1    1    2  506  502  0.59641461343E+01  0.78385490588E+02 -0.59222153238E+03  0.59741626994E+03  0.00000000000E+00 0.  1.
<scales pt_clust_3="53.73913" pt_clust_4="32.34347" pt_clust_5="32.34347" pt_clust_6="80.28680"></scales>
<clustering>
<clus scale="   32.343">  4  5 -1 -1</clus>
<clus scale="   53.739">  1  3  2 -1</clus>
<clus scale="   80.287">  2  6  1 -1</clus>
<clus scale="   53.739">  1  3  2 -1</clus>
</clustering>
</event>
<event>
 6    0  0.6207838E+002  0.9692769E+02  0.7546771E-02  0.1286893E+00
         21   -1    0    0  504  501  0.00000000000E+00  0.00000000000E+00  0.16979049834E+04  0.16979049834E+04  0.00000000000E+00 0.  1.
         21   -1    0    0  505  502 -0.00000000000E+00 -0.00000000000E+00 -0.37839394160E+02  0.37839394160E+02  0.00000000000E+00 0. -1.
         21    1    1    2  503  506  0.62168033449E+02  0.20621711519E+01  0.61246315616E+03  0.61561370565E+03  0.00000000000E+00 0.  1.
         21    1    1    2  504  502 -0.68849608474E+02 -0.14773291473E+02  0.62184263099E+03  0.62581688732E+03  0.00000000000E+00 0. -1.
         21    1    1    2  505  503 -0.26620507655E+02  0.57136634031E+02 -0.19025679876E+01  0.63062398790E+02  0.00000000000E+00 0. -1.
         21    1    1    2  506  501  0.33302082680E+02 -0.44425513710E+02  0.42766237011E+03  0.43125138584E+03  0.00000000000E+00 0.  1.
<scales pt_clust_3="53.07762" pt_clust_4="78.98585" pt_clust_5="63.03369" pt_clust_6="53.07762"></scales>
<clustering>
<clus scale="   53.078">  3  6 -1 -1</clus>
<clus scale="   63.034">  2  5  1 -1</clus>
<clus scale="   78.986">  1  4  2 -1</clus>
<clus scale="   78.986">  1  3  2 -1</clus>
</clustering>
</event>
<event>
 6    0  0.6207838E+002  0.8520391E+02  0.7546771E-02  0.1314900E+00
         21   -1    0    0  504  501  0.00000000000E+00  0.00000000000E+00  0.17544456843E+04  0.17544456843E+04  0.00000000000E+00 0.  1.
         21   -1    0    0  505  502 -0.00000000000E+00 -0.00000000000E+00 -0.49045145446E+02  0.49045145446E+02  0.00000000000E+00 0. -1.
         21    1    1    2  503  502 -0.41034980066E+02  0.25402850608E+02 -0.28502170622E+02  0.56049515058E+02  0.00000000000E+00 0. -1.
         21    1    1    2  504  503  0.37820164625E+02 -0.11015802846E+01  0.20016521511E+03  0.20370982223E+03  0.00000000000E+00 0.  1.
         21    1    1    2  505  506  0.25605545532E+02 -0.96399464568E+02  0.84256413281E+03  0.84844729868E+03  0.00000000000E+00 0.  1.
         21    1    1    2  506  501 -0.22390730091E+02  0.72098194245E+02  0.69117336158E+03  0.69528419381E+03  0.00000000000E+00 0. -1.
<scales pt_clust_3="47.97138" pt_clust_4="37.83620" pt_clust_5="14000.00000" pt_clust_6="85.20391"></scales>
<clustering>
<clus scale="   37.836">  1  4  2 -1</clus>
<clus scale="   47.971">  2  3  1 -1</clus>
<clus scale="   85.204">  1  6  2 -1</clus>
<clus scale="   37.836">  1  3  2 -1</clus>
</clustering>
</event>
<event>
 6    0  0.6207838E+002  0.1610330E+03  0.7546771E-02  0.1187535E+00
         21   -1    0    0  503  501  0.00000000000E+00  0.00000000000E+00  0.56430422716E+03  0.56430422716E+03  0.00000000000E+00 0.  1.
         21   -1    0    0  506  502 -0.00000000000E+00 -0.00000000000E+00 -0.17583201542E+03  0.17583201542E+03  0.00000000000E+00 0.  1.
         21    1    1    2  503  502  0.15573476883E+03 -0.45604797208E+02  0.47487692017E+03  0.50183782745E+03  0.00000000000E+00 0.  1.
         21    1    1    2  504  501 -0.25514368888E+02 -0.24723004244E+02  0.24741632594E+02  0.43293860327E+02  0.00000000000E+00 0. -1.
         21    1    1    2  505  504 -0.70001538844E+02  0.59055485967E+02 -0.36884648040E+02  0.98733191605E+02  0.00000000000E+00 0.  1.
         21    1    1    2  506  505 -0.60218861099E+02  0.11272315485E+02 -0.74261692976E+02  0.96271363199E+02  0.00000000000E+00 0.  1.
<scales pt_clust_3="148.86806" pt_clust_4="35.52759" pt_clust_5="50.33019" pt_clust_6="50.33019"></scales>
<clustering>
<clus scale="   35.528">  1  4  2 -1</clus>
<clus scale="   50.330">  5  6 -1 -1</clus>
<clus scale="  148.868">  1  3  2 -1</clus>
<clus scale="   35.528">  1  3  2 -1</clus>
</clustering>
</event>
<event>
 6    0  0.6207838E+002  0.3456675E+03  0.7546771E-02  0.1064407E+00
         21   -1    0    0  506  501  0.00000000000E+00  0.00000000000E+00  0.80711822807E+03  0.80711822807E+03  0.00000000000E+00 0.  1.
         21   -1    0    0  504  502 -0.00000000000E+00 -0.00000000000E+00 -0.12635301021E+04  0.12635301021E+04  0.00000000000E+00 0. -1.
         21    1    1    2  503  502  0.13552302173E+03 -0.18605894016E+03 -0.24949906819E+03  0.33946163798E+03  0.00000000000E+00 0.  1.
         21    1    1    2  504  505 -0.23455492836E+03 -0.30958200969E+03  0.13452094779E+03  0.41103883094E+03  0.00000000000E+00 0. -1.
         21    1    1    2  505  501  0.11447268163E+02  0.76059743393E+02  0.43043562329E+03  0.43725387398E+03  0.00000000000E+00 0.  1.
         21    1    1    2  506  503  0.87584638462E+02  0.41958120647E+03 -0.77186937687E+03  0.88289398722E+03  0.00000000000E+00 0. -1.
<scales pt_clust_3="223.68181" pt_clust_4="345.66752" pt_clust_5="76.91635" pt_clust_6="14000.00000"></scales>
<clustering>
<clus scale="   76.916">  1  5  2 -1</clus>
<clus scale="  223.682">  2  3  1 -1</clus>
<clus scale="  345.668">  1  4  2 -1</clus>
<clus scale="   76.916">  1  3  2 -1</clus>
</clustering>
</event>
<event>
 6    0  0.6207838E+002  0.2493167E+03  0.7546771E-02  0.1113737E+00
         21   -1    0    0  505  501  0.00000000000E+00  0.00000000000E+00  0.22798471820E+03  0.22798471820E+03  0.00000000000E+00 0.  1.
         21   -1    0    0  504  502 -0.00000000000E+00 -0.00000000000E+00 -0.32946443430E+03  0.32946443430E+03  0.00000000000E+00 0. -1.
         21    1    1    2  503  501  0.10598124067E+03  0.78299233454E+01 -0.49060050903E+02  0.11704793748E+03  0.00000000000E+00 0. -1.
         21    1    1    2  504  503  0.13281249099E+03  0.83504198288E+02 -0.62039753178E+02  0.16870400075E+03  0.00000000000E+00 0. -1.
         21    1    1    2  505  506 -0.26647380776E+02 -0.17454508883E+02  0.32969285713E+02  0.45844482580E+02  0.00000000000E+00 0. -1.
         21    1    1    2  506  502 -0.21214635089E+03 -0.73879612751E+02 -0.23349197731E+02  0.22585273168E+03  0.00000000000E+00 0.  1.
<scales pt_clust_3="51.99249" pt_clust_4="51.99249" pt_clust_5="31.85503" pt_clust_6="241.27199"></scales>
<clustering>
<clus scale="   31.855">  1  5  2 -1</clus>
<clus scale="   51.992">  3  4 -1 -1</clus>
<clus scale="  241.272">  1  6  2 -1</clus>
<clus scale="   31.855">  1  3  2 -1</clus>
</clustering>
</event>
<event>
 6    0  0.6207838E+002  0.8990528E+02  0.7546771E-02  0.1303081E+00
         21   -1    0    0  505  501  0.00000000000E+00  0.00000000000E+00  0.43456585308E+03  0.43456585308E+03  0.00000000000E+00 0. -1.
         21   -1    0    0  503  502 -0.00000000000E+00 -0.00000000000E+00 -0.23461666955E+03  0.23461666955E+03  0.00000000000E+00 0.  1.
         21    1    1    2  503  506 -0.40017481630E+02  0.78221180235E+01 -0.17872072838E+01  0.40813949530E+02  0.00000000000E+00 0. -1.
         21    1    1    2  504  502  0.29629626946E+02 -0.11226291185E+02 -0.11477148899E+03  0.11906485247E+03  0.00000000000E+00 0.  1.
         21    1    1    2  505  504  0.95566957711E+02  0.30279821404E+02 -0.63680105591E+02  0.11876475419E+03  0.00000000000E+00 0. -1.
         21    1    1    2  506  501 -0.85179103027E+02 -0.26875648243E+02  0.38018798541E+03  0.39053896644E+03  0.00000000000E+00 0. -1.
<scales pt_clust_3="35.13566" pt_clust_4="31.68508" pt_clust_5="89.90528" pt_clust_6="14000.00000"></scales>
<clustering>
<clus scale="   31.685">  2  4  1 -1</clus>
<clus scale="   35.136">  2  3  1 -1</clus>
<clus scale="   89.905">  2  5  1 -1</clus>
<clus scale="   89.905">  1  3  2 -1</clus>
</clustering>
</event>
<event>
 6    0  0.6207838E+002  0.1514984E+03  0.7546771E-02  0.1198644E+00
         21   -1    0    0  503  501  0.00000000000E+00  0.00000000000E+00  0.21318332249E+03  0.21318332249E+03  0.00000000000E+00 0. -1.
         21   -1    0    0  506  502 -0.00000000000E+00 -0.00000000000E+00 -0.39685653059E+03  0.39685653059E+03  0.00000000000E+00 0. -1.
         21    1    1    2  503  502 -0.13675963767E+03  0.65542010592E+02 -0.21094965356E+03  0.25980513849E+03  0.00000000000E+00 0. -1.
         21    1    1    2  504  501  0.65198610961E+02  0.52798914032E+02  0.13994966688E+03  0.16317013653E+03  0.00000000000E+00 0. -1.
         21    1    1    2  505  504  0.19674388229E+02 -0.49779432833E+02 -0.12341530836E+02  0.54930746115E+02  0.00000000000E+00 0. -1.
         21    1    1    2  506  505  0.51886638479E+02 -0.68561491791E+02 -0.10033169059E+03  0.13213383195E+03  0.00000000000E+00 0. -1.
<scales pt_clust_3="140.63932" pt_clust_4="83.89627" pt_clust_5="44.43964" pt_clust_6="44.43964"></scales>
<clustering>
<clus scale="   44.440">  5  6 -1 -1</clus>
<clus scale="   83.896">  1  4  2 -1</clus>
<clus scale="  140.639">  2  3  1 -1</clus>
<clus scale="   83.896">  1  3  2 -1</clus>
</clustering>
</event>
<event>
 6    0  0.6207838E+002  0.1922917E+03  0.7546771E-02  0.1156410E+00
         21   -1    0    0  504  501  0.00000000000E+00  0.00000000000E+00  0.11102459774E+03  0.11102459774E+03  0.00000000000E+00 0.  1.
         21   -1    0    0  503  502 -0.00000000000E+00 -0.00000000000E+00 -0.15856473314E+04  0.15856473314E+04  0.00000000000E+00 0.  1.
         21    1    1    2  503  501  0.13778368485E+03 -0.76432154949E+02 -0.12791338093E+03  0.20294839527E+03  0.00000000000E+00 0.  1.
         21    1    1    2  504  506 -0.43510613378E+02 -0.95244685138E+01  0.56192709875E+01  0.44893932590E+02  0.00000000000E+00 0.  1.
         21    1    1    2  505  502 -0.20453795451E+03 -0.25404854493E+02 -0.12375033087E+04  0.12545499673E+04  0.00000000000E+00 0.  1.
         21    1    1    2  506  505  0.11026488304E+03  0.11136147796E+03 -0.11482531505E+03  0.19427963399E+03  0.00000000000E+00 0.  1.
<scales pt_clust_3="192.29171" pt_clust_4="44.54087" pt_clust_5="14000.00000" pt_clust_6="139.85087"></scales>
<clustering>
<clus scale="   44.541">  1  4  2 -1</clus>
<clus scale="  139.851">  1  6  2 -1</clus>
<clus scale="  192.292">  1  3  2 -1</clus>
<clus scale="   44.541">  1  3  2 -1</clus>
</clustering>
</event>
<event>
 6    0  0.6207838E+002  0.1090010E+03  0.7546771E-02  0.1262431E+00
         21   -1    0    0  503  501  0.00000000000E+00  0.00000000000E+00  0.16988521467E+04  0.16988521467E+04  0.00000000000E+00 0.  1.
         21   -1    0    0  506  502 -0.00000000000E+00 -0.00000000000E+00 -0.24728942845E+02  0.24728942845E+02  0.00000000000E+00 0.  1.
         21    1    1    2  503  505 -0.34475432821E+02  0.73651623225E+02  0.40773965632E+03  0.41577006194E+03  0.00000000000E+00 0.  1.
         21    1    1    2  504  501  0.76736312608E+02 -0.65237745895E+02  0.61086493443E+03  0.61911258530E+03  0.00000000000E+00 0.  1.
         21    1    1    2  505  502 -0.72687181774E+02  0.57832153200E+02  0.13975071866E+03  0.16780419453E+03  0.00000000000E+00 0.  1.
         21    1    1    2  506  504  0.30426301987E+02 -0.66246030530E+02  0.51576789446E+03  0.52089424778E+03  0.00000000000E+00 0.  1.
<scales pt_clust_3="81.32107" pt_clust_4="33.41030" pt_clust_5="101.68078" pt_clust_6="33.41030"></scales>
<clustering>
<clus scale="   33.410">  4  6 -1 -1</clus>
<clus scale="   81.321">  1  3  2 -1</clus>
<clus scale="  101.681">  2  5  1 -1</clus>
<clus scale="   81.321">  1  3  2 -1</clus>
</clustering>
</event>
<event>
 6    0  0.6207838E+002  0.1505034E+03  0.7546771E-02  0.1199856E+00
         21   -1    0    0  506  501  0.00000000000E+00  0.00000000000E+00  0.90123949395E+03  0.90123949395E+03  0.00000000000E+00 0.  1.
         21   -1    0    0  504  502 -0.00000000000E+00 -0.00000000000E+00 -0.15588095569E+04  0.15588095569E+04  0.00000000000E+00 0.  1.
         21    1    1    2  503  502  0.14376650595E+03  0.43673190530E+02 -0.15240711282E+04  0.15314597480E+04  0.00000000000E+00 0.  1.
         21    1    1    2  504  505 -0.17705145253E+03 -0.78567644604E+02  0.60236508748E+03  0.63274306811E+03  0.00000000000E+00 0.  1.
         21    1    1    2  505  501  0.69714022159E+02 -0.23097353220E+01  0.20750940288E+03  0.21891900796E+03  0.00000000000E+00 0.  1.
         21    1    1    2  506  503 -0.36429075584E+02  0.37204189396E+02  0.56626574834E+02  0.76927226870E+02  0.00000000000E+00 0.  1.
<scales pt_clust_3="150.50340" pt_clust_4="14000.00000" pt_clust_5="60.83315" pt_clust_6="52.06947"></scales>
<clustering>
<clus scale="   52.069">  1  6  2 -1</clus>
<clus scale="   60.833">  1  5  2 -1</clus>
<clus scale="  150.503">  2  3  1 -1</clus>
<clus scale="   52.069">  1  3  2 -1</clus>
</clustering>
</event>
<event>
 6    0  0.6207838E+002  0.1283920E+03  0.7546771E-02  0.1229861E+00
         21   -1    0    0  504  501  0.00000000000E+00  0.00000000000E+00  0.77605834946E+02  0.77605834946E+02  0.00000000000E+00 0.  1.
         21   -1    0    0  503  502 -0.00000000000E+00 -0.00000000000E+00 -0.79834266996E+03  0.79834266996E+03  0.00000000000E+00 0.  1.
         21    1    1    2  503  505  0.33107339118E+02 -0.48666434489E+02 -0.22816218478E+02  0.63127629252E+02  0.00000000000E+00 0.  1.
         21    1    1    2  504  506 -0.13239274609E+03  0.67745129203E+02 -0.12759662975E+03  0.19595443774E+03  0.00000000000E+00 0.  1.
         21    1    1    2  505  501  0.53052498908E+02 -0.25301885796E+02 -0.16455919963E+02  0.61037286695E+02  0.00000000000E+00 0.  1.
         21    1    1    2  506  502  0.46232908061E+02  0.62231910825E+01 -0.55386806682E+03  0.55582915121E+03  0.00000000000E+00 0.  1.
<scales pt_clust_3="31.27960" pt_clust_4="124.51788" pt_clust_5="31.27960" pt_clust_6="46.64986"></scales>
<clustering>
<clus scale="   31.280">  3  5 -1 -1</clus>
<clus scale="   46.650">  2  6  1 -1</clus>
<clus scale="  124.518">  2  4  1 -1</clus>
<clus scale="  128.392">  1  3  2 -1</clus>
</clustering>
</event>
<event>
 6    0  0.6207838E+002  0.7591931E+02  0.7546771E-02  0.1341048E+00
         21   -1    0    0  503  501  0.00000000000E+00  0.00000000000E+00  0.19562678460E+02  0.19562678460E+02  0.00000000000E+00 0. -1.
         21   -1    0    0  505  502 -0.00000000000E+00 -0.00000000000E+00 -0.31632360539E+04  0.31632360539E+04  0.00000000000E+00 0.  1.
         21    1    1    2  503  506  0.21595153315E+02  0.25278368471E+02 -0.33230969782E+02  0.47006849628E+02  0.00000000000E+00 0. -1.
         21    1    1    2  504  502 -0.14853120700E+02  0.64356579306E+02 -0.22293605302E+04  0.22303387093E+04  0.00000000000E+00 0.  1.
         21    1    1    2  505  501  0.52258318500E+01 -0.12528613117E+03 -0.84173945087E+03  0.85102833509E+03  0.00000000000E+00 0. -1.
         21    1    1    2  506  504 -0.11967864465E+02  0.35651183395E+02 -0.39342424568E+02  0.54424838339E+02  0.00000000000E+00 0. -1.
<scales pt_clust_3="32.79302" pt_clust_4="66.04835" pt_clust_5="67.43401" pt_clust_6="32.79302"></scales>
<clustering>
<clus scale="   32.793">  3  6 -1 -1</clus>
<clus scale="   66.048">  2  4  1 -1</clus>
<clus scale="   67.434">  2  5  1 -1</clus>
<clus scale="   75.919">  1  3  2 -1</clus>
</clustering>
</event>
<event>
 6    0  0.6207838E+002  0.1335469E+03  0.7546771E-02  0.1222286E+00
         21   -1    0    0  505  501  0.00000000000E+00  0.00000000000E+00  0.37818987113E+03  0.37818987113E+03  0.00000000000E+00 0. -1.
         21   -1    0    0  503  502 -0.00000000000E+00 -0.00000000000E+00 -0.28278437611E+03  0.28278437611E+03  0.00000000000E+00 0.  1.
         21    1    1    2  503  501  0.32628159858E+02  0.61911178231E+02  0.18091686402E+03  0.19398067557E+03  0.00000000000E+00 0. -1.
         21    1    1    2  504  502  0.10795873837E+03 -0.10417246399E+03 -0.21264638606E+03  0.26024118995E+03  0.00000000000E+00 0.  1.
         21    1    1    2  505  506 -0.47773798799E+02  0.18383018191E+02  0.90848702972E+02  0.10427731317E+03  0.00000000000E+00 0.  1.
         21    1    1    2  506  504 -0.92813099425E+02  0.23878267564E+02  0.36286314082E+02  0.10247506856E+03  0.00000000000E+00 0. -1.
<scales pt_clust_3="74.19385" pt_clust_4="133.54691" pt_clust_5="51.18858" pt_clust_6="14000.00000"></scales>
<clustering>
<clus scale="   51.189">  1  5  2 -1</clus>
<clus scale="   74.194">  1  3  2 -1</clus>
<clus scale="  133.547">  2  4  1 -1</clus>
<clus scale="   51.189">  1  3  2 -1</clus>
</clustering>
</event>
<event>
 6    0  0.6207838E+002  0.1382240E+03  0.7546771E-02  0.1215739E+00
         21   -1    0    0  504  501  0.00000000000E+00  0.00000000000E+00  0.38155058555E+03  0.38155058555E+03  0.00000000000E+00 0. -1.
         21   -1    0    0  506  502 -0.00000000000E+00 -0.00000000000E+00 -0.37373274338E+03  0.37373274338E+03  0.00000000000E+00 0. -1.
         21    1    1    2  503  501 -0.35548425239E+01 -0.59797853049E+02 -0.85464236882E+02  0.10436740833E+03  0.00000000000E+00 0. -1.
         21    1    1    2  504  505  0.94001214101E+02  0.90898908759E+02  0.34747549638E+03  0.37126548514E+03  0.00000000000E+00 0. -1.
         21    1    1    2  505  502 -0.43609560186E+02  0.18841408774E+02 -0.11832339436E+03  0.12750379632E+03  0.00000000000E+00 0. -1.
         21    1    1    2  506  503 -0.46836811391E+02 -0.49942464484E+02 -0.13587002298E+03  0.15214663915E+03  0.00000000000E+00 0. -1.
<scales pt_clust_3="44.15417" pt_clust_4="129.91359" pt_clust_5="47.50571" pt_clust_6="44.15417"></scales>
<clustering>
<clus scale="   44.154">  3  6 -1 -1</clus>
<clus scale="   47.506">  2  5  1 -1</clus>
<clus scale="  129.914">  1  4  2 -1</clus>
<clus scale="  129.914">  1  3  2 -1</clus>
</clustering>
</event>
<event>
 6    0  0.6207838E+002  0.1257599E+03  0.7546771E-02  0.1233886E+00
         21   -1    0    0  504  501  0.00000000000E+00  0.00000000000E+00  0.12540137997E+04  0.12540137997E+04  0.00000000000E+00 0.  1.
         21   -1    0    0  503  502 -0.00000000000E+00 -0.00000000000E+00 -0.59666544827E+03  0.59666544827E+03  0.00000000000E+00 0.  1.
         21    1    1    2  503  505 -0.59489377163E+01  0.36335951756E+02 -0.80164264484E+02  0.88215647990E+02  0.00000000000E+00 0.  1.
         21    1    1    2  504  506 -0.12564427686E+03 -0.42114673442E+01  0.12250919750E+04  0.12315253014E+04  0.00000000000E+00 0.  1.
         21    1    1    2  505  501 -0.74721990153E+00 -0.38610546264E+02 -0.17238596080E+02  0.42290682369E+02  0.00000000000E+00 0.  1.
         21    1    1    2  506  502  0.13234043448E+03  0.64860618523E+01 -0.47034076295E+03  0.48864761627E+03  0.00000000000E+00 0.  1.
<scales pt_clust_3="36.81971" pt_clust_4="125.75994" pt_clust_5="36.51650" pt_clust_6="14000.00000"></scales>
<clustering>
<clus scale="   36.820">  2  3  1 -1</clus>
<clus scale="   36.517">  2  5  1 -1</clus>
<clus scale="  125.760">  1  4  2 -1</clus>
<clus scale="  125.760">  1  3  2 -1</clus>
</clustering>
</event>
<event>
 6    0  0.1001681E+003  0.1719669E+03  0.7546771E-02  0.1175812E+00
         21   -1    0    0  506  501  0.00000000000E+00  0.00000000000E+00  0.16125801304E+04  0.16125801304E+04  0.00000000000E+00 0.  1.
         21   -1    0    0  505  502 -0.00000000000E+00 -0.00000000000E+00 -0.47189267850E+03  0.47189267850E+03  0.00000000000E+00 0. -1.
         21    1    1    2  503  501 -0.62791166863E+02  0.77737729794E+02  0.91982258649E+03  0.92523482203E+03  0.00000000000E+00 0.  1.
         21    1    1    2  504  502  0.82600049273E+02 -0.15727963543E+03 -0.44167988409E+03  0.47606803282E+03  0.00000000000E+00 0. -1.
         21    1    1    2  505  503 -0.55883301628E+02  0.76802297086E+02  0.22625924589E+03  0.24538700575E+03  0.00000000000E+00 0.  1.
         21    1    1    2  506  504  0.36074419217E+02  0.27396085516E+01  0.43628550362E+03  0.43778294833E+03  0.00000000000E+00 0.  1.
<scales pt_clust_3="87.01146" pt_clust_4="171.96692" pt_clust_5="14000.00000" pt_clust_6="36.17830"></scales>
<clustering>
<clus scale="   36.178">  1  6  2 -1</clus>
<clus scale="   87.011">  1  3  2 -1</clus>
<clus scale="  171.967">  2  4  1 -1</clus>
<clus scale="   36.178">  1  3  2 -1</clus>
</clustering>
</event>
<event>
 6    0  0.6207838E+002  0.1398224E+03  0.7546771E-02  0.1213568E+00
         21   -1    0    0  503  501  0.00000000000E+00  0.00000000000E+00  0.25758208888E+03  0.25758208888E+03  0.00000000000E+00 0. -1.
         21   -1    0    0  504  502 -0.00000000000E+00 -0.00000000000E+00 -0.21409555787E+03  0.21409555787E+03  0.00000000000E+00 0.  1.
         21    1    1    2  503  506  0.10687362213E+02  0.57645019905E+02  0.89991415870E+02  0.10740401743E+03  0.00000000000E+00 0. -1.
         21    1    1    2  504  505 -0.25296883588E+02 -0.12813224386E+03 -0.14505916369E+03  0.19519212384E+03  0.00000000000E+00 0.  1.
         21    1    1    2  505  501  0.47008967247E+02 -0.10135492472E+02  0.20481139121E+02  0.52268999120E+02  0.00000000000E+00 0.  1.
         21    1    1    2  506  502 -0.32399445872E+02  0.80622716427E+02  0.78073139709E+02  0.11681250636E+03  0.00000000000E+00 0. -1.
<scales pt_clust_3="40.55847" pt_clust_4="130.81405" pt_clust_5="48.08920" pt_clust_6="40.55847"></scales>
<clustering>
<clus scale="   40.558">  3  6 -1 -1</clus>
<clus scale="   48.089">  1  5  2 -1</clus>
<clus scale="  130.814">  2  4  1 -1</clus>
<clus scale="   48.089">  1  3  2 -1</clus>
</clustering>
</event>
<event>
 6    0  0.6207838E+002  0.1461900E+03  0.7546771E-02  0.1205234E+00
         21   -1    0    0  506  501  0.00000000000E+00  0.00000000000E+00  0.40438087922E+03  0.40438087922E+03  0.00000000000E+00 0. -1.
         21   -1    0    0  504  502 -0.00000000000E+00 -0.00000000000E+00 -0.11592917385E+03  0.11592917385E+03  0.00000000000E+00 0. -1.
         21    1    1    2  503  501 -0.61114192356E+02  0.11779528560E+03  0.30705778896E+03  0.33450733860E+03  0.00000000000E+00 0. -1.
         21    1    1    2  504  505 -0.98524109648E+01 -0.76730206354E+02  0.10427696934E+02  0.78059793955E+02  0.00000000000E+00 0. -1.
         21    1    1    2  505  503  0.43459754346E+02 -0.56043306201E+02 -0.11492408099E+02  0.71844817918E+02  0.00000000000E+00 0. -1.
         21    1    1    2  506  502  0.27506848975E+02  0.14978226952E+02 -0.17541372427E+02  0.35898102593E+02  0.00000000000E+00 0. -1.
<scales pt_clust_3="132.88915" pt_clust_4="59.43143" pt_clust_5="59.43143" pt_clust_6="31.32050"></scales>
<clustering>
<clus scale="   31.321">  2  6  1 -1</clus>
<clus scale="   59.431">  4  5 -1 -1</clus>
<clus scale="  132.889">  1  3  2 -1</clus>
<clus scale="  132.889">  1  3  2 -1</clus>
</clustering>
</event>
<event>
 6    0  0.6207838E+002  0.2032618E+03  0.7546771E-02  0.1147016E+00
         21   -1    0    0  503  501  0.00000000000E+00  0.00000000000E+00  0.41008922199E+02  0.41008922199E+02  0.00000000000E+00 0.  1.
         21   -1    0    0  504  502 -0.00000000000E+00 -0.00000000000E+00 -0.22868816089E+04  0.22868816089E+04  0.00000000000E+00 0.  1.
         21    1    1    2  503  502  0.10255754582E+01 -0.11963926595E+03 -0.46769408981E+03  0.48275497658E+03  0.00000000000E+00 0. -1.
         21    1    1    2  504  505 -0.14232847664E+02  0.64619291685E+02 -0.42474876835E+03  0.42987177510E+03  0.00000000000E+00 0. -1.
         21    1    1    2  505  506  0.19961925666E+03  0.97239855783E+02 -0.76471623727E+03  0.79630042115E+03  0.00000000000E+00 0.  1.
         21    1    1    2  506  501 -0.18641198445E+03 -0.42219881519E+02 -0.58871359129E+03  0.61896335829E+03  0.00000000000E+00 0.  1.
<scales pt_clust_3="103.15849" pt_clust_4="66.16817" pt_clust_5="203.26184" pt_clust_6="14000.00000"></scales>
<clustering>
<clus scale="   66.168">  2  4  1 -1</clus>
<clus scale="  103.158">  2  3  1 -1</clus>
<clus scale="  203.262">  2  5  1 -1</clus>
<clus scale="  203.262">  1  3  2 -1</clus>
</clustering>
</event>
<event>
 6    0  0.6207838E+002  0.2482842E+03  0.7546771E-02  0.1114394E+00
         21   -1    0    0  506  501  0.00000000000E+00  0.00000000000E+00  0.21490100884E+04  0.21490100884E+04  0.00000000000E+00 0.  1.
         21   -1    0    0  505  502 -0.00000000000E+00 -0.00000000000E+00 -0.68718897989E+02  0.68718897989E+02  0.00000000000E+00 0. -1.
         21    1    1    2  503  502 -0.18632802737E+02 -0.30497978284E+02  0.27663884281E+02  0.45195116005E+02  0.00000000000E+00 0. -1.
         21    1    1    2  504  501 -0.13408721371E+03 -0.20765079774E+03  0.16665052801E+04  0.16847367994E+04  0.00000000000E+00 0.  1.
         21    1    1    2  505  504 -0.20736939249E+01  0.37039910724E+02  0.19509130838E+02  0.41914930263E+02  0.00000000000E+00 0.  1.
         21    1    1    2  506  503  0.15479371037E+03  0.20110886530E+03  0.36661289514E+03  0.44588214065E+03  0.00000000000E+00 0. -1.
<scales pt_clust_3="35.73945" pt_clust_4="248.28418" pt_clust_5="31.82961" pt_clust_6="14000.00000"></scales>
<clustering>
<clus scale="   35.739">  2  3  1 -1</clus>
<clus scale="   31.830">  2  5  1 -1</clus>
<clus scale="  248.284">  1  4  2 -1</clus>
<clus scale="  248.284">  1  3  2 -1</clus>
</clustering>
</event>
<event>
 6    0  0.6207838E+002  0.1043608E+03  0.7546771E-02  0.1271384E+00
         21   -1    0    0  503  501  0.00000000000E+00  0.00000000000E+00  0.41459662136E+03  0.41459662136E+03  0.00000000000E+00 0. -1.
         21   -1    0    0  504  502 -0.00000000000E+00 -0.00000000000E+00 -0.80264287748E+02  0.80264287748E+02  0.00000000000E+00 0. -1.
         21    1    1    2  503  502  0.40282558237E+02  0.62470206820E+02  0.88572215958E+02  0.11562979148E+03  0.00000000000E+00 0. -1.
         21    1    1    2  504  506 -0.62596935402E+02 -0.48298604330E+02  0.45055423336E+01  0.79192369669E+02  0.00000000000E+00 0. -1.
         21    1    1    2  505  501  0.57633191058E+02 -0.21502629800E+02  0.25433539574E+03  0.26166857153E+03  0.00000000000E+00 0. -1.
         21    1    1    2  506  505 -0.35318813893E+02  0.73310273105E+01 -0.13080820421E+02  0.38370176428E+02  0.00000000000E+00 0. -1.
<scales pt_clust_3="91.70384" pt_clust_4="33.64786" pt_clust_5="61.51380" pt_clust_6="33.64786"></scales>
<clustering>
<clus scale="   33.648">  4  6 -1 -1</clus>
<clus scale="   61.514">  1  5  2 -1</clus>
<clus scale="   91.704">  1  3  2 -1</clus>
<clus scale="   61.514">  1  3  2 -1</clus>
</clustering>
</event>
<event>
 6    0  0.6207838E+002  0.9579442E+02  0.7546771E-02  0.1289397E+00
         21   -1    0    0  506  501  0.00000000000E+00  0.00000000000E+00  0.41507619594E+03  0.41507619594E+03  0.00000000000E+00 0. -1.
         21   -1    0    0  505  502 -0.00000000000E+00 -0.00000000000E+00 -0.12932029922E+03  0.12932029922E+03  0.00000000000E+00 0. -1.
         21    1    1    2  503  501  0.99319570431E+02  0.28058121298E+02  0.31776651472E+03  0.33410655953E+03  0.00000000000E+00 0. -1.
         21    1    1    2  504  502 -0.31976961739E+02 -0.55824231318E+02 -0.86563475180E+02  0.10785224207E+03  0.00000000000E+00 0. -1.
         21    1    1    2  505  503 -0.52487801871E+02 -0.29600429053E+01  0.32627232527E+02  0.61872994930E+02  0.00000000000E+00 0. -1.
         21    1    1    2  506  504 -0.14854806820E+02  0.30726152926E+02  0.21925624650E+02  0.40564698638E+02  0.00000000000E+00 0.  1.
<scales pt_clust_3="14000.00000" pt_clust_4="95.79442" pt_clust_5="54.32267" pt_clust_6="34.12861"></scales>
<clustering>
<clus scale="   34.129">  1  6  2 -1</clus>
<clus scale="   54.323">  2  5  1 -1</clus>
<clus scale="   95.794">  2  4  1 -1</clus>
<clus scale="   34.129">  1  3  2 -1</clus>
</clustering>
</event>
<event>
 6    0  0.6207838E+002  0.1561350E+03  0.7546771E-02  0.1193131E+00
         21   -1    0    0  503  501  0.00000000000E+00  0.00000000000E+00  0.18232800569E+04  0.18232800569E+04  0.00000000000E+00 0. -1.
         21   -1    0    0  506  502 -0.00000000000E+00 -0.00000000000E+00 -0.21756555540E+03  0.21756555540E+03  0.00000000000E+00 0. -1.
         21    1    1    2  503  504 -0.34625780901E+02  0.15871029716E+01  0.96932656715E+03  0.96994611056E+03  0.00000000000E+00 0. -1.
         21    1    1    2  504  505  0.16500341286E+03  0.28162858982E+02  0.38925827790E+03  0.42372311690E+03  0.00000000000E+00 0. -1.
         21    1    1    2  505  502 -0.10634971814E+03 -0.18295230576E+03  0.38522730358E+03  0.43952461155E+03  0.00000000000E+00 0. -1.
         21    1    1    2  506  501 -0.24027913812E+02  0.15320234381E+03 -0.13809764715E+03  0.20765177327E+03  0.00000000000E+00 0. -1.
<scales pt_clust_3="34.66213" pt_clust_4="151.30450" pt_clust_5="14000.00000" pt_clust_6="156.13500"></scales>
<clustering>
<clus scale="   34.662">  1  3  2 -1</clus>
<clus scale="  151.304">  1  4  2 -1</clus>
<clus scale="  156.135">  2  6  1 -1</clus>
<clus scale="   34.662">  1  3  2 -1</clus>
</clustering>
</event>
<event>
 6    0  0.6207838E+002  0.1667374E+03  0.7546771E-02  0.1181294E+00
         21   -1    0    0  504  501  0.00000000000E+00  0.00000000000E+00  0.10387525979E+03  0.10387525979E+03  0.00000000000E+00 0.  1.
         21   -1    0    0  505  502 -0.00000000000E+00 -0.00000000000E+00 -0.12984086159E+04  0.12984086159E+04  0.00000000000E+00 0.  1.
         21    1    1    2  503  506 -0.92672782369E+02  0.24135092099E+02 -0.91476387086E+02  0.13243366889E+03  0.00000000000E+00 0.  1.
         21    1    1    2  504  503 -0.70679171265E+02 -0.26522829538E+02 -0.65347189280E+02  0.99846186128E+02  0.00000000000E+00 0.  1.
         21    1    1    2  505  501  0.15377821071E+03 -0.34731593073E+02 -0.28671169212E+02  0.16023750370E+03  0.00000000000E+00 0.  1.
         21    1    1    2  506  502  0.95737429236E+01  0.37119330513E+02 -0.10090386105E+04  0.10097665170E+04  0.00000000000E+00 0.  1.
<scales pt_clust_3="43.84584" pt_clust_4="43.84584" pt_clust_5="158.52639" pt_clust_6="38.33407"></scales>
<clustering>
<clus scale="   38.334">  2  6  1 -1</clus>
<clus scale="   43.846">  3  4 -1 -1</clus>
<clus scale="  158.526">  1  5  2 -1</clus>
<clus scale="  158.526">  1  3  2 -1</clus>
</clustering>
</event>
<event>
 6    0  0.6207838E+002  0.1367919E+03  0.7546771E-02  0.1217712E+00
         21   -1    0    0  503  501  0.00000000000E+00  0.00000000000E+00  0.58797769314E+03  0.58797769314E+03  0.00000000000E+00 0. -1.
         21   -1    0    0  506  502 -0.00000000000E+00 -0.00000000000E+00 -0.29102789031E+03  0.29102789031E+03  0.00000000000E+00 0. -1.
         21    1    1    2  503  505  0.60408731258E+02  0.10611344333E+03  0.51953019501E+03  0.53368614484E+03  0.00000000000E+00 0. -1.
         21    1    1    2  504  501 -0.50712260718E+02 -0.10666171924E+03 -0.17300587430E+03  0.20947431414E+03  0.00000000000E+00 0. -1.
         21    1    1    2  505  502  0.42020809815E+02  0.22926801457E+02  0.14977707779E+02  0.50156937833E+02  0.00000000000E+00 0. -1.
         21    1    1    2  506  504 -0.51717280354E+02 -0.22378525544E+02 -0.64552225657E+02  0.85688186642E+02  0.00000000000E+00 0. -1.
<scales pt_clust_3="123.15915" pt_clust_4="41.12053" pt_clust_5="47.86843" pt_clust_6="41.12053"></scales>
<clustering>
<clus scale="   41.121">  4  6 -1 -1</clus>
<clus scale="   47.868">  2  5  1 -1</clus>
<clus scale="  123.159">  1  3  2 -1</clus>
<clus scale="  123.159">  1  3  2 -1</clus>
</clustering>
</event>
<event>
 6    0  0.6207838E+002  0.1086861E+03  0.7546771E-02  0.1263022E+00
         21   -1    0    0  505  501  0.00000000000E+00  0.00000000000E+00  0.11929642771E+03  0.11929642771E+03  0.00000000000E+00 0.  1.
         21   -1    0    0  503  502 -0.00000000000E+00 -0.00000000000E+00 -0.13494029360E+04  0.13494029360E+04  0.00000000000E+00 0. -1.
         21    1    1    2  503  506  0.42535205165E+01  0.83311632791E+02 -0.14365738564E+01  0.83432513683E+02  0.00000000000E+00 0.  1.
         21    1    1    2  504  502  0.17740005381E+02 -0.38901413627E+02 -0.10772461505E+04  0.10780942893E+04  0.00000000000E+00 0. -1.
         21    1    1    2  505  504 -0.14764106702E+01 -0.94107612670E+02 -0.20850082343E+03  0.22875973405E+03  0.00000000000E+00 0.  1.
         21    1    1    2  506  501 -0.20517115227E+02  0.49697393507E+02  0.57077039557E+02  0.78412826650E+02  0.00000000000E+00 0.  1.
<scales pt_clust_3="108.68614" pt_clust_4="42.75544" pt_clust_5="14000.00000" pt_clust_6="52.08862"></scales>
<clustering>
<clus scale="   42.755">  2  4  1 -1</clus>
<clus scale="   52.089">  1  6  2 -1</clus>
<clus scale="  108.686">  1  3  2 -1</clus>
<clus scale="   52.089">  1  3  2 -1</clus>
</clustering>
</event>
<event>
 6    0  0.6207838E+002  0.1201758E+03  0.7546771E-02  0.1242807E+00
         21   -1    0    0  506  501  0.00000000000E+00  0.00000000000E+00  0.14861158591E+03  0.14861158591E+03  0.00000000000E+00 0. -1.
         21   -1    0    0  504  502 -0.00000000000E+00 -0.00000000000E+00 -0.76472097856E+03  0.76472097856E+03  0.00000000000E+00 0. -1.
         21    1    1    2  503  505  0.14229688245E+02 -0.84659142834E+02 -0.33103254809E+01  0.85910492653E+02  0.00000000000E+00 0. -1.
         21    1    1    2  504  501 -0.35862566372E+02  0.43364888060E+02 -0.66188460723E+03  0.66427243693E+03  0.00000000000E+00 0. -1.
         21    1    1    2  505  502  0.21254632064E+02 -0.54403205182E+02  0.29630931707E+02  0.65493970960E+02  0.00000000000E+00 0. -1.
         21    1    1    2  506  503  0.37824606253E+00  0.95697459957E+02  0.19454608352E+02  0.97655663934E+02  0.00000000000E+00 0. -1.
<scales pt_clust_3="33.33305" pt_clust_4="56.27288" pt_clust_5="33.33305" pt_clust_6="113.17754"></scales>
<clustering>
<clus scale="   33.333">  3  5 -1 -1</clus>
<clus scale="   56.273">  2  4  1 -1</clus>
<clus scale="  113.178">  1  6  2 -1</clus>
<clus scale="  113.178">  1  3  2 -1</clus>
</clustering>
</event>
<event>
 6    0  0.6207838E+002  0.3032922E+03  0.7546771E-02  0.1083606E+00
         21   -1    0    0  503  501  0.00000000000E+00  0.00000000000E+00  0.20359916298E+03  0.20359916298E+03  0.00000000000E+00 0.  1.
         21   -1    0    0  504  502 -0.00000000000E+00 -0.00000000000E+00 -0.88422133465E+03  0.88422133465E+03  0.00000000000E+00 0.  1.
         21    1    1    2  503  505 -0.53360819030E+02 -0.21650527442E+03 -0.55284520297E+03  0.59612056608E+03  0.00000000000E+00 0.  1.
         21    1    1    2  504  506  0.60095013490E+02  0.26827030632E+03 -0.14218631645E+03  0.30951141576E+03  0.00000000000E+00 0.  1.
         21    1    1    2  505  502 -0.36227432068E+02 -0.58010388255E+02 -0.66776335707E+02  0.95586144343E+02  0.00000000000E+00 0.  1.
         21    1    1    2  506  501  0.29493237608E+02  0.62453563548E+01  0.81185683464E+02  0.86602371447E+02  0.00000000000E+00 0.  1.
<scales pt_clust_3="57.69721" pt_clust_4="284.33034" pt_clust_5="57.69721" pt_clust_6="30.14723"></scales>
<clustering>
<clus scale="   30.147">  1  6  2 -1</clus>
<clus scale="   57.697">  3  5 -1 -1</clus>
<clus scale="  284.330">  1  4  2 -1</clus>
<clus scale="   30.147">  1  3  2 -1</clus>
</clustering>
</event>
<event>
 6    0  0.6207838E+002  0.7264174E+02  0.7546771E-02  0.1351333E+00
         21   -1    0    0  504  501  0.00000000000E+00  0.00000000000E+00  0.10748751434E+04  0.10748751434E+04  0.00000000000E+00 0. -1.
         21   -1    0    0  506  502 -0.00000000000E+00 -0.00000000000E+00 -0.45238011843E+02  0.45238011843E+02  0.00000000000E+00 0.  1.
         21    1    1    2  503  505  0.36968052282E+02  0.49772720861E+02  0.69692075142E+02  0.93278861319E+02  0.00000000000E+00 0.  1.
         21    1    1    2  504  503 -0.47884901357E+02  0.72091463152E+02  0.88064978728E+02  0.12347300643E+03  0.00000000000E+00 0.  1.
         21    1    1    2  505  502  0.23173129460E+02 -0.49567129420E+02  0.38840404846E+02  0.67100456753E+02  0.00000000000E+00 0.  1.
         21    1    1    2  506  501 -0.12256280385E+02 -0.72297054593E+02  0.83303967288E+03  0.83626083079E+03  0.00000000000E+00 0. -1.
<scales pt_clust_3="55.25575" pt_clust_4="14000.00000" pt_clust_5="54.71649" pt_clust_6="72.64174"></scales>
<clustering>
<clus scale="   54.716">  2  5  1 -1</clus>
<clus scale="   55.256">  2  3  1 -1</clus>
<clus scale="   72.642">  1  6  2 -1</clus>
<clus scale="   72.642">  1  3  2 -1</clus>
</clustering>
</event>
<event>
 6    0  0.6207838E+002  0.9976970E+02  0.7546771E-02  0.1280781E+00
         21   -1    0    0  506  501  0.00000000000E+00  0.00000000000E+00  0.65253447528E+02  0.65253447528E+02  0.00000000000E+00 0. -1.
         21   -1    0    0  504  502 -0.00000000000E+00 -0.00000000000E+00 -0.45526593386E+03  0.45526593386E+03  0.00000000000E+00 0. -1.
         21    1    1    2  503  502  0.15503670340E+02  0.75654259881E+02 -0.51308955448E+02  0.92717526613E+02  0.00000000000E+00 0. -1.
         21    1    1    2  504  505 -0.35042758861E+02 -0.10498089045E+03 -0.30157197574E+03  0.32123922372E+03  0.00000000000E+00 0. -1.
         21    1    1    2  505  501  0.48053285760E+02  0.11417669659E+02 -0.50218481320E+02  0.70437045075E+02  0.00000000000E+00 0. -1.
         21    1    1    2  506  503 -0.28514197239E+02  0.17908960913E+02  0.13086926177E+02  0.36125585973E+02  0.00000000000E+00 0. -1.
<scales pt_clust_3="99.76970" pt_clust_4="14000.00000" pt_clust_5="43.92908" pt_clust_6="33.67180"></scales>
<clustering>
<clus scale="   33.672">  1  6  2 -1</clus>
<clus scale="   43.929">  1  5  2 -1</clus>
<clus scale="   99.770">  1  3  2 -1</clus>
<clus scale="   33.672">  1  3  2 -1</clus>
</clustering>
</event>
<event>
 6    0  0.6207838E+002  0.7148832E+02  0.7546771E-02  0.1355104E+00
         21   -1    0    0  504  501  0.00000000000E+00  0.00000000000E+00  0.14812195655E+04  0.14812195655E+04  0.00000000000E+00 0.  1.
         21   -1    0    0  505  502 -0.00000000000E+00 -0.00000000000E+00 -0.20771880722E+03  0.20771880722E+03  0.00000000000E+00 0.  1.
         21    1    1    2  503  502 -0.30731222787E+02  0.33857867805E+02 -0.14782504906E+03  0.15473528491E+03  0.00000000000E+00 0.  1.
         21    1    1    2  504  506 -0.49808523990E+02 -0.49984388585E+02  0.13292715920E+04  0.13311432280E+04  0.00000000000E+00 0.  1.
         21    1    1    2  505  501  0.12410357152E+03  0.37964155683E+02  0.51366298168E+02  0.13957603723E+03  0.00000000000E+00 0.  1.
         21    1    1    2  506  503 -0.43563824742E+02 -0.21837634903E+02  0.40687917157E+02  0.63483822561E+02  0.00000000000E+00 0. -1.
<scales pt_clust_3="45.72486" pt_clust_4="71.48832" pt_clust_5="14000.00000" pt_clust_6="51.98134"></scales>
<clustering>
<clus scale="   45.725">  2  3  1 -1</clus>
<clus scale="   51.981">  2  6  1 -1</clus>
<clus scale="   71.488">  1  4  2 -1</clus>
<clus scale="   71.488">  1  3  2 -1</clus>
</clustering>
</event>
<event>
 6    0  0.6207838E+002  0.6620929E+02  0.7546771E-02  0.1373480E+00
         21   -1    0    0  506  501  0.00000000000E+00  0.00000000000E+00  0.18577617344E+03  0.18577617344E+03  0.00000000000E+00 0. -1.
         21   -1    0    0  504  502 -0.00000000000E+00 -0.00000000000E+00 -0.14882780150E+03  0.14882780150E+03  0.00000000000E+00 0. -1.
         21    1    1    2  503  505  0.62776336854E+02  0.40705511595E+02  0.14703598571E+02  0.76249609533E+02  0.00000000000E+00 0. -1.
         21    1    1    2  504  503  0.19638294890E+02 -0.78451459867E+02  0.96838046448E+01  0.81449802049E+02  0.00000000000E+00 0. -1.
         21    1    1    2  505  501 -0.33014769099E+02 -0.47196606398E+01  0.77838919656E+02  0.84682628611E+02  0.00000000000E+00 0. -1.
         21    1    1    2  506  502 -0.49399862644E+02  0.42465608912E+02 -0.65277950937E+02  0.92221934744E+02  0.00000000000E+00 0. -1.
<scales pt_clust_3="61.94831" pt_clust_4="66.20929" pt_clust_5="33.35041" pt_clust_6="14000.00000"></scales>
<clustering>
<clus scale="   33.350">  1  5  2 -1</clus>
<clus scale="   61.948">  1  3  2 -1</clus>
<clus scale="   66.209">  1  4  2 -1</clus>
<clus scale="   33.350">  1  3  2 -1</clus>
</clustering>
</event>
<event>
 6    0  0.6207838E+002  0.1153943E+03  0.7546771E-02  0.1250894E+00
         21   -1    0    0  506  501  0.00000000000E+00  0.00000000000E+00  0.17182349445E+03  0.17182349445E+03  0.00000000000E+00 0. -1.
         21   -1    0    0  504  502 -0.00000000000E+00 -0.00000000000E+00 -0.61497836626E+03  0.61497836626E+03  0.00000000000E+00 0. -1.
         21    1    1    2  503  505  0.81612035389E+02 -0.68994655233E+02  0.47563917766E+02  0.11697483936E+03  0.00000000000E+00 0. -1.
         21    1    1    2  504  503 -0.63089783368E+02  0.97805554910E+02 -0.52677485409E+03  0.53947937332E+03  0.00000000000E+00 0. -1.
         21    1    1    2  505  501  0.20079956215E+02 -0.43241580127E+02 -0.27171167411E+02  0.54875415551E+02  0.00000000000E+00 0. -1.
         21    1    1    2  506  502 -0.38602208237E+02  0.14430680450E+02  0.63227231925E+02  0.75472232482E+02  0.00000000000E+00 0. -1.
<scales pt_clust_3="115.39426" pt_clust_4="14000.00000" pt_clust_5="43.88406" pt_clust_6="41.21135"></scales>
<clustering>
<clus scale="   41.211">  1  6  2 -1</clus>
<clus scale="   43.884">  1  5  2 -1</clus>
<clus scale="  115.394">  1  3  2 -1</clus>
<clus scale="   41.211">  1  3  2 -1</clus>
</clustering>
</event>
<event>
 6    0  0.6207838E+002  0.1380235E+03  0.7546771E-02  0.1216014E+00
         21   -1    0    0  505  501  0.00000000000E+00  0.00000000000E+00  0.84229633331E+03  0.84229633331E+03  0.00000000000E+00 0. -1.
         21   -1    0    0  501  502 -0.00000000000E+00 -0.00000000000E+00 -0.12188473492E+03  0.12188473492E+03  0.00000000000E+00 0. -1.
         21    1    1    2  503  506 -0.42579346868E+02 -0.17222132215E+02  0.27125224929E+02  0.53342107618E+02  0.00000000000E+00 0. -1.
         21    1    1    2  504  503  0.10842067005E+03  0.87816167095E+02  0.34488370680E+03  0.37203694993E+03  0.00000000000E+00 0.  1.
         21    1    1    2  505  504 -0.10544612398E+03 -0.87224173216E+02  0.42745901025E+03  0.44882975269E+03  0.00000000000E+00 0. -1.
         21    1    1    2  506  502  0.39604800793E+02  0.16630138336E+02 -0.79056343589E+02  0.89972257994E+02  0.00000000000E+00 0. -1.
<scales pt_clust_3="30.86514" pt_clust_4="14000.00000" pt_clust_5="138.02350" pt_clust_6="42.95465"></scales>
<clustering>
<clus scale="   42.955">  2  6  1 -1</clus>
<clus scale="   30.865">  2  3  1 -1</clus>
<clus scale="  138.023">  1  5  2 -1</clus>
<clus scale="  138.023">  1  3  2 -1</clus>
</clustering>
</event>
<event>
 6    0  0.6207838E+002  0.7739711E+02  0.7546771E-02  0.1336605E+00
         21   -1    0    0  506  501  0.00000000000E+00  0.00000000000E+00  0.55909514811E+03  0.55909514811E+03  0.00000000000E+00 0.  1.
         21   -1    0    0  504  502 -0.00000000000E+00 -0.00000000000E+00 -0.34112371652E+03  0.34112371652E+03  0.00000000000E+00 0.  1.
         21    1    1    2  503  501  0.28343480855E+02 -0.36027193914E+02  0.36497613309E+03  0.36784356639E+03  0.00000000000E+00 0.  1.
         21    1    1    2  504  505  0.19908443930E+02 -0.23715209809E+02 -0.29455415278E+03  0.29617715347E+03  0.00000000000E+00 0.  1.
         21    1    1    2  505  503  0.11238930651E+02 -0.50160287101E+02  0.13958109712E+02  0.53265343244E+02  0.00000000000E+00 0.  1.
         21    1    1    2  506  502 -0.59490855436E+02  0.10990269082E+03  0.13359134157E+03  0.18293280152E+03  0.00000000000E+00 0.  1.
<scales pt_clust_3="46.80976" pt_clust_4="30.96381" pt_clust_5="14000.00000" pt_clust_6="77.39711"></scales>
<clustering>
<clus scale="   30.964">  2  4  1 -1</clus>
<clus scale="   46.810">  1  3  2 -1</clus>
<clus scale="   77.397">  1  6  2 -1</clus>
<clus scale="   46.810">  1  3  2 -1</clus>
</clustering>
</event>
<event>
 6    0  0.6207838E+002  0.1745483E+03  0.7546771E-02  0.1173186E+00
         21   -1    0    0  506  501  0.00000000000E+00  0.00000000000E+00  0.88759129003E+03  0.88759129003E+03  0.00000000000E+00 0.  1.
         21   -1    0    0  505  502 -0.00000000000E+00 -0.00000000000E+00 -0.18859138936E+03  0.18859138936E+03  0.00000000000E+00 0.  1.
         21    1    1    2  503  501  0.41692341269E+02 -0.73744024946E+02  0.23597118647E+03  0.25071663962E+03  0.00000000000E+00 0.  1.
         21    1    1    2  504  503  0.87876894230E+01 -0.13881712114E+03  0.91254458791E+02  0.16635742501E+03  0.00000000000E+00 0.  1.
         21    1    1    2  505  504 -0.17990430260E+02  0.19156349037E+03 -0.78042464437E+02  0.20763153103E+03  0.00000000000E+00 0.  1.
         21    1    1    2  506  502 -0.32489600431E+02  0.20997655716E+02  0.44981671984E+03  0.45147708372E+03  0.00000000000E+00 0.  1.
<scales pt_clust_3="66.38578" pt_clust_4="174.54826" pt_clust_5="14000.00000" pt_clust_6="38.68431"></scales>
<clustering>
<clus scale="   38.684">  1  6  2 -1</clus>
<clus scale="   66.386">  1  3  2 -1</clus>
<clus scale="  174.548">  1  4  2 -1</clus>
<clus scale="   38.684">  1  3  2 -1</clus>
</clustering>
</event>
<event>
 6    0  0.6207838E+002  0.1013864E+03  0.7546771E-02  0.1277407E+00
         21   -1    0    0  504  501  0.00000000000E+00  0.00000000000E+00  0.17891124693E+04  0.17891124693E+04  0.00000000000E+00 0. -1.
         21   -1    0    0  506  502 -0.00000000000E+00 -0.00000000000E+00 -0.43186465692E+03  0.43186465692E+03  0.00000000000E+00 0. -1.
         21    1    1    2  503  501 -0.25133081121E+02  0.23849099008E+02  0.16186441610E+04  0.16190149386E+04  0.00000000000E+00 0. -1.
         21    1    1    2  504  505 -0.62629595837E+02 -0.98014790214E+02  0.10537496221E+03  0.15694982649E+03  0.00000000000E+00 0. -1.
         21    1    1    2  505  502  0.30000895106E+01  0.87895756522E+02 -0.23315023571E+02  0.90984915650E+02  0.00000000000E+00 0. -1.
         21    1    1    2  506  503  0.84762587447E+02 -0.13730065317E+02 -0.34345628727E+03  0.35402744553E+03  0.00000000000E+00 0. -1.
<scales pt_clust_3="34.64753" pt_clust_4="14000.00000" pt_clust_5="101.38640" pt_clust_6="84.98110"></scales>
<clustering>
<clus scale="   34.648">  1  3  2 -1</clus>
<clus scale="   84.981">  2  6  1 -1</clus>
<clus scale="  101.386">  2  5  1 -1</clus>
<clus scale="   34.648">  1  3  2 -1</clus>
</clustering>
</event>
<event>
 6    0  0.6207838E+002  0.1017311E+03  0.7546771E-02  0.1276697E+00
         21   -1    0    0  505  501  0.00000000000E+00  0.00000000000E+00  0.18302566116E+02  0.18302566116E+02  0.00000000000E+00 0.  1.
         21   -1    0    0  506  502 -0.00000000000E+00 -0.00000000000E+00 -0.15353431602E+04  0.15353431602E+04  0.00000000000E+00 0.  1.
         21    1    1    2  503  504  0.33705758072E+02 -0.24039987189E+02 -0.24775246391E+03  0.25118774350E+03  0.00000000000E+00 0.  1.
         21    1    1    2  504  501  0.49282787422E+02 -0.84107898455E+02 -0.20535434061E+03  0.22731770043E+03  0.00000000000E+00 0.  1.
         21    1    1    2  505  502 -0.92768607153E+02  0.79112502545E+02 -0.76696554766E+03  0.77659574672E+03  0.00000000000E+00 0.  1.
         21    1    1    2  506  503  0.97800616593E+01  0.29035383099E+02 -0.29696824187E+03  0.29854453563E+03  0.00000000000E+00 0.  1.
<scales pt_clust_3="40.04539" pt_clust_4="14000.00000" pt_clust_5="101.73106" pt_clust_6="30.63826"></scales>
<clustering>
<clus scale="   30.638">  2  6  1 -1</clus>
<clus scale="   40.045">  2  3  1 -1</clus>
<clus scale="  101.731">  2  5  1 -1</clus>
<clus scale="  101.731">  1  3  2 -1</clus>
</clustering>
</event>
<event>
 6    0  0.6207838E+002  0.7538563E+02  0.7546771E-02  0.1342681E+00
         21   -1    0    0  506  501  0.00000000000E+00  0.00000000000E+00  0.43977932573E+03  0.43977932573E+03  0.00000000000E+00 0.  1.
         21   -1    0    0  503  502 -0.00000000000E+00 -0.00000000000E+00 -0.90288524976E+02  0.90288524976E+02  0.00000000000E+00 0.  1.
         21    1    1    2  503  501  0.76223696552E+02 -0.97555489597E+02  0.17456020534E+03  0.21400558580E+03  0.00000000000E+00 0.  1.
         21    1    1    2  504  505 -0.54751201335E+02  0.57591507185E+01  0.74661593027E+02  0.92764299911E+02  0.00000000000E+00 0.  1.
         21    1    1    2  505  502  0.67054684286E+01  0.55040917485E+02 -0.44629614301E+02  0.71177723883E+02  0.00000000000E+00 0.  1.
         21    1    1    2  506  504 -0.28177963646E+02  0.36755421393E+02  0.14489861669E+03  0.15212024112E+03  0.00000000000E+00 0.  1.
<scales pt_clust_3="14000.00000" pt_clust_4="75.38563" pt_clust_5="56.97449" pt_clust_6="46.31370"></scales>
<clustering>
<clus scale="   46.314">  1  6  2 -1</clus>
<clus scale="   56.974">  2  5  1 -1</clus>
<clus scale="   75.386">  2  4  1 -1</clus>
<clus scale="   46.314">  1  3  2 -1</clus>
</clustering>
</event>
<event>
 6    0  0.6207838E+002  0.1111887E+03  0.7546771E-02  0.1258384E+00
         21   -1    0    0  505  501  0.00000000000E+00  0.00000000000E+00  0.10941090661E+03  0.10941090661E+03  0.00000000000E+00 0.  1.
         21   -1    0    0  501  502 -0.00000000000E+00 -0.00000000000E+00 -0.37850757299E+03  0.37850757299E+03  0.00000000000E+00 0.  1.
         21    1    1    2  503  506 -0.30261720963E+02  0.34848097407E+02 -0.52149327439E+02  0.69639888001E+02  0.00000000000E+00 0.  1.
         21    1    1    2  504  503 -0.34890693709E+01  0.34174041529E+02 -0.82972687415E+02  0.89802592259E+02  0.00000000000E+00 0.  1.
         21    1    1    2  505  504  0.96037735869E+02 -0.62427716881E+02  0.56676638084E+02  0.12779948298E+03  0.00000000000E+00 0.  1.
         21    1    1    2  506  502 -0.62286945535E+02 -0.65944220547E+01 -0.19065128962E+03  0.20067651636E+03  0.00000000000E+00 0.  1.
<scales pt_clust_3="30.63300" pt_clust_4="30.63300" pt_clust_5="105.36675" pt_clust_6="62.63505"></scales>
<clustering>
<clus scale="   30.633">  3  4 -1 -1</clus>
<clus scale="   62.635">  2  6  1 -1</clus>
<clus scale="  105.367">  1  5  2 -1</clus>
<clus scale="  105.367">  1  3  2 -1</clus>
</clustering>
</event>
<event>
 6    0  0.6207838E+002  0.9837461E+02  0.7546771E-02  0.1283752E+00
         21   -1    0    0  506  501  0.00000000000E+00  0.00000000000E+00  0.37590793428E+03  0.37590793428E+03  0.00000000000E+00 0. -1.
         21   -1    0    0  504  502 -0.00000000000E+00 -0.00000000000E+00 -0.73261065083E+02  0.73261065083E+02  0.00000000000E+00 0. -1.
         21    1    1    2  503  505  0.64686139408E+01  0.10030321170E+03  0.53473496189E+02  0.11385074456E+03  0.00000000000E+00 0. -1.
         21    1    1    2  504  501  0.12640967426E+02 -0.34982390285E+02  0.15228975790E+03  0.15676648892E+03  0.00000000000E+00 0. -1.
         21    1    1    2  505  502  0.85814859355E+01 -0.96767906378E+02  0.33878137001E+02  0.10288536228E+03  0.00000000000E+00 0. -1.
         21    1    1    2  506  503 -0.27691067302E+02  0.31447084967E+02  0.63005478108E+02  0.75666403594E+02  0.00000000000E+00 0. -1.
<scales pt_clust_3="98.37461" pt_clust_4="37.19626" pt_clust_5="14000.00000" pt_clust_6="31.35396"></scales>
<clustering>
<clus scale="   37.196">  1  4  2 -1</clus>
<clus scale="   31.354">  1  6  2 -1</clus>
<clus scale="   98.375">  1  3  2 -1</clus>
<clus scale="   37.196">  1  3  2 -1</clus>
</clustering>
</event>
<event>
 6    0  0.6207838E+002  0.1175074E+03  0.7546771E-02  0.1247267E+00
         21   -1    0    0  503  501  0.00000000000E+00  0.00000000000E+00  0.11304621360E+04  0.11304621360E+04  0.00000000000E+00 0. -1.
         21   -1    0    0  505  502 -0.00000000000E+00 -0.00000000000E+00 -0.26270477726E+03  0.26270477726E+03  0.00000000000E+00 0. -1.
         21    1    1    2  503  504 -0.77593242671E+02 -0.38988913966E+02  0.41289114543E+03  0.42192409826E+03  0.00000000000E+00 0. -1.
         21    1    1    2  504  502  0.96553774006E+02 -0.73089023495E+02 -0.23181615629E+03  0.26154037345E+03  0.00000000000E+00 0. -1.
         21    1    1    2  505  506 -0.29586708127E+02  0.83431959118E+02  0.16603370355E+03  0.18815806072E+03  0.00000000000E+00 0. -1.
         21    1    1    2  506  501  0.10626176792E+02  0.28645978343E+02  0.52064866602E+03  0.52154438079E+03  0.00000000000E+00 0. -1.
<scales pt_clust_3="72.93280" pt_clust_4="14000.00000" pt_clust_5="117.50739" pt_clust_6="30.55336"></scales>
<clustering>
<clus scale="   30.553">  1  6  2 -1</clus>
<clus scale="   72.933">  1  3  2 -1</clus>
<clus scale="  117.507">  1  5  2 -1</clus>
<clus scale="   30.553">  1  3  2 -1</clus>
</clustering>
</event>
<event>
 6    0  0.6207838E+002  0.1443004E+03  0.7546771E-02  0.1207657E+00
         21   -1    0    0  505  501  0.00000000000E+00  0.00000000000E+00  0.46309011558E+03  0.46309011558E+03  0.00000000000E+00 0. -1.
         21   -1    0    0  504  502 -0.00000000000E+00 -0.00000000000E+00 -0.18414677484E+03  0.18414677484E+03  0.00000000000E+00 0.  1.
         21    1    1    2  503  502 -0.69517065183E+00  0.97762897691E+02  0.98846859390E+02  0.13902794337E+03  0.00000000000E+00 0. -1.
         21    1    1    2  504  501 -0.10294811549E+03 -0.89437262987E+02 -0.11401167135E+03  0.17775263626E+03  0.00000000000E+00 0.  1.
         21    1    1    2  505  506  0.66892942701E+02 -0.49865732089E+02  0.23513772326E+03  0.24950151486E+03  0.00000000000E+00 0. -1.
         21    1    1    2  506  503  0.36750343440E+02  0.41540097385E+02  0.58970429446E+02  0.80954795922E+02  0.00000000000E+00 0. -1.
<scales pt_clust_3="39.71875" pt_clust_4="134.31972" pt_clust_5="83.43415" pt_clust_6="39.71875"></scales>
<clustering>
<clus scale="   39.719">  3  6 -1 -1</clus>
<clus scale="   83.434">  1  5  2 -1</clus>
<clus scale="  134.320">  2  4  1 -1</clus>
<clus scale="   83.434">  1  3  2 -1</clus>
</clustering>
</event>
<event>
 6    0  0.6207838E+002  0.1296328E+03  0.7546771E-02  0.1228002E+00
         21   -1    0    0  505  501  0.00000000000E+00  0.00000000000E+00  0.18167618738E+03  0.18167618738E+03  0.00000000000E+00 0. -1.
         21   -1    0    0  506  502 -0.00000000000E+00 -0.00000000000E+00 -0.48593468784E+03  0.48593468784E+03  0.00000000000E+00 0. -1.
         21    1    1    2  503  501  0.10302081580E+03 -0.61476341906E+02 -0.32352633826E+02  0.12425506838E+03  0.00000000000E+00 0.  1.
         21    1    1    2  504  502 -0.14463430459E+03  0.28303025754E+01  0.17564506720E+02  0.14572441310E+03  0.00000000000E+00 0. -1.
         21    1    1    2  505  504 -0.15540468242E+02  0.68947941497E+02  0.27161958899E+02  0.75717216015E+02  0.00000000000E+00 0. -1.
         21    1    1    2  506  503  0.57153957036E+02 -0.10301902167E+02 -0.31663233225E+03  0.32191417773E+03  0.00000000000E+00 0. -1.
<scales pt_clust_3="14000.00000" pt_clust_4="129.63282" pt_clust_5="67.83205" pt_clust_6="58.07499"></scales>
<clustering>
<clus scale="   58.075">  2  6  1 -1</clus>
<clus scale="   67.832">  1  5  2 -1</clus>
<clus scale="  129.633">  2  4  1 -1</clus>
<clus scale="   67.832">  1  3  2 -1</clus>
</clustering>
</event>
<event>
 6    0  0.6207838E+002  0.1251655E+03  0.7546771E-02  0.1234811E+00
         21   -1    0    0  504  501  0.00000000000E+00  0.00000000000E+00  0.28088525363E+04  0.28088525363E+04  0.00000000000E+00 0.  1.
         21   -1    0    0  503  502 -0.00000000000E+00 -0.00000000000E+00 -0.76580996636E+02  0.76580996636E+02  0.00000000000E+00 0. -1.
         21    1    1    2  503  506  0.69022933699E+01 -0.30615872969E+02 -0.44471236164E+02  0.54430360805E+02  0.00000000000E+00 0. -1.
         21    1    1    2  504  502 -0.10056547045E+03  0.51965960108E+02  0.26843160333E+04  0.26867017776E+04  0.00000000000E+00 0.  1.
         21    1    1    2  505  501  0.37402754397E+02  0.14032892638E+02  0.16039581388E+02  0.43048301748E+02  0.00000000000E+00 0.  1.
         21    1    1    2  506  505  0.56260422684E+02 -0.35382979777E+02  0.76387161084E+02  0.10125309278E+03  0.00000000000E+00 0.  1.
<scales pt_clust_3="31.38428" pt_clust_4="112.31577" pt_clust_5="40.16484" pt_clust_6="40.16484"></scales>
<clustering>
<clus scale="   31.384">  2  3  1 -1</clus>
<clus scale="   40.165">  5  6 -1 -1</clus>
<clus scale="  112.316">  1  4  2 -1</clus>
<clus scale="  112.316">  1  3  2 -1</clus>
</clustering>
</event>
<event>
 6    0  0.6207838E+002  0.1289985E+03  0.7546771E-02  0.1228949E+00
         21   -1    0    0  506  501  0.00000000000E+00  0.00000000000E+00  0.19139472544E+04  0.19139472544E+04  0.00000000000E+00 0. -1.
         21   -1    0    0  504  502 -0.00000000000E+00 -0.00000000000E+00 -0.23623272464E+02  0.23623272464E+02  0.00000000000E+00 0. -1.
         21    1    1    2  503  502  0.11383208402E+03 -0.32428983148E+02  0.67777615381E+03  0.68803335455E+03  0.00000000000E+00 0. -1.
         21    1    1    2  504  505  0.14512170220E+02  0.37957342293E+02  0.25042174355E+02  0.47733357465E+02  0.00000000000E+00 0. -1.
         21    1    1    2  505  501 -0.14632604634E+03 -0.33937340026E+02  0.91781868167E+03  0.93002913251E+03  0.00000000000E+00 0. -1.
         21    1    1    2  506  503  0.17981792100E+02  0.28408980880E+02  0.26968697210E+03  0.27177468234E+03  0.00000000000E+00 0. -1.
<scales pt_clust_3="128.99849" pt_clust_4="41.36704" pt_clust_5="14000.00000" pt_clust_6="33.62165"></scales>
<clustering>
<clus scale="   33.622">  1  6  2 -1</clus>
<clus scale="   41.367">  2  4  1 -1</clus>
<clus scale="  128.998">  2  3  1 -1</clus>
<clus scale="   33.622">  1  3  2 -1</clus>
</clustering>
</event>
<event>
 6    0  0.6207838E+002  0.2025619E+03  0.7546771E-02  0.1147595E+00
         21   -1    0    0  505  501  0.00000000000E+00  0.00000000000E+00  0.58284848499E+02  0.58284848499E+02  0.00000000000E+00 0.  1.
         21   -1    0    0  503  502 -0.00000000000E+00 -0.00000000000E+00 -0.13023634158E+04  0.13023634158E+04  0.00000000000E+00 0.  1.
         21    1    1    2  503  504 -0.11052054208E+03  0.15688590502E+02 -0.22891956545E+03  0.25468625707E+03  0.00000000000E+00 0.  1.
         21    1    1    2  504  501 -0.46726491713E+02 -0.45000546569E+02 -0.79922169638E+02  0.10293671560E+03  0.00000000000E+00 0.  1.
         21    1    1    2  505  506  0.20556635065E+03  0.39711145125E+02 -0.29980479767E+03  0.36567392069E+03  0.00000000000E+00 0.  1.
         21    1    1    2  506  502 -0.48319316851E+02 -0.10399189058E+02 -0.63543203453E+03  0.63735137092E+03  0.00000000000E+00 0.  1.
<scales pt_clust_3="61.71205" pt_clust_4="61.71205" pt_clust_5="184.67861" pt_clust_6="49.42570"></scales>
<clustering>
<clus scale="   49.426">  2  6  1 -1</clus>
<clus scale="   61.712">  3  4 -1 -1</clus>
<clus scale="  184.679">  2  5  1 -1</clus>
<clus scale="  202.562">  1  3  2 -1</clus>
</clustering>
</event>
<event>
 6    0  0.6207838E+002  0.1094529E+03  0.7546771E-02  0.1261586E+00
         21   -1    0    0  506  501  0.00000000000E+00  0.00000000000E+00  0.17208573633E+03  0.17208573633E+03  0.00000000000E+00 0.  1.
         21   -1    0    0  503  502 -0.00000000000E+00 -0.00000000000E+00 -0.36857428359E+03  0.36857428359E+03  0.00000000000E+00 0.  1.
         21    1    1    2  503  504  0.11039553213E+02  0.30177059189E+02 -0.32940544589E+02  0.46017454453E+02  0.00000000000E+00 0.  1.
         21    1    1    2  504  505  0.10363369659E+02 -0.39685980828E+02 -0.10799887322E+03  0.11552546525E+03  0.00000000000E+00 0. -1.
         21    1    1    2  505  501 -0.10949844378E+03 -0.19803803699E+02  0.13031160314E+03  0.17135697751E+03  0.00000000000E+00 0.  1.
         21    1    1    2  506  502  0.88095520905E+02  0.29312725338E+02 -0.18586073258E+03  0.20776012270E+03  0.00000000000E+00 0.  1.
<scales pt_clust_3="32.13295" pt_clust_4="32.64568" pt_clust_5="109.45295" pt_clust_6="14000.00000"></scales>
<clustering>
<clus scale="   32.133">  2  3  1 -1</clus>
<clus scale="   32.646">  2  4  1 -1</clus>
<clus scale="  109.453">  1  5  2 -1</clus>
<clus scale="  109.453">  1  3  2 -1</clus>
</clustering>
</event>
<event>
 6    0  0.6207838E+002  0.1171865E+03  0.7546771E-02  0.1247812E+00
         21   -1    0    0  506  501  0.00000000000E+00  0.00000000000E+00  0.14393752354E+04  0.14393752354E+04  0.00000000000E+00 0.  1.
         21   -1    0    0  503  502 -0.00000000000E+00 -0.00000000000E+00 -0.29138370909E+03  0.29138370909E+03  0.00000000000E+00 0.  1.
         21    1    1    2  503  504 -0.11430739962E+02 -0.32770484002E+02 -0.20230502512E+03  0.20526054085E+03  0.00000000000E+00 0.  1.
         21    1    1    2  504  501 -0.96710648790E+02  0.32124285155E+00  0.21611185165E+03  0.23676440867E+03  0.00000000000E+00 0.  1.
         21    1    1    2  505  502  0.12638157289E+03 -0.10229911349E+02 -0.24483031860E+02  0.12913702762E+03  0.00000000000E+00 0.  1.
         21    1    1    2  506  505 -0.18240184142E+02  0.42679152499E+02  0.11586677316E+04  0.11595969673E+04  0.00000000000E+00 0.  1.
<scales pt_clust_3="34.70686" pt_clust_4="117.18651" pt_clust_5="14000.00000" pt_clust_6="46.27768"></scales>
<clustering>
<clus scale="   34.707">  2  3  1 -1</clus>
<clus scale="   46.278">  1  6  2 -1</clus>
<clus scale="  117.187">  1  4  2 -1</clus>
<clus scale="   46.278">  1  3  2 -1</clus>
</clustering>
</event>
<event>
 6    0  0.6207838E+002  0.8737838E+02  0.7546771E-02  0.1309327E+00
         21   -1    0    0  502  501  0.00000000000E+00  0.00000000000E+00  0.66993405664E+03  0.66993405664E+03  0.00000000000E+00 0.  1.
         21   -1    0    0  503  502 -0.00000000000E+00 -0.00000000000E+00 -0.23450546613E+03  0.23450546613E+03  0.00000000000E+00 0. -1.
         21    1    1    2  503  505  0.36898982968E+02 -0.41815632568E+02 -0.14828362214E+03  0.15842384501E+03  0.00000000000E+00 0. -1.
         21    1    1    2  504  501 -0.65467436467E+02 -0.23430043962E+02  0.53991647792E+03  0.54437556459E+03  0.00000000000E+00 0.  1.
         21    1    1    2  505  506  0.21228443295E+02 -0.52937885028E+02 -0.27607876138E+02  0.63366089518E+02  0.00000000000E+00 0.  1.
         21    1    1    2  506  504  0.73400102048E+01  0.11818356156E+03  0.71403610867E+02  0.13827402365E+03  0.00000000000E+00 0. -1.
<scales pt_clust_3="55.76811" pt_clust_4="68.98115" pt_clust_5="87.37838" pt_clust_6="14000.00000"></scales>
<clustering>
<clus scale="   55.768">  2  3  1 -1</clus>
<clus scale="   68.981">  1  4  2 -1</clus>
<clus scale="   87.378">  2  5  1 -1</clus>
<clus scale="   68.981">  1  3  2 -1</clus>
</clustering>
</event>
<event>
 6    0  0.6207838E+002  0.1209587E+03  0.7546771E-02  0.1241524E+00
         21   -1    0    0  504  501  0.00000000000E+00  0.00000000000E+00  0.86715887841E+03  0.86715887841E+03  0.00000000000E+00 0. -1.
         21   -1    0    0  501  502 -0.00000000000E+00 -0.00000000000E+00 -0.46080839539E+02  0.46080839539E+02  0.00000000000E+00 0. -1.
         21    1    1    2  503  502 -0.13971553209E+02 -0.75395457493E+02  0.26524814428E+02  0.81137199176E+02  0.00000000000E+00 0. -1.
         21    1    1    2  504  505  0.90869256374E+02  0.31080843588E+02  0.39677007421E+03  0.40822754976E+03  0.00000000000E+00 0. -1.
         21    1    1    2  505  506  0.21627753070E+02  0.38068467540E+02  0.17136840773E+03  0.17687311580E+03  0.00000000000E+00 0. -1.
         21    1    1    2  506  503 -0.98525456235E+02  0.62461463647E+01  0.22641474250E+03  0.24700185322E+03  0.00000000000E+00 0. -1.
<scales pt_clust_3="76.67907" pt_clust_4="31.11972" pt_clust_5="31.11972" pt_clust_6="111.83360"></scales>
<clustering>
<clus scale="   31.120">  4  5 -1 -1</clus>
<clus scale="   76.679">  2  3  1 -1</clus>
<clus scale="  111.834">  2  6  1 -1</clus>
<clus scale="  120.959">  1  3  2 -1</clus>
</clustering>
</event>
<event>
 6    0  0.6207838E+002  0.6308967E+02  0.7546771E-02  0.1385305E+00
         21   -1    0    0  505  501  0.00000000000E+00  0.00000000000E+00  0.83502804558E+03  0.83502804558E+03  0.00000000000E+00 0.  1.
         21   -1    0    0  503  502 -0.00000000000E+00 -0.00000000000E+00 -0.27164067253E+03  0.27164067253E+03  0.00000000000E+00 0.  1.
         21    1    1    2  503  504  0.56316685196E+02  0.30649661127E+02 -0.20042622912E+03  0.21043204147E+03  0.00000000000E+00 0.  1.
         21    1    1    2  504  501 -0.39857819965E+02 -0.36490448510E+02  0.74668812024E+03  0.74864100045E+03  0.00000000000E+00 0.  1.
         21    1    1    2  505  506 -0.28944688706E+02  0.65308752061E+02  0.40935048364E+02  0.82332899163E+02  0.00000000000E+00 0. -1.
         21    1    1    2  506  502  0.12485823475E+02 -0.59467964678E+02 -0.23809566431E+02  0.65262777021E+02  0.00000000000E+00 0.  1.
<scales pt_clust_3="61.11768" pt_clust_4="54.03886" pt_clust_5="14000.00000" pt_clust_6="63.08967"></scales>
<clustering>
<clus scale="   54.039">  1  4  2 -1</clus>
<clus scale="   61.118">  2  3  1 -1</clus>
<clus scale="   63.090">  2  6  1 -1</clus>
<clus scale="   54.039">  1  3  2 -1</clus>
</clustering>
</event>
<event>
 6    0  0.6207838E+002  0.7598493E+02  0.7546771E-02  0.1340848E+00
         21   -1    0    0  506  501  0.00000000000E+00  0.00000000000E+00  0.11046430915E+04  0.11046430915E+04  0.00000000000E+00 0.  1.
         21   -1    0    0  504  502 -0.00000000000E+00 -0.00000000000E+00 -0.82595884394E+03  0.82595884394E+03  0.00000000000E+00 0.  1.
         21    1    1    2  503  501 -0.32347535427E+02  0.89813817592E+02  0.83867034251E+03  0.84408579439E+03  0.00000000000E+00 0.  1.
         21    1    1    2  504  503  0.67614520614E+02 -0.35285298634E+02 -0.80475501094E+03  0.80836093630E+03  0.00000000000E+00 0.  1.
         21    1    1    2  505  502 -0.66156208266E+02  0.78232361545E+00  0.97392348034E+02  0.11773922616E+03  0.00000000000E+00 0.  1.
         21    1    1    2  506  505  0.30889223079E+02 -0.55310842573E+02  0.14737656797E+03  0.16041597862E+03  0.00000000000E+00 0. -1.
<scales pt_clust_3="41.17179" pt_clust_4="75.98493" pt_clust_5="14000.00000" pt_clust_6="63.35166"></scales>
<clustering>
<clus scale="   63.352">  1  6  2 -1</clus>
<clus scale="   41.172">  1  3  2 -1</clus>
<clus scale="   75.985">  2  4  1 -1</clus>
<clus scale="   63.352">  1  3  2 -1</clus>
</clustering>
</event>
<event>
 6    0  0.6207838E+002  0.1679894E+03  0.7546771E-02  0.1179961E+00
         21   -1    0    0  504  501  0.00000000000E+00  0.00000000000E+00  0.13380128324E+04  0.13380128324E+04  0.00000000000E+00 0. -1.
         21   -1    0    0  503  502 -0.00000000000E+00 -0.00000000000E+00 -0.73902552763E+02  0.73902552763E+02  0.00000000000E+00 0. -1.
         21    1    1    2  503  506  0.12036483890E+03  0.61726869084E+02  0.10673444288E+03  0.17230827638E+03  0.00000000000E+00 0. -1.
         21    1    1    2  504  502 -0.39651716793E+02  0.31953462321E+02 -0.33737662962E+01  0.51035915765E+02  0.00000000000E+00 0. -1.
         21    1    1    2  505  501 -0.12921000688E+03 -0.91543580346E+02  0.10973734873E+04  0.11087398359E+04  0.00000000000E+00 0. -1.
         21    1    1    2  506  505  0.48496884768E+02 -0.21367510588E+01  0.63376115682E+02  0.79831357099E+02  0.00000000000E+00 0. -1.
<scales pt_clust_3="30.37826" pt_clust_4="50.92428" pt_clust_5="160.15282" pt_clust_6="30.37826"></scales>
<clustering>
<clus scale="   30.378">  3  6 -1 -1</clus>
<clus scale="   50.924">  2  4  1 -1</clus>
<clus scale="  160.153">  1  5  2 -1</clus>
<clus scale="  160.153">  1  3  2 -1</clus>
</clustering>
</event>
<event>
 6    0  0.6207838E+002  0.9375738E+02  0.7546771E-02  0.1294000E+00
         21   -1    0    0  506  501  0.00000000000E+00  0.00000000000E+00  0.92646320645E+03  0.92646320645E+03  0.00000000000E+00 0. -1.
         21   -1    0    0  505  502 -0.00000000000E+00 -0.00000000000E+00 -0.54209238660E+02  0.54209238660E+02  0.00000000000E+00 0.  1.
         21    1    1    2  503  502  0.76382209282E+01  0.39142947396E+02  0.77898545769E+01  0.40634893677E+02  0.00000000000E+00 0.  1.
         21    1    1    2  504  501  0.75590056550E+02 -0.31444915874E+02  0.64056527673E+03  0.64577590009E+03  0.00000000000E+00 0. -1.
         21    1    1    2  505  504 -0.63797065075E+02  0.46661513765E+02  0.18871003419E+02  0.81261781601E+02  0.00000000000E+00 0.  1.
         21    1    1    2  506  503 -0.19431212404E+02 -0.54359545287E+02  0.20502783306E+03  0.21299986974E+03  0.00000000000E+00 0. -1.
<scales pt_clust_3="39.88123" pt_clust_4="93.75738" pt_clust_5="14000.00000" pt_clust_6="53.57245"></scales>
<clustering>
<clus scale="   39.881">  2  3  1 -1</clus>
<clus scale="   53.572">  1  6  2 -1</clus>
<clus scale="   93.757">  1  4  2 -1</clus>
<clus scale="   53.572">  1  3  2 -1</clus>
</clustering>
</event>
<event>
 6    0  0.6207838E+002  0.5885927E+02  0.7546771E-02  0.1402682E+00
         21   -1    0    0  504  501  0.00000000000E+00  0.00000000000E+00  0.27700986939E+02  0.27700986939E+02  0.00000000000E+00 0.  1.
         21   -1    0    0  505  502 -0.00000000000E+00 -0.00000000000E+00 -0.20961039642E+04  0.20961039642E+04  0.00000000000E+00 0.  1.
         21    1    1    2  503  506  0.10093389265E+03 -0.53962543717E+02 -0.25433704964E+03  0.27890310437E+03  0.00000000000E+00 0.  1.
         21    1    1    2  504  503 -0.34258415393E+02  0.44286004146E+02 -0.14484976279E+03  0.15529437520E+03  0.00000000000E+00 0.  1.
         21    1    1    2  505  501 -0.39086435240E+02 -0.40494090219E+02 -0.72100606174E+02  0.91465939962E+02  0.00000000000E+00 0.  1.
         21    1    1    2  506  502 -0.27589042013E+02  0.50170629790E+02 -0.15971155586E+04  0.15981415316E+04  0.00000000000E+00 0.  1.
<scales pt_clust_3="58.85927" pt_clust_4="55.99008" pt_clust_5="57.94670" pt_clust_6="14000.00000"></scales>
<clustering>
<clus scale="   55.990">  1  4  2 -1</clus>
<clus scale="   57.947">  1  5  2 -1</clus>
<clus scale="   58.859">  1  3  2 -1</clus>
<clus scale="   55.990">  1  3  2 -1</clus>
</clustering>
</event>
<event>
 6    0  0.6207838E+002  0.1049018E+03  0.7546771E-02  0.1270313E+00
         21   -1    0    0  505  501  0.00000000000E+00  0.00000000000E+00  0.76076157149E+03  0.76076157149E+03  0.00000000000E+00 0.  1.
         21   -1    0    0  503  502 -0.00000000000E+00 -0.00000000000E+00 -0.87578542259E+02  0.87578542259E+02  0.00000000000E+00 0. -1.
         21    1    1    2  503  501  0.46983915637E+02 -0.58913423545E+02 -0.19193997499E+02  0.77760461305E+02  0.00000000000E+00 0. -1.
         21    1    1    2  504  502 -0.35171721464E+02 -0.80639246892E+01 -0.16389868002E+02  0.39632116336E+02  0.00000000000E+00 0.  1.
         21    1    1    2  505  506 -0.19110813858E+02  0.10671315907E+03  0.65381816746E+03  0.66274513776E+03  0.00000000000E+00 0.  1.
         21    1    1    2  506  504  0.72986196839E+01 -0.39735810831E+02  0.54948727275E+02  0.68202398351E+02  0.00000000000E+00 0. -1.
<scales pt_clust_3="104.90181" pt_clust_4="36.08430" pt_clust_5="14000.00000" pt_clust_6="40.77373"></scales>
<clustering>
<clus scale="   36.084">  2  4  1 -1</clus>
<clus scale="   40.774">  2  6  1 -1</clus>
<clus scale="  104.902">  2  3  1 -1</clus>
<clus scale="  104.902">  1  3  2 -1</clus>
</clustering>
</event>
<event>
 6    0  0.6207838E+002  0.8770206E+02  0.7546771E-02  0.1308514E+00
         21   -1    0    0  503  501  0.00000000000E+00  0.00000000000E+00  0.16359585195E+03  0.16359585195E+03  0.00000000000E+00 0. -1.
         21   -1    0    0  501  502 -0.00000000000E+00 -0.00000000000E+00 -0.14425230830E+04  0.14425230830E+04  0.00000000000E+00 0. -1.
         21    1    1    2  503  506 -0.42032297333E+02 -0.65432822818E+01  0.92074214702E+02  0.10142578358E+03  0.00000000000E+00 0. -1.
         21    1    1    2  504  502 -0.45525425976E+02 -0.33195452345E+02 -0.12527527982E+04  0.12540191689E+04  0.00000000000E+00 0. -1.
         21    1    1    2  505  504  0.13773041645E+03  0.53438540215E+02 -0.13063756836E+03  0.19720932905E+03  0.00000000000E+00 0. -1.
         21    1    1    2  506  505 -0.50172693142E+02 -0.13699805588E+02  0.12388920819E+02  0.53464653458E+02  0.00000000000E+00 0. -1.
<scales pt_clust_3="42.53855" pt_clust_4="56.70124" pt_clust_5="87.70206" pt_clust_6="14000.00000"></scales>
<clustering>
<clus scale="   42.539">  1  3  2 -1</clus>
<clus scale="   56.701">  2  4  1 -1</clus>
<clus scale="   87.702">  2  5  1 -1</clus>
<clus scale="   42.539">  1  3  2 -1</clus>
</clustering>
</event>
<event>
 6    0  0.6207838E+002  0.1195814E+03  0.7546771E-02  0.1243789E+00
         21   -1    0    0  506  501  0.00000000000E+00  0.00000000000E+00  0.47818992900E+02  0.47818992900E+02  0.00000000000E+00 0.  1.
         21   -1    0    0  505  502 -0.00000000000E+00 -0.00000000000E+00 -0.54809146840E+03  0.54809146840E+03  0.00000000000E+00 0.  1.
         21    1    1    2  503  502 -0.54227995237E+02 -0.85082901231E+02 -0.32677884365E+03  0.34200027516E+03  0.00000000000E+00 0.  1.
         21    1    1    2  504  501  0.34294068545E+01  0.57844212542E+02 -0.62431771003E+02  0.85178869367E+02  0.00000000000E+00 0.  1.
         21    1    1    2  505  504  0.61959889706E+02  0.63702155412E+02 -0.76103442415E+02  0.11699883112E+03  0.00000000000E+00 0.  1.
         21    1    1    2  506  503 -0.11161301323E+02 -0.36463466723E+02 -0.34958418426E+02  0.51732485650E+02  0.00000000000E+00 0. -1.
<scales pt_clust_3="108.00543" pt_clust_4="41.65893" pt_clust_5="41.65893" pt_clust_6="38.13344"></scales>
<clustering>
<clus scale="   38.133">  1  6  2 -1</clus>
<clus scale="   41.659">  4  5 -1 -1</clus>
<clus scale="  108.005">  2  3  1 -1</clus>
<clus scale="   38.133">  1  3  2 -1</clus>
</clustering>
</event>
<event>
 6    0  0.6207838E+002  0.7240446E+02  0.7546771E-02  0.1352102E+00
         21   -1    0    0  504  501  0.00000000000E+00  0.00000000000E+00  0.49405120421E+02  0.49405120421E+02  0.00000000000E+00 0.  1.
         21   -1    0    0  503  502 -0.00000000000E+00 -0.00000000000E+00 -0.10138281851E+04  0.10138281851E+04  0.00000000000E+00 0. -1.
         21    1    1    2  503  505 -0.12760289497E+02  0.36982090866E+02 -0.12152106152E+03  0.12766310518E+03  0.00000000000E+00 0. -1.
         21    1    1    2  504  506 -0.50259205607E+02 -0.19811177087E+01 -0.59303017988E+02  0.77760918964E+02  0.00000000000E+00 0.  1.
         21    1    1    2  505  501  0.17107935909E+01  0.56077397841E+02  0.97112611440E+01  0.56937772667E+02  0.00000000000E+00 0.  1.
         21    1    1    2  506  502  0.61308701513E+02 -0.91078370998E+02 -0.79331024632E+03  0.80087150871E+03  0.00000000000E+00 0. -1.
<scales pt_clust_3="39.12161" pt_clust_4="51.24999" pt_clust_5="14000.00000" pt_clust_6="72.40446"></scales>
<clustering>
<clus scale="   39.122">  2  3  1 -1</clus>
<clus scale="   51.250">  1  4  2 -1</clus>
<clus scale="   72.404">  2  6  1 -1</clus>
<clus scale="   51.250">  1  3  2 -1</clus>
</clustering>
</event>
<event>
 6    0  0.6207838E+002  0.1000201E+03  0.7546771E-02  0.1280254E+00
         21   -1    0    0  505  501  0.00000000000E+00  0.00000000000E+00  0.17721095347E+03  0.17721095347E+03  0.00000000000E+00 0.  1.
         21   -1    0    0  506  502 -0.00000000000E+00 -0.00000000000E+00 -0.48377504541E+03  0.48377504541E+03  0.00000000000E+00 0.  1.
         21    1    1    2  503  502  0.35295246733E+02  0.12599503355E+02 -0.14378592938E+03  0.14858968811E+03  0.00000000000E+00 0.  1.
         21    1    1    2  504  503  0.44444394074E+01 -0.61180056826E+02 -0.55345026804E+02  0.82618547474E+02  0.00000000000E+00 0. -1.
         21    1    1    2  505  504 -0.63676378765E+02 -0.76069940128E+02  0.12821951170E+03  0.16211588505E+03  0.00000000000E+00 0.  1.
         21    1    1    2  506  501  0.23936692624E+02  0.12465049360E+03 -0.23565264747E+03  0.26766187825E+03  0.00000000000E+00 0.  1.
<scales pt_clust_3="37.47669" pt_clust_4="59.75350" pt_clust_5="100.02010" pt_clust_6="14000.00000"></scales>
<clustering>
<clus scale="   37.477">  2  3  1 -1</clus>
<clus scale="   59.754">  2  4  1 -1</clus>
<clus scale="  100.020">  1  5  2 -1</clus>
<clus scale="  100.020">  1  3  2 -1</clus>
</clustering>
</event>
<event>
 6    0  0.6207838E+002  0.1139254E+03  0.7546771E-02  0.1253469E+00
         21   -1    0    0  504  501  0.00000000000E+00  0.00000000000E+00  0.27706967960E+04  0.27706967960E+04  0.00000000000E+00 0. -1.
         21   -1    0    0  503  502 -0.00000000000E+00 -0.00000000000E+00 -0.15618995442E+03  0.15618995442E+03  0.00000000000E+00 0. -1.
         21    1    1    2  503  501 -0.68406634222E+02  0.99670403659E+02 -0.88764087812E+02  0.14997573222E+03  0.00000000000E+00 0. -1.
         21    1    1    2  504  506  0.82990737244E+02 -0.77985638019E+02  0.26646138720E+04  0.26670463642E+04  0.00000000000E+00 0. -1.
         21    1    1    2  505  502 -0.21785016896E+02  0.37270971571E+02  0.12327103697E+02  0.44896211072E+02  0.00000000000E+00 0.  1.
         21    1    1    2  506  505  0.72009138743E+01 -0.58955737211E+02  0.26329953741E+02  0.64968442914E+02  0.00000000000E+00 0. -1.
<scales pt_clust_3="14000.00000" pt_clust_4="113.92537" pt_clust_5="43.17073" pt_clust_6="53.97216"></scales>
<clustering>
<clus scale="   43.171">  2  5  1 -1</clus>
<clus scale="   53.972">  2  6  1 -1</clus>
<clus scale="  113.925">  1  4  2 -1</clus>
<clus scale="  113.925">  1  3  2 -1</clus>
</clustering>
</event>
<event>
 6    0  0.6207838E+002  0.9225448E+02  0.7546771E-02  0.1297482E+00
         21   -1    0    0  505  501  0.00000000000E+00  0.00000000000E+00  0.12234533502E+04  0.12234533502E+04  0.00000000000E+00 0. -1.
         21   -1    0    0  504  502 -0.00000000000E+00 -0.00000000000E+00 -0.45545224170E+03  0.45545224170E+03  0.00000000000E+00 0.  1.
         21    1    1    2  503  506  0.50812955441E+02  0.76856225744E+02  0.25389021778E+02  0.95569023763E+02  0.00000000000E+00 0. -1.
         21    1    1    2  504  501  0.69821325864E+02 -0.60015750211E+02  0.58338198026E+02  0.10899657411E+03  0.00000000000E+00 0. -1.
         21    1    1    2  505  503 -0.49453165474E+02  0.42371350857E+02  0.10728806779E+04  0.10748552907E+04  0.00000000000E+00 0. -1.
         21    1    1    2  506  502 -0.71181115831E+02 -0.59211826390E+02 -0.38860678917E+03  0.39948470336E+03  0.00000000000E+00 0.  1.
<scales pt_clust_3="14000.00000" pt_clust_4="55.64529" pt_clust_5="65.12255" pt_clust_6="92.25448"></scales>
<clustering>
<clus scale="   65.123">  1  5  2 -1</clus>
<clus scale="   55.645">  1  4  2 -1</clus>
<clus scale="   92.254">  2  6  1 -1</clus>
<clus scale="   65.123">  1  3  2 -1</clus>
</clustering>
</event>
<event>
 6    0  0.6207838E+002  0.7796699E+02  0.7546771E-02  0.1334922E+00
         21   -1    0    0  504  501  0.00000000000E+00  0.00000000000E+00  0.13472228822E+03  0.13472228822E+03  0.00000000000E+00 0. -1.
         21   -1    0    0  506  502 -0.00000000000E+00 -0.00000000000E+00 -0.23395118144E+03  0.23395118144E+03  0.00000000000E+00 0. -1.
         21    1    1    2  503  505 -0.43089848539E+02 -0.88234502266E+02 -0.11201830799E+02  0.98830883081E+02  0.00000000000E+00 0. -1.
         21    1    1    2  504  502  0.36121452180E+02  0.70118491987E+02 -0.23525746079E+02  0.82309312685E+02  0.00000000000E+00 0. -1.
         21    1    1    2  505  501 -0.64387083453E+01  0.71267724958E+02  0.30551309131E+02  0.77806992459E+02  0.00000000000E+00 0. -1.
         21    1    1    2  506  503  0.13407104704E+02 -0.53151714679E+02 -0.95052625465E+02  0.10972628144E+03  0.00000000000E+00 0. -1.
<scales pt_clust_3="77.96699" pt_clust_4="14000.00000" pt_clust_5="61.85342" pt_clust_6="54.81656"></scales>
<clustering>
<clus scale="   54.817">  2  6  1 -1</clus>
<clus scale="   61.853">  1  5  2 -1</clus>
<clus scale="   77.967">  1  3  2 -1</clus>
<clus scale="   61.853">  1  3  2 -1</clus>
</clustering>
</event>
<event>
 6    0  0.6207838E+002  0.1048421E+03  0.7546771E-02  0.1270431E+00
         21   -1    0    0  506  501  0.00000000000E+00  0.00000000000E+00  0.83894210828E+02  0.83894210828E+02  0.00000000000E+00 0. -1.
         21   -1    0    0  505  502 -0.00000000000E+00 -0.00000000000E+00 -0.23629234528E+03  0.23629234528E+03  0.00000000000E+00 0. -1.
         21    1    1    2  503  504 -0.24001898243E+02 -0.52866649061E+02 -0.45521038150E+02  0.73777629512E+02  0.00000000000E+00 0. -1.
         21    1    1    2  504  502  0.42666639738E+02  0.11654970027E+02 -0.66465326030E+02  0.79836833837E+02  0.00000000000E+00 0. -1.
         21    1    1    2  505  501  0.36347112858E+02  0.82252955264E+02 -0.68915974757E+01  0.90189552491E+02  0.00000000000E+00 0. -1.
         21    1    1    2  506  503 -0.55011854352E+02 -0.41041276231E+02 -0.33520172801E+02  0.76382540273E+02  0.00000000000E+00 0.  1.
<scales pt_clust_3="32.37050" pt_clust_4="44.22986" pt_clust_5="98.75811" pt_clust_6="32.37050"></scales>
<clustering>
<clus scale="   32.370">  3  6 -1 -1</clus>
<clus scale="   44.230">  2  4  1 -1</clus>
<clus scale="   98.758">  1  5  2 -1</clus>
<clus scale="   98.758">  1  3  2 -1</clus>
</clustering>
</event>
<event>
 6    0  0.6207838E+002  0.1158320E+03  0.7546771E-02  0.1250136E+00
         21   -1    0    0  505  501  0.00000000000E+00  0.00000000000E+00  0.47612847271E+03  0.47612847271E+03  0.00000000000E+00 0. -1.
         21   -1    0    0  506  502 -0.00000000000E+00 -0.00000000000E+00 -0.18410544008E+03  0.18410544008E+03  0.00000000000E+00 0.  1.
         21    1    1    2  503  504 -0.14229112755E+02 -0.99202203365E+02 -0.35319687418E+02  0.10625923546E+03  0.00000000000E+00 0.  1.
         21    1    1    2  504  502 -0.34651622056E+02 -0.18255047937E+02 -0.28224901557E+02  0.48276565269E+02  0.00000000000E+00 0.  1.
         21    1    1    2  505  503 -0.26539109224E+02  0.69862104631E+02  0.39939635490E+03  0.40632805255E+03  0.00000000000E+00 0. -1.
         21    1    1    2  506  501  0.75419844035E+02  0.47595146671E+02 -0.43828733298E+02  0.99370059492E+02  0.00000000000E+00 0.  1.
<scales pt_clust_3="37.80918" pt_clust_4="37.80918" pt_clust_5="74.73311" pt_clust_6="98.78856"></scales>
<clustering>
<clus scale="   37.809">  3  4 -1 -1</clus>
<clus scale="   74.733">  1  5  2 -1</clus>
<clus scale="   98.789">  2  6  1 -1</clus>
<clus scale="   74.733">  1  3  2 -1</clus>
</clustering>
</event>
<event>
 6    0  0.6207838E+002  0.7743145E+02  0.7546771E-02  0.1336503E+00
         21   -1    0    0  505  501  0.00000000000E+00  0.00000000000E+00  0.16852897151E+03  0.16852897151E+03  0.00000000000E+00 0. -1.
         21   -1    0    0  504  502 -0.00000000000E+00 -0.00000000000E+00 -0.47135851079E+03  0.47135851079E+03  0.00000000000E+00 0.  1.
         21    1    1    2  503  506 -0.85130287919E+02 -0.77450556552E+02 -0.19789442978E+03  0.22892784883E+03  0.00000000000E+00 0.  1.
         21    1    1    2  504  503  0.26769942016E+02  0.13907412166E+02 -0.19770714213E+03  0.19999539984E+03  0.00000000000E+00 0.  1.
         21    1    1    2  505  502 -0.18238154303E+02  0.59230976093E+02 -0.27902480793E+02  0.67966809810E+02  0.00000000000E+00 0.  1.
         21    1    1    2  506  501  0.76598500206E+02  0.43121682928E+01  0.12067451343E+03  0.14299742382E+03  0.00000000000E+00 0. -1.
<scales pt_clust_3="14000.00000" pt_clust_4="30.16697" pt_clust_5="63.14375" pt_clust_6="77.43145"></scales>
<clustering>
<clus scale="   30.167">  2  4  1 -1</clus>
<clus scale="   63.144">  2  5  1 -1</clus>
<clus scale="   77.431">  1  6  2 -1</clus>
<clus scale="   77.431">  1  3  2 -1</clus>
</clustering>
</event>
<event>
 6    0  0.6207838E+002  0.6616703E+02  0.7546771E-02  0.1373635E+00
         21   -1    0    0  505  501  0.00000000000E+00  0.00000000000E+00  0.50064635558E+03  0.50064635558E+03  0.00000000000E+00 0. -1.
         21   -1    0    0  504  502 -0.00000000000E+00 -0.00000000000E+00 -0.14873887300E+03  0.14873887300E+03  0.00000000000E+00 0. -1.
         21    1    1    2  503  501  0.25714402153E+01  0.10053750896E+03  0.36845912534E+03  0.38193786152E+03  0.00000000000E+00 0. -1.
         21    1    1    2  504  503 -0.47649737072E+02 -0.81628317308E+02 -0.59377390068E+02  0.11162147679E+03  0.00000000000E+00 0. -1.
         21    1    1    2  505  506  0.24896470086E+02 -0.47488898421E+02  0.85327389604E+02  0.10077595503E+03  0.00000000000E+00 0. -1.
         21    1    1    2  506  502  0.20181826770E+02  0.28579706768E+02 -0.42501642307E+02  0.55049935237E+02  0.00000000000E+00 0. -1.
<scales pt_clust_3="66.16703" pt_clust_4="14000.00000" pt_clust_5="52.44274" pt_clust_6="34.98722"></scales>
<clustering>
<clus scale="   34.987">  2  6  1 -1</clus>
<clus scale="   52.443">  1  5  2 -1</clus>
<clus scale="   66.167">  1  3  2 -1</clus>
<clus scale="   52.443">  1  3  2 -1</clus>
</clustering>
</event>
<event>
 6    0  0.6207838E+002  0.1203391E+03  0.7546771E-02  0.1242539E+00
         21   -1    0    0  506  501  0.00000000000E+00  0.00000000000E+00  0.21815963640E+03  0.21815963640E+03  0.00000000000E+00 0.  1.
         21   -1    0    0  503  502 -0.00000000000E+00 -0.00000000000E+00 -0.21124648901E+03  0.21124648901E+03  0.00000000000E+00 0.  1.
         21    1    1    2  503  504 -0.22555525345E+02  0.26095653586E+02 -0.20092481181E+02  0.39917949092E+02  0.00000000000E+00 0.  1.
         21    1    1    2  504  501  0.26369052730E+02 -0.38650599848E+02 -0.14498167719E+02  0.48983596006E+02  0.00000000000E+00 0. -1.
         21    1    1    2  505  502  0.11350868183E+03  0.39839571475E+02 -0.98741895941E+02  0.15563217637E+03  0.00000000000E+00 0.  1.
         21    1    1    2  506  505 -0.11732220922E+03 -0.27284625213E+02  0.14024569223E+03  0.18487240394E+03  0.00000000000E+00 0.  1.
<scales pt_clust_3="34.49253" pt_clust_4="40.79319" pt_clust_5="120.33905" pt_clust_6="14000.00000"></scales>
<clustering>
<clus scale="   34.493">  2  3  1 -1</clus>
<clus scale="   40.793">  2  4  1 -1</clus>
<clus scale="  120.339">  2  5  1 -1</clus>
<clus scale="  120.339">  1  3  2 -1</clus>
</clustering>
</event>
<event>
 6    0  0.6207838E+002  0.2155733E+03  0.7546771E-02  0.1137227E+00
         21   -1    0    0  503  501  0.00000000000E+00  0.00000000000E+00  0.37827530031E+03  0.37827530031E+03  0.00000000000E+00 0. -1.
         21   -1    0    0  505  502 -0.00000000000E+00 -0.00000000000E+00 -0.22318697861E+03  0.22318697861E+03  0.00000000000E+00 0.  1.
         21    1    1    2  503  504  0.27211646276E+02  0.27607626804E+02  0.17099456191E+02  0.42367984999E+02  0.00000000000E+00 0. -1.
         21    1    1    2  504  506  0.10348466882E+02 -0.16851047493E+03  0.13426033031E+03  0.21570513954E+03  0.00000000000E+00 0. -1.
         21    1    1    2  505  501 -0.44995280436E+02  0.19715905821E+03 -0.99660176700E+02  0.22545159195E+03  0.00000000000E+00 0.  1.
         21    1    1    2  506  502  0.74351672775E+01 -0.56256210078E+02  0.10338871190E+03  0.11793756243E+03  0.00000000000E+00 0. -1.
<scales pt_clust_3="38.76409" pt_clust_4="36.68545" pt_clust_5="206.07708" pt_clust_6="36.68545"></scales>
<clustering>
<clus scale="   36.685">  4  6 -1 -1</clus>
<clus scale="   38.764">  1  3  2 -1</clus>
<clus scale="  206.077">  2  5  1 -1</clus>
<clus scale="   38.764">  1  3  2 -1</clus>
</clustering>
</event>
<event>
 6    0  0.6207838E+002  0.1065056E+03  0.7546771E-02  0.1267181E+00
         21   -1    0    0  503  501  0.00000000000E+00  0.00000000000E+00  0.10948109413E+03  0.10948109413E+03  0.00000000000E+00 0. -1.
         21   -1    0    0  505  502 -0.00000000000E+00 -0.00000000000E+00 -0.86227257897E+03  0.86227257897E+03  0.00000000000E+00 0. -1.
         21    1    1    2  503  506  0.19780841713E+02  0.56434257845E+02  0.68349530736E+02  0.90817209323E+02  0.00000000000E+00 0. -1.
         21    1    1    2  504  501 -0.89239963007E+02 -0.14027665573E+03 -0.45515928398E+03  0.48457330192E+03  0.00000000000E+00 0. -1.
         21    1    1    2  505  504  0.75649212083E+02  0.81321324903E+01 -0.19163205487E+03  0.20618384835E+03  0.00000000000E+00 0. -1.
         21    1    1    2  506  502 -0.61900907892E+01  0.75710265400E+02 -0.17434967672E+03  0.19017931350E+03  0.00000000000E+00 0. -1.
<scales pt_clust_3="59.80056" pt_clust_4="14000.00000" pt_clust_5="83.38120" pt_clust_6="106.50559"></scales>
<clustering>
<clus scale="   59.801">  1  3  2 -1</clus>
<clus scale="   83.381">  2  5  1 -1</clus>
<clus scale="  106.506">  1  6  2 -1</clus>
<clus scale="   59.801">  1  3  2 -1</clus>
</clustering>
</event>
<event>
 6    0  0.6207838E+002  0.1195547E+03  0.7546771E-02  0.1243833E+00
         21   -1    0    0  506  501  0.00000000000E+00  0.00000000000E+00  0.55417031871E+03  0.55417031871E+03  0.00000000000E+00 0.  1.
         21   -1    0    0  505  502 -0.00000000000E+00 -0.00000000000E+00 -0.24691282512E+03  0.24691282512E+03  0.00000000000E+00 0. -1.
         21    1    1    2  503  504  0.16531000134E+03  0.72075447510E+02  0.11921798222E+03  0.21618324163E+03  0.00000000000E+00 0.  1.
         21    1    1    2  504  502 -0.81264723485E+02  0.20622787231E+02 -0.16444814616E+03  0.18458723524E+03  0.00000000000E+00 0. -1.
         21    1    1    2  505  501 -0.38606273939E+02 -0.36527075004E+01  0.54458629011E+01  0.39159214526E+02  0.00000000000E+00 0.  1.
         21    1    1    2  506  503 -0.45439003912E+02 -0.89045527240E+02  0.34704179462E+03  0.36115345244E+03  0.00000000000E+00 0.  1.
<scales pt_clust_3="119.55468" pt_clust_4="14000.00000" pt_clust_5="38.77869" pt_clust_6="100.61202"></scales>
<clustering>
<clus scale="   38.779">  2  5  1 -1</clus>
<clus scale="  100.612">  1  6  2 -1</clus>
<clus scale="  119.555">  1  3  2 -1</clus>
<clus scale="  100.612">  1  3  2 -1</clus>
</clustering>
</event>
<event>
 6    0  0.6207838E+002  0.1399131E+03  0.7546771E-02  0.1213446E+00
         21   -1    0    0  505  501  0.00000000000E+00  0.00000000000E+00  0.20492841798E+04  0.20492841798E+04  0.00000000000E+00 0. -1.
         21   -1    0    0  503  502 -0.00000000000E+00 -0.00000000000E+00 -0.11167522488E+03  0.11167522488E+03  0.00000000000E+00 0.  1.
         21    1    1    2  503  506 -0.12808179191E+03  0.52787463704E+02 -0.57957034588E+02  0.15016817107E+03  0.00000000000E+00 0.  1.
         21    1    1    2  504  502  0.63801550682E+02  0.26225521339E+02  0.24630616498E+03  0.25578339029E+03  0.00000000000E+00 0.  1.
         21    1    1    2  505  504  0.41406973542E+02 -0.95392485053E+01  0.22395709136E+03  0.22795243690E+03  0.00000000000E+00 0.  1.
         21    1    1    2  506  501  0.22873267690E+02 -0.69473736537E+02  0.15253027332E+04  0.15270554064E+04  0.00000000000E+00 0. -1.
<scales pt_clust_3="134.42517" pt_clust_4="30.45329" pt_clust_5="30.45329" pt_clust_6="73.14223"></scales>
<clustering>
<clus scale="   30.453">  4  5 -1 -1</clus>
<clus scale="   73.142">  1  6  2 -1</clus>
<clus scale="  134.425">  2  3  1 -1</clus>
<clus scale="   73.142">  1  3  2 -1</clus>
</clustering>
</event>
<event>
 6    0  0.6207838E+002  0.8615516E+02  0.7546771E-02  0.1312439E+00
         21   -1    0    0  503  501  0.00000000000E+00  0.00000000000E+00  0.14025573735E+04  0.14025573735E+04  0.00000000000E+00 0.  1.
         21   -1    0    0  504  502 -0.00000000000E+00 -0.00000000000E+00 -0.33462279283E+02  0.33462279283E+02  0.00000000000E+00 0. -1.
         21    1    1    2  503  505  0.77484250475E+02  0.96063067753E+00  0.32664869534E+03  0.33571431613E+03  0.00000000000E+00 0.  1.
         21    1    1    2  504  506 -0.21613300533E+02 -0.41489304721E+02  0.12367772952E+03  0.13222964095E+03  0.00000000000E+00 0.  1.
         21    1    1    2  505  502 -0.60920608633E+02 -0.35701219153E+02  0.31152000620E+02  0.77177359037E+02  0.00000000000E+00 0. -1.
         21    1    1    2  506  501  0.50496586904E+01  0.76229893197E+02  0.88761666869E+03  0.89089833663E+03  0.00000000000E+00 0.  1.
<scales pt_clust_3="86.15516" pt_clust_4="46.78138" pt_clust_5="14000.00000" pt_clust_6="73.99682"></scales>
<clustering>
<clus scale="   46.781">  2  4  1 -1</clus>
<clus scale="   73.997">  1  6  2 -1</clus>
<clus scale="   86.155">  1  3  2 -1</clus>
<clus scale="   73.997">  1  3  2 -1</clus>
</clustering>
</event>
<event>
 6    0  0.6207838E+002  0.1110659E+03  0.7546771E-02  0.1258609E+00
         21   -1    0    0  503  501  0.00000000000E+00  0.00000000000E+00  0.19422847244E+04  0.19422847244E+04  0.00000000000E+00 0. -1.
         21   -1    0    0  506  502 -0.00000000000E+00 -0.00000000000E+00 -0.22252306995E+03  0.22252306995E+03  0.00000000000E+00 0.  1.
         21    1    1    2  503  504  0.17778127986E+02 -0.31381744445E+02  0.13563356276E+04  0.13568150981E+04  0.00000000000E+00 0. -1.
         21    1    1    2  504  505  0.10329931940E+03  0.47173022983E+02  0.42314101197E+03  0.43811455066E+03  0.00000000000E+00 0. -1.
         21    1    1    2  505  502 -0.17399042536E+02 -0.62376430942E+02 -0.18778867627E+03  0.19864071273E+03  0.00000000000E+00 0.  1.
         21    1    1    2  506  501 -0.10367840485E+03  0.46585152404E+02  0.12807369120E+03  0.17123743292E+03  0.00000000000E+00 0. -1.
<scales pt_clust_3="36.06765" pt_clust_4="14000.00000" pt_clust_5="64.99380" pt_clust_6="111.06594"></scales>
<clustering>
<clus scale="   36.068">  1  3  2 -1</clus>
<clus scale="   64.994">  2  5  1 -1</clus>
<clus scale="  111.066">  2  6  1 -1</clus>
<clus scale="   36.068">  1  3  2 -1</clus>
</clustering>
</event>
<event>
 6    0  0.6207838E+002  0.1622716E+03  0.7546771E-02  0.1186156E+00
         21   -1    0    0  506  501  0.00000000000E+00  0.00000000000E+00  0.55123458581E+03  0.55123458581E+03  0.00000000000E+00 0.  1.
         21   -1    0    0  505  502 -0.00000000000E+00 -0.00000000000E+00 -0.88797016458E+02  0.88797016458E+02  0.00000000000E+00 0.  1.
         21    1    1    2  503  502 -0.77298380924E+02  0.15348183846E+03  0.19995925139E+03  0.26365776425E+03  0.00000000000E+00 0.  1.
         21    1    1    2  504  501  0.45680811643E+02 -0.15528900657E+02  0.42771623544E+02  0.64477089641E+02  0.00000000000E+00 0. -1.
         21    1    1    2  505  504  0.42232287749E+02  0.26423545791E+02  0.21713878764E+02  0.54343927275E+02  0.00000000000E+00 0.  1.
         21    1    1    2  506  503 -0.10614718469E+02 -0.16437648360E+03  0.19799281565E+03  0.25755282110E+03  0.00000000000E+00 0.  1.
<scales pt_clust_3="14000.00000" pt_clust_4="45.23384" pt_clust_5="99.80007" pt_clust_6="162.27164"></scales>
<clustering>
<clus scale="   45.234">  4  5 -1 -1</clus>
<clus scale="   99.800">  2  4  1 -1</clus>
<clus scale="  162.272">  1  6  2 -1</clus>
<clus scale="  162.272">  1  3  2 -1</clus>
</clustering>
</event>
<event>
 6    0  0.6207838E+002  0.3657567E+03  0.7546771E-02  0.1056327E+00
         21   -1    0    0  506  501  0.00000000000E+00  0.00000000000E+00  0.19799061469E+04  0.19799061469E+04  0.00000000000E+00 0.  1.
         21   -1    0    0  503  502 -0.00000000000E+00 -0.00000000000E+00 -0.29561798510E+03  0.29561798510E+03  0.00000000000E+00 0.  1.
         21    1    1    2  503  505 -0.36565507015E+02  0.75490944412E+01 -0.11634715670E+03  0.12219118627E+03  0.00000000000E+00 0.  1.
         21    1    1    2  504  502  0.40228550352E+03 -0.12531061035E+02  0.10958060826E+03  0.41713135046E+03  0.00000000000E+00 0.  1.
         21    1    1    2  505  501 -0.33411184150E+03  0.97347235527E+01  0.12477215648E+04  0.12917176901E+04  0.00000000000E+00 0.  1.
         21    1    1    2  506  504 -0.31608155002E+02 -0.47527569592E+01  0.44333314544E+03  0.44448390523E+03  0.00000000000E+00 0.  1.
<scales pt_clust_3="37.39371" pt_clust_4="365.75671" pt_clust_5="14000.00000" pt_clust_6="31.96348"></scales>
<clustering>
<clus scale="   31.963">  1  6  2 -1</clus>
<clus scale="   37.394">  2  3  1 -1</clus>
<clus scale="  365.757">  2  4  1 -1</clus>
<clus scale="   31.963">  1  3  2 -1</clus>
</clustering>
</event>
<event>
 6    0  0.6207838E+002  0.1327422E+03  0.7546771E-02  0.1223443E+00
         21   -1    0    0  504  501  0.00000000000E+00  0.00000000000E+00  0.31336216333E+03  0.31336216333E+03  0.00000000000E+00 0.  1.
         21   -1    0    0  505  502 -0.00000000000E+00 -0.00000000000E+00 -0.26748133949E+03  0.26748133949E+03  0.00000000000E+00 0.  1.
         21    1    1    2  503  501 -0.11375271360E+03 -0.48257815975E+02  0.24684687837E+03  0.27604687648E+03  0.00000000000E+00 0.  1.
         21    1    1    2  504  502 -0.44251308985E+02  0.11754212456E+02 -0.37263608611E+01  0.45937192150E+02  0.00000000000E+00 0.  1.
         21    1    1    2  505  506  0.74881159994E+02  0.36366445469E+02 -0.11463437445E+03  0.14167126132E+03  0.00000000000E+00 0.  1.
         21    1    1    2  506  503  0.83122862590E+02  0.13715804921E+00 -0.82605319216E+02  0.11718817287E+03  0.00000000000E+00 0.  1.
<scales pt_clust_3="125.75203" pt_clust_4="45.78580" pt_clust_5="42.47682" pt_clust_6="42.47682"></scales>
<clustering>
<clus scale="   42.477">  5  6 -1 -1</clus>
<clus scale="   45.786">  2  4  1 -1</clus>
<clus scale="  125.752">  1  3  2 -1</clus>
<clus scale="  125.752">  1  3  2 -1</clus>
</clustering>
</event>
<event>
 6    0  0.6207838E+002  0.1677341E+03  0.7546771E-02  0.1180232E+00
         21   -1    0    0  506  501  0.00000000000E+00  0.00000000000E+00  0.21989002555E+03  0.21989002555E+03  0.00000000000E+00 0.  1.
         21   -1    0    0  504  502 -0.00000000000E+00 -0.00000000000E+00 -0.22645437396E+03  0.22645437396E+03  0.00000000000E+00 0.  1.
         21    1    1    2  503  502 -0.33107018439E+02  0.72058718909E+01 -0.13654292294E+02  0.36529973415E+02  0.00000000000E+00 0.  1.
         21    1    1    2  504  501  0.17611392774E+03  0.72895844359E+02 -0.43476572078E+02  0.19549969818E+03  0.00000000000E+00 0.  1.
         21    1    1    2  505  503 -0.10674021119E+03 -0.11430227521E+03  0.25291413814E+02  0.15842391996E+03  0.00000000000E+00 0.  1.
         21    1    1    2  506  505 -0.36266698115E+02  0.34200558962E+02  0.25275102149E+02  0.55890807958E+02  0.00000000000E+00 0.  1.
<scales pt_clust_3="33.88214" pt_clust_4="167.73405" pt_clust_5="14000.00000" pt_clust_6="52.07314"></scales>
<clustering>
<clus scale="   33.882">  2  3  1 -1</clus>
<clus scale="   52.073">  1  6  2 -1</clus>
<clus scale="  167.734">  2  4  1 -1</clus>
<clus scale="   52.073">  1  3  2 -1</clus>
</clustering>
</event>
<event>
 6    0  0.6207838E+002  0.9714735E+02  0.7546771E-02  0.1286412E+00
         21   -1    0    0  503  501  0.00000000000E+00  0.00000000000E+00  0.30134860479E+03  0.30134860479E+03  0.00000000000E+00 0.  1.
         21   -1    0    0  504  502 -0.00000000000E+00 -0.00000000000E+00 -0.46000181445E+03  0.46000181445E+03  0.00000000000E+00 0. -1.
         21    1    1    2  503  505 -0.36907381238E+02 -0.60346671986E+00  0.92290319011E+02  0.99398299508E+02  0.00000000000E+00 0.  1.
         21    1    1    2  504  506 -0.86227430811E+02  0.47396884693E+02 -0.42357230319E+03  0.43485069913E+03  0.00000000000E+00 0. -1.
         21    1    1    2  505  502  0.71125127217E+02  0.25538825857E+01  0.57600967813E+02  0.91559693812E+02  0.00000000000E+00 0.  1.
         21    1    1    2  506  501  0.52009684832E+02 -0.49347300559E+02  0.11502780670E+03  0.13554172680E+03  0.00000000000E+00 0.  1.
<scales pt_clust_3="36.91231" pt_clust_4="14000.00000" pt_clust_5="57.77813" pt_clust_6="97.14735"></scales>
<clustering>
<clus scale="   36.912">  1  3  2 -1</clus>
<clus scale="   57.778">  1  5  2 -1</clus>
<clus scale="   97.147">  1  6  2 -1</clus>
<clus scale="   36.912">  1  3  2 -1</clus>
</clustering>
</event>
<event>
 6    0  0.6207838E+002  0.8855983E+02  0.7546771E-02  0.1306377E+00
         21   -1    0    0  506  501  0.00000000000E+00  0.00000000000E+00  0.14415112698E+04  0.14415112698E+04  0.00000000000E+00 0.  1.
         21   -1    0    0  504  502 -0.00000000000E+00 -0.00000000000E+00 -0.12002240434E+03  0.12002240434E+03  0.00000000000E+00 0. -1.
         21    1    1    2  503  501  0.70469802916E+02 -0.57087888430E+02  0.10449979390E+04  0.10489259806E+04  0.00000000000E+00 0.  1.
         21    1    1    2  504  503  0.44923663688E+02  0.48495208183E+02  0.28249474815E+03  0.29012618549E+03  0.00000000000E+00 0.  1.
         21    1    1    2  505  502 -0.44915199201E+02 -0.20129037303E+02 -0.94020229030E+02  0.10612425137E+03  0.00000000000E+00 0. -1.
         21    1    1    2  506  505 -0.70478267403E+02  0.28721717550E+02  0.88016407315E+02  0.11635725672E+03  0.00000000000E+00 0.  1.
<scales pt_clust_3="88.55983" pt_clust_4="57.56121" pt_clust_5="49.21944" pt_clust_6="14000.00000"></scales>
<clustering>
<clus scale="   49.219">  2  5  1 -1</clus>
<clus scale="   57.561">  2  4  1 -1</clus>
<clus scale="   88.560">  1  3  2 -1</clus>
<clus scale="   88.560">  1  3  2 -1</clus>
</clustering>
</event>
<event>
 6    0  0.6207838E+002  0.1292851E+03  0.7546771E-02  0.1228520E+00
         21   -1    0    0  503  501  0.00000000000E+00  0.00000000000E+00  0.35435061671E+02  0.35435061671E+02  0.00000000000E+00 0. -1.
         21   -1    0    0  506  502 -0.00000000000E+00 -0.00000000000E+00 -0.12361661325E+04  0.12361661325E+04  0.00000000000E+00 0. -1.
         21    1    1    2  503  502  0.49517110993E+02 -0.12013587354E+03 -0.56074236632E+03  0.57560105436E+03  0.00000000000E+00 0. -1.
         21    1    1    2  504  501 -0.78215112095E+01  0.29207863232E+02  0.12577547037E+02  0.32748587781E+02  0.00000000000E+00 0. -1.
         21    1    1    2  505  504 -0.50817565063E+02  0.36822431696E+02 -0.30602470700E+03  0.31239308201E+03  0.00000000000E+00 0. -1.
         21    1    1    2  506  505  0.91219652789E+01  0.54105578610E+02 -0.34654154450E+03  0.35085846997E+03  0.00000000000E+00 0. -1.
<scales pt_clust_3="112.52180" pt_clust_4="30.23699" pt_clust_5="59.24697" pt_clust_6="59.24697"></scales>
<clustering>
<clus scale="   30.237">  1  4  2 -1</clus>
<clus scale="   59.247">  5  6 -1 -1</clus>
<clus scale="  112.522">  1  3  2 -1</clus>
<clus scale="   30.237">  1  3  2 -1</clus>
</clustering>
</event>
<event>
 6    0  0.6207838E+002  0.1367809E+03  0.7546771E-02  0.1217727E+00
         21   -1    0    0  503  501  0.00000000000E+00  0.00000000000E+00  0.11018440843E+03  0.11018440843E+03  0.00000000000E+00 0.  1.
         21   -1    0    0  506  502 -0.00000000000E+00 -0.00000000000E+00 -0.15281317296E+04  0.15281317296E+04  0.00000000000E+00 0. -1.
         21    1    1    2  503  502 -0.32758163925E+02 -0.15829029913E+02  0.80442468112E+02  0.88287293353E+02  0.00000000000E+00 0.  1.
         21    1    1    2  504  505  0.57709373063E+02  0.16003211634E+02 -0.43842022389E+03  0.44249154482E+03  0.00000000000E+00 0. -1.
         21    1    1    2  505  501 -0.10123096170E+03  0.21670149164E+01 -0.92755334354E+02  0.13731698952E+03  0.00000000000E+00 0.  1.
         21    1    1    2  506  504  0.76279752562E+02 -0.23411966376E+01 -0.96721423106E+03  0.97022031036E+03  0.00000000000E+00 0. -1.
<scales pt_clust_3="36.38208" pt_clust_4="37.21653" pt_clust_5="130.00841" pt_clust_6="37.21653"></scales>
<clustering>
<clus scale="   36.382">  1  3  2 -1</clus>
<clus scale="   37.217">  4  6 -1 -1</clus>
<clus scale="  130.008">  1  5  2 -1</clus>
<clus scale="   36.382">  1  3  2 -1</clus>
</clustering>
</event>
<event>
 6    0  0.6207838E+002  0.6303404E+03  0.7546771E-02  0.9844385E-01
         21   -1    0    0  504  501  0.00000000000E+00  0.00000000000E+00  0.51796505311E+03  0.51796505311E+03  0.00000000000E+00 0. -1.
         21   -1    0    0  506  502 -0.00000000000E+00 -0.00000000000E+00 -0.15071641123E+04  0.15071641123E+04  0.00000000000E+00 0. -1.
         21    1    1    2  503  501 -0.54962876323E+03 -0.15378471835E+03 -0.98043881929E+03  0.11344610153E+04  0.00000000000E+00 0. -1.
         21    1    1    2  504  505  0.61186713478E+03  0.10492720194E+03  0.19507116751E+03  0.65072564782E+03  0.00000000000E+00 0. -1.
         21    1    1    2  505  502 -0.93355738873E+01  0.56659586925E+02 -0.16252679949E+03  0.17237291632E+03  0.00000000000E+00 0. -1.
         21    1    1    2  506  503 -0.52902797662E+02 -0.78020705061E+01 -0.41304607923E+02  0.67569585912E+02  0.00000000000E+00 0. -1.
<scales pt_clust_3="33.19884" pt_clust_4="620.93938" pt_clust_5="57.42353" pt_clust_6="33.19884"></scales>
<clustering>
<clus scale="   33.199">  3  6 -1 -1</clus>
<clus scale="   57.424">  2  5  1 -1</clus>
<clus scale="  620.939">  1  4  2 -1</clus>
<clus scale="  620.939">  1  3  2 -1</clus>
</clustering>
</event>
<event>
 6    0  0.6207838E+002  0.7444285E+02  0.7546771E-02  0.1345605E+00
         21   -1    0    0  506  501  0.00000000000E+00  0.00000000000E+00  0.16885485149E+03  0.16885485149E+03  0.00000000000E+00 0.  1.
         21   -1    0    0  505  502 -0.00000000000E+00 -0.00000000000E+00 -0.64494364774E+03  0.64494364774E+03  0.00000000000E+00 0. -1.
         21    1    1    2  503  502  0.87508327142E+02  0.45052933506E+02 -0.11714081016E+02  0.99119593577E+02  0.00000000000E+00 0.  1.
         21    1    1    2  504  501 -0.37892074764E+02  0.54129792242E+02  0.77820034381E+01  0.66531220608E+02  0.00000000000E+00 0.  1.
         21    1    1    2  505  504 -0.58023114253E+02 -0.44613687377E+02 -0.54881593377E+03  0.55367498774E+03  0.00000000000E+00 0. -1.
         21    1    1    2  506  503  0.84068618750E+01 -0.54569038371E+02  0.76659215102E+02  0.94472697301E+02  0.00000000000E+00 0.  1.
<scales pt_clust_3="14000.00000" pt_clust_4="45.30820" pt_clust_5="74.44285" pt_clust_6="55.21282"></scales>
<clustering>
<clus scale="   55.213">  1  6  2 -1</clus>
<clus scale="   45.308">  1  4  2 -1</clus>
<clus scale="   74.443">  2  5  1 -1</clus>
<clus scale="   55.213">  1  3  2 -1</clus>
</clustering>
</event>
<event>
 6    0  0.6207838E+002  0.9030853E+02  0.7546771E-02  0.1302106E+00
         21   -1    0    0  505  501  0.00000000000E+00  0.00000000000E+00  0.33184700494E+02  0.33184700494E+02  0.00000000000E+00 0.  1.
         21   -1    0    0  501  502 -0.00000000000E+00 -0.00000000000E+00 -0.62021979424E+03  0.62021979424E+03  0.00000000000E+00 0.  1.
         21    1    1    2  503  504 -0.30280565388E+02  0.33274236388E+02 -0.12384158502E+03  0.13176048583E+03  0.00000000000E+00 0.  1.
         21    1    1    2  504  506  0.18417631197E+01  0.43662603342E+02 -0.59151163351E+02  0.73543695499E+02  0.00000000000E+00 0. -1.
         21    1    1    2  505  503  0.94659997004E+02 -0.18487486969E+02 -0.14271281431E+03  0.17224764026E+03  0.00000000000E+00 0.  1.
         21    1    1    2  506  502 -0.66221194736E+02 -0.58449352760E+02 -0.26132953108E+03  0.27585267315E+03  0.00000000000E+00 0.  1.
<scales pt_clust_3="43.35887" pt_clust_4="43.35887" pt_clust_5="78.86832" pt_clust_6="88.32652"></scales>
<clustering>
<clus scale="   43.359">  3  4 -1 -1</clus>
<clus scale="   88.327">  2  6  1 -1</clus>
<clus scale="   78.868">  1  5  2 -1</clus>
<clus scale="   78.868">  1  3  2 -1</clus>
</clustering>
</event>
<event>
 6    0  0.6207838E+002  0.1035776E+03  0.7546771E-02  0.1272948E+00
         21   -1    0    0  503  501  0.00000000000E+00  0.00000000000E+00  0.14348380998E+03  0.14348380998E+03  0.00000000000E+00 0.  1.
         21   -1    0    0  505  502 -0.00000000000E+00 -0.00000000000E+00 -0.21089215122E+03  0.21089215122E+03  0.00000000000E+00 0.  1.
         21    1    1    2  503  504 -0.69589624183E+02  0.68953860154E+02 -0.61318209039E+02  0.11557367081E+03  0.00000000000E+00 0.  1.
         21    1    1    2  504  502 -0.59642644661E+01  0.44299577609E+02 -0.15241413174E+02  0.47226324253E+02  0.00000000000E+00 0.  1.
         21    1    1    2  505  506  0.69559782671E+02 -0.26440978375E+02 -0.46997837174E+02  0.88014120468E+02  0.00000000000E+00 0.  1.
         21    1    1    2  506  501  0.59941059782E+01 -0.86812459388E+02  0.56149118150E+02  0.10356184568E+03  0.00000000000E+00 0.  1.
<scales pt_clust_3="31.01130" pt_clust_4="31.01130" pt_clust_5="74.41565" pt_clust_6="92.84710"></scales>
<clustering>
<clus scale="   31.011">  3  4 -1 -1</clus>
<clus scale="   74.416">  2  5  1 -1</clus>
<clus scale="   92.847">  1  6  2 -1</clus>
<clus scale="   92.847">  1  3  2 -1</clus>
</clustering>
</event>
<event>
 6    0  0.6207838E+002  0.1285012E+03  0.7546771E-02  0.1229697E+00
         21   -1    0    0  506  501  0.00000000000E+00  0.00000000000E+00  0.33889302591E+03  0.33889302591E+03  0.00000000000E+00 0. -1.
         21   -1    0    0  504  502 -0.00000000000E+00 -0.00000000000E+00 -0.12116329339E+03  0.12116329339E+03  0.00000000000E+00 0.  1.
         21    1    1    2  503  502  0.47043420517E+02  0.23852218052E+02 -0.91064319376E+01  0.53525123284E+02  0.00000000000E+00 0.  1.
         21    1    1    2  504  505 -0.46426537068E+02  0.37123455936E+02 -0.37722740637E+02  0.70402979241E+02  0.00000000000E+00 0.  1.
         21    1    1    2  505  501 -0.63376617899E+02 -0.10103855123E+03  0.21747360398E+03  0.24803256431E+03  0.00000000000E+00 0. -1.
         21    1    1    2  506  503  0.62759734450E+02  0.40062877244E+02  0.47085301120E+02  0.88095652463E+02  0.00000000000E+00 0.  1.
<scales pt_clust_3="41.84825" pt_clust_4="59.44388" pt_clust_5="118.49211" pt_clust_6="41.84825"></scales>
<clustering>
<clus scale="   41.848">  3  6 -1 -1</clus>
<clus scale="   59.444">  2  4  1 -1</clus>
<clus scale="  118.492">  1  5  2 -1</clus>
<clus scale="  118.492">  1  3  2 -1</clus>
</clustering>
</event>
<event>
 6    0  0.6207838E+002  0.8589002E+02  0.7546771E-02  0.1313121E+00
         21   -1    0    0  506  501  0.00000000000E+00  0.00000000000E+00  0.47673278316E+03  0.47673278316E+03  0.00000000000E+00 0.  1.
         21   -1    0    0  504  502 -0.00000000000E+00 -0.00000000000E+00 -0.80577253828E+03  0.80577253828E+03  0.00000000000E+00 0. -1.
         21    1    1    2  503  502 -0.56615047711E+01 -0.85353526416E+02 -0.77461999461E+03  0.77932882223E+03  0.00000000000E+00 0. -1.
         21    1    1    2  504  501  0.50267107218E+02 -0.10710694388E+02  0.64563529656E+02  0.82522423643E+02  0.00000000000E+00 0. -1.
         21    1    1    2  505  503 -0.11955986669E+02  0.13035624241E+03  0.27826964910E+03  0.30752185803E+03  0.00000000000E+00 0.  1.
         21    1    1    2  506  505 -0.32649615777E+02 -0.34292021610E+02  0.10274706073E+03  0.11313221754E+03  0.00000000000E+00 0.  1.
<scales pt_clust_3="85.89002" pt_clust_4="47.14425" pt_clust_5="14000.00000" pt_clust_6="47.34913"></scales>
<clustering>
<clus scale="   47.349">  1  6  2 -1</clus>
<clus scale="   47.144">  1  4  2 -1</clus>
<clus scale="   85.890">  2  3  1 -1</clus>
<clus scale="   47.349">  1  3  2 -1</clus>
</clustering>
</event>
<event>
 6    0  0.6207838E+002  0.1121513E+03  0.7546771E-02  0.1256637E+00
         21   -1    0    0  505  501  0.00000000000E+00  0.00000000000E+00  0.71217016638E+03  0.71217016638E+03  0.00000000000E+00 0. -1.
         21   -1    0    0  503  502 -0.00000000000E+00 -0.00000000000E+00 -0.12943354925E+04  0.12943354925E+04  0.00000000000E+00 0. -1.
         21    1    1    2  503  506  0.60369008571E+02  0.52211989899E+02 -0.16662854668E+03  0.18475817073E+03  0.00000000000E+00 0. -1.
         21    1    1    2  504  502  0.49419412892E+02 -0.15225168323E+02 -0.11086608568E+04  0.11098661990E+04  0.00000000000E+00 0. -1.
         21    1    1    2  505  504 -0.53687433161E+02  0.20251095020E+02  0.11813011623E+03  0.13132848773E+03  0.00000000000E+00 0. -1.
         21    1    1    2  506  501 -0.56100988301E+02 -0.57237916597E+02  0.57499396113E+03  0.58055280149E+03  0.00000000000E+00 0. -1.
<scales pt_clust_3="14000.00000" pt_clust_4="51.71155" pt_clust_5="55.53959" pt_clust_6="112.15134"></scales>
<clustering>
<clus scale="   51.712">  2  4  1 -1</clus>
<clus scale="   55.540">  1  5  2 -1</clus>
<clus scale="  112.151">  1  6  2 -1</clus>
<clus scale="   55.540">  1  3  2 -1</clus>
</clustering>
</event>
<event>
 6    0  0.6207838E+002  0.1644569E+03  0.7546771E-02  0.1183755E+00
         21   -1    0    0  504  501  0.00000000000E+00  0.00000000000E+00  0.60793525471E+02  0.60793525471E+02  0.00000000000E+00 0.  1.
         21   -1    0    0  503  502 -0.00000000000E+00 -0.00000000000E+00 -0.11691149504E+04  0.11691149504E+04  0.00000000000E+00 0.  1.
         21    1    1    2  503  506  0.78260811468E+02  0.71886291316E+02 -0.25091135591E+03  0.27248651713E+03  0.00000000000E+00 0. -1.
         21    1    1    2  504  505 -0.14664034961E+03 -0.47339010309E+02 -0.87475531982E+02  0.17719013158E+03  0.00000000000E+00 0.  1.
         21    1    1    2  505  502  0.80141362997E+01 -0.48625436997E+02 -0.50679337799E+03  0.50918384448E+03  0.00000000000E+00 0. -1.
         21    1    1    2  506  501  0.60365401847E+02  0.24078155990E+02 -0.26314115901E+03  0.27104798266E+03  0.00000000000E+00 0.  1.
<scales pt_clust_3="41.03547" pt_clust_4="155.86122" pt_clust_5="49.28143" pt_clust_6="41.03547"></scales>
<clustering>
<clus scale="   41.035">  3  6 -1 -1</clus>
<clus scale="   49.281">  2  5  1 -1</clus>
<clus scale="  155.861">  1  4  2 -1</clus>
<clus scale="  155.861">  1  3  2 -1</clus>
</clustering>
</event>
<event>
 6    0  0.6207838E+002  0.6894638E+02  0.7546771E-02  0.1363713E+00
         21   -1    0    0  505  501  0.00000000000E+00  0.00000000000E+00  0.44327172248E+03  0.44327172248E+03  0.00000000000E+00 0.  1.
         21   -1    0    0  504  502 -0.00000000000E+00 -0.00000000000E+00 -0.13118491495E+03  0.13118491495E+03  0.00000000000E+00 0.  1.
         21    1    1    2  503  501 -0.49674070714E+02  0.31636309537E+02  0.35985199223E+03  0.36463930904E+03  0.00000000000E+00 0.  1.
         21    1    1    2  504  503 -0.62656175782E+02 -0.86985562919E+01 -0.97773348836E-01  0.63257179868E+02  0.00000000000E+00 0. -1.
         21    1    1    2  505  506  0.42201923231E+02 -0.42056370812E+02  0.10370404274E+00  0.59579790238E+02  0.00000000000E+00 0.  1.
         21    1    1    2  506  502  0.70128323266E+02  0.19118617567E+02 -0.47771115400E+02  0.86980358290E+02  0.00000000000E+00 0.  1.
<scales pt_clust_3="58.89286" pt_clust_4="14000.00000" pt_clust_5="38.67813" pt_clust_6="68.94638"></scales>
<clustering>
<clus scale="   58.893">  1  3  2 -1</clus>
<clus scale="   38.678">  1  5  2 -1</clus>
<clus scale="   68.946">  2  6  1 -1</clus>
<clus scale="   58.893">  1  3  2 -1</clus>
</clustering>
</event>
<event>
 6    0  0.6207838E+002  0.1051880E+03  0.7546771E-02  0.1269750E+00
         21   -1    0    0  503  501  0.00000000000E+00  0.00000000000E+00  0.32737286394E+03  0.32737286394E+03  0.00000000000E+00 0. -1.
         21   -1    0    0  505  502 -0.00000000000E+00 -0.00000000000E+00 -0.10451973511E+04  0.10451973511E+04  0.00000000000E+00 0.  1.
         21    1    1    2  503  504 -0.46936415244E+02 -0.94997328150E+02  0.30630173756E+03  0.32411151455E+03  0.00000000000E+00 0. -1.
         21    1    1    2  504  506 -0.43825156447E+02  0.64908005588E+02 -0.20389750675E+03  0.21842135149E+03  0.00000000000E+00 0. -1.
         21    1    1    2  505  501  0.68123083925E+02  0.10249908922E+02 -0.75569427308E+03  0.75882781285E+03  0.00000000000E+00 0.  1.
         21    1    1    2  506  502  0.22638487766E+02  0.19839413639E+02 -0.64534444930E+02  0.71209536189E+02  0.00000000000E+00 0.  1.
<scales pt_clust_3="105.18804" pt_clust_4="79.39601" pt_clust_5="14000.00000" pt_clust_6="30.10155"></scales>
<clustering>
<clus scale="   30.102">  2  6  1 -1</clus>
<clus scale="   79.396">  2  4  1 -1</clus>
<clus scale="  105.188">  1  3  2 -1</clus>
<clus scale="  105.188">  1  3  2 -1</clus>
</clustering>
</event>
<event>
 6    0  0.6207838E+002  0.1176845E+03  0.7546771E-02  0.1246967E+00
         21   -1    0    0  503  501  0.00000000000E+00  0.00000000000E+00  0.92682927713E+02  0.92682927713E+02  0.00000000000E+00 0. -1.
         21   -1    0    0  504  502 -0.00000000000E+00 -0.00000000000E+00 -0.23426388337E+03  0.23426388337E+03  0.00000000000E+00 0. -1.
         21    1    1    2  503  506 -0.38124586581E+02 -0.44453992501E+02 -0.19671508432E+02  0.61778716361E+02  0.00000000000E+00 0. -1.
         21    1    1    2  504  501 -0.41549483540E+01  0.10234576304E+03 -0.76775386661E+02  0.12800929187E+03  0.00000000000E+00 0. -1.
         21    1    1    2  505  502  0.54645775248E+02  0.12310220212E+02 -0.32513031389E+02  0.64767271706E+02  0.00000000000E+00 0. -1.
         21    1    1    2  506  505 -0.12366240313E+02 -0.70201990750E+02 -0.12621029177E+02  0.72391531150E+02  0.00000000000E+00 0. -1.
<scales pt_clust_3="32.21902" pt_clust_4="112.18784" pt_clust_5="56.01520" pt_clust_6="32.21902"></scales>
<clustering>
<clus scale="   32.219">  3  6 -1 -1</clus>
<clus scale="   56.015">  2  5  1 -1</clus>
<clus scale="  112.188">  2  4  1 -1</clus>
<clus scale="  117.684">  1  3  2 -1</clus>
</clustering>
</event>
<event>
 6    0  0.6207838E+002  0.9511805E+02  0.7546771E-02  0.1290910E+00
         21   -1    0    0  503  501  0.00000000000E+00  0.00000000000E+00  0.91806469839E+03  0.91806469839E+03  0.00000000000E+00 0.  1.
         21   -1    0    0  506  502 -0.00000000000E+00 -0.00000000000E+00 -0.12176529458E+03  0.12176529458E+03  0.00000000000E+00 0.  1.
         21    1    1    2  503  504 -0.16620876641E+02  0.83330836505E+02  0.46903408431E+03  0.47666891455E+03  0.00000000000E+00 0.  1.
         21    1    1    2  504  505 -0.66717607027E+02  0.14373520303E+02  0.28457828280E+03  0.29264763149E+03  0.00000000000E+00 0.  1.
         21    1    1    2  505  502  0.83169834027E+02 -0.50688583305E+02 -0.88224075650E+02  0.13141552912E+03  0.00000000000E+00 0.  1.
         21    1    1    2  506  501  0.16864964073E+00 -0.47015773502E+02  0.13091111235E+03  0.13909791780E+03  0.00000000000E+00 0. -1.
<scales pt_clust_3="57.37001" pt_clust_4="14000.00000" pt_clust_5="95.11805" pt_clust_6="47.01608"></scales>
<clustering>
<clus scale="   47.016">  1  6  2 -1</clus>
<clus scale="   57.370">  1  3  2 -1</clus>
<clus scale="   95.118">  2  5  1 -1</clus>
<clus scale="   47.016">  1  3  2 -1</clus>
</clustering>
</event>
<event>
 6    0  0.6207838E+002  0.1361815E+03  0.7546771E-02  0.1218561E+00
         21   -1    0    0  505  501  0.00000000000E+00  0.00000000000E+00  0.19977213540E+03  0.19977213540E+03  0.00000000000E+00 0. -1.
         21   -1    0    0  506  502 -0.00000000000E+00 -0.00000000000E+00 -0.44343293308E+03  0.44343293308E+03  0.00000000000E+00 0.  1.
         21    1    1    2  503  504  0.31261441488E+02 -0.14039721306E+02  0.66551136779E+01  0.34909626700E+02  0.00000000000E+00 0. -1.
         21    1    1    2  504  501  0.16914574599E+02  0.24879346992E+02  0.62588567619E+01  0.30728781762E+02  0.00000000000E+00 0.  1.
         21    1    1    2  505  502 -0.10767126222E+03  0.11064055986E+03  0.10819631405E+03  0.18852288075E+03  0.00000000000E+00 0. -1.
         21    1    1    2  506  503  0.59495246129E+02 -0.12148018554E+03 -0.36477108217E+03  0.38904377926E+03  0.00000000000E+00 0.  1.
<scales pt_clust_3="35.03482" pt_clust_4="30.08463" pt_clust_5="14000.00000" pt_clust_6="136.18147"></scales>
<clustering>
<clus scale="   30.085">  1  4  2 -1</clus>
<clus scale="   35.035">  1  3  2 -1</clus>
<clus scale="  136.181">  2  6  1 -1</clus>
<clus scale="   30.085">  1  3  2 -1</clus>
</clustering>
</event>
<event>
 6    0  0.6207838E+002  0.1997970E+03  0.7546771E-02  0.1149910E+00
         21   -1    0    0  505  501  0.00000000000E+00  0.00000000000E+00  0.88818493424E+02  0.88818493424E+02  0.00000000000E+00 0. -1.
         21   -1    0    0  506  502 -0.00000000000E+00 -0.00000000000E+00 -0.11317256218E+04  0.11317256218E+04  0.00000000000E+00 0.  1.
         21    1    1    2  503  504 -0.10674584234E+03  0.14512577214E+03 -0.97474591964E+02  0.20483520370E+03  0.00000000000E+00 0. -1.
         21    1    1    2  504  501 -0.45249175888E+02 -0.99168152066E+01 -0.17946553788E+02  0.49678062918E+02  0.00000000000E+00 0. -1.
         21    1    1    2  505  502  0.12944738840E+03 -0.17715297692E+03 -0.81179088380E+03  0.84091868966E+03  0.00000000000E+00 0.  1.
         21    1    1    2  506  503  0.22547629833E+02  0.41944019987E+02 -0.11569509880E+03  0.12511215892E+03  0.00000000000E+00 0.  1.
<scales pt_clust_3="199.79699" pt_clust_4="46.32312" pt_clust_5="14000.00000" pt_clust_6="45.73011"></scales>
<clustering>
<clus scale="   46.323">  1  4  2 -1</clus>
<clus scale="   45.730">  2  6  1 -1</clus>
<clus scale="  199.797">  1  3  2 -1</clus>
<clus scale="   46.323">  1  3  2 -1</clus>
</clustering>
</event>
<event>
 6    0  0.6207838E+002  0.1503599E+03  0.7546771E-02  0.1200031E+00
         21   -1    0    0  503  501  0.00000000000E+00  0.00000000000E+00  0.39923286451E+03  0.39923286451E+03  0.00000000000E+00 0. -1.
         21   -1    0    0  506  502 -0.00000000000E+00 -0.00000000000E+00 -0.28048771706E+03  0.28048771706E+03  0.00000000000E+00 0. -1.
         21    1    1    2  503  504 -0.94956126593E+02  0.75536439428E+02 -0.38730268813E+02  0.12736739528E+03  0.00000000000E+00 0. -1.
         21    1    1    2  504  502 -0.46124380123E+02  0.56852049353E+02 -0.14664475729E+03  0.16390332150E+03  0.00000000000E+00 0. -1.
         21    1    1    2  505  501  0.11364878759E+03 -0.10821631167E+03  0.31360470264E+03  0.35067752501E+03  0.00000000000E+00 0. -1.
         21    1    1    2  506  505  0.27431719128E+02 -0.24172177112E+02 -0.94845290794E+01  0.37772339781E+02  0.00000000000E+00 0. -1.
<scales pt_clust_3="150.35992" pt_clust_4="51.54515" pt_clust_5="14000.00000" pt_clust_6="36.56218"></scales>
<clustering>
<clus scale="   36.562">  2  6  1 -1</clus>
<clus scale="   51.545">  2  4  1 -1</clus>
<clus scale="  150.360">  2  3  1 -1</clus>
<clus scale="  150.360">  1  3  2 -1</clus>
</clustering>
</event>
<event>
 6    0  0.6207838E+002  0.9405002E+02  0.7546771E-02  0.1293330E+00
         21   -1    0    0  503  501  0.00000000000E+00  0.00000000000E+00  0.11687568022E+04  0.11687568022E+04  0.00000000000E+00 0. -1.
         21   -1    0    0  506  502 -0.00000000000E+00 -0.00000000000E+00 -0.14477903987E+04  0.14477903987E+04  0.00000000000E+00 0.  1.
         21    1    1    2  503  505 -0.43859241153E+02  0.30599154520E+02  0.60448937038E+03  0.60685034415E+03  0.00000000000E+00 0. -1.
         21    1    1    2  504  502  0.79138271586E+02 -0.51339872554E+02 -0.14027552598E+04  0.14059235283E+04  0.00000000000E+00 0.  1.
         21    1    1    2  505  504 -0.46396371833E+02 -0.66679211688E+02  0.50855842545E+03  0.51500525501E+03  0.00000000000E+00 0. -1.
         21    1    1    2  506  501  0.11117341399E+02  0.87419929722E+02  0.10673867496E+02  0.88768073313E+02  0.00000000000E+00 0. -1.
<scales pt_clust_3="53.47842" pt_clust_4="94.05002" pt_clust_5="14000.00000" pt_clust_6="90.41257"></scales>
<clustering>
<clus scale="   53.478">  1  3  2 -1</clus>
<clus scale="   90.413">  1  6  2 -1</clus>
<clus scale="   94.050">  2  4  1 -1</clus>
<clus scale="   53.478">  1  3  2 -1</clus>
</clustering>
</event>
<event>
 6    0  0.6207838E+002  0.7773873E+02  0.7546771E-02  0.1335594E+00
         21   -1    0    0  505  501  0.00000000000E+00  0.00000000000E+00  0.69659074478E+02  0.69659074478E+02  0.00000000000E+00 0.  1.
         21   -1    0    0  504  502 -0.00000000000E+00 -0.00000000000E+00 -0.19642417769E+04  0.19642417769E+04  0.00000000000E+00 0. -1.
         21    1    1    2  503  501 -0.29698031698E+02 -0.63723331374E+02 -0.46411553328E+03  0.46941012375E+03  0.00000000000E+00 0.  1.
         21    1    1    2  504  503  0.58891416648E+02 -0.34528866096E+02 -0.54664821245E+03  0.55089446333E+03  0.00000000000E+00 0. -1.
         21    1    1    2  505  506 -0.62252246578E+02 -0.44984890906E+02  0.34061450127E+02  0.84018837165E+02  0.00000000000E+00 0.  1.
         21    1    1    2  506  502  0.33058861629E+02  0.14323708838E+03 -0.91788040686E+03  0.92957742717E+03  0.00000000000E+00 0.  1.
<scales pt_clust_3="75.80948" pt_clust_4="68.26743" pt_clust_5="77.73873" pt_clust_6="14000.00000"></scales>
<clustering>
<clus scale="   68.267">  2  4  1 -1</clus>
<clus scale="   75.809">  2  3  1 -1</clus>
<clus scale="   77.739">  1  5  2 -1</clus>
<clus scale="   77.739">  1  3  2 -1</clus>
</clustering>
</event>
<event>
 6    0  0.6207838E+002  0.1043448E+03  0.7546771E-02  0.1271416E+00
         21   -1    0    0  506  501  0.00000000000E+00  0.00000000000E+00  0.27526526059E+02  0.27526526059E+02  0.00000000000E+00 0.  1.
         21   -1    0    0  505  502 -0.00000000000E+00 -0.00000000000E+00 -0.10297664760E+04  0.10297664760E+04  0.00000000000E+00 0. -1.
         21    1    1    2  503  501 -0.29252967642E+02 -0.97750055680E+02 -0.40707928199E+03  0.41967171852E+03  0.00000000000E+00 0. -1.
         21    1    1    2  504  502  0.43585563336E+02  0.89717387768E+02 -0.22350184041E+03  0.24474881749E+03  0.00000000000E+00 0.  1.
         21    1    1    2  505  503 -0.14041672312E+02 -0.27831592796E+02 -0.34912857003E+03  0.35051750959E+03  0.00000000000E+00 0. -1.
         21    1    1    2  506  504 -0.29092338181E+00  0.35864260709E+02 -0.22530257518E+02  0.42354956457E+02  0.00000000000E+00 0.  1.
<scales pt_clust_3="104.34479" pt_clust_4="14000.00000" pt_clust_5="31.17316" pt_clust_6="34.54968"></scales>
<clustering>
<clus scale="   31.173">  2  5  1 -1</clus>
<clus scale="   34.550">  1  6  2 -1</clus>
<clus scale="  104.345">  1  3  2 -1</clus>
<clus scale="   34.550">  1  3  2 -1</clus>
</clustering>
</event>
<event>
 6    0  0.6207838E+002  0.1744722E+03  0.7546771E-02  0.1173263E+00
         21   -1    0    0  503  501  0.00000000000E+00  0.00000000000E+00  0.48761001329E+02  0.48761001329E+02  0.00000000000E+00 0. -1.
         21   -1    0    0  506  502 -0.00000000000E+00 -0.00000000000E+00 -0.99337926992E+03  0.99337926992E+03  0.00000000000E+00 0. -1.
         21    1    1    2  503  502  0.21026270891E+02  0.15449075253E+03 -0.23513778784E+03  0.28213343644E+03  0.00000000000E+00 0. -1.
         21    1    1    2  504  505 -0.20813922645E+02 -0.13132755863E+03 -0.49374972149E+03  0.51134033139E+03  0.00000000000E+00 0. -1.
         21    1    1    2  505  501 -0.28621769660E+02  0.90881971626E+01 -0.13932981920E+01  0.30062307063E+02  0.00000000000E+00 0. -1.
         21    1    1    2  506  504  0.28409421414E+02 -0.32251391060E+02 -0.21433746107E+03  0.21860419636E+03  0.00000000000E+00 0. -1.
<scales pt_clust_3="160.70082" pt_clust_4="38.04121" pt_clust_5="30.03000" pt_clust_6="38.04121"></scales>
<clustering>
<clus scale="   30.030">  1  5  2 -1</clus>
<clus scale="   38.041">  4  6 -1 -1</clus>
<clus scale="  160.701">  1  3  2 -1</clus>
<clus scale="   30.030">  1  3  2 -1</clus>
</clustering>
</event>
<event>
 6    0  0.6207838E+002  0.1808986E+03  0.7546771E-02  0.1166936E+00
         21   -1    0    0  504  501  0.00000000000E+00  0.00000000000E+00  0.15061194475E+03  0.15061194475E+03  0.00000000000E+00 0.  1.
         21   -1    0    0  506  502 -0.00000000000E+00 -0.00000000000E+00 -0.20846306700E+04  0.20846306700E+04  0.00000000000E+00 0.  1.
         21    1    1    2  503  501  0.27009917062E+02  0.17545617657E+02 -0.54485386983E+02  0.63293299119E+02  0.00000000000E+00 0.  1.
         21    1    1    2  504  505  0.75059512207E+02 -0.16225497391E+03  0.72412055010E+02  0.19288367646E+03  0.00000000000E+00 0.  1.
         21    1    1    2  505  502 -0.11624711482E+03  0.21120030926E+03 -0.17363200084E+04  0.17529763643E+04  0.00000000000E+00 0.  1.
         21    1    1    2  506  503  0.14177685553E+02 -0.66490953001E+02 -0.21562538482E+03  0.22608927479E+03  0.00000000000E+00 0.  1.
<scales pt_clust_3="32.20845" pt_clust_4="180.89864" pt_clust_5="14000.00000" pt_clust_6="67.58176"></scales>
<clustering>
<clus scale="   32.208">  1  3  2 -1</clus>
<clus scale="   67.582">  2  6  1 -1</clus>
<clus scale="  180.899">  1  4  2 -1</clus>
<clus scale="   32.208">  1  3  2 -1</clus>
</clustering>
</event>
<event>
 6    0  0.6207838E+002  0.1191118E+03  0.7546771E-02  0.1244569E+00
         21   -1    0    0  506  501  0.00000000000E+00  0.00000000000E+00  0.94023929711E+03  0.94023929711E+03  0.00000000000E+00 0. -1.
         21   -1    0    0  504  502 -0.00000000000E+00 -0.00000000000E+00 -0.31733395596E+02  0.31733395596E+02  0.00000000000E+00 0. -1.
         21    1    1    2  503  501 -0.24626080625E+02 -0.22321138614E+02  0.96866433672E+02  0.10240987769E+03  0.00000000000E+00 0. -1.
         21    1    1    2  504  503 -0.10393086897E+03  0.13084905646E+02  0.10075742939E+03  0.14534407404E+03  0.00000000000E+00 0. -1.
         21    1    1    2  505  502  0.77897356140E+02  0.16572057588E+02  0.30935003555E+03  0.31943712320E+03  0.00000000000E+00 0. -1.
         21    1    1    2  506  505  0.50659593459E+02 -0.73358246203E+01  0.40153200290E+03  0.40478161777E+03  0.00000000000E+00 0. -1.
<scales pt_clust_3="33.23668" pt_clust_4="107.98295" pt_clust_5="39.55845" pt_clust_6="39.55845"></scales>
<clustering>
<clus scale="   33.237">  1  3  2 -1</clus>
<clus scale="   39.558">  5  6 -1 -1</clus>
<clus scale="  107.983">  2  4  1 -1</clus>
<clus scale="   33.237">  1  3  2 -1</clus>
</clustering>
</event>
<event>
 6    0  0.6207838E+002  0.1688523E+03  0.7546771E-02  0.1179050E+00
         21   -1    0    0  502  501  0.00000000000E+00  0.00000000000E+00  0.28823966211E+03  0.28823966211E+03  0.00000000000E+00 0.  1.
         21   -1    0    0  506  502 -0.00000000000E+00 -0.00000000000E+00 -0.13965008455E+04  0.13965008455E+04  0.00000000000E+00 0. -1.
         21    1    1    2  503  504  0.74212871397E+02 -0.58005698476E+02 -0.14405436185E+03  0.17211586361E+03  0.00000000000E+00 0.  1.
         21    1    1    2  504  505  0.15480536448E+03 -0.52445120064E+02 -0.65827619212E+03  0.67826450342E+03  0.00000000000E+00 0.  1.
         21    1    1    2  505  501 -0.14323239782E+03  0.90171620856E+02  0.23315746250E+03  0.28811255320E+03  0.00000000000E+00 0.  1.
         21    1    1    2  506  503 -0.85785838058E+02  0.20279197685E+02 -0.53908809191E+03  0.54624758737E+03  0.00000000000E+00 0. -1.
<scales pt_clust_3="79.65894" pt_clust_4="14000.00000" pt_clust_5="168.85230" pt_clust_6="88.15019"></scales>
<clustering>
<clus scale="   88.150">  2  6  1 -1</clus>
<clus scale="   79.659">  2  3  1 -1</clus>
<clus scale="  168.852">  1  5  2 -1</clus>
<clus scale="  168.852">  1  3  2 -1</clus>
</clustering>
</event>
<event>
 6    0  0.6207838E+002  0.1622954E+03  0.7546771E-02  0.1186129E+00
         21   -1    0    0  503  501  0.00000000000E+00  0.00000000000E+00  0.62615751962E+03  0.62615751962E+03  0.00000000000E+00 0. -1.
         21   -1    0    0  504  502 -0.00000000000E+00 -0.00000000000E+00 -0.11511303416E+04  0.11511303416E+04  0.00000000000E+00 0.  1.
         21    1    1    2  503  505 -0.16864466461E+03  0.12365393161E+02 -0.68424382293E+03  0.70482872747E+03  0.00000000000E+00 0.  1.
         21    1    1    2  504  506  0.98738912181E+02  0.80421830419E+02  0.49015599981E+03  0.50642862057E+03  0.00000000000E+00 0. -1.
         21    1    1    2  505  502  0.66668037148E+01 -0.33698530470E+02 -0.43175493100E+03  0.43311933421E+03  0.00000000000E+00 0.  1.
         21    1    1    2  506  501  0.63238948714E+02 -0.59088693110E+02  0.10086993213E+03  0.13291117897E+03  0.00000000000E+00 0. -1.
<scales pt_clust_3="162.29538" pt_clust_4="14000.00000" pt_clust_5="34.35167" pt_clust_6="87.17106"></scales>
<clustering>
<clus scale="   34.352">  2  5  1 -1</clus>
<clus scale="   87.171">  1  6  2 -1</clus>
<clus scale="  162.295">  2  3  1 -1</clus>
<clus scale="   87.171">  1  3  2 -1</clus>
</clustering>
</event>
<event>
 6    0  0.6207838E+002  0.1433004E+03  0.7546771E-02  0.1208956E+00
         21   -1    0    0  504  501  0.00000000000E+00  0.00000000000E+00  0.30138933791E+03  0.30138933791E+03  0.00000000000E+00 0. -1.
         21   -1    0    0  503  502 -0.00000000000E+00 -0.00000000000E+00 -0.22758874537E+03  0.22758874537E+03  0.00000000000E+00 0. -1.
         21    1    1    2  503  506 -0.14237966569E+03 -0.81237245673E+01 -0.25428103656E+00  0.14261146083E+03  0.00000000000E+00 0. -1.
         21    1    1    2  504  505  0.14939899438E+03 -0.13429999876E+01  0.97960279696E+02  0.17865631690E+03  0.00000000000E+00 0. -1.
         21    1    1    2  505  502  0.77230738394E+01  0.64413155936E+02 -0.96004990419E+02  0.11586914478E+03  0.00000000000E+00 0. -1.
         21    1    1    2  506  501 -0.14742402529E+02 -0.54946431381E+02  0.72099584303E+02  0.91841160764E+02  0.00000000000E+00 0. -1.
<scales pt_clust_3="14000.00000" pt_clust_4="143.30036" pt_clust_5="62.32665" pt_clust_6="56.88979"></scales>
<clustering>
<clus scale="   56.890">  1  6  2 -1</clus>
<clus scale="   62.327">  2  5  1 -1</clus>
<clus scale="  143.300">  1  4  2 -1</clus>
<clus scale="   56.890">  1  3  2 -1</clus>
</clustering>
</event>
<event>
 6    0  0.6207838E+002  0.1249402E+03  0.7546771E-02  0.1235163E+00
         21   -1    0    0  504  501  0.00000000000E+00  0.00000000000E+00  0.72832759826E+03  0.72832759826E+03  0.00000000000E+00 0.  1.
         21   -1    0    0  506  502 -0.00000000000E+00 -0.00000000000E+00 -0.28259016311E+02  0.28259016311E+02  0.00000000000E+00 0.  1.
         21    1    1    2  503  505  0.91419505403E+00  0.69911711289E+02  0.12165340739E+03  0.14031405724E+03  0.00000000000E+00 0.  1.
         21    1    1    2  504  503  0.27820895235E+01  0.54822534045E+02  0.18662808292E+03  0.19453352306E+03  0.00000000000E+00 0.  1.
         21    1    1    2  505  502 -0.29488649238E+02 -0.11542002146E+02  0.38411191148E+02  0.49781701988E+02  0.00000000000E+00 0.  1.
         21    1    1    2  506  501  0.25792364660E+02 -0.11319224319E+03  0.35337590049E+03  0.37195733228E+03  0.00000000000E+00 0.  1.
<scales pt_clust_3="34.78162" pt_clust_4="34.78162" pt_clust_5="31.66699" pt_clust_6="118.73051"></scales>
<clustering>
<clus scale="   31.667">  2  5  1 -1</clus>
<clus scale="   34.782">  3  4 -1 -1</clus>
<clus scale="  118.731">  1  6  2 -1</clus>
<clus scale="  118.731">  1  3  2 -1</clus>
</clustering>
</event>
<event>
 6    0  0.6207838E+002  0.9493772E+02  0.7546771E-02  0.1291316E+00
         21   -1    0    0  503  501  0.00000000000E+00  0.00000000000E+00  0.36374386797E+03  0.36374386797E+03  0.00000000000E+00 0.  1.
         21   -1    0    0  501  502 -0.00000000000E+00 -0.00000000000E+00 -0.17991731221E+03  0.17991731221E+03  0.00000000000E+00 0.  1.
         21    1    1    2  503  504 -0.83950928576E+02 -0.31622857649E+02  0.17763304534E+03  0.19900065913E+03  0.00000000000E+00 0.  1.
         21    1    1    2  504  505  0.10554612849E+03  0.21790433957E+02  0.94281637814E+02  0.14319160409E+03  0.00000000000E+00 0.  1.
         21    1    1    2  505  506  0.50579694896E+01  0.40634590447E+02  0.45850347490E+02  0.61473631430E+02  0.00000000000E+00 0.  1.
         21    1    1    2  506  502 -0.26653169407E+02 -0.30802166755E+02 -0.13393847489E+03  0.13999528553E+03  0.00000000000E+00 0.  1.
<scales pt_clust_3="14000.00000" pt_clust_4="94.93772" pt_clust_5="35.03306" pt_clust_6="40.73285"></scales>
<clustering>
<clus scale="   40.733">  2  6  1 -1</clus>
<clus scale="   35.033">  2  5  1 -1</clus>
<clus scale="   94.938">  2  4  1 -1</clus>
<clus scale="   94.938">  1  3  2 -1</clus>
</clustering>
</event>
<event>
 6    0  0.6207838E+002  0.2901433E+03  0.7546771E-02  0.1090274E+00
         21   -1    0    0  506  501  0.00000000000E+00  0.00000000000E+00  0.18167114661E+03  0.18167114661E+03  0.00000000000E+00 0.  1.
         21   -1    0    0  503  502 -0.00000000000E+00 -0.00000000000E+00 -0.18035465255E+04  0.18035465255E+04  0.00000000000E+00 0. -1.
         21    1    1    2  503  504 -0.22193479939E+02  0.70802954127E+02 -0.23996726335E+03  0.25117702192E+03  0.00000000000E+00 0. -1.
         21    1    1    2  504  501  0.29754606439E+03  0.62357904087E+02 -0.12266727299E+04  0.12637832706E+04  0.00000000000E+00 0. -1.
         21    1    1    2  505  502 -0.38606065430E+01 -0.34242750415E+02 -0.17715573331E+03  0.18047610391E+03  0.00000000000E+00 0. -1.
         21    1    1    2  506  505 -0.27149197791E+03 -0.98918107798E+02  0.21920347660E+02  0.28978127573E+03  0.00000000000E+00 0.  1.
<scales pt_clust_3="69.46749" pt_clust_4="14000.00000" pt_clust_5="34.45969" pt_clust_6="290.14327"></scales>
<clustering>
<clus scale="   34.460">  2  5  1 -1</clus>
<clus scale="   69.467">  2  3  1 -1</clus>
<clus scale="  290.143">  1  6  2 -1</clus>
<clus scale="  290.143">  1  3  2 -1</clus>
</clustering>
</event>
<event>
 6    0  0.6207838E+002  0.1049150E+03  0.7546771E-02  0.1270287E+00
         21   -1    0    0  503  501  0.00000000000E+00  0.00000000000E+00  0.14062696344E+03  0.14062696344E+03  0.00000000000E+00 0. -1.
         21   -1    0    0  506  502 -0.00000000000E+00 -0.00000000000E+00 -0.93316463604E+03  0.93316463604E+03  0.00000000000E+00 0. -1.
         21    1    1    2  503  504  0.55429580080E+02  0.17097073281E+02  0.74233150756E+02  0.94208858043E+02  0.00000000000E+00 0. -1.
         21    1    1    2  504  505 -0.52553522204E+02  0.50864021432E+02  0.16621933481E+02  0.75002066938E+02  0.00000000000E+00 0. -1.
         21    1    1    2  505  502 -0.25256233491E+02  0.22084211598E+02 -0.26698660815E+02  0.42876662899E+02  0.00000000000E+00 0.  1.
         21    1    1    2  506  501  0.22380175615E+02 -0.90045306311E+02 -0.85669409602E+03  0.86170401160E+03  0.00000000000E+00 0. -1.
<scales pt_clust_3="58.00645" pt_clust_4="33.30498" pt_clust_5="33.30498" pt_clust_6="92.67745"></scales>
<clustering>
<clus scale="   33.305">  4  5 -1 -1</clus>
<clus scale="   58.006">  1  3  2 -1</clus>
<clus scale="   92.677">  2  6  1 -1</clus>
<clus scale="   58.006">  1  3  2 -1</clus>
</clustering>
</event>
<event>
 6    0  0.7202375E+002  0.1335840E+03  0.7546771E-02  0.1222233E+00
         21   -1    0    0  506  501  0.00000000000E+00  0.00000000000E+00  0.10497294301E+04  0.10497294301E+04  0.00000000000E+00 0.  1.
         21   -1    0    0  503  502 -0.00000000000E+00 -0.00000000000E+00 -0.42570022560E+03  0.42570022560E+03  0.00000000000E+00 0.  1.
         21    1    1    2  503  504  0.31032317254E+02  0.12985253659E+03 -0.38516175745E+03  0.40764477843E+03  0.00000000000E+00 0.  1.
         21    1    1    2  504  501  0.17218502104E+02 -0.14729750939E+03  0.86434485380E+03  0.87697494797E+03  0.00000000000E+00 0.  1.
         21    1    1    2  505  502 -0.20356639074E+02  0.61783099567E+02  0.48486393518E+02  0.81132450368E+02  0.00000000000E+00 0.  1.
         21    1    1    2  506  505 -0.27894180284E+02 -0.44338126762E+02  0.96359714613E+02  0.10967747890E+03  0.00000000000E+00 0.  1.
<scales pt_clust_3="133.58402" pt_clust_4="14000.00000" pt_clust_5="62.82588" pt_clust_6="52.38277"></scales>
<clustering>
<clus scale="   52.383">  1  6  2 -1</clus>
<clus scale="   62.826">  1  5  2 -1</clus>
<clus scale="  133.584">  2  3  1 -1</clus>
<clus scale="   52.383">  1  3  2 -1</clus>
</clustering>
</event>
<event>
 6    0  0.6207838E+002  0.1027530E+03  0.7546771E-02  0.1274611E+00
         21   -1    0    0  504  501  0.00000000000E+00  0.00000000000E+00  0.10858150381E+04  0.10858150381E+04  0.00000000000E+00 0. -1.
         21   -1    0    0  503  502 -0.00000000000E+00 -0.00000000000E+00 -0.41780042322E+02  0.41780042322E+02  0.00000000000E+00 0. -1.
         21    1    1    2  503  505  0.96534903639E+02  0.51070100405E+02  0.60789856554E+02  0.12499019736E+03  0.00000000000E+00 0. -1.
         21    1    1    2  504  502  0.22213020416E+02 -0.41342496116E+02  0.44120323778E+03  0.44369236785E+03  0.00000000000E+00 0. -1.
         21    1    1    2  505  506 -0.94286469159E+02  0.20440838992E+02  0.35467297119E+03  0.36756044762E+03  0.00000000000E+00 0. -1.
         21    1    1    2  506  501 -0.24461454896E+02 -0.30168443280E+02  0.18736893027E+03  0.19135206760E+03  0.00000000000E+00 0. -1.
<scales pt_clust_3="102.75299" pt_clust_4="57.13915" pt_clust_5="14000.00000" pt_clust_6="38.83938"></scales>
<clustering>
<clus scale="   38.839">  1  6  2 -1</clus>
<clus scale="   57.139">  1  4  2 -1</clus>
<clus scale="  102.753">  2  3  1 -1</clus>
<clus scale="   38.839">  1  3  2 -1</clus>
</clustering>
</event>
<event>
 6    0  0.6207838E+002  0.1573331E+03  0.7546771E-02  0.1191741E+00
         21   -1    0    0  505  501  0.00000000000E+00  0.00000000000E+00  0.45789836827E+03  0.45789836827E+03  0.00000000000E+00 0. -1.
         21   -1    0    0  503  502 -0.00000000000E+00 -0.00000000000E+00 -0.18299290702E+03  0.18299290702E+03  0.00000000000E+00 0.  1.
         21    1    1    2  503  506  0.81628854227E+01 -0.56286593524E+02 -0.15368435338E+02  0.58915211225E+02  0.00000000000E+00 0.  1.
         21    1    1    2  504  502  0.13996036042E+03  0.41834925725E+02 -0.63724260445E+01  0.14621788985E+03  0.00000000000E+00 0.  1.
         21    1    1    2  505  504 -0.17240711663E+03 -0.41901233118E+02  0.53982665202E+02  0.18545634350E+03  0.00000000000E+00 0. -1.
         21    1    1    2  506  501  0.24283870789E+02  0.56352900917E+02  0.24266365743E+03  0.25030183071E+03  0.00000000000E+00 0. -1.
<scales pt_clust_3="56.87542" pt_clust_4="157.33314" pt_clust_5="14000.00000" pt_clust_6="60.09861"></scales>
<clustering>
<clus scale="   56.875">  2  3  1 -1</clus>
<clus scale="   60.099">  1  6  2 -1</clus>
<clus scale="  157.333">  2  4  1 -1</clus>
<clus scale="   60.099">  1  3  2 -1</clus>
</clustering>
</event>
<event>
 6    0  0.6207838E+002  0.1444879E+03  0.7546771E-02  0.1207415E+00
         21   -1    0    0  505  501  0.00000000000E+00  0.00000000000E+00  0.76335988030E+02  0.76335988030E+02  0.00000000000E+00 0. -1.
         21   -1    0    0  504  502 -0.00000000000E+00 -0.00000000000E+00 -0.72890658190E+03  0.72890658190E+03  0.00000000000E+00 0. -1.
         21    1    1    2  503  502  0.17249530917E+03  0.14893685662E+02 -0.33776603011E+03  0.37955545663E+03  0.00000000000E+00 0. -1.
         21    1    1    2  504  506 -0.35268687921E+02  0.82896404776E+02 -0.14259943539E+03  0.16867214722E+03  0.00000000000E+00 0.  1.
         21    1    1    2  505  503 -0.94763465537E+02 -0.93420151843E+02 -0.16771377185E+03  0.21409191586E+03  0.00000000000E+00 0. -1.
         21    1    1    2  506  501 -0.42463155714E+02 -0.43699385951E+01 -0.44913565130E+01  0.42923050216E+02  0.00000000000E+00 0. -1.
<scales pt_clust_3="14000.00000" pt_clust_4="93.42833" pt_clust_5="144.48791" pt_clust_6="42.68742"></scales>
<clustering>
<clus scale="   42.687">  1  6  2 -1</clus>
<clus scale="   93.428">  2  4  1 -1</clus>
<clus scale="  144.488">  1  5  2 -1</clus>
<clus scale="   42.687">  1  3  2 -1</clus>
</clustering>
</event>
<event>
 6    0  0.6207838E+002  0.1149287E+03  0.7546771E-02  0.1251706E+00
         21   -1    0    0  503  501  0.00000000000E+00  0.00000000000E+00  0.88042618538E+03  0.88042618538E+03  0.00000000000E+00 0. -1.
         21   -1    0    0  506  502 -0.00000000000E+00 -0.00000000000E+00 -0.85020919110E+02  0.85020919110E+02  0.00000000000E+00 0. -1.
         21    1    1    2  503  505  0.10007544636E+02  0.31101062143E+02  0.27345433254E+03  0.27539916303E+03  0.00000000000E+00 0. -1.
         21    1    1    2  504  502  0.67999931864E+02 -0.89864624127E+01 -0.38162130406E+02  0.78492645753E+02  0.00000000000E+00 0. -1.
         21    1    1    2  505  504  0.60997956733E+01 -0.11005541368E+03  0.16747214282E+03  0.20049019979E+03  0.00000000000E+00 0. -1.
         21    1    1    2  506  501 -0.84107272173E+02  0.87940813950E+02  0.39264092132E+03  0.41106509592E+03  0.00000000000E+00 0. -1.
<scales pt_clust_3="32.67150" pt_clust_4="68.79403" pt_clust_5="114.92867" pt_clust_6="14000.00000"></scales>
<clustering>
<clus scale="   32.672">  1  3  2 -1</clus>
<clus scale="   68.794">  2  4  1 -1</clus>
<clus scale="  114.929">  2  5  1 -1</clus>
<clus scale="   32.672">  1  3  2 -1</clus>
</clustering>
</event>
<event>
 6    0  0.6207838E+002  0.1135302E+03  0.7546771E-02  0.1254169E+00
         21   -1    0    0  505  501  0.00000000000E+00  0.00000000000E+00  0.51556438744E+03  0.51556438744E+03  0.00000000000E+00 0. -1.
         21   -1    0    0  506  502 -0.00000000000E+00 -0.00000000000E+00 -0.10187649816E+04  0.10187649816E+04  0.00000000000E+00 0.  1.
         21    1    1    2  503  502  0.61478775290E+02  0.27571314500E+02 -0.85306537405E+03  0.85572212171E+03  0.00000000000E+00 0.  1.
         21    1    1    2  504  501 -0.55166916229E+02  0.10830604894E+02  0.35316488362E+03  0.35761169678E+03  0.00000000000E+00 0. -1.
         21    1    1    2  505  503 -0.57313335359E+02  0.46794582742E+02  0.13309874451E+03  0.15228206452E+03  0.00000000000E+00 0. -1.
         21    1    1    2  506  504  0.51001476298E+02 -0.85196502135E+02 -0.13639884823E+03  0.16871348600E+03  0.00000000000E+00 0. -1.
<scales pt_clust_3="66.99801" pt_clust_4="56.22002" pt_clust_5="113.53019" pt_clust_6="14000.00000"></scales>
<clustering>
<clus scale="   56.220">  1  4  2 -1</clus>
<clus scale="   66.998">  2  3  1 -1</clus>
<clus scale="  113.530">  1  5  2 -1</clus>
<clus scale="   56.220">  1  3  2 -1</clus>
</clustering>
</event>
<event>
 6    0  0.6207838E+002  0.1497195E+03  0.7546771E-02  0.1200818E+00
         21   -1    0    0  504  501  0.00000000000E+00  0.00000000000E+00  0.17260397676E+04  0.17260397676E+04  0.00000000000E+00 0.  1.
         21   -1    0    0  505  502 -0.00000000000E+00 -0.00000000000E+00 -0.16981294891E+02  0.16981294891E+02  0.00000000000E+00 0.  1.
         21    1    1    2  503  502 -0.46468520644E+02  0.23153285435E+01  0.19764018925E+03  0.20304267670E+03  0.00000000000E+00 0.  1.
         21    1    1    2  504  503 -0.22625017137E+02  0.12922711281E+03  0.54027550977E+03  0.55597586687E+03  0.00000000000E+00 0.  1.
         21    1    1    2  505  506  0.33670873423E+02 -0.11058999589E+03  0.64556190884E+03  0.65583081130E+03  0.00000000000E+00 0.  1.
         21    1    1    2  506  501  0.35422664359E+02 -0.20952445465E+02  0.32558086488E+03  0.32817170764E+03  0.00000000000E+00 0.  1.
<scales pt_clust_3="46.52617" pt_clust_4="139.10642" pt_clust_5="33.03466" pt_clust_6="33.03466"></scales>
<clustering>
<clus scale="   33.035">  5  6 -1 -1</clus>
<clus scale="   46.526">  2  3  1 -1</clus>
<clus scale="  139.106">  2  4  1 -1</clus>
<clus scale="  149.720">  1  3  2 -1</clus>
</clustering>
</event>
<event>
 6    0  0.6207838E+002  0.1142308E+03  0.7546771E-02  0.1252930E+00
         21   -1    0    0  505  501  0.00000000000E+00  0.00000000000E+00  0.84477422396E+02  0.84477422396E+02  0.00000000000E+00 0. -1.
         21   -1    0    0  503  502 -0.00000000000E+00 -0.00000000000E+00 -0.27615822338E+04  0.27615822338E+04  0.00000000000E+00 0.  1.
         21    1    1    2  503  501 -0.33213870407E+02 -0.76551205701E+02 -0.15545629362E+03  0.17643669547E+03  0.00000000000E+00 0. -1.
         21    1    1    2  504  502 -0.21433914830E+02 -0.29126597633E+02 -0.14937367776E+04  0.14941744651E+04  0.00000000000E+00 0.  1.
         21    1    1    2  505  506  0.92927341998E+02  0.17911872261E+03 -0.69436745405E+02  0.21340213048E+03  0.00000000000E+00 0. -1.
         21    1    1    2  506  504 -0.38279556761E+02 -0.73440919273E+02 -0.95847499479E+03  0.96204636517E+03  0.00000000000E+00 0.  1.
<scales pt_clust_3="88.06720" pt_clust_4="36.16312" pt_clust_5="14000.00000" pt_clust_6="114.23081"></scales>
<clustering>
<clus scale="   36.163">  2  4  1 -1</clus>
<clus scale="   88.067">  1  3  2 -1</clus>
<clus scale="  114.231">  2  6  1 -1</clus>
<clus scale="   88.067">  1  3  2 -1</clus>
</clustering>
</event>
<event>
 6    0  0.6207838E+002  0.9699736E+02  0.7546771E-02  0.1286740E+00
         21   -1    0    0  505  501  0.00000000000E+00  0.00000000000E+00  0.14783625233E+03  0.14783625233E+03  0.00000000000E+00 0. -1.
         21   -1    0    0  503  502 -0.00000000000E+00 -0.00000000000E+00 -0.27850218387E+03  0.27850218387E+03  0.00000000000E+00 0. -1.
         21    1    1    2  503  504  0.46791094372E+01  0.49743966886E+02 -0.12860558528E+03  0.13797011587E+03  0.00000000000E+00 0. -1.
         21    1    1    2  504  501 -0.15343768910E+02  0.77205418289E+02 -0.78712046615E+02  0.11131798660E+03  0.00000000000E+00 0. -1.
         21    1    1    2  505  506 -0.13622134798E+02 -0.10129020098E+03  0.92943957440E+02  0.13814429628E+03  0.00000000000E+00 0. -1.
         21    1    1    2  506  502  0.24286794271E+02 -0.25659184197E+02 -0.16292257076E+02  0.38906037453E+02  0.00000000000E+00 0. -1.
<scales pt_clust_3="40.16516" pt_clust_4="96.99736" pt_clust_5="14000.00000" pt_clust_6="35.33047"></scales>
<clustering>
<clus scale="   35.330">  2  6  1 -1</clus>
<clus scale="   40.165">  2  3  1 -1</clus>
<clus scale="   96.997">  2  4  1 -1</clus>
<clus scale="   96.997">  1  3  2 -1</clus>
</clustering>
</event>
<event>
 6    0  0.6207838E+002  0.9507672E+02  0.7546771E-02  0.1291003E+00
         21   -1    0    0  503  501  0.00000000000E+00  0.00000000000E+00  0.47199151975E+03  0.47199151975E+03  0.00000000000E+00 0. -1.
         21   -1    0    0  505  502 -0.00000000000E+00 -0.00000000000E+00 -0.19845753985E+03  0.19845753985E+03  0.00000000000E+00 0.  1.
         21    1    1    2  503  506  0.69101821461E+01 -0.41990852943E+02  0.82338869242E+02  0.92685876681E+02  0.00000000000E+00 0. -1.
         21    1    1    2  504  502 -0.85391841710E+02  0.37689511579E+02 -0.14747224331E+03  0.17452887572E+03  0.00000000000E+00 0.  1.
         21    1    1    2  505  501  0.14712704246E+03  0.19330441708E+02  0.23783134040E+03  0.28032798482E+03  0.00000000000E+00 0. -1.
         21    1    1    2  506  504 -0.68645382895E+02 -0.15029100344E+02  0.10083601357E+03  0.12290632239E+03  0.00000000000E+00 0.  1.
<scales pt_clust_3="42.55564" pt_clust_4="95.07672" pt_clust_5="14000.00000" pt_clust_6="71.99023"></scales>
<clustering>
<clus scale="   42.556">  1  3  2 -1</clus>
<clus scale="   71.990">  1  6  2 -1</clus>
<clus scale="   95.077">  2  4  1 -1</clus>
<clus scale="   42.556">  1  3  2 -1</clus>
</clustering>
</event>
<event>
 6    0  0.6207838E+002  0.1005924E+03  0.7546771E-02  0.1279055E+00
         21   -1    0    0  505  501  0.00000000000E+00  0.00000000000E+00  0.52849676501E+03  0.52849676501E+03  0.00000000000E+00 0. -1.
         21   -1    0    0  503  502 -0.00000000000E+00 -0.00000000000E+00 -0.35227245034E+03  0.35227245034E+03  0.00000000000E+00 0. -1.
         21    1    1    2  503  506  0.19380195832E+01 -0.52892116498E+02 -0.31251188121E+03  0.31696215517E+03  0.00000000000E+00 0. -1.
         21    1    1    2  504  502 -0.15103696100E+02  0.14901224872E+03  0.16867523495E+03  0.22557505799E+03  0.00000000000E+00 0. -1.
         21    1    1    2  505  504  0.25331464671E+02 -0.66161788826E+02  0.26568780383E+03  0.27497104303E+03  0.00000000000E+00 0. -1.
         21    1    1    2  506  501 -0.12165788153E+02 -0.29958343394E+02  0.54373157112E+02  0.63260959166E+02  0.00000000000E+00 0. -1.
<scales pt_clust_3="53.06737" pt_clust_4="14000.00000" pt_clust_5="100.59235" pt_clust_6="32.33433"></scales>
<clustering>
<clus scale="   32.334">  1  6  2 -1</clus>
<clus scale="   53.067">  2  3  1 -1</clus>
<clus scale="  100.592">  1  5  2 -1</clus>
<clus scale="   32.334">  1  3  2 -1</clus>
</clustering>
</event>
<event>
 6    0  0.6207838E+002  0.2745185E+03  0.7546771E-02  0.1098721E+00
         21   -1    0    0  503  501  0.00000000000E+00  0.00000000000E+00  0.10549021282E+03  0.10549021282E+03  0.00000000000E+00 0.  1.
         21   -1    0    0  504  502 -0.00000000000E+00 -0.00000000000E+00 -0.95634932458E+03  0.95634932458E+03  0.00000000000E+00 0.  1.
         21    1    1    2  503  506  0.40173561435E+02  0.84038160266E+00 -0.33367011982E+02  0.52230056177E+02  0.00000000000E+00 0. -1.
         21    1    1    2  504  501  0.14470562011E+03  0.20564963879E+03 -0.58216814435E+03  0.63415395507E+03  0.00000000000E+00 0.  1.
         21    1    1    2  505  502 -0.53177292504E+02 -0.61650324152E+02 -0.12937031851E+03  0.15285701233E+03  0.00000000000E+00 0.  1.
         21    1    1    2  506  505 -0.13170188904E+03 -0.14483969624E+03 -0.10595363692E+03  0.22259851384E+03  0.00000000000E+00 0.  1.
<scales pt_clust_3="40.18235" pt_clust_4="258.04913" pt_clust_5="61.76126" pt_clust_6="61.76126"></scales>
<clustering>
<clus scale="   40.182">  1  3  2 -1</clus>
<clus scale="   61.761">  5  6 -1 -1</clus>
<clus scale="  258.049">  2  4  1 -1</clus>
<clus scale="   40.182">  1  3  2 -1</clus>
</clustering>
</event>
<event>
 6    0  0.6207838E+002  0.8215665E+02  0.7546771E-02  0.1323040E+00
         21   -1    0    0  506  501  0.00000000000E+00  0.00000000000E+00  0.12648893236E+04  0.12648893236E+04  0.00000000000E+00 0.  1.
         21   -1    0    0  504  502 -0.00000000000E+00 -0.00000000000E+00 -0.12481672364E+03  0.12481672364E+03  0.00000000000E+00 0.  1.
         21    1    1    2  503  505 -0.96007229926E+02  0.32775191278E+02  0.16461154005E+03  0.19336121762E+03  0.00000000000E+00 0.  1.
         21    1    1    2  504  503  0.13487721260E+01 -0.54378340339E+02 -0.98436172661E+02  0.11246556439E+03  0.00000000000E+00 0.  1.
         21    1    1    2  505  501  0.30058852576E+02  0.16410394777E+02  0.85260071839E+03  0.85328824009E+03  0.00000000000E+00 0.  1.
         21    1    1    2  506  502  0.64599605223E+02  0.51927542836E+01  0.22129651414E+03  0.23059102511E+03  0.00000000000E+00 0.  1.
<scales pt_clust_3="14000.00000" pt_clust_4="54.13089" pt_clust_5="34.24669" pt_clust_6="82.15665"></scales>
<clustering>
<clus scale="   34.247">  1  5  2 -1</clus>
<clus scale="   54.131">  2  4  1 -1</clus>
<clus scale="   82.157">  1  6  2 -1</clus>
<clus scale="   34.247">  1  3  2 -1</clus>
</clustering>
</event>
<event>
 6    0  0.6207838E+002  0.1641737E+03  0.7546771E-02  0.1184064E+00
         21   -1    0    0  506  501  0.00000000000E+00  0.00000000000E+00  0.71491610467E+02  0.71491610467E+02  0.00000000000E+00 0.  1.
         21   -1    0    0  501  502 -0.00000000000E+00 -0.00000000000E+00 -0.52147204313E+03  0.52147204313E+03  0.00000000000E+00 0.  1.
         21    1    1    2  503  505 -0.75546153207E+02  0.11306048954E+03 -0.11807340387E+03  0.18008671317E+03  0.00000000000E+00 0.  1.
         21    1    1    2  504  502  0.24664658300E+02 -0.61540390748E+02 -0.17128129249E+03  0.18366503809E+03  0.00000000000E+00 0.  1.
         21    1    1    2  505  504  0.29476699052E+00 -0.95899923408E+02 -0.87270389148E+02  0.12966496450E+03  0.00000000000E+00 0.  1.
         21    1    1    2  506  503  0.50586727917E+02  0.44379824614E+02 -0.73355347154E+02  0.99546937824E+02  0.00000000000E+00 0.  1.
<scales pt_clust_3="145.04039" pt_clust_4="63.95410" pt_clust_5="63.95410" pt_clust_6="67.29477"></scales>
<clustering>
<clus scale="   63.954">  4  5 -1 -1</clus>
<clus scale="   67.295">  1  6  2 -1</clus>
<clus scale="  145.040">  1  3  2 -1</clus>
<clus scale="   67.295">  1  3  2 -1</clus>
</clustering>
</event>
<event>
 6    0  0.6207838E+002  0.1733672E+03  0.7546771E-02  0.1174381E+00
         21   -1    0    0  506  501  0.00000000000E+00  0.00000000000E+00  0.26603644069E+03  0.26603644069E+03  0.00000000000E+00 0. -1.
         21   -1    0    0  505  502 -0.00000000000E+00 -0.00000000000E+00 -0.36084174795E+03  0.36084174795E+03  0.00000000000E+00 0. -1.
         21    1    1    2  503  504  0.11603964275E+03 -0.20219586145E+02  0.12623033244E+03  0.17265030316E+03  0.00000000000E+00 0. -1.
         21    1    1    2  504  501  0.36938191727E+02 -0.52925804719E+02  0.66642844836E+02  0.92773054176E+02  0.00000000000E+00 0. -1.
         21    1    1    2  505  503 -0.76861857832E+02  0.43634924322E+02 -0.26101688076E+03  0.27557496957E+03  0.00000000000E+00 0. -1.
         21    1    1    2  506  502 -0.76115976642E+02  0.29510466542E+02 -0.26661603779E+02  0.85879861736E+02  0.00000000000E+00 0. -1.
<scales pt_clust_3="49.63990" pt_clust_4="49.63990" pt_clust_5="159.87233" pt_clust_6="81.63645"></scales>
<clustering>
<clus scale="   49.640">  3  4 -1 -1</clus>
<clus scale="   81.636">  2  6  1 -1</clus>
<clus scale="  159.872">  2  5  1 -1</clus>
<clus scale="  173.367">  1  3  2 -1</clus>
</clustering>
</event>
<event>
 6    0  0.6207838E+002  0.1336234E+03  0.7546771E-02  0.1222176E+00
         21   -1    0    0  504  501  0.00000000000E+00  0.00000000000E+00  0.79736339351E+03  0.79736339351E+03  0.00000000000E+00 0. -1.
         21   -1    0    0  503  502 -0.00000000000E+00 -0.00000000000E+00 -0.83112651514E+03  0.83112651514E+03  0.00000000000E+00 0. -1.
         21    1    1    2  503  506 -0.84403174866E+02 -0.43781070166E+02 -0.52517438158E+03  0.53371229056E+03  0.00000000000E+00 0. -1.
         21    1    1    2  504  502  0.10479481672E+03  0.17209625277E+01 -0.10060406052E+03  0.14527935957E+03  0.00000000000E+00 0. -1.
         21    1    1    2  505  501 -0.93248651917E+01  0.87509412319E+02  0.76513028991E+03  0.77017479243E+03  0.00000000000E+00 0. -1.
         21    1    1    2  506  505 -0.11066776662E+02 -0.45449304681E+02 -0.17311496945E+03  0.17932346609E+03  0.00000000000E+00 0. -1.
<scales pt_clust_3="42.86825" pt_clust_4="118.82679" pt_clust_5="88.00483" pt_clust_6="42.86825"></scales>
<clustering>
<clus scale="   42.868">  3  6 -1 -1</clus>
<clus scale="   88.005">  1  5  2 -1</clus>
<clus scale="  118.827">  1  4  2 -1</clus>
<clus scale="   88.005">  1  3  2 -1</clus>
</clustering>
</event>
<event>
 6    0  0.6207838E+002  0.1350727E+03  0.7546771E-02  0.1220117E+00
         21   -1    0    0  504  501  0.00000000000E+00  0.00000000000E+00  0.17715025365E+04  0.17715025365E+04  0.00000000000E+00 0.  1.
         21   -1    0    0  505  502 -0.00000000000E+00 -0.00000000000E+00 -0.30909330145E+03  0.30909330145E+03  0.00000000000E+00 0.  1.
         21    1    1    2  503  501 -0.30622282397E+02  0.32404064475E+01  0.13826119798E+04  0.13829548478E+04  0.00000000000E+00 0.  1.
         21    1    1    2  504  502  0.11920631946E+03  0.24308637029E+02 -0.12057911568E+03  0.17129033707E+03  0.00000000000E+00 0.  1.
         21    1    1    2  505  506 -0.76792235069E+01 -0.11619871489E+03 -0.13018908254E+03  0.17467200413E+03  0.00000000000E+00 0.  1.
         21    1    1    2  506  503 -0.80904813557E+02  0.88649671415E+02  0.33056545350E+03  0.35167864897E+03  0.00000000000E+00 0.  1.
<scales pt_clust_3="30.79325" pt_clust_4="135.07271" pt_clust_5="116.39604" pt_clust_6="14000.00000"></scales>
<clustering>
<clus scale="   30.793">  1  3  2 -1</clus>
<clus scale="  116.396">  2  5  1 -1</clus>
<clus scale="  135.073">  2  4  1 -1</clus>
<clus scale="   30.793">  1  3  2 -1</clus>
</clustering>
</event>
<event>
 6    0  0.6207838E+002  0.9699354E+02  0.7546771E-02  0.1286748E+00
         21   -1    0    0  505  501  0.00000000000E+00  0.00000000000E+00  0.20953730258E+03  0.20953730258E+03  0.00000000000E+00 0. -1.
         21   -1    0    0  506  502 -0.00000000000E+00 -0.00000000000E+00 -0.44023688871E+03  0.44023688871E+03  0.00000000000E+00 0.  1.
         21    1    1    2  503  502 -0.31069879997E+02  0.41238349056E+02 -0.32365440602E+02  0.60938170478E+02  0.00000000000E+00 0. -1.
         21    1    1    2  504  503 -0.15629644428E+02  0.52304025525E+02 -0.12275008576E+03  0.13434128340E+03  0.00000000000E+00 0. -1.
         21    1    1    2  505  504 -0.79373588094E+01 -0.10165995589E+03  0.17247339898E+03  0.20036172701E+03  0.00000000000E+00 0. -1.
         21    1    1    2  506  501  0.54636883234E+02  0.81175813096E+01 -0.24805745875E+03  0.25413301040E+03  0.00000000000E+00 0.  1.
<scales pt_clust_3="51.63273" pt_clust_4="14000.00000" pt_clust_5="96.99354" pt_clust_6="48.96200"></scales>
<clustering>
<clus scale="   51.633">  2  3  1 -1</clus>
<clus scale="   48.962">  2  6  1 -1</clus>
<clus scale="   96.994">  1  5  2 -1</clus>
<clus scale="   96.994">  1  3  2 -1</clus>
</clustering>
</event>
<event>
 6    0  0.6207838E+002  0.9995559E+02  0.7546771E-02  0.1280389E+00
         21   -1    0    0  506  501  0.00000000000E+00  0.00000000000E+00  0.13751280341E+03  0.13751280341E+03  0.00000000000E+00 0.  1.
         21   -1    0    0  505  502 -0.00000000000E+00 -0.00000000000E+00 -0.36082998087E+03  0.36082998087E+03  0.00000000000E+00 0. -1.
         21    1    1    2  503  504  0.43481465702E+02  0.11017009829E+02 -0.79975109044E+01  0.45562841722E+02  0.00000000000E+00 0. -1.
         21    1    1    2  504  501  0.32054055387E+02 -0.20834994237E+02 -0.12545219886E+02  0.40236078258E+02  0.00000000000E+00 0.  1.
         21    1    1    2  505  503  0.69425784931E+01 -0.61610262160E+02 -0.27486477787E+03  0.28177059803E+03  0.00000000000E+00 0. -1.
         21    1    1    2  506  502 -0.82478099582E+02  0.71428246569E+02  0.72090331196E+02  0.13077326627E+03  0.00000000000E+00 0.  1.
<scales pt_clust_3="31.13589" pt_clust_4="31.13589" pt_clust_5="62.00019" pt_clust_6="94.09398"></scales>
<clustering>
<clus scale="   31.136">  3  4 -1 -1</clus>
<clus scale="   62.000">  2  5  1 -1</clus>
<clus scale="   94.094">  1  6  2 -1</clus>
<clus scale="   94.094">  1  3  2 -1</clus>
</clustering>
</event>
<event>
 6    0  0.6207838E+002  0.8936730E+02  0.7546771E-02  0.1304391E+00
         21   -1    0    0  505  501  0.00000000000E+00  0.00000000000E+00  0.51489399449E+03  0.51489399449E+03  0.00000000000E+00 0.  1.
         21   -1    0    0  504  502 -0.00000000000E+00 -0.00000000000E+00 -0.55362655063E+02  0.55362655063E+02  0.00000000000E+00 0.  1.
         21    1    1    2  503  502  0.12069824394E+02 -0.67726330064E+02  0.18282934386E+02  0.71181473254E+02  0.00000000000E+00 0.  1.
         21    1    1    2  504  506 -0.59222666227E+02  0.47095036975E+02  0.64952610608E+02  0.99720150058E+02  0.00000000000E+00 0.  1.
         21    1    1    2  505  503 -0.56714068530E+01 -0.37625488996E+02  0.45370786904E+02  0.59214445722E+02  0.00000000000E+00 0.  1.
         21    1    1    2  506  501  0.52824248686E+02  0.58256782084E+02  0.33092500753E+03  0.34014058052E+03  0.00000000000E+00 0.  1.
<scales pt_clust_3="31.65253" pt_clust_4="75.66549" pt_clust_5="31.65253" pt_clust_6="78.58218"></scales>
<clustering>
<clus scale="   31.653">  3  5 -1 -1</clus>
<clus scale="   75.665">  2  4  1 -1</clus>
<clus scale="   78.582">  1  6  2 -1</clus>
<clus scale="   78.582">  1  3  2 -1</clus>
</clustering>
</event>
<event>
 6    0  0.6207838E+002  0.9352579E+02  0.7546771E-02  0.1294531E+00
         21   -1    0    0  503  501  0.00000000000E+00  0.00000000000E+00  0.21036036094E+03  0.21036036094E+03  0.00000000000E+00 0.  1.
         21   -1    0    0  506  502 -0.00000000000E+00 -0.00000000000E+00 -0.14369849828E+03  0.14369849828E+03  0.00000000000E+00 0.  1.
         21    1    1    2  503  505  0.20244901674E+02  0.85446691693E+02  0.62692261597E+02  0.10789491568E+03  0.00000000000E+00 0.  1.
         21    1    1    2  504  501 -0.39740240809E+02 -0.94634627726E+02  0.46846984315E+02  0.11282570383E+03  0.00000000000E+00 0.  1.
         21    1    1    2  505  502  0.51636792923E+02  0.28439333667E+02  0.18190736958E+02  0.61693249176E+02  0.00000000000E+00 0.  1.
         21    1    1    2  506  504 -0.32141453788E+02 -0.19251397634E+02 -0.61068120217E+02  0.71644990539E+02  0.00000000000E+00 0.  1.
<scales pt_clust_3="93.52579" pt_clust_4="14000.00000" pt_clust_5="48.42215" pt_clust_6="37.46584"></scales>
<clustering>
<clus scale="   37.466">  2  6  1 -1</clus>
<clus scale="   48.422">  2  5  1 -1</clus>
<clus scale="   93.526">  1  3  2 -1</clus>
<clus scale="   93.526">  1  3  2 -1</clus>
</clustering>
</event>
<event>
 6    0  0.6207838E+002  0.1003968E+03  0.7546771E-02  0.1279464E+00
         21   -1    0    0  504  501  0.00000000000E+00  0.00000000000E+00  0.13615967485E+04  0.13615967485E+04  0.00000000000E+00 0.  1.
         21   -1    0    0  503  502 -0.00000000000E+00 -0.00000000000E+00 -0.63188623722E+02  0.63188623722E+02  0.00000000000E+00 0.  1.
         21    1    1    2  503  501  0.13457960900E+02 -0.58316561252E+02  0.83880568178E+02  0.10304313536E+03  0.00000000000E+00 0. -1.
         21    1    1    2  504  506  0.56722605487E+02 -0.62198815019E+02  0.11600960723E+04  0.11631461832E+04  0.00000000000E+00 0.  1.
         21    1    1    2  505  502 -0.30651802603E+02  0.28092940919E+02 -0.49086724737E+01  0.41866948751E+02  0.00000000000E+00 0. -1.
         21    1    1    2  506  505 -0.39528763783E+02  0.92422435351E+02  0.59340156773E+02  0.11672910489E+03  0.00000000000E+00 0.  1.
<scales pt_clust_3="59.84929" pt_clust_4="85.66714" pt_clust_5="33.66914" pt_clust_6="33.66914"></scales>
<clustering>
<clus scale="   33.669">  5  6 -1 -1</clus>
<clus scale="   59.849">  2  3  1 -1</clus>
<clus scale="   85.667">  1  4  2 -1</clus>
<clus scale="   85.667">  1  3  2 -1</clus>
</clustering>
</event>
<event>
 6    0  0.6207838E+002  0.1090140E+03  0.7546771E-02  0.1262407E+00
         21   -1    0    0  504  501  0.00000000000E+00  0.00000000000E+00  0.20827245237E+04  0.20827245237E+04  0.00000000000E+00 0.  1.
         21   -1    0    0  506  502 -0.00000000000E+00 -0.00000000000E+00 -0.18873416497E+02  0.18873416497E+02  0.00000000000E+00 0.  1.
         21    1    1    2  503  502  0.90366682882E+02 -0.35745968210E+02  0.30371738152E+03  0.31888580943E+03  0.00000000000E+00 0.  1.
         21    1    1    2  504  503  0.53584686918E+02  0.19037847899E+02  0.37495055348E+03  0.37923828377E+03  0.00000000000E+00 0.  1.
         21    1    1    2  505  501 -0.48105097458E+01  0.35027972734E+02  0.83250622795E+03  0.83325669481E+03  0.00000000000E+00 0.  1.
         21    1    1    2  506  505 -0.13914086005E+03 -0.18319852423E+02  0.55267694421E+03  0.57021715214E+03  0.00000000000E+00 0.  1.
<scales pt_clust_3="109.01398" pt_clust_4="59.95340" pt_clust_5="35.35675" pt_clust_6="14000.00000"></scales>
<clustering>
<clus scale="   35.357">  1  5  2 -1</clus>
<clus scale="   59.953">  1  4  2 -1</clus>
<clus scale="  109.014">  2  3  1 -1</clus>
<clus scale="   35.357">  1  3  2 -1</clus>
</clustering>
</event>
<event>
 6    0  0.6207838E+002  0.1102403E+03  0.7546771E-02  0.1260126E+00
         21   -1    0    0  506  501  0.00000000000E+00  0.00000000000E+00  0.24660102860E+03  0.24660102860E+03  0.00000000000E+00 0.  1.
         21   -1    0    0  505  502 -0.00000000000E+00 -0.00000000000E+00 -0.33018747140E+03  0.33018747140E+03  0.00000000000E+00 0.  1.
         21    1    1    2  503  501 -0.58251622955E+02 -0.35168657235E+02 -0.19131456950E+03  0.20305504311E+03  0.00000000000E+00 0.  1.
         21    1    1    2  504  502  0.11544216519E+02 -0.31822113839E+02 -0.17463549081E+02  0.38090568527E+02  0.00000000000E+00 0.  1.
         21    1    1    2  505  503 -0.56399742757E+02  0.19807914676E+02 -0.80797954183E+02  0.10050668568E+03  0.00000000000E+00 0.  1.
         21    1    1    2  506  504  0.10310714919E+03  0.47182856398E+02  0.20598962997E+03  0.23513620268E+03  0.00000000000E+00 0.  1.
<scales pt_clust_3="14000.00000" pt_clust_4="33.85138" pt_clust_5="53.92591" pt_clust_6="110.24027"></scales>
<clustering>
<clus scale="   33.851">  2  4  1 -1</clus>
<clus scale="   53.926">  2  5  1 -1</clus>
<clus scale="  110.240">  1  6  2 -1</clus>
<clus scale="  110.240">  1  3  2 -1</clus>
</clustering>
</event>
<event>
 6    0  0.6207838E+002  0.1613285E+03  0.7546771E-02  0.1187205E+00
         21   -1    0    0  505  501  0.00000000000E+00  0.00000000000E+00  0.11856212144E+04  0.11856212144E+04  0.00000000000E+00 0.  1.
         21   -1    0    0  506  502 -0.00000000000E+00 -0.00000000000E+00 -0.45053171281E+02  0.45053171281E+02  0.00000000000E+00 0. -1.
         21    1    1    2  503  501 -0.28022698560E+01 -0.45582897711E+02  0.61712523435E+03  0.61881274078E+03  0.00000000000E+00 0.  1.
         21    1    1    2  504  502  0.76345665520E+02 -0.22224175943E+02  0.10945157205E+03  0.13528570237E+03  0.00000000000E+00 0. -1.
         21    1    1    2  505  504  0.48148959425E+02 -0.42399159411E+02  0.17702815565E+03  0.18829492533E+03  0.00000000000E+00 0.  1.
         21    1    1    2  506  503 -0.12169235509E+03  0.11020623306E+03  0.23696308108E+03  0.28828101722E+03  0.00000000000E+00 0. -1.
<scales pt_clust_3="45.66895" pt_clust_4="51.62637" pt_clust_5="51.62637" pt_clust_6="151.88211"></scales>
<clustering>
<clus scale="   45.669">  1  3  2 -1</clus>
<clus scale="   51.626">  4  5 -1 -1</clus>
<clus scale="  151.882">  2  6  1 -1</clus>
<clus scale="   45.669">  1  3  2 -1</clus>
</clustering>
</event>
<event>
 6    0  0.6207838E+002  0.6981335E+02  0.7546771E-02  0.1360729E+00
         21   -1    0    0  505  501  0.00000000000E+00  0.00000000000E+00  0.27636488210E+03  0.27636488210E+03  0.00000000000E+00 0. -1.
         21   -1    0    0  506  502 -0.00000000000E+00 -0.00000000000E+00 -0.51243835273E+03  0.51243835273E+03  0.00000000000E+00 0. -1.
         21    1    1    2  503  502  0.35168083813E+02 -0.27497693458E+02 -0.14786791266E+02  0.47027294846E+02  0.00000000000E+00 0. -1.
         21    1    1    2  504  501  0.46497555273E+02  0.96261394984E+01 -0.12697172997E+03  0.13555996983E+03  0.00000000000E+00 0. -1.
         21    1    1    2  505  503  0.25633300291E+02  0.42709154700E+02  0.24472141796E+03  0.24973928483E+03  0.00000000000E+00 0. -1.
         21    1    1    2  506  504 -0.10729893938E+03 -0.24837600741E+02 -0.33903636735E+03  0.35647668534E+03  0.00000000000E+00 0. -1.
<scales pt_clust_3="44.64210" pt_clust_4="69.81335" pt_clust_5="49.78301" pt_clust_6="14000.00000"></scales>
<clustering>
<clus scale="   44.642">  2  3  1 -1</clus>
<clus scale="   49.783">  1  5  2 -1</clus>
<clus scale="   69.813">  1  4  2 -1</clus>
<clus scale="   49.783">  1  3  2 -1</clus>
</clustering>
</event>
<event>
 6    0  0.6207838E+002  0.1331900E+03  0.7546771E-02  0.1222798E+00
         21   -1    0    0  505  501  0.00000000000E+00  0.00000000000E+00  0.62351028115E+03  0.62351028115E+03  0.00000000000E+00 0.  1.
         21   -1    0    0  506  502 -0.00000000000E+00 -0.00000000000E+00 -0.16008136994E+03  0.16008136994E+03  0.00000000000E+00 0. -1.
         21    1    1    2  503  502  0.62027197658E+02 -0.68821522365E+02  0.82370170103E+02  0.12397023882E+03  0.00000000000E+00 0.  1.
         21    1    1    2  504  503  0.30847044372E+00 -0.64049764172E+02  0.10377070439E+03  0.12194599843E+03  0.00000000000E+00 0. -1.
         21    1    1    2  505  504  0.36671675644E+02  0.74439950127E+02  0.37667468391E+03  0.38570705914E+03  0.00000000000E+00 0.  1.
         21    1    1    2  506  501 -0.99007343745E+02  0.58431336411E+02 -0.99386647187E+02  0.15196835470E+03  0.00000000000E+00 0. -1.
<scales pt_clust_3="54.43278" pt_clust_4="54.43278" pt_clust_5="82.98264" pt_clust_6="115.99019"></scales>
<clustering>
<clus scale="   54.433">  3  4 -1 -1</clus>
<clus scale="   82.983">  1  5  2 -1</clus>
<clus scale="  115.990">  2  6  1 -1</clus>
<clus scale="   82.983">  1  3  2 -1</clus>
</clustering>
</event>
<event>
 6    0  0.6207838E+002  0.1029930E+03  0.7546771E-02  0.1274125E+00
         21   -1    0    0  504  501  0.00000000000E+00  0.00000000000E+00  0.42894138044E+03  0.42894138044E+03  0.00000000000E+00 0. -1.
         21   -1    0    0  506  502 -0.00000000000E+00 -0.00000000000E+00 -0.17795306964E+03  0.17795306964E+03  0.00000000000E+00 0. -1.
         21    1    1    2  503  501  0.23800860755E+02 -0.29056491355E+02  0.88897744303E+02  0.96506837088E+02  0.00000000000E+00 0.  1.
         21    1    1    2  504  505 -0.95234993817E+02 -0.39137083807E+02  0.26678330713E+03  0.28596284434E+03  0.00000000000E+00 0. -1.
         21    1    1    2  505  502 -0.14855077048E+02 -0.29005484690E+02 -0.87433138859E+02  0.93308870034E+02  0.00000000000E+00 0. -1.
         21    1    1    2  506  503  0.86289210111E+02  0.97199059852E+02 -0.17259601772E+02  0.13111589862E+03  0.00000000000E+00 0. -1.
<scales pt_clust_3="38.14799" pt_clust_4="102.99299" pt_clust_5="32.58821" pt_clust_6="14000.00000"></scales>
<clustering>
<clus scale="   32.588">  2  5  1 -1</clus>
<clus scale="   38.148">  1  3  2 -1</clus>
<clus scale="  102.993">  1  4  2 -1</clus>
<clus scale="   38.148">  1  3  2 -1</clus>
</clustering>
</event>
<event>
 6    0  0.6207838E+002  0.1120484E+03  0.7546771E-02  0.1256823E+00
         21   -1    0    0  506  501  0.00000000000E+00  0.00000000000E+00  0.69600059481E+03  0.69600059481E+03  0.00000000000E+00 0. -1.
         21   -1    0    0  503  502 -0.00000000000E+00 -0.00000000000E+00 -0.11957674267E+03  0.11957674267E+03  0.00000000000E+00 0. -1.
         21    1    1    2  503  501  0.11203308592E+03 -0.37111712091E+02 -0.41539481686E+02  0.12511682563E+03  0.00000000000E+00 0. -1.
         21    1    1    2  504  505  0.28802481744E+02  0.96977786075E+02  0.34005811789E+03  0.35478697480E+03  0.00000000000E+00 0. -1.
         21    1    1    2  505  502 -0.10686227951E+03 -0.85495334132E+02  0.16123689900E+03  0.21148601972E+03  0.00000000000E+00 0.  1.
         21    1    1    2  506  504 -0.33973288160E+02  0.25629260147E+02  0.11666831694E+03  0.12418751733E+03  0.00000000000E+00 0. -1.
<scales pt_clust_3="112.04845" pt_clust_4="112.75351" pt_clust_5="14000.00000" pt_clust_6="42.55635"></scales>
<clustering>
<clus scale="   42.556">  1  6  2 -1</clus>
<clus scale="  112.754">  1  4  2 -1</clus>
<clus scale="  112.048">  2  3  1 -1</clus>
<clus scale="   42.556">  1  3  2 -1</clus>
</clustering>
</event>
<event>
 6    0  0.6207838E+002  0.7902271E+02  0.7546771E-02  0.1331848E+00
         21   -1    0    0  504  501  0.00000000000E+00  0.00000000000E+00  0.38148705243E+03  0.38148705243E+03  0.00000000000E+00 0.  1.
         21   -1    0    0  506  502 -0.00000000000E+00 -0.00000000000E+00 -0.46477262571E+03  0.46477262571E+03  0.00000000000E+00 0. -1.
         21    1    1    2  503  501 -0.56192830021E+02 -0.11058597624E+03 -0.22418378195E+03  0.25621331030E+03  0.00000000000E+00 0. -1.
         21    1    1    2  504  505 -0.16434224658E+01  0.52545810846E+02  0.34557080565E+03  0.34954677054E+03  0.00000000000E+00 0.  1.
         21    1    1    2  505  502  0.21098202059E+02  0.30150915225E+02 -0.69270320017E+01  0.37445902198E+02  0.00000000000E+00 0. -1.
         21    1    1    2  506  503  0.36738050427E+02  0.27889250172E+02 -0.19774556498E+03  0.20305369510E+03  0.00000000000E+00 0. -1.
<scales pt_clust_3="79.02271" pt_clust_4="52.70400" pt_clust_5="36.79962" pt_clust_6="14000.00000"></scales>
<clustering>
<clus scale="   36.800">  2  5  1 -1</clus>
<clus scale="   52.704">  1  4  2 -1</clus>
<clus scale="   79.023">  1  3  2 -1</clus>
<clus scale="   52.704">  1  3  2 -1</clus>
</clustering>
</event>
<event>
 6    0  0.6207838E+002  0.1046946E+03  0.7546771E-02  0.1270722E+00
         21   -1    0    0  503  501  0.00000000000E+00  0.00000000000E+00  0.16867084596E+04  0.16867084596E+04  0.00000000000E+00 0.  1.
         21   -1    0    0  506  502 -0.00000000000E+00 -0.00000000000E+00 -0.88152267123E+02  0.88152267123E+02  0.00000000000E+00 0.  1.
         21    1    1    2  503  504  0.20452118881E+02 -0.49901090197E+02  0.13382864288E+04  0.13393726044E+04  0.00000000000E+00 0.  1.
         21    1    1    2  504  502 -0.87766477869E+02  0.13269520379E+03  0.17968145993E+02  0.16010567141E+03  0.00000000000E+00 0.  1.
         21    1    1    2  505  501  0.19360915911E+02 -0.62899965311E+02  0.19250883780E+03  0.20344754442E+03  0.00000000000E+00 0.  1.
         21    1    1    2  506  505  0.47953443077E+02 -0.19894148280E+02  0.49792779846E+02  0.71934906433E+02  0.00000000000E+00 0.  1.
<scales pt_clust_3="54.18811" pt_clust_4="104.69462" pt_clust_5="14000.00000" pt_clust_6="51.91637"></scales>
<clustering>
<clus scale="   51.916">  2  6  1 -1</clus>
<clus scale="   54.188">  1  3  2 -1</clus>
<clus scale="  104.695">  2  4  1 -1</clus>
<clus scale="   54.188">  1  3  2 -1</clus>
</clustering>
</event>
<event>
 6    0  0.6207838E+002  0.1490807E+03  0.7546771E-02  0.1201607E+00
         21   -1    0    0  503  501  0.00000000000E+00  0.00000000000E+00  0.55114647030E+03  0.55114647030E+03  0.00000000000E+00 0. -1.
         21   -1    0    0  506  502 -0.00000000000E+00 -0.00000000000E+00 -0.43191378414E+03  0.43191378414E+03  0.00000000000E+00 0. -1.
         21    1    1    2  503  504 -0.15693510030E+02  0.72570198747E+02  0.21865829599E+03  0.23092026851E+03  0.00000000000E+00 0. -1.
         21    1    1    2  504  505 -0.34574186401E+02  0.60411600112E+02  0.11497529021E+03  0.13440332270E+03  0.00000000000E+00 0. -1.
         21    1    1    2  505  502 -0.30663527016E+02 -0.13992154138E+03 -0.39475200142E+03  0.41993741468E+03  0.00000000000E+00 0. -1.
         21    1    1    2  506  501  0.80931223448E+02  0.69397425167E+01  0.18035110138E+03  0.19779924855E+03  0.00000000000E+00 0. -1.
<scales pt_clust_3="42.63483" pt_clust_4="42.63483" pt_clust_5="142.42930" pt_clust_6="81.22822"></scales>
<clustering>
<clus scale="   42.635">  3  4 -1 -1</clus>
<clus scale="   81.228">  1  6  2 -1</clus>
<clus scale="  142.429">  2  5  1 -1</clus>
<clus scale="   81.228">  1  3  2 -1</clus>
</clustering>
</event>
<event>
 6    0  0.6207838E+002  0.1994359E+03  0.7546771E-02  0.1150216E+00
         21   -1    0    0  506  501  0.00000000000E+00  0.00000000000E+00  0.73893059778E+02  0.73893059778E+02  0.00000000000E+00 0.  1.
         21   -1    0    0  504  502 -0.00000000000E+00 -0.00000000000E+00 -0.12023796135E+04  0.12023796135E+04  0.00000000000E+00 0. -1.
         21    1    1    2  503  505 -0.35781042938E+02 -0.26710025300E+02 -0.97953038522E+02  0.10764992448E+03  0.00000000000E+00 0.  1.
         21    1    1    2  504  501 -0.54755658099E+01  0.46942788838E+02 -0.44259044836E+01  0.47467840432E+02  0.00000000000E+00 0.  1.
         21    1    1    2  505  502  0.17539587835E+03  0.57505133769E+02 -0.90715106765E+03  0.92573949580E+03  0.00000000000E+00 0. -1.
         21    1    1    2  506  503 -0.13413926960E+03 -0.77737897307E+02 -0.11895654305E+03  0.19541541255E+03  0.00000000000E+00 0.  1.
<scales pt_clust_3="38.01020" pt_clust_4="47.26105" pt_clust_5="186.43536" pt_clust_6="38.01020"></scales>
<clustering>
<clus scale="   38.010">  3  6 -1 -1</clus>
<clus scale="   47.261">  1  4  2 -1</clus>
<clus scale="  186.435">  2  5  1 -1</clus>
<clus scale="   47.261">  1  3  2 -1</clus>
</clustering>
</event>
<event>
 6    0  0.6207838E+002  0.1130827E+03  0.7546771E-02  0.1254965E+00
         21   -1    0    0  503  501  0.00000000000E+00  0.00000000000E+00  0.16281853957E+03  0.16281853957E+03  0.00000000000E+00 0. -1.
         21   -1    0    0  506  502 -0.00000000000E+00 -0.00000000000E+00 -0.93730213155E+03  0.93730213155E+03  0.00000000000E+00 0. -1.
         21    1    1    2  503  502  0.16553177198E+03  0.42947539780E+01  0.65783437016E+02  0.17817596087E+03  0.00000000000E+00 0. -1.
         21    1    1    2  504  501  0.26892134752E+02  0.24318689390E+02 -0.23430034267E+02  0.43168878500E+02  0.00000000000E+00 0. -1.
         21    1    1    2  505  504 -0.81900173412E+02 -0.42601402882E+02 -0.52175526066E+02  0.10604151759E+03  0.00000000000E+00 0. -1.
         21    1    1    2  506  505 -0.11052373332E+03  0.13987959514E+02 -0.76466146866E+03  0.77273431416E+03  0.00000000000E+00 0. -1.
<scales pt_clust_3="113.08271" pt_clust_4="36.25721" pt_clust_5="86.15535" pt_clust_6="14000.00000"></scales>
<clustering>
<clus scale="   36.257">  1  4  2 -1</clus>
<clus scale="   86.155">  1  5  2 -1</clus>
<clus scale="  113.083">  1  3  2 -1</clus>
<clus scale="   36.257">  1  3  2 -1</clus>
</clustering>
</event>
<event>
 6    0  0.6207838E+002  0.2162141E+03  0.7546771E-02  0.1136737E+00
         21   -1    0    0  502  501  0.00000000000E+00  0.00000000000E+00  0.54992980218E+03  0.54992980218E+03  0.00000000000E+00 0. -1.
         21   -1    0    0  506  502 -0.00000000000E+00 -0.00000000000E+00 -0.15729431030E+04  0.15729431030E+04  0.00000000000E+00 0.  1.
         21    1    1    2  503  505 -0.18393276449E+03 -0.67657777621E+02 -0.97698636567E+03  0.99644929396E+03  0.00000000000E+00 0.  1.
         21    1    1    2  504  501  0.11018777134E+03  0.20803269792E+02  0.40362052044E+03  0.41890768137E+03  0.00000000000E+00 0. -1.
         21    1    1    2  505  504  0.85653664189E+02  0.97278218943E+02  0.94816780263E+02  0.16059210407E+03  0.00000000000E+00 0.  1.
         21    1    1    2  506  503 -0.11908671032E+02 -0.50423711114E+02 -0.54446423588E+03  0.54692382581E+03  0.00000000000E+00 0.  1.
<scales pt_clust_3="216.21412" pt_clust_4="111.97826" pt_clust_5="14000.00000" pt_clust_6="51.81088"></scales>
<clustering>
<clus scale="   51.811">  2  6  1 -1</clus>
<clus scale="  111.978">  1  4  2 -1</clus>
<clus scale="  216.214">  2  3  1 -1</clus>
<clus scale="  111.978">  1  3  2 -1</clus>
</clustering>
</event>
<event>
 6    0  0.6207838E+002  0.1837167E+03  0.7546771E-02  0.1164254E+00
         21   -1    0    0  503  501  0.00000000000E+00  0.00000000000E+00  0.84321708861E+02  0.84321708861E+02  0.00000000000E+00 0. -1.
         21   -1    0    0  504  502 -0.00000000000E+00 -0.00000000000E+00 -0.52616691078E+03  0.52616691078E+03  0.00000000000E+00 0. -1.
         21    1    1    2  503  506  0.10204280207E+01  0.34886023781E+02 -0.13444097216E+02  0.37400797833E+02  0.00000000000E+00 0. -1.
         21    1    1    2  504  505 -0.59973177777E+02 -0.13731700118E+02 -0.48805350391E+01  0.61718402953E+02  0.00000000000E+00 0. -1.
         21    1    1    2  505  501 -0.10982337138E+03 -0.40184027555E+01 -0.11360630451E+03  0.15806237024E+03  0.00000000000E+00 0. -1.
         21    1    1    2  506  502  0.16877612114E+03 -0.17135920908E+02 -0.30991426516E+03  0.35330704861E+03  0.00000000000E+00 0. -1.
<scales pt_clust_3="34.90094" pt_clust_4="52.71841" pt_clust_5="52.71841" pt_clust_6="169.21380"></scales>
<clustering>
<clus scale="   34.901">  1  3  2 -1</clus>
<clus scale="   52.718">  4  5 -1 -1</clus>
<clus scale="  169.214">  2  6  1 -1</clus>
<clus scale="   34.901">  1  3  2 -1</clus>
</clustering>
</event>
<event>
 6    0  0.6207838E+002  0.9937393E+02  0.7546771E-02  0.1281618E+00
         21   -1    0    0  506  501  0.00000000000E+00  0.00000000000E+00  0.43420865491E+03  0.43420865491E+03  0.00000000000E+00 0.  1.
         21   -1    0    0  505  502 -0.00000000000E+00 -0.00000000000E+00 -0.85739049727E+03  0.85739049727E+03  0.00000000000E+00 0. -1.
         21    1    1    2  503  501  0.37787198142E+02  0.53409667516E+02  0.43152249709E+01  0.65567416406E+02  0.00000000000E+00 0. -1.
         21    1    1    2  504  502 -0.79402518271E+02 -0.78731484538E+02 -0.74967848098E+03  0.75797178800E+03  0.00000000000E+00 0. -1.
         21    1    1    2  505  503 -0.21556486088E+02  0.63170748765E+02 -0.53304788829E+02  0.85420290939E+02  0.00000000000E+00 0. -1.
         21    1    1    2  506  504  0.63171806216E+02 -0.37848931743E+02  0.37548620247E+03  0.38263965683E+03  0.00000000000E+00 0.  1.
<scales pt_clust_3="65.42526" pt_clust_4="14000.00000" pt_clust_5="68.32287" pt_clust_6="99.37393"></scales>
<clustering>
<clus scale="   65.425">  1  3  2 -1</clus>
<clus scale="   68.323">  2  5  1 -1</clus>
<clus scale="   99.374">  1  6  2 -1</clus>
<clus scale="   65.425">  1  3  2 -1</clus>
</clustering>
</event>
<event>
 6    0  0.6207838E+002  0.1145751E+03  0.7546771E-02  0.1252325E+00
         21   -1    0    0  504  501  0.00000000000E+00  0.00000000000E+00  0.12289589101E+03  0.12289589101E+03  0.00000000000E+00 0.  1.
         21   -1    0    0  506  502 -0.00000000000E+00 -0.00000000000E+00 -0.52650512960E+03  0.52650512960E+03  0.00000000000E+00 0.  1.
         21    1    1    2  503  501  0.10518159328E+03  0.56471773019E+02 -0.65710556130E+02  0.13627217581E+03  0.00000000000E+00 0.  1.
         21    1    1    2  504  502 -0.85504260016E+02  0.34752036421E+02  0.38292872985E+02  0.99925105142E+02  0.00000000000E+00 0.  1.
         21    1    1    2  505  503  0.31332075572E+02 -0.14963324640E+02 -0.10641478989E+02  0.36315852173E+02  0.00000000000E+00 0. -1.
         21    1    1    2  506  505 -0.51009408840E+02 -0.76260484800E+02 -0.36555007646E+03  0.37688788748E+03  0.00000000000E+00 0.  1.
<scales pt_clust_3="32.34926" pt_clust_4="97.61860" pt_clust_5="32.34926" pt_clust_6="91.74760"></scales>
<clustering>
<clus scale="   32.349">  3  5 -1 -1</clus>
<clus scale="   91.748">  2  6  1 -1</clus>
<clus scale="   97.619">  1  4  2 -1</clus>
<clus scale="   97.619">  1  3  2 -1</clus>
</clustering>
</event>
<event>
 6    0  0.6207838E+002  0.9268424E+02  0.7546771E-02  0.1296479E+00
         21   -1    0    0  505  501  0.00000000000E+00  0.00000000000E+00  0.10245253765E+04  0.10245253765E+04  0.00000000000E+00 0.  1.
         21   -1    0    0  504  502 -0.00000000000E+00 -0.00000000000E+00 -0.50393306481E+02  0.50393306481E+02  0.00000000000E+00 0.  1.
         21    1    1    2  503  502  0.14629789351E+02 -0.41960593475E+02 -0.17343790586E+02  0.47702507409E+02  0.00000000000E+00 0.  1.
         21    1    1    2  504  506 -0.37126847139E+02  0.75533863210E+02  0.36489951378E+03  0.37448020298E+03  0.00000000000E+00 0.  1.
         21    1    1    2  505  503  0.61710379971E+02 -0.60858558380E+02  0.14597678269E+03  0.16976794812E+03  0.00000000000E+00 0.  1.
         21    1    1    2  506  501 -0.39213322183E+02  0.27285288645E+02  0.48059956417E+03  0.48296802451E+03  0.00000000000E+00 0.  1.
<scales pt_clust_3="44.43785" pt_clust_4="92.68424" pt_clust_5="14000.00000" pt_clust_6="45.42099"></scales>
<clustering>
<clus scale="   44.438">  2  3  1 -1</clus>
<clus scale="   45.421">  1  6  2 -1</clus>
<clus scale="   92.684">  1  4  2 -1</clus>
<clus scale="   45.421">  1  3  2 -1</clus>
</clustering>
</event>
<event>
 6    0  0.6207838E+002  0.7706641E+02  0.7546771E-02  0.1337589E+00
         21   -1    0    0  505  501  0.00000000000E+00  0.00000000000E+00  0.50057544358E+03  0.50057544358E+03  0.00000000000E+00 0.  1.
         21   -1    0    0  506  502 -0.00000000000E+00 -0.00000000000E+00 -0.10588836173E+03  0.10588836173E+03  0.00000000000E+00 0.  1.
         21    1    1    2  503  501  0.35170285823E+02  0.26912164883E+02  0.14687961373E+03  0.15341067288E+03  0.00000000000E+00 0.  1.
         21    1    1    2  504  502  0.31029193376E+02  0.68279512705E+02 -0.70024090202E+02  0.10260738719E+03  0.00000000000E+00 0.  1.
         21    1    1    2  505  504 -0.29589018892E+02  0.12105874626E+02  0.46998553520E+02  0.56841237429E+02  0.00000000000E+00 0. -1.
         21    1    1    2  506  503 -0.36610460307E+02 -0.10729755221E+03  0.27083300480E+03  0.29360450781E+03  0.00000000000E+00 0.  1.
<scales pt_clust_3="39.96518" pt_clust_4="14000.00000" pt_clust_5="31.96971" pt_clust_6="77.06641"></scales>
<clustering>
<clus scale="   31.970">  1  5  2 -1</clus>
<clus scale="   39.965">  1  3  2 -1</clus>
<clus scale="   77.066">  1  6  2 -1</clus>
<clus scale="   31.970">  1  3  2 -1</clus>
</clustering>
</event>
<event>
 6    0  0.6207838E+002  0.1046200E+03  0.7546771E-02  0.1270870E+00
         21   -1    0    0  503  501  0.00000000000E+00  0.00000000000E+00  0.26697357137E+03  0.26697357137E+03  0.00000000000E+00 0.  1.
         21   -1    0    0  504  502 -0.00000000000E+00 -0.00000000000E+00 -0.99280946281E+03  0.99280946281E+03  0.00000000000E+00 0. -1.
         21    1    1    2  503  502  0.36432118705E+02  0.36875376522E+02 -0.16852807636E+03  0.17632017805E+03  0.00000000000E+00 0. -1.
         21    1    1    2  504  505  0.43668221170E+02  0.44824490845E+02 -0.71559071269E+03  0.71832180574E+03  0.00000000000E+00 0. -1.
         21    1    1    2  505  506 -0.47186489961E+02 -0.93681964213E+02 -0.75187181264E+02  0.12905807793E+03  0.00000000000E+00 0.  1.
         21    1    1    2  506  501 -0.32913849914E+02  0.11982096846E+02  0.23347007887E+03  0.23608297246E+03  0.00000000000E+00 0.  1.
<scales pt_clust_3="50.21739" pt_clust_4="104.62001" pt_clust_5="14000.00000" pt_clust_6="35.02702"></scales>
<clustering>
<clus scale="   35.027">  1  6  2 -1</clus>
<clus scale="   50.217">  2  3  1 -1</clus>
<clus scale="  104.620">  2  4  1 -1</clus>
<clus scale="   35.027">  1  3  2 -1</clus>
</clustering>
</event>
<event>
 6    0  0.6207838E+002  0.1647361E+03  0.7546771E-02  0.1183451E+00
         21   -1    0    0  506  501  0.00000000000E+00  0.00000000000E+00  0.27323822996E+03  0.27323822996E+03  0.00000000000E+00 0.  1.
         21   -1    0    0  504  502 -0.00000000000E+00 -0.00000000000E+00 -0.11692686041E+04  0.11692686041E+04  0.00000000000E+00 0. -1.
         21    1    1    2  503  502 -0.26664033843E+02 -0.16352433186E+02 -0.39848267949E+03  0.39970841700E+03  0.00000000000E+00 0. -1.
         21    1    1    2  504  505  0.35373602301E+02 -0.11261812567E+02 -0.30342814867E+03  0.30569063049E+03  0.00000000000E+00 0. -1.
         21    1    1    2  505  501 -0.76749845927E+02  0.14759963430E+03  0.23411675840E+03  0.28720523578E+03  0.00000000000E+00 0.  1.
         21    1    1    2  506  503  0.68040277469E+02 -0.11998538855E+03 -0.42823630434E+03  0.44990255075E+03  0.00000000000E+00 0. -1.
<scales pt_clust_3="31.27895" pt_clust_4="30.50894" pt_clust_5="14000.00000" pt_clust_6="164.73608"></scales>
<clustering>
<clus scale="   31.279">  2  3  1 -1</clus>
<clus scale="   30.509">  2  4  1 -1</clus>
<clus scale="  164.736">  2  6  1 -1</clus>
<clus scale="  164.736">  1  3  2 -1</clus>
</clustering>
</event>
<event>
 6    0  0.6207838E+002  0.1661464E+03  0.7546771E-02  0.1181927E+00
         21   -1    0    0  503  501  0.00000000000E+00  0.00000000000E+00  0.33042222514E+03  0.33042222514E+03  0.00000000000E+00 0. -1.
         21   -1    0    0  505  502 -0.00000000000E+00 -0.00000000000E+00 -0.54893089418E+03  0.54893089418E+03  0.00000000000E+00 0. -1.
         21    1    1    2  503  506  0.76348029213E+02  0.14143596333E+03  0.23225737421E+03  0.28244759011E+03  0.00000000000E+00 0. -1.
         21    1    1    2  504  502  0.46983829702E+02 -0.13662534323E+02 -0.17122814106E+03  0.17808206363E+03  0.00000000000E+00 0.  1.
         21    1    1    2  505  501 -0.37021560026E+02  0.78818779892E+02 -0.64294008013E+02  0.10824377782E+03  0.00000000000E+00 0. -1.
         21    1    1    2  506  504 -0.86310298889E+02 -0.20659220890E+03 -0.21524389417E+03  0.31057968776E+03  0.00000000000E+00 0. -1.
<scales pt_clust_3="14000.00000" pt_clust_4="48.93000" pt_clust_5="80.07442" pt_clust_6="166.14643"></scales>
<clustering>
<clus scale="   48.930">  2  4  1 -1</clus>
<clus scale="   80.074">  2  5  1 -1</clus>
<clus scale="  166.146">  2  6  1 -1</clus>
<clus scale="  166.146">  1  3  2 -1</clus>
</clustering>
</event>
<event>
 6    0  0.6207838E+002  0.8125385E+02  0.7546771E-02  0.1325530E+00
         21   -1    0    0  504  501  0.00000000000E+00  0.00000000000E+00  0.80044356640E+02  0.80044356640E+02  0.00000000000E+00 0. -1.
         21   -1    0    0  503  502 -0.00000000000E+00 -0.00000000000E+00 -0.76237004820E+03  0.76237004820E+03  0.00000000000E+00 0.  1.
         21    1    1    2  503  501  0.27182448260E+02  0.14755223436E+02 -0.40298439804E+02  0.50799275218E+02  0.00000000000E+00 0.  1.
         21    1    1    2  504  506 -0.48769052496E+02  0.62160170389E+02  0.13935969564E+02  0.80227916039E+02  0.00000000000E+00 0. -1.
         21    1    1    2  505  502 -0.60628950812E+02 -0.28854606754E+02 -0.59397300425E+03  0.59775612735E+03  0.00000000000E+00 0.  1.
         21    1    1    2  506  505  0.82215555048E+02 -0.48060787072E+02 -0.61990217067E+02  0.11363108623E+03  0.00000000000E+00 0.  1.
<scales pt_clust_3="30.92898" pt_clust_4="81.25385" pt_clust_5="66.36396" pt_clust_6="14000.00000"></scales>
<clustering>
<clus scale="   30.929">  1  3  2 -1</clus>
<clus scale="   66.364">  2  5  1 -1</clus>
<clus scale="   81.254">  1  4  2 -1</clus>
<clus scale="   30.929">  1  3  2 -1</clus>
</clustering>
</event>
<event>
 6    0  0.6207838E+002  0.1140976E+03  0.7546771E-02  0.1253165E+00
         21   -1    0    0  506  501  0.00000000000E+00  0.00000000000E+00  0.19063594267E+02  0.19063594267E+02  0.00000000000E+00 0. -1.
         21   -1    0    0  503  502 -0.00000000000E+00 -0.00000000000E+00 -0.28313142073E+04  0.28313142073E+04  0.00000000000E+00 0.  1.
         21    1    1    2  503  501  0.10991466006E+02 -0.84091542926E+02 -0.19053466240E+03  0.20855612553E+03  0.00000000000E+00 0.  1.
         21    1    1    2  504  502 -0.14286715890E+02 -0.86261985370E+02 -0.17149182509E+04  0.17171458434E+04  0.00000000000E+00 0.  1.
         21    1    1    2  505  504  0.20506870636E+02  0.28152238206E+02 -0.12027707980E+03  0.12521843389E+03  0.00000000000E+00 0. -1.
         21    1    1    2  506  505 -0.17211620752E+02  0.14220129009E+03 -0.78652061999E+03  0.79945739877E+03  0.00000000000E+00 0. -1.
<scales pt_clust_3="84.80684" pt_clust_4="96.46817" pt_clust_5="30.04374" pt_clust_6="30.04374"></scales>
<clustering>
<clus scale="   30.044">  5  6 -1 -1</clus>
<clus scale="   84.807">  1  3  2 -1</clus>
<clus scale="   96.468">  2  4  1 -1</clus>
<clus scale="   84.807">  1  3  2 -1</clus>
</clustering>
</event>
<event>
 6    0  0.6207838E+002  0.2977291E+03  0.7546771E-02  0.1086381E+00
         21   -1    0    0  503  501  0.00000000000E+00  0.00000000000E+00  0.17036267574E+03  0.17036267574E+03  0.00000000000E+00 0. -1.
         21   -1    0    0  505  502 -0.00000000000E+00 -0.00000000000E+00 -0.13424228674E+04  0.13424228674E+04  0.00000000000E+00 0. -1.
         21    1    1    2  503  502  0.34659841440E+02  0.20578734244E+02  0.13980113626E+02  0.42664182738E+02  0.00000000000E+00 0. -1.
         21    1    1    2  504  506 -0.16046462109E+03 -0.25544596271E+03 -0.19204285517E+03  0.35760591816E+03  0.00000000000E+00 0. -1.
         21    1    1    2  505  504  0.10970230123E+03  0.27680631308E+03 -0.10186478393E+04  0.10612727031E+04  0.00000000000E+00 0. -1.
         21    1    1    2  506  501  0.16102478420E+02 -0.41939084614E+02  0.24650389164E+02  0.51242739149E+02  0.00000000000E+00 0.  1.
<scales pt_clust_3="40.30867" pt_clust_4="297.72914" pt_clust_5="14000.00000" pt_clust_6="44.39826"></scales>
<clustering>
<clus scale="   40.309">  1  3  2 -1</clus>
<clus scale="   44.398">  1  6  2 -1</clus>
<clus scale="  297.729">  1  4  2 -1</clus>
<clus scale="   40.309">  1  3  2 -1</clus>
</clustering>
</event>
<event>
 6    0  0.6207838E+002  0.1823967E+03  0.7546771E-02  0.1165503E+00
         21   -1    0    0  505  501  0.00000000000E+00  0.00000000000E+00  0.74289129944E+02  0.74289129944E+02  0.00000000000E+00 0. -1.
         21   -1    0    0  501  502 -0.00000000000E+00 -0.00000000000E+00 -0.39887438218E+03  0.39887438218E+03  0.00000000000E+00 0. -1.
         21    1    1    2  503  504 -0.38933339051E+02 -0.41725340686E+02 -0.85428395520E+02  0.10273665220E+03  0.00000000000E+00 0. -1.
         21    1    1    2  504  506 -0.47675581873E+02  0.63681303435E+01 -0.28811108676E+02  0.56067764127E+02  0.00000000000E+00 0. -1.
         21    1    1    2  505  503 -0.51822894909E+02 -0.48229362427E+02 -0.50323485196E+02  0.86856991654E+02  0.00000000000E+00 0. -1.
         21    1    1    2  506  502  0.13843181583E+03  0.83586572770E+02 -0.16002226285E+03  0.22750210414E+03  0.00000000000E+00 0. -1.
<scales pt_clust_3="30.95467" pt_clust_4="45.39532" pt_clust_5="45.39532" pt_clust_6="161.70987"></scales>
<clustering>
<clus scale="   30.955">  3  5 -1 -1</clus>
<clus scale="   45.395">  3  4 -1 -1</clus>
<clus scale="  161.710">  2  6  1 -1</clus>
<clus scale="  182.397">  1  3  2 -1</clus>
</clustering>
</event>
<event>
 6    0  0.6207838E+002  0.2430568E+03  0.7546771E-02  0.1117773E+00
         21   -1    0    0  503  501  0.00000000000E+00  0.00000000000E+00  0.17335673513E+04  0.17335673513E+04  0.00000000000E+00 0.  1.
         21   -1    0    0  505  502 -0.00000000000E+00 -0.00000000000E+00 -0.10626947360E+03  0.10626947360E+03  0.00000000000E+00 0. -1.
         21    1    1    2  503  502 -0.16781738178E+03  0.10858446823E+03  0.59417061592E+02  0.20852733052E+03  0.00000000000E+00 0. -1.
         21    1    1    2  504  506 -0.19405832893E+02  0.10200632428E+03  0.17686284200E+03  0.20509105642E+03  0.00000000000E+00 0.  1.
         21    1    1    2  505  504  0.29118406979E+02 -0.15494924287E+02  0.39002044828E+02  0.51079680936E+02  0.00000000000E+00 0.  1.
         21    1    1    2  506  501  0.15810480769E+03 -0.19509586823E+03  0.13520159293E+04  0.13751387570E+04  0.00000000000E+00 0.  1.
<scales pt_clust_3="243.05676" pt_clust_4="100.99092" pt_clust_5="32.98446" pt_clust_6="14000.00000"></scales>
<clustering>
<clus scale="   32.984">  2  5  1 -1</clus>
<clus scale="  100.991">  2  4  1 -1</clus>
<clus scale="  243.057">  2  3  1 -1</clus>
<clus scale="  243.057">  1  3  2 -1</clus>
</clustering>
</event>
<event>
 6    0  0.6207838E+002  0.6784282E+02  0.7546771E-02  0.1367586E+00
         21   -1    0    0  506  501  0.00000000000E+00  0.00000000000E+00  0.38390296035E+03  0.38390296035E+03  0.00000000000E+00 0.  1.
         21   -1    0    0  505  502 -0.00000000000E+00 -0.00000000000E+00 -0.37046099167E+03  0.37046099167E+03  0.00000000000E+00 0. -1.
         21    1    1    2  503  501  0.69509857013E+02 -0.22534368779E+01  0.33632050953E+03  0.34343585039E+03  0.00000000000E+00 0.  1.
         21    1    1    2  504  502 -0.57554974462E+02  0.85556957295E+02 -0.25626004457E+03  0.27622776557E+03  0.00000000000E+00 0. -1.
         21    1    1    2  505  503  0.33960676883E+02 -0.40699419714E+02 -0.41059744143E+02  0.67049779481E+02  0.00000000000E+00 0.  1.
         21    1    1    2  506  504 -0.45915559433E+02 -0.42604100704E+02 -0.25558752130E+02  0.67650556578E+02  0.00000000000E+00 0. -1.
<scales pt_clust_3="67.84282" pt_clust_4="58.92753" pt_clust_5="53.00727" pt_clust_6="14000.00000"></scales>
<clustering>
<clus scale="   53.007">  2  5  1 -1</clus>
<clus scale="   58.928">  2  4  1 -1</clus>
<clus scale="   67.843">  1  3  2 -1</clus>
<clus scale="   67.843">  1  3  2 -1</clus>
</clustering>
</event>
<event>
 6    0  0.6207838E+002  0.2650578E+03  0.7546771E-02  0.1104142E+00
         21   -1    0    0  504  501  0.00000000000E+00  0.00000000000E+00  0.91765910963E+03  0.91765910963E+03  0.00000000000E+00 0. -1.
         21   -1    0    0  506  502 -0.00000000000E+00 -0.00000000000E+00 -0.18154329281E+03  0.18154329281E+03  0.00000000000E+00 0.  1.
         21    1    1    2  503  502  0.25003188790E+03 -0.52622980972E+02 -0.38052908235E+02  0.25832759613E+03  0.00000000000E+00 0.  1.
         21    1    1    2  504  503  0.81217253401E+01 -0.36818608641E+02  0.18184070052E+03  0.18570840780E+03  0.00000000000E+00 0. -1.
         21    1    1    2  505  501 -0.10551680625E+03  0.68703860529E+02  0.26154793770E+03  0.29027804011E+03  0.00000000000E+00 0. -1.
         21    1    1    2  506  505 -0.15263680699E+03  0.20737729085E+02  0.33078008683E+03  0.36488835840E+03  0.00000000000E+00 0.  1.
<scales pt_clust_3="257.89182" pt_clust_4="37.70374" pt_clust_5="54.09821" pt_clust_6="54.09821"></scales>
<clustering>
<clus scale="   37.704">  1  4  2 -1</clus>
<clus scale="   54.098">  5  6 -1 -1</clus>
<clus scale="  257.892">  2  3  1 -1</clus>
<clus scale="   37.704">  1  3  2 -1</clus>
</clustering>
</event>
<event>
 6    0  0.6207838E+002  0.7068818E+02  0.7546771E-02  0.1357768E+00
         21   -1    0    0  504  501  0.00000000000E+00  0.00000000000E+00  0.66667569402E+03  0.66667569402E+03  0.00000000000E+00 0. -1.
         21   -1    0    0  503  502 -0.00000000000E+00 -0.00000000000E+00 -0.36978073632E+02  0.36978073632E+02  0.00000000000E+00 0.  1.
         21    1    1    2  503  505  0.22099725077E+02 -0.64245171949E+02  0.11760687709E+03  0.13582053419E+03  0.00000000000E+00 0. -1.
         21    1    1    2  504  506  0.53071061359E+01  0.92157522060E+02  0.25883808915E+03  0.27480598728E+03  0.00000000000E+00 0.  1.
         21    1    1    2  505  501  0.25850198088E+02 -0.39537403219E+02  0.22819449391E+03  0.23303254288E+03  0.00000000000E+00 0. -1.
         21    1    1    2  506  502 -0.53257029300E+02  0.11625053107E+02  0.25058160233E+02  0.59994703299E+02  0.00000000000E+00 0.  1.
<scales pt_clust_3="70.68818" pt_clust_4="14000.00000" pt_clust_5="47.23811" pt_clust_6="51.32742"></scales>
<clustering>
<clus scale="   47.238">  1  5  2 -1</clus>
<clus scale="   51.327">  2  6  1 -1</clus>
<clus scale="   70.688">  2  3  1 -1</clus>
<clus scale="   47.238">  1  3  2 -1</clus>
</clustering>
</event>
<event>
 6    0  0.6207838E+002  0.1220421E+03  0.7546771E-02  0.1239766E+00
         21   -1    0    0  505  501  0.00000000000E+00  0.00000000000E+00  0.67225266848E+03  0.67225266848E+03  0.00000000000E+00 0.  1.
         21   -1    0    0  506  502 -0.00000000000E+00 -0.00000000000E+00 -0.19658478005E+03  0.19658478005E+03  0.00000000000E+00 0. -1.
         21    1    1    2  503  501 -0.51177080802E+02  0.58001872463E+01  0.15572874369E+03  0.16402492915E+03  0.00000000000E+00 0.  1.
         21    1    1    2  504  502 -0.34110837052E+02 -0.63518602465E+02  0.16322973872E+03  0.17844357558E+03  0.00000000000E+00 0.  1.
         21    1    1    2  505  504  0.28309072335E+02 -0.57698780390E+02  0.31549007332E+03  0.32196977995E+03  0.00000000000E+00 0.  1.
         21    1    1    2  506  503  0.56978845519E+02  0.11541719561E+03 -0.15878066730E+03  0.20439916386E+03  0.00000000000E+00 0. -1.
<scales pt_clust_3="51.50472" pt_clust_4="122.04214" pt_clust_5="54.20552" pt_clust_6="14000.00000"></scales>
<clustering>
<clus scale="   51.505">  1  3  2 -1</clus>
<clus scale="   54.206">  1  5  2 -1</clus>
<clus scale="  122.042">  1  4  2 -1</clus>
<clus scale="   51.505">  1  3  2 -1</clus>
</clustering>
</event>
<event>
 6    0  0.6207838E+002  0.1594153E+03  0.7546771E-02  0.1189358E+00
         21   -1    0    0  505  501  0.00000000000E+00  0.00000000000E+00  0.18578722366E+03  0.18578722366E+03  0.00000000000E+00 0. -1.
         21   -1    0    0  504  502 -0.00000000000E+00 -0.00000000000E+00 -0.34191195196E+04  0.34191195196E+04  0.00000000000E+00 0. -1.
         21    1    1    2  503  506 -0.26755532426E+02  0.57911919486E+02 -0.97583470428E+02  0.11658551640E+03  0.00000000000E+00 0. -1.
         21    1    1    2  504  501  0.79741189399E+02 -0.13777010521E+03  0.12751112964E+03  0.20395672913E+03  0.00000000000E+00 0. -1.
         21    1    1    2  505  503 -0.59135806823E+02  0.22763764393E+02 -0.87233280904E+02  0.10781872711E+03  0.00000000000E+00 0. -1.
         21    1    1    2  506  502  0.61501498497E+01  0.57094421330E+02 -0.31760266743E+04  0.31765457706E+04  0.00000000000E+00 0. -1.
<scales pt_clust_3="47.94394" pt_clust_4="151.98390" pt_clust_5="47.94394" pt_clust_6="57.42471"></scales>
<clustering>
<clus scale="   47.944">  3  5 -1 -1</clus>
<clus scale="   57.425">  2  6  1 -1</clus>
<clus scale="  151.984">  1  4  2 -1</clus>
<clus scale="  151.984">  1  3  2 -1</clus>
</clustering>
</event>
<event>
 6    0  0.6207838E+002  0.8334423E+02  0.7546771E-02  0.1319820E+00
         21   -1    0    0  504  501  0.00000000000E+00  0.00000000000E+00  0.42203066712E+03  0.42203066712E+03  0.00000000000E+00 0.  1.
         21   -1    0    0  503  502 -0.00000000000E+00 -0.00000000000E+00 -0.19421767833E+03  0.19421767833E+03  0.00000000000E+00 0.  1.
         21    1    1    2  503  501 -0.63690630557E+02 -0.60019162823E+02 -0.10192767481E+03  0.13434302073E+03  0.00000000000E+00 0.  1.
         21    1    1    2  504  505 -0.32397383520E+02 -0.11115305157E+02  0.34587096330E+03  0.34756274789E+03  0.00000000000E+00 0.  1.
         21    1    1    2  505  506  0.53970241287E+02  0.64723304244E+01  0.42637933462E+01  0.54523920800E+02  0.00000000000E+00 0.  1.
         21    1    1    2  506  502  0.42117772790E+02  0.64662137555E+02 -0.20394093050E+02  0.79818656023E+02  0.00000000000E+00 0.  1.
<scales pt_clust_3="83.34423" pt_clust_4="34.25114" pt_clust_5="41.38110" pt_clust_6="14000.00000"></scales>
<clustering>
<clus scale="   34.251">  1  4  2 -1</clus>
<clus scale="   41.381">  1  5  2 -1</clus>
<clus scale="   83.344">  2  3  1 -1</clus>
<clus scale="   34.251">  1  3  2 -1</clus>
</clustering>
</event>
<event>
 6    0  0.6207838E+002  0.1320440E+03  0.7546771E-02  0.1224454E+00
         21   -1    0    0  506  501  0.00000000000E+00  0.00000000000E+00  0.38184309461E+03  0.38184309461E+03  0.00000000000E+00 0. -1.
         21   -1    0    0  504  502 -0.00000000000E+00 -0.00000000000E+00 -0.16371508943E+03  0.16371508943E+03  0.00000000000E+00 0. -1.
         21    1    1    2  503  502  0.10547108261E+03 -0.57386880407E+02 -0.11628734692E+03  0.16715307465E+03  0.00000000000E+00 0. -1.
         21    1    1    2  504  501  0.12379518324E+02  0.35293262392E+02  0.35652396390E+02  0.51671657730E+02  0.00000000000E+00 0. -1.
         21    1    1    2  505  503 -0.36204810436E+02  0.25229964743E+02  0.60743906715E+02  0.75081033708E+02  0.00000000000E+00 0.  1.
         21    1    1    2  506  505 -0.81645790502E+02 -0.31363467277E+01  0.23801904899E+03  0.25165241795E+03  0.00000000000E+00 0. -1.
<scales pt_clust_3="119.65395" pt_clust_4="37.40143" pt_clust_5="43.76003" pt_clust_6="43.76003"></scales>
<clustering>
<clus scale="   37.401">  1  4  2 -1</clus>
<clus scale="   43.760">  5  6 -1 -1</clus>
<clus scale="  119.654">  2  3  1 -1</clus>
<clus scale="   37.401">  1  3  2 -1</clus>
</clustering>
</event>
<event>
 6    0  0.6207838E+002  0.1650814E+03  0.7546771E-02  0.1183076E+00
         21   -1    0    0  506  501  0.00000000000E+00  0.00000000000E+00  0.44112486537E+03  0.44112486537E+03  0.00000000000E+00 0. -1.
         21   -1    0    0  505  502 -0.00000000000E+00 -0.00000000000E+00 -0.28895002058E+03  0.28895002058E+03  0.00000000000E+00 0. -1.
         21    1    1    2  503  504  0.11787918911E+03 -0.49035500978E+02  0.39083480932E+02  0.13351966920E+03  0.00000000000E+00 0. -1.
         21    1    1    2  504  501 -0.13793503302E+03 -0.84096427769E+02 -0.22562524497E+02  0.16311759565E+03  0.00000000000E+00 0. -1.
         21    1    1    2  505  503 -0.43332964778E+02 -0.28696316556E+02 -0.11628210300E+03  0.12736856715E+03  0.00000000000E+00 0. -1.
         21    1    1    2  506  502  0.63388808689E+02  0.16182824530E+03  0.25193599135E+03  0.30606905395E+03  0.00000000000E+00 0. -1.
<scales pt_clust_3="120.10142" pt_clust_4="14000.00000" pt_clust_5="51.97330" pt_clust_6="165.08142"></scales>
<clustering>
<clus scale="   51.973">  2  5  1 -1</clus>
<clus scale="  120.101">  2  3  1 -1</clus>
<clus scale="  165.081">  1  6  2 -1</clus>
<clus scale="  165.081">  1  3  2 -1</clus>
</clustering>
</event>
<event>
 6    0  0.6207838E+002  0.1276544E+03  0.7546771E-02  0.1230978E+00
         21   -1    0    0  506  501  0.00000000000E+00  0.00000000000E+00  0.12919331036E+02  0.12919331036E+02  0.00000000000E+00 0. -1.
         21   -1    0    0  505  502 -0.00000000000E+00 -0.00000000000E+00 -0.18057501700E+04  0.18057501700E+04  0.00000000000E+00 0. -1.
         21    1    1    2  503  502 -0.70261095393E+02 -0.14217653192E+02 -0.35224333715E+03  0.35946367237E+03  0.00000000000E+00 0. -1.
         21    1    1    2  504  501  0.11890560847E+02 -0.28157749917E+02 -0.62249564112E+02  0.69348774681E+02  0.00000000000E+00 0. -1.
         21    1    1    2  505  504  0.83027295262E+02  0.87618538120E+02 -0.11158367972E+04  0.11223467815E+04  0.00000000000E+00 0. -1.
         21    1    1    2  506  503 -0.24656760716E+02 -0.45243135011E+02 -0.26250114054E+03  0.26751027251E+03  0.00000000000E+00 0. -1.
<scales pt_clust_3="46.26002" pt_clust_4="30.56541" pt_clust_5="116.85491" pt_clust_6="46.26002"></scales>
<clustering>
<clus scale="   30.565">  1  4  2 -1</clus>
<clus scale="   46.260">  3  6 -1 -1</clus>
<clus scale="  116.855">  2  5  1 -1</clus>
<clus scale="   30.565">  1  3  2 -1</clus>
</clustering>
</event>
<event>
 6    0  0.6207838E+002  0.6200361E+02  0.7546771E-02  0.1389611E+00
         21   -1    0    0  504  501  0.00000000000E+00  0.00000000000E+00  0.23015668419E+03  0.23015668419E+03  0.00000000000E+00 0. -1.
         21   -1    0    0  505  502 -0.00000000000E+00 -0.00000000000E+00 -0.73690157481E+03  0.73690157481E+03  0.00000000000E+00 0.  1.
         21    1    1    2  503  501 -0.16539703333E+02 -0.10373283906E+03  0.19562895099E+03  0.22204672966E+03  0.00000000000E+00 0. -1.
         21    1    1    2  504  506 -0.57511867561E+01  0.46373400352E+02 -0.18348171626E+02  0.50201830757E+02  0.00000000000E+00 0.  1.
         21    1    1    2  505  503 -0.32796322445E+02  0.21949534293E+02 -0.10638293709E+03  0.11346677983E+03  0.00000000000E+00 0. -1.
         21    1    1    2  506  502  0.55087212534E+02  0.35409904420E+02 -0.57764273290E+03  0.58134291876E+03  0.00000000000E+00 0.  1.
<scales pt_clust_3="14000.00000" pt_clust_4="48.16776" pt_clust_5="39.46366" pt_clust_6="62.00361"></scales>
<clustering>
<clus scale="   39.464">  2  5  1 -1</clus>
<clus scale="   48.168">  1  4  2 -1</clus>
<clus scale="   62.004">  2  6  1 -1</clus>
<clus scale="   48.168">  1  3  2 -1</clus>
</clustering>
</event>
<event>
 6    0  0.6207838E+002  0.1173844E+03  0.7546771E-02  0.1247475E+00
         21   -1    0    0  504  501  0.00000000000E+00  0.00000000000E+00  0.21748526006E+03  0.21748526006E+03  0.00000000000E+00 0. -1.
         21   -1    0    0  505  502 -0.00000000000E+00 -0.00000000000E+00 -0.21329046237E+03  0.21329046237E+03  0.00000000000E+00 0.  1.
         21    1    1    2  503  501  0.23636947074E+02  0.26606203258E+02  0.63424081263E+02  0.72726951008E+02  0.00000000000E+00 0. -1.
         21    1    1    2  504  506 -0.33190085661E+02 -0.16709075386E+02  0.69723832777E-01  0.37158846159E+02  0.00000000000E+00 0. -1.
         21    1    1    2  505  503 -0.89165190906E+02  0.57670765940E+02  0.83150924859E+02  0.13487188298E+03  0.00000000000E+00 0. -1.
         21    1    1    2  506  502  0.98718329492E+02 -0.67567893812E+02 -0.14244993227E+03  0.18601804228E+03  0.00000000000E+00 0.  1.
<scales pt_clust_3="35.58926" pt_clust_4="33.07845" pt_clust_5="14000.00000" pt_clust_6="117.38435"></scales>
<clustering>
<clus scale="   35.589">  1  3  2 -1</clus>
<clus scale="   33.078">  1  4  2 -1</clus>
<clus scale="  117.384">  2  6  1 -1</clus>
<clus scale="   35.589">  1  3  2 -1</clus>
</clustering>
</event>
<event>
 6    0  0.6207838E+002  0.7835052E+02  0.7546771E-02  0.1333799E+00
         21   -1    0    0  506  501  0.00000000000E+00  0.00000000000E+00  0.10145459133E+03  0.10145459133E+03  0.00000000000E+00 0. -1.
         21   -1    0    0  503  502 -0.00000000000E+00 -0.00000000000E+00 -0.62556098279E+03  0.62556098279E+03  0.00000000000E+00 0. -1.
         21    1    1    2  503  505 -0.82376687623E+01  0.59514111957E+02 -0.43922439047E+03  0.44331462179E+03  0.00000000000E+00 0. -1.
         21    1    1    2  504  502  0.41511236582E+02 -0.99062150815E+02 -0.39199615596E+02  0.11433766811E+03  0.00000000000E+00 0. -1.
         21    1    1    2  505  501  0.36740940312E+02  0.56613617875E+02 -0.66094197958E+02  0.94463968938E+02  0.00000000000E+00 0. -1.
         21    1    1    2  506  504 -0.70014508132E+02 -0.17065579017E+02  0.20411812564E+02  0.74899315272E+02  0.00000000000E+00 0. -1.
<scales pt_clust_3="60.08152" pt_clust_4="78.35052" pt_clust_5="14000.00000" pt_clust_6="71.71047"></scales>
<clustering>
<clus scale="   60.082">  2  3  1 -1</clus>
<clus scale="   71.710">  1  6  2 -1</clus>
<clus scale="   78.351">  2  4  1 -1</clus>
<clus scale="   71.710">  1  3  2 -1</clus>
</clustering>
</event>
<event>
 6    0  0.6207838E+002  0.1051661E+03  0.7546771E-02  0.1269793E+00
         21   -1    0    0  506  501  0.00000000000E+00  0.00000000000E+00  0.25024895021E+03  0.25024895021E+03  0.00000000000E+00 0. -1.
         21   -1    0    0  504  502 -0.00000000000E+00 -0.00000000000E+00 -0.32331564962E+03  0.32331564962E+03  0.00000000000E+00 0. -1.
         21    1    1    2  503  501  0.99641564494E+02 -0.71987119312E+02  0.18563434855E+03  0.22264478005E+03  0.00000000000E+00 0. -1.
         21    1    1    2  504  503  0.53914462431E+01  0.38799420928E+02 -0.10583805186E+02  0.40576836855E+02  0.00000000000E+00 0. -1.
         21    1    1    2  505  502 -0.59782135617E+02  0.55341663661E+02 -0.24684878802E+03  0.25994408557E+03  0.00000000000E+00 0. -1.
         21    1    1    2  506  505 -0.45250875120E+02 -0.22153965278E+02 -0.12684547532E+01  0.50398897350E+02  0.00000000000E+00 0. -1.
<scales pt_clust_3="105.16611" pt_clust_4="39.17222" pt_clust_5="14000.00000" pt_clust_6="48.56431"></scales>
<clustering>
<clus scale="   39.172">  2  4  1 -1</clus>
<clus scale="   48.564">  1  6  2 -1</clus>
<clus scale="  105.166">  1  3  2 -1</clus>
<clus scale="   48.564">  1  3  2 -1</clus>
</clustering>
</event>
<event>
 6    0  0.6207838E+002  0.9217695E+02  0.7546771E-02  0.1297664E+00
         21   -1    0    0  505  501  0.00000000000E+00  0.00000000000E+00  0.42468387092E+03  0.42468387092E+03  0.00000000000E+00 0.  1.
         21   -1    0    0  504  502 -0.00000000000E+00 -0.00000000000E+00 -0.11372122929E+03  0.11372122929E+03  0.00000000000E+00 0. -1.
         21    1    1    2  503  502 -0.90907580416E-01 -0.45136649796E+02 -0.59131245289E+02  0.74389714265E+02  0.00000000000E+00 0. -1.
         21    1    1    2  504  506 -0.46342131615E+02 -0.74199492004E+02  0.41885674167E+02  0.96992615578E+02  0.00000000000E+00 0. -1.
         21    1    1    2  505  503  0.71073641438E+02  0.51022863336E+02  0.13772279662E+03  0.16316361052E+03  0.00000000000E+00 0.  1.
         21    1    1    2  506  501 -0.24640602243E+02  0.68313278465E+02  0.19048541613E+03  0.20385915985E+03  0.00000000000E+00 0.  1.
<scales pt_clust_3="45.13674" pt_clust_4="14000.00000" pt_clust_5="92.17695" pt_clust_6="66.61601"></scales>
<clustering>
<clus scale="   45.137">  2  3  1 -1</clus>
<clus scale="   66.616">  1  6  2 -1</clus>
<clus scale="   92.177">  1  5  2 -1</clus>
<clus scale="   66.616">  1  3  2 -1</clus>
</clustering>
</event>
<event>
 6    0  0.6207838E+002  0.9148840E+02  0.7546771E-02  0.1299287E+00
         21   -1    0    0  504  501  0.00000000000E+00  0.00000000000E+00  0.62553082881E+03  0.62553082881E+03  0.00000000000E+00 0. -1.
         21   -1    0    0  503  502 -0.00000000000E+00 -0.00000000000E+00 -0.38222059189E+03  0.38222059189E+03  0.00000000000E+00 0.  1.
         21    1    1    2  503  506 -0.24208006523E+02  0.63550970644E+02 -0.33258632608E+03  0.33946784493E+03  0.00000000000E+00 0.  1.
         21    1    1    2  504  502 -0.89940948719E+02  0.36672481059E+02  0.34298711331E+03  0.35647497110E+03  0.00000000000E+00 0. -1.
         21    1    1    2  505  501  0.50391779910E+01 -0.41633437525E+02  0.16565280922E+03  0.17087887417E+03  0.00000000000E+00 0. -1.
         21    1    1    2  506  505  0.10910977725E+03 -0.58590014178E+02  0.67256640459E+02  0.14092973050E+03  0.00000000000E+00 0. -1.
<scales pt_clust_3="67.69933" pt_clust_4="14000.00000" pt_clust_5="41.93729" pt_clust_6="91.48840"></scales>
<clustering>
<clus scale="   41.937">  1  5  2 -1</clus>
<clus scale="   67.699">  2  3  1 -1</clus>
<clus scale="   91.488">  2  6  1 -1</clus>
<clus scale="   41.937">  1  3  2 -1</clus>
</clustering>
</event>
<event>
 6    0  0.6207838E+002  0.1050952E+03  0.7546771E-02  0.1269932E+00
         21   -1    0    0  504  501  0.00000000000E+00  0.00000000000E+00  0.40562423523E+03  0.40562423523E+03  0.00000000000E+00 0. -1.
         21   -1    0    0  503  502 -0.00000000000E+00 -0.00000000000E+00 -0.35030003381E+03  0.35030003381E+03  0.00000000000E+00 0. -1.
         21    1    1    2  503  501  0.60603497843E+02  0.75246848045E+02 -0.15246180779E+02  0.97812668505E+02  0.00000000000E+00 0. -1.
         21    1    1    2  504  506  0.32820928221E+02  0.14306182086E+02  0.33562447742E+03  0.33752876917E+03  0.00000000000E+00 0. -1.
         21    1    1    2  505  502 -0.10279354519E+03 -0.40633642496E+02 -0.24127586097E+03  0.26538961344E+03  0.00000000000E+00 0. -1.
         21    1    1    2  506  505  0.93691191291E+01 -0.48919387635E+02 -0.23778234249E+02  0.55193217916E+02  0.00000000000E+00 0. -1.
<scales pt_clust_3="14000.00000" pt_clust_4="35.80335" pt_clust_5="105.09520" pt_clust_6="48.66947"></scales>
<clustering>
<clus scale="   35.803">  1  4  2 -1</clus>
<clus scale="   48.669">  1  6  2 -1</clus>
<clus scale="  105.095">  2  5  1 -1</clus>
<clus scale="   35.803">  1  3  2 -1</clus>
</clustering>
</event>
<event>
 6    0  0.6207838E+002  0.9177449E+02  0.7546771E-02  0.1298611E+00
         21   -1    0    0  505  501  0.00000000000E+00  0.00000000000E+00  0.19111328531E+04  0.19111328531E+04  0.00000000000E+00 0.  1.
         21   -1    0    0  503  502 -0.00000000000E+00 -0.00000000000E+00 -0.90590374097E+02  0.90590374097E+02  0.00000000000E+00 0.  1.
         21    1    1    2  503  504  0.37074786710E+02 -0.16471911523E+02 -0.13728741264E+02  0.42829219179E+02  0.00000000000E+00 0.  1.
         21    1    1    2  504  506 -0.69685832249E+02  0.79785787269E+02  0.36893412480E+02  0.11217402084E+03  0.00000000000E+00 0.  1.
         21    1    1    2  505  502  0.56669708558E+01  0.30095852353E+02  0.17256090380E+04  0.17258807684E+04  0.00000000000E+00 0.  1.
         21    1    1    2  506  501  0.26944074683E+02 -0.93409728100E+02  0.71768769768E+02  0.12083921871E+03  0.00000000000E+00 0.  1.
<scales pt_clust_3="40.08497" pt_clust_4="14000.00000" pt_clust_5="30.62474" pt_clust_6="91.77449"></scales>
<clustering>
<clus scale="   30.625">  1  5  2 -1</clus>
<clus scale="   40.085">  2  3  1 -1</clus>
<clus scale="   91.774">  1  6  2 -1</clus>
<clus scale="   30.625">  1  3  2 -1</clus>
</clustering>
</event>
<event>
 6    0  0.6207838E+002  0.1420657E+03  0.7546771E-02  0.1210576E+00
         21   -1    0    0  506  501  0.00000000000E+00  0.00000000000E+00  0.98026772063E+03  0.98026772063E+03  0.00000000000E+00 0.  1.
         21   -1    0    0  503  502 -0.00000000000E+00 -0.00000000000E+00 -0.21605948457E+03  0.21605948457E+03  0.00000000000E+00 0.  1.
         21    1    1    2  503  505  0.17670301757E+02  0.26688065157E+02  0.18602487915E+02  0.37020871716E+02  0.00000000000E+00 0.  1.
         21    1    1    2  504  502  0.58129744137E+02 -0.62130837565E+02 -0.54683317288E+02  0.10114135316E+03  0.00000000000E+00 0.  1.
         21    1    1    2  505  501 -0.11989917678E+03 -0.10003584106E+03 -0.73678673290E+02  0.17266015460E+03  0.00000000000E+00 0.  1.
         21    1    1    2  506  504  0.44099130886E+02  0.13547861347E+03  0.87396773872E+03  0.88550482572E+03  0.00000000000E+00 0.  1.
<scales pt_clust_3="32.00769" pt_clust_4="83.12235" pt_clust_5="14000.00000" pt_clust_6="142.06566"></scales>
<clustering>
<clus scale="   32.008">  2  3  1 -1</clus>
<clus scale="   83.122">  2  4  1 -1</clus>
<clus scale="  142.066">  1  6  2 -1</clus>
<clus scale="  142.066">  1  3  2 -1</clus>
</clustering>
</event>
<event>
 6    0  0.6207838E+002  0.1259882E+03  0.7546771E-02  0.1233533E+00
         21   -1    0    0  505  501  0.00000000000E+00  0.00000000000E+00  0.16828352011E+03  0.16828352011E+03  0.00000000000E+00 0.  1.
         21   -1    0    0  503  502 -0.00000000000E+00 -0.00000000000E+00 -0.78553240991E+03  0.78553240991E+03  0.00000000000E+00 0. -1.
         21    1    1    2  503  501 -0.11989651197E+03 -0.36463587252E+02 -0.65267297384E+03  0.66459519827E+03  0.00000000000E+00 0. -1.
         21    1    1    2  504  502  0.13092396360E+03  0.21253446319E+02 -0.38616368634E+02  0.13814491360E+03  0.00000000000E+00 0.  1.
         21    1    1    2  505  506 -0.22938811216E+02 -0.28267832683E+02  0.94722995596E+02  0.10147760994E+03  0.00000000000E+00 0.  1.
         21    1    1    2  506  504  0.11911359580E+02  0.43477973616E+02 -0.20682542912E+02  0.49598208214E+02  0.00000000000E+00 0.  1.
<scales pt_clust_3="125.98816" pt_clust_4="14000.00000" pt_clust_5="36.40411" pt_clust_6="38.33430"></scales>
<clustering>
<clus scale="   36.404">  1  5  2 -1</clus>
<clus scale="   38.334">  1  6  2 -1</clus>
<clus scale="  125.988">  2  3  1 -1</clus>
<clus scale="   36.404">  1  3  2 -1</clus>
</clustering>
</event>
<event>
 6    0  0.6207838E+002  0.1558611E+03  0.7546771E-02  0.1193450E+00
         21   -1    0    0  503  501  0.00000000000E+00  0.00000000000E+00  0.30609549094E+03  0.30609549094E+03  0.00000000000E+00 0.  1.
         21   -1    0    0  504  502 -0.00000000000E+00 -0.00000000000E+00 -0.13284343518E+04  0.13284343518E+04  0.00000000000E+00 0.  1.
         21    1    1    2  503  506 -0.62713653432E+02  0.75157334433E+02  0.12064445379E+03  0.15535994168E+03  0.00000000000E+00 0.  1.
         21    1    1    2  504  505  0.12298515524E+03 -0.86630297615E+02 -0.12851215082E+04  0.12938962276E+04  0.00000000000E+00 0.  1.
         21    1    1    2  505  501  0.15443101165E+02 -0.26329110582E+02  0.19325892216E+02  0.36127573231E+02  0.00000000000E+00 0.  1.
         21    1    1    2  506  502 -0.75714602976E+02  0.37802073764E+02  0.12281230130E+03  0.14914610030E+03  0.00000000000E+00 0.  1.
<scales pt_clust_3="36.58731" pt_clust_4="150.87132" pt_clust_5="30.52395" pt_clust_6="36.58731"></scales>
<clustering>
<clus scale="   30.524">  1  5  2 -1</clus>
<clus scale="   36.587">  3  6 -1 -1</clus>
<clus scale="  150.871">  2  4  1 -1</clus>
<clus scale="   30.524">  1  3  2 -1</clus>
</clustering>
</event>
<event>
 6    0  0.6207838E+002  0.9400670E+02  0.7546771E-02  0.1293429E+00
         21   -1    0    0  505  501  0.00000000000E+00  0.00000000000E+00  0.17146971824E+04  0.17146971824E+04  0.00000000000E+00 0.  1.
         21   -1    0    0  503  502 -0.00000000000E+00 -0.00000000000E+00 -0.14588032583E+03  0.14588032583E+03  0.00000000000E+00 0. -1.
         21    1    1    2  503  506  0.42984408868E+02  0.78807693370E+02  0.36940993321E+03  0.38016050649E+03  0.00000000000E+00 0.  1.
         21    1    1    2  504  502 -0.32498181183E+02 -0.88465770306E+02 -0.11059403587E+03  0.14530438764E+03  0.00000000000E+00 0. -1.
         21    1    1    2  505  504 -0.62484658058E+02 -0.35565784521E+02  0.10006817723E+03  0.12321890121E+03  0.00000000000E+00 0. -1.
         21    1    1    2  506  501  0.51998430374E+02  0.45223861458E+02  0.12099327820E+04  0.12118937129E+04  0.00000000000E+00 0.  1.
<scales pt_clust_3="14000.00000" pt_clust_4="94.00670" pt_clust_5="57.00469" pt_clust_6="68.91324"></scales>
<clustering>
<clus scale="   68.913">  1  6  2 -1</clus>
<clus scale="   57.005">  1  5  2 -1</clus>
<clus scale="   94.007">  2  4  1 -1</clus>
<clus scale="   68.913">  1  3  2 -1</clus>
</clustering>
</event>
<event>
 6    0  0.6207838E+002  0.1829379E+03  0.7546771E-02  0.1164990E+00
         21   -1    0    0  506  501  0.00000000000E+00  0.00000000000E+00  0.37355104541E+03  0.37355104541E+03  0.00000000000E+00 0. -1.
         21   -1    0    0  505  502 -0.00000000000E+00 -0.00000000000E+00 -0.34442014516E+03  0.34442014516E+03  0.00000000000E+00 0. -1.
         21    1    1    2  503  504  0.79689581149E+02 -0.77672183889E+02  0.15775718365E+02  0.11239337518E+03  0.00000000000E+00 0. -1.
         21    1    1    2  504  502 -0.87205229345E+02  0.14767372608E+03 -0.23121602893E+03  0.28787694148E+03  0.00000000000E+00 0. -1.
         21    1    1    2  505  501 -0.55450815464E+02 -0.85703584070E+02  0.22935650115E+03  0.25104641379E+03  0.00000000000E+00 0. -1.
         21    1    1    2  506  503  0.62966463660E+02  0.15702041875E+02  0.15214709662E+02  0.66654460129E+02  0.00000000000E+00 0. -1.
<scales pt_clust_3="63.46428" pt_clust_4="162.97115" pt_clust_5="102.07790" pt_clust_6="63.46428"></scales>
<clustering>
<clus scale="   63.464">  3  6 -1 -1</clus>
<clus scale="  102.078">  1  5  2 -1</clus>
<clus scale="  162.971">  2  4  1 -1</clus>
<clus scale="  102.078">  1  3  2 -1</clus>
</clustering>
</event>
<event>
 6    0  0.6207838E+002  0.7518966E+02  0.7546771E-02  0.1343285E+00
         21   -1    0    0  505  501  0.00000000000E+00  0.00000000000E+00  0.29225277775E+03  0.29225277775E+03  0.00000000000E+00 0. -1.
         21   -1    0    0  504  502 -0.00000000000E+00 -0.00000000000E+00 -0.16067625676E+03  0.16067625676E+03  0.00000000000E+00 0. -1.
         21    1    1    2  503  502 -0.91470259398E+02 -0.66724210866E+02  0.26957800760E+02  0.11638578819E+03  0.00000000000E+00 0. -1.
         21    1    1    2  504  506  0.18981173516E+02  0.48743214889E+02 -0.99013742324E+02  0.11198172670E+03  0.00000000000E+00 0. -1.
         21    1    1    2  505  503  0.13675839060E+02  0.29140318390E+02  0.47817333059E+02  0.57642727822E+02  0.00000000000E+00 0. -1.
         21    1    1    2  506  501  0.58813246822E+02 -0.11159322412E+02  0.15581512949E+03  0.16691879180E+03  0.00000000000E+00 0. -1.
<scales pt_clust_3="75.18966" pt_clust_4="53.17801" pt_clust_5="32.18985" pt_clust_6="14000.00000"></scales>
<clustering>
<clus scale="   32.190">  1  5  2 -1</clus>
<clus scale="   53.178">  2  4  1 -1</clus>
<clus scale="   75.190">  2  3  1 -1</clus>
<clus scale="   32.190">  1  3  2 -1</clus>
</clustering>
</event>
<event>
 6    0  0.6207838E+002  0.1290147E+03  0.7546771E-02  0.1228925E+00
         21   -1    0    0  506  501  0.00000000000E+00  0.00000000000E+00  0.10940077396E+03  0.10940077396E+03  0.00000000000E+00 0. -1.
         21   -1    0    0  503  502 -0.00000000000E+00 -0.00000000000E+00 -0.35780443284E+03  0.35780443284E+03  0.00000000000E+00 0. -1.
         21    1    1    2  503  501  0.22173786018E+02  0.32655713624E+02 -0.24922671498E+02  0.46682030518E+02  0.00000000000E+00 0. -1.
         21    1    1    2  504  505  0.34526953426E+02 -0.12109225515E+03 -0.41829145637E+02  0.13268429521E+03  0.00000000000E+00 0. -1.
         21    1    1    2  505  502 -0.55063625235E+02  0.11858883363E+03 -0.20937467374E+03  0.24684624423E+03  0.00000000000E+00 0. -1.
         21    1    1    2  506  504 -0.16371142100E+01 -0.30152292103E+02  0.27722831993E+02  0.40992636848E+02  0.00000000000E+00 0. -1.
<scales pt_clust_3="35.79395" pt_clust_4="129.01466" pt_clust_5="14000.00000" pt_clust_6="30.19670"></scales>
<clustering>
<clus scale="   30.197">  1  6  2 -1</clus>
<clus scale="   35.794">  1  3  2 -1</clus>
<clus scale="  129.015">  1  4  2 -1</clus>
<clus scale="   30.197">  1  3  2 -1</clus>
</clustering>
</event>
<event>
 6    0  0.6207838E+002  0.1377230E+03  0.7546771E-02  0.1216426E+00
         21   -1    0    0  504  501  0.00000000000E+00  0.00000000000E+00  0.20958251467E+04  0.20958251467E+04  0.00000000000E+00 0.  1.
         21   -1    0    0  505  502 -0.00000000000E+00 -0.00000000000E+00 -0.61294648318E+02  0.61294648318E+02  0.00000000000E+00 0.  1.
         21    1    1    2  503  501  0.13740478145E+03  0.20841862060E+02  0.26170363067E+03  0.29631612762E+03  0.00000000000E+00 0.  1.
         21    1    1    2  504  506 -0.54558300028E+02  0.83762477675E+02  0.15464679837E+04  0.15496954492E+04  0.00000000000E+00 0.  1.
         21    1    1    2  505  503  0.49750831055E+02 -0.28113136859E+02  0.39090594123E+02  0.69235599250E+02  0.00000000000E+00 0.  1.
         21    1    1    2  506  502 -0.13259731248E+03 -0.76491202877E+02  0.18726828997E+03  0.24187261900E+03  0.00000000000E+00 0.  1.
<scales pt_clust_3="14000.00000" pt_clust_4="98.19770" pt_clust_5="57.14450" pt_clust_6="137.72304"></scales>
<clustering>
<clus scale="   57.144">  2  5  1 -1</clus>
<clus scale="   98.198">  1  4  2 -1</clus>
<clus scale="  137.723">  2  6  1 -1</clus>
<clus scale="   98.198">  1  3  2 -1</clus>
</clustering>
</event>
<event>
 6    0  0.6207838E+002  0.1247047E+03  0.7546771E-02  0.1235531E+00
         21   -1    0    0  505  501  0.00000000000E+00  0.00000000000E+00  0.45621079053E+03  0.45621079053E+03  0.00000000000E+00 0. -1.
         21   -1    0    0  506  502 -0.00000000000E+00 -0.00000000000E+00 -0.42762144424E+03  0.42762144424E+03  0.00000000000E+00 0. -1.
         21    1    1    2  503  504 -0.25171356818E+02  0.31233510954E+02  0.44772833552E+02  0.60114357976E+02  0.00000000000E+00 0.  1.
         21    1    1    2  504  501 -0.12862109227E+02 -0.28706199508E+02  0.71270575237E+01  0.32253289645E+02  0.00000000000E+00 0.  1.
         21    1    1    2  505  502  0.72861188261E+02 -0.12191833915E+03  0.36078551005E+03  0.38773575852E+03  0.00000000000E+00 0. -1.
         21    1    1    2  506  503 -0.34827722216E+02  0.11939102771E+03 -0.38409605483E+03  0.40372882863E+03  0.00000000000E+00 0. -1.
<scales pt_clust_3="38.54568" pt_clust_4="31.45600" pt_clust_5="124.70474" pt_clust_6="14000.00000"></scales>
<clustering>
<clus scale="   31.456">  1  4  2 -1</clus>
<clus scale="   38.546">  1  3  2 -1</clus>
<clus scale="  124.705">  1  5  2 -1</clus>
<clus scale="   31.456">  1  3  2 -1</clus>
</clustering>
</event>
<event>
 6    0  0.6207838E+002  0.8021580E+02  0.7546771E-02  0.1328440E+00
         21   -1    0    0  505  501  0.00000000000E+00  0.00000000000E+00  0.42717307650E+03  0.42717307650E+03  0.00000000000E+00 0. -1.
         21   -1    0    0  504  502 -0.00000000000E+00 -0.00000000000E+00 -0.25097593008E+03  0.25097593008E+03  0.00000000000E+00 0. -1.
         21    1    1    2  503  502 -0.57678646077E+02 -0.17163002023E+02 -0.47092593186E+01  0.60362007712E+02  0.00000000000E+00 0. -1.
         21    1    1    2  504  506 -0.42341423678E+02 -0.69748382707E+02 -0.99662303304E+02  0.12880298036E+03  0.00000000000E+00 0. -1.
         21    1    1    2  505  503  0.16853274456E+02  0.55257122512E+02  0.36306962275E+03  0.36763695872E+03  0.00000000000E+00 0. -1.
         21    1    1    2  506  501  0.83166795299E+02  0.31654262219E+02 -0.82500913715E+02  0.12134705979E+03  0.00000000000E+00 0. -1.
<scales pt_clust_3="50.68241" pt_clust_4="14000.00000" pt_clust_5="57.77008" pt_clust_6="80.21580"></scales>
<clustering>
<clus scale="   57.770">  1  5  2 -1</clus>
<clus scale="   50.682">  1  3  2 -1</clus>
<clus scale="   80.216">  1  6  2 -1</clus>
<clus scale="   57.770">  1  3  2 -1</clus>
</clustering>
</event>
<event>
 6    0  0.6207838E+002  0.9746078E+02  0.7546771E-02  0.1285728E+00
         21   -1    0    0  506  501  0.00000000000E+00  0.00000000000E+00  0.79439897853E+03  0.79439897853E+03  0.00000000000E+00 0. -1.
         21   -1    0    0  504  502 -0.00000000000E+00 -0.00000000000E+00 -0.68235741448E+02  0.68235741448E+02  0.00000000000E+00 0. -1.
         21    1    1    2  503  502  0.35721681152E+02 -0.21360545383E+02 -0.40046973317E+02  0.57758735056E+02  0.00000000000E+00 0. -1.
         21    1    1    2  504  501  0.81709740402E+02  0.18018916614E+01  0.12580099524E+03  0.15001872847E+03  0.00000000000E+00 0. -1.
         21    1    1    2  505  503 -0.91741074512E+02  0.43223520300E+02  0.45193182356E+03  0.46317067114E+03  0.00000000000E+00 0. -1.
         21    1    1    2  506  505 -0.25690347042E+02 -0.23664866579E+02  0.18847739159E+03  0.19168658530E+03  0.00000000000E+00 0. -1.
<scales pt_clust_3="41.47882" pt_clust_4="14000.00000" pt_clust_5="97.46078" pt_clust_6="34.92878"></scales>
<clustering>
<clus scale="   34.929">  1  6  2 -1</clus>
<clus scale="   41.479">  2  3  1 -1</clus>
<clus scale="   97.461">  1  5  2 -1</clus>
<clus scale="   34.929">  1  3  2 -1</clus>
</clustering>
</event>
<event>
 6    0  0.6207838E+002  0.8672677E+02  0.7546771E-02  0.1310978E+00
         21   -1    0    0  503  501  0.00000000000E+00  0.00000000000E+00  0.43153270133E+03  0.43153270133E+03  0.00000000000E+00 0. -1.
         21   -1    0    0  501  502 -0.00000000000E+00 -0.00000000000E+00 -0.17696389992E+03  0.17696389992E+03  0.00000000000E+00 0. -1.
         21    1    1    2  503  504  0.32847930709E+02 -0.57598091705E+01  0.26168396198E+03  0.26380041302E+03  0.00000000000E+00 0. -1.
         21    1    1    2  504  506  0.37166639356E+02 -0.14711987176E+02  0.58057544492E+02  0.70487446543E+02  0.00000000000E+00 0. -1.
         21    1    1    2  505  502  0.68823830763E+02  0.40474186702E+02 -0.10166315634E+03  0.12926823596E+03  0.00000000000E+00 0. -1.
         21    1    1    2  506  505 -0.13883840083E+03 -0.20002390355E+02  0.36490451281E+02  0.14494050572E+03  0.00000000000E+00 0. -1.
<scales pt_clust_3="33.34909" pt_clust_4="52.47236" pt_clust_5="14000.00000" pt_clust_6="86.72677"></scales>
<clustering>
<clus scale="   33.349">  1  3  2 -1</clus>
<clus scale="   52.472">  1  4  2 -1</clus>
<clus scale="   86.727">  1  6  2 -1</clus>
<clus scale="   33.349">  1  3  2 -1</clus>
</clustering>
</event>
<event>
 6    0  0.6207838E+002  0.1753503E+03  0.7546771E-02  0.1172380E+00
         21   -1    0    0  503  501  0.00000000000E+00  0.00000000000E+00  0.16307720361E+04  0.16307720361E+04  0.00000000000E+00 0.  1.
         21   -1    0    0  506  502 -0.00000000000E+00 -0.00000000000E+00 -0.12765846401E+03  0.12765846401E+03  0.00000000000E+00 0. -1.
         21    1    1    2  503  505  0.23152505954E+01 -0.52536739170E+02  0.64252635270E+03  0.64467478876E+03  0.00000000000E+00 0.  1.
         21    1    1    2  504  501 -0.40247023753E+02 -0.23633606672E+02  0.22906624449E+03  0.23377278424E+03  0.00000000000E+00 0.  1.
         21    1    1    2  505  502  0.80516567560E+02 -0.76111038034E+02  0.69924361042E+03  0.70796711398E+03  0.00000000000E+00 0.  1.
         21    1    1    2  506  504 -0.42584794402E+02  0.15228138388E+03 -0.67722635550E+02  0.17201581310E+03  0.00000000000E+00 0. -1.
<scales pt_clust_3="60.07476" pt_clust_4="46.67301" pt_clust_5="60.07476" pt_clust_6="157.68836"></scales>
<clustering>
<clus scale="   46.673">  1  4  2 -1</clus>
<clus scale="   60.075">  3  5 -1 -1</clus>
<clus scale="  157.688">  2  6  1 -1</clus>
<clus scale="   46.673">  1  3  2 -1</clus>
</clustering>
</event>
<event>
 6    0  0.6207838E+002  0.9281466E+02  0.7546771E-02  0.1296175E+00
         21   -1    0    0  505  501  0.00000000000E+00  0.00000000000E+00  0.85532155679E+03  0.85532155679E+03  0.00000000000E+00 0.  1.
         21   -1    0    0  504  502 -0.00000000000E+00 -0.00000000000E+00 -0.24541350608E+03  0.24541350608E+03  0.00000000000E+00 0.  1.
         21    1    1    2  503  502 -0.58065239007E+02 -0.65719991161E+02 -0.19526423791E+03  0.21405329202E+03  0.00000000000E+00 0.  1.
         21    1    1    2  504  506 -0.29492673699E+02  0.10978244506E+03  0.74920629419E+02  0.13614368791E+03  0.00000000000E+00 0.  1.
         21    1    1    2  505  503  0.35249300743E+02 -0.82807111416E+02  0.57785398609E+03  0.58482028021E+03  0.00000000000E+00 0.  1.
         21    1    1    2  506  501  0.52308611963E+02  0.38744657520E+02  0.15239767312E+03  0.16571780273E+03  0.00000000000E+00 0.  1.
<scales pt_clust_3="86.83769" pt_clust_4="14000.00000" pt_clust_5="92.81466" pt_clust_6="65.09485"></scales>
<clustering>
<clus scale="   65.095">  1  6  2 -1</clus>
<clus scale="   86.838">  2  3  1 -1</clus>
<clus scale="   92.815">  1  5  2 -1</clus>
<clus scale="   65.095">  1  3  2 -1</clus>
</clustering>
</event>
<event>
 6    0  0.6207838E+002  0.9493392E+02  0.7546771E-02  0.1291325E+00
         21   -1    0    0  504  501  0.00000000000E+00  0.00000000000E+00  0.41992192943E+03  0.41992192943E+03  0.00000000000E+00 0.  1.
         21   -1    0    0  503  502 -0.00000000000E+00 -0.00000000000E+00 -0.17915271480E+03  0.17915271480E+03  0.00000000000E+00 0. -1.
         21    1    1    2  503  506 -0.92182381606E+02 -0.45204734138E+02  0.26912204225E+03  0.28804120033E+03  0.00000000000E+00 0.  1.
         21    1    1    2  504  505  0.12836959627E+02  0.12111373675E+03  0.20173911844E+02  0.12345165645E+03  0.00000000000E+00 0.  1.
         21    1    1    2  505  502  0.38312102510E+02 -0.45918616543E+02 -0.99187258920E+02  0.11582076185E+03  0.00000000000E+00 0. -1.
         21    1    1    2  506  501  0.41033319468E+02 -0.29990386064E+02  0.50660519463E+02  0.71761025600E+02  0.00000000000E+00 0.  1.
<scales pt_clust_3="94.93392" pt_clust_4="14000.00000" pt_clust_5="60.94653" pt_clust_6="50.82476"></scales>
<clustering>
<clus scale="   50.825">  1  6  2 -1</clus>
<clus scale="   60.947">  2  5  1 -1</clus>
<clus scale="   94.934">  1  3  2 -1</clus>
<clus scale="   50.825">  1  3  2 -1</clus>
</clustering>
</event>
<event>
 6    0  0.6207838E+002  0.7940855E+02  0.7546771E-02  0.1330738E+00
         21   -1    0    0  504  501  0.00000000000E+00  0.00000000000E+00  0.69897637500E+03  0.69897637500E+03  0.00000000000E+00 0.  1.
         21   -1    0    0  503  502 -0.00000000000E+00 -0.00000000000E+00 -0.34960476278E+02  0.34960476278E+02  0.00000000000E+00 0.  1.
         21    1    1    2  503  506  0.11072091730E+01  0.36335124110E+02  0.22052220377E+02  0.42517850131E+02  0.00000000000E+00 0.  1.
         21    1    1    2  504  505 -0.14097996203E+02  0.38716416924E+02  0.32972262889E+03  0.33228711446E+03  0.00000000000E+00 0.  1.
         21    1    1    2  505  502  0.63033844959E+02  0.20985378614E+02  0.89518357279E+02  0.11147729821E+03  0.00000000000E+00 0.  1.
         21    1    1    2  506  501 -0.50043057930E+02 -0.96036919648E+02  0.22272269218E+03  0.24765458848E+03  0.00000000000E+00 0.  1.
<scales pt_clust_3="36.35199" pt_clust_4="42.95979" pt_clust_5="79.40855" pt_clust_6="14000.00000"></scales>
<clustering>
<clus scale="   36.352">  2  3  1 -1</clus>
<clus scale="   42.960">  1  4  2 -1</clus>
<clus scale="   79.409">  2  5  1 -1</clus>
<clus scale="   42.960">  1  3  2 -1</clus>
</clustering>
</event>
<event>
 6    0  0.6207838E+002  0.7313948E+02  0.7546771E-02  0.1349731E+00
         21   -1    0    0  504  501  0.00000000000E+00  0.00000000000E+00  0.99931723497E+02  0.99931723497E+02  0.00000000000E+00 0. -1.
         21   -1    0    0  503  502 -0.00000000000E+00 -0.00000000000E+00 -0.18084189946E+04  0.18084189946E+04  0.00000000000E+00 0. -1.
         21    1    1    2  503  506  0.40715563379E+02 -0.44249506786E+01 -0.14002012593E+03  0.14588684984E+03  0.00000000000E+00 0. -1.
         21    1    1    2  504  505 -0.26053391020E+02  0.88634855739E+02 -0.35487001858E+03  0.36669830504E+03  0.00000000000E+00 0. -1.
         21    1    1    2  505  502 -0.70670088174E+02 -0.37452450313E+02 -0.12886293707E+04  0.12911090591E+04  0.00000000000E+00 0. -1.
         21    1    1    2  506  501  0.56007915815E+02 -0.46757454747E+02  0.75032244092E+02  0.10465650415E+03  0.00000000000E+00 0. -1.
<scales pt_clust_3="40.95531" pt_clust_4="73.13948" pt_clust_5="56.59341" pt_clust_6="14000.00000"></scales>
<clustering>
<clus scale="   40.955">  2  3  1 -1</clus>
<clus scale="   56.593">  2  5  1 -1</clus>
<clus scale="   73.139">  2  4  1 -1</clus>
<clus scale="   73.139">  1  3  2 -1</clus>
</clustering>
</event>
<event>
 6    0  0.6207838E+002  0.1134276E+03  0.7546771E-02  0.1254351E+00
         21   -1    0    0  506  501  0.00000000000E+00  0.00000000000E+00  0.53380640793E+02  0.53380640793E+02  0.00000000000E+00 0.  1.
         21   -1    0    0  503  502 -0.00000000000E+00 -0.00000000000E+00 -0.10656829770E+04  0.10656829770E+04  0.00000000000E+00 0. -1.
         21    1    1    2  503  501  0.60707288022E+02  0.10391756831E+02 -0.20929656758E+03  0.21817061358E+03  0.00000000000E+00 0.  1.
         21    1    1    2  504  502 -0.26455122859E+02  0.56304073970E+02 -0.31702071132E+03  0.32306679445E+03  0.00000000000E+00 0.  1.
         21    1    1    2  505  504 -0.13508585957E+03 -0.94295368675E+02 -0.42725670138E+03  0.45791712665E+03  0.00000000000E+00 0. -1.
         21    1    1    2  506  505  0.10083369440E+03  0.27599537874E+02 -0.58728355891E+02  0.11990908307E+03  0.00000000000E+00 0.  1.
<scales pt_clust_3="61.59029" pt_clust_4="60.31837" pt_clust_5="113.42763" pt_clust_6="14000.00000"></scales>
<clustering>
<clus scale="   61.590">  2  3  1 -1</clus>
<clus scale="   60.318">  2  4  1 -1</clus>
<clus scale="  113.428">  2  5  1 -1</clus>
<clus scale="  113.428">  1  3  2 -1</clus>
</clustering>
</event>
<event>
 6    0  0.6207838E+002  0.1560103E+03  0.7546771E-02  0.1193276E+00
         21   -1    0    0  503  501  0.00000000000E+00  0.00000000000E+00  0.18728265145E+03  0.18728265145E+03  0.00000000000E+00 0. -1.
         21   -1    0    0  506  502 -0.00000000000E+00 -0.00000000000E+00 -0.22572579648E+03  0.22572579648E+03  0.00000000000E+00 0. -1.
         21    1    1    2  503  505 -0.88613305315E+02  0.38295534849E+02 -0.48226331722E+02  0.10791035604E+03  0.00000000000E+00 0.  1.
         21    1    1    2  504  501  0.14307746235E+03  0.33562737947E+01  0.83317661761E+02  0.16560271003E+03  0.00000000000E+00 0. -1.
         21    1    1    2  505  502 -0.78315696371E+02 -0.11670133443E+02 -0.40647359531E+02  0.89004202988E+02  0.00000000000E+00 0. -1.
         21    1    1    2  506  504  0.23851539332E+02 -0.29981675201E+02 -0.32887115534E+02  0.50491178878E+02  0.00000000000E+00 0. -1.
<scales pt_clust_3="45.23470" pt_clust_4="148.44734" pt_clust_5="45.23470" pt_clust_6="38.31184"></scales>
<clustering>
<clus scale="   38.312">  2  6  1 -1</clus>
<clus scale="   45.235">  3  5 -1 -1</clus>
<clus scale="  148.447">  1  4  2 -1</clus>
<clus scale="  148.447">  1  3  2 -1</clus>
</clustering>
</event>
<event>
 6    0  0.6207838E+002  0.1060692E+03  0.7546771E-02  0.1268027E+00
         21   -1    0    0  506  501  0.00000000000E+00  0.00000000000E+00  0.10347035633E+04  0.10347035633E+04  0.00000000000E+00 0. -1.
         21   -1    0    0  503  502 -0.00000000000E+00 -0.00000000000E+00 -0.20389196216E+03  0.20389196216E+03  0.00000000000E+00 0. -1.
         21    1    1    2  503  505 -0.36252932548E+02  0.13073873985E+02  0.55814592709E+01  0.38940390174E+02  0.00000000000E+00 0. -1.
         21    1    1    2  504  502 -0.48462748869E+02 -0.81239599844E+02 -0.16230870500E+03  0.18786331821E+03  0.00000000000E+00 0. -1.
         21    1    1    2  505  501  0.53816511677E+02 -0.84224154681E+01  0.61812681656E+02  0.82389086807E+02  0.00000000000E+00 0. -1.
         21    1    1    2  506  504  0.30899169740E+02  0.76588141327E+02  0.92572616522E+03  0.92940273028E+03  0.00000000000E+00 0. -1.
<scales pt_clust_3="38.53831" pt_clust_4="106.06919" pt_clust_5="52.39373" pt_clust_6="14000.00000"></scales>
<clustering>
<clus scale="   38.538">  2  3  1 -1</clus>
<clus scale="   52.394">  1  5  2 -1</clus>
<clus scale="  106.069">  2  4  1 -1</clus>
<clus scale="   52.394">  1  3  2 -1</clus>
</clustering>
</event>
<event>
 6    0  0.6207838E+002  0.9801658E+02  0.7546771E-02  0.1284523E+00
         21   -1    0    0  504  501  0.00000000000E+00  0.00000000000E+00  0.17960311353E+04  0.17960311353E+04  0.00000000000E+00 0. -1.
         21   -1    0    0  503  502 -0.00000000000E+00 -0.00000000000E+00 -0.50735874192E+02  0.50735874192E+02  0.00000000000E+00 0.  1.
         21    1    1    2  503  506 -0.51853645447E+02  0.29239829591E+02  0.99010206273E+02  0.11552830444E+03  0.00000000000E+00 0.  1.
         21    1    1    2  504  505  0.72380795571E+02  0.22429802364E+02  0.14689786039E+04  0.14709317504E+04  0.00000000000E+00 0. -1.
         21    1    1    2  505  502  0.52672679134E+02 -0.27615758867E+02 -0.76309944741E+01  0.59960598243E+02  0.00000000000E+00 0.  1.
         21    1    1    2  506  501 -0.73199829259E+02 -0.24053873088E+02  0.18493744540E+03  0.20034635641E+03  0.00000000000E+00 0.  1.
<scales pt_clust_3="51.89149" pt_clust_4="78.24311" pt_clust_5="59.47303" pt_clust_6="51.89149"></scales>
<clustering>
<clus scale="   51.891">  3  6 -1 -1</clus>
<clus scale="   59.473">  2  5  1 -1</clus>
<clus scale="   78.243">  1  4  2 -1</clus>
<clus scale="   78.243">  1  3  2 -1</clus>
</clustering>
</event>
<event>
 6    0  0.6207838E+002  0.9619313E+02  0.7546771E-02  0.1288511E+00
         21   -1    0    0  504  501  0.00000000000E+00  0.00000000000E+00  0.10064980491E+03  0.10064980491E+03  0.00000000000E+00 0. -1.
         21   -1    0    0  505  502 -0.00000000000E+00 -0.00000000000E+00 -0.22935622353E+03  0.22935622353E+03  0.00000000000E+00 0. -1.
         21    1    1    2  503  502  0.31381295085E+02 -0.92886691522E+01 -0.44142609640E+02  0.54951206007E+02  0.00000000000E+00 0.  1.
         21    1    1    2  504  503  0.14799256279E+02 -0.29455360430E+02  0.25486241904E+01  0.33062542699E+02  0.00000000000E+00 0.  1.
         21    1    1    2  505  506  0.43954217474E+02  0.80664464028E+02 -0.10657186523E+03  0.14069929442E+03  0.00000000000E+00 0. -1.
         21    1    1    2  506  501 -0.90134768837E+02 -0.41920434446E+02  0.19459432058E+02  0.10129298531E+03  0.00000000000E+00 0. -1.
<scales pt_clust_3="32.72713" pt_clust_4="34.92264" pt_clust_5="96.19313" pt_clust_6="14000.00000"></scales>
<clustering>
<clus scale="   32.727">  2  3  1 -1</clus>
<clus scale="   34.923">  1  4  2 -1</clus>
<clus scale="   96.193">  2  5  1 -1</clus>
<clus scale="   34.923">  1  3  2 -1</clus>
</clustering>
</event>
<event>
 6    0  0.6207838E+002  0.8177623E+02  0.7546771E-02  0.1324085E+00
         21   -1    0    0  506  501  0.00000000000E+00  0.00000000000E+00  0.15827322691E+04  0.15827322691E+04  0.00000000000E+00 0.  1.
         21   -1    0    0  504  502 -0.00000000000E+00 -0.00000000000E+00 -0.36553281702E+02  0.36553281702E+02  0.00000000000E+00 0.  1.
         21    1    1    2  503  505  0.54521918398E+02 -0.21455147810E+02  0.19169524758E+03  0.20044957196E+03  0.00000000000E+00 0.  1.
         21    1    1    2  504  501  0.26225175712E+02 -0.37778064928E+02  0.95928367878E+03  0.96038540097E+03  0.00000000000E+00 0.  1.
         21    1    1    2  505  502 -0.92647076810E+02 -0.13107806746E+02  0.51073154182E+02  0.10660094989E+03  0.00000000000E+00 0.  1.
         21    1    1    2  506  503  0.11899982701E+02  0.72341019484E+02  0.34412690687E+03  0.35184962800E+03  0.00000000000E+00 0.  1.
<scales pt_clust_3="14000.00000" pt_clust_4="45.98850" pt_clust_5="81.77623" pt_clust_6="57.70677"></scales>
<clustering>
<clus scale="   45.988">  1  4  2 -1</clus>
<clus scale="   57.707">  1  6  2 -1</clus>
<clus scale="   81.776">  2  5  1 -1</clus>
<clus scale="   45.988">  1  3  2 -1</clus>
</clustering>
</event>
<event>
 6    0  0.6207838E+002  0.1029016E+03  0.7546771E-02  0.1274310E+00
         21   -1    0    0  504  501  0.00000000000E+00  0.00000000000E+00  0.42107479130E+03  0.42107479130E+03  0.00000000000E+00 0. -1.
         21   -1    0    0  506  502 -0.00000000000E+00 -0.00000000000E+00 -0.33756370330E+03  0.33756370330E+03  0.00000000000E+00 0. -1.
         21    1    1    2  503  505 -0.29849353247E+02 -0.43233711083E+02 -0.12369194204E+02  0.53973462261E+02  0.00000000000E+00 0.  1.
         21    1    1    2  504  503  0.29909960353E+02  0.18519790802E+02  0.35263334944E+03  0.35438378563E+03  0.00000000000E+00 0. -1.
         21    1    1    2  505  502 -0.99812794354E+02  0.31313429113E+02 -0.22029433482E+03  0.24387029075E+03  0.00000000000E+00 0. -1.
         21    1    1    2  506  501  0.99752187248E+02 -0.65995088324E+01 -0.36458732416E+02  0.10641095595E+03  0.00000000000E+00 0. -1.
<scales pt_clust_3="42.83319" pt_clust_4="35.17937" pt_clust_5="102.90159" pt_clust_6="14000.00000"></scales>
<clustering>
<clus scale="   35.179">  1  4  2 -1</clus>
<clus scale="   42.833">  1  3  2 -1</clus>
<clus scale="  102.902">  2  5  1 -1</clus>
<clus scale="   35.179">  1  3  2 -1</clus>
</clustering>
</event>
<event>
 6    0  0.6207838E+002  0.2442030E+03  0.7546771E-02  0.1117024E+00
         21   -1    0    0  506  501  0.00000000000E+00  0.00000000000E+00  0.32144843378E+03  0.32144843378E+03  0.00000000000E+00 0.  1.
         21   -1    0    0  505  502 -0.00000000000E+00 -0.00000000000E+00 -0.40445528235E+03  0.40445528235E+03  0.00000000000E+00 0.  1.
         21    1    1    2  503  504 -0.22010070924E+03  0.17994863074E+03  0.85900811673E+02  0.29699289783E+03  0.00000000000E+00 0.  1.
         21    1    1    2  504  501  0.69189502991E+02  0.15621634526E+02  0.13389383743E+02  0.72183782018E+02  0.00000000000E+00 0. -1.
         21    1    1    2  505  503  0.28748288405E+02 -0.17321132575E+02 -0.13018037919E+03  0.13443740865E+03  0.00000000000E+00 0.  1.
         21    1    1    2  506  502  0.12216291784E+03 -0.17824913269E+03 -0.52116664805E+02  0.22228962763E+03  0.00000000000E+00 0. -1.
<scales pt_clust_3="14000.00000" pt_clust_4="73.59096" pt_clust_5="33.56316" pt_clust_6="244.20296"></scales>
<clustering>
<clus scale="   33.563">  2  5  1 -1</clus>
<clus scale="   73.591">  1  4  2 -1</clus>
<clus scale="  244.203">  2  6  1 -1</clus>
<clus scale="   73.591">  1  3  2 -1</clus>
</clustering>
</event>
<event>
 6    0  0.6207838E+002  0.9597076E+02  0.7546771E-02  0.1289005E+00
         21   -1    0    0  506  501  0.00000000000E+00  0.00000000000E+00  0.20613827914E+04  0.20613827914E+04  0.00000000000E+00 0.  1.
         21   -1    0    0  504  502 -0.00000000000E+00 -0.00000000000E+00 -0.25533673476E+03  0.25533673476E+03  0.00000000000E+00 0. -1.
         21    1    1    2  503  501  0.95193577636E+02  0.92580440647E+01  0.18796509780E+04  0.18820827101E+04  0.00000000000E+00 0.  1.
         21    1    1    2  504  505  0.26164160612E+02  0.43193376081E+02  0.30372728251E+02  0.58929904626E+02  0.00000000000E+00 0. -1.
         21    1    1    2  505  503  0.37766831377E+02 -0.74642214183E+02  0.90638215178E+02  0.12334131401E+03  0.00000000000E+00 0. -1.
         21    1    1    2  506  502 -0.15912456963E+03  0.22190794037E+02 -0.19461586471E+03  0.25236559749E+03  0.00000000000E+00 0. -1.
<scales pt_clust_3="14000.00000" pt_clust_4="50.49981" pt_clust_5="81.89135" pt_clust_6="95.97076"></scales>
<clustering>
<clus scale="   50.500">  2  4  1 -1</clus>
<clus scale="   81.891">  2  5  1 -1</clus>
<clus scale="   95.971">  2  6  1 -1</clus>
<clus scale="   95.971">  1  3  2 -1</clus>
</clustering>
</event>
<event>
 6    0  0.6207838E+002  0.1800077E+03  0.7546771E-02  0.1167796E+00
         21   -1    0    0  503  501  0.00000000000E+00  0.00000000000E+00  0.22545678663E+04  0.22545678663E+04  0.00000000000E+00 0.  1.
         21   -1    0    0  505  502 -0.00000000000E+00 -0.00000000000E+00 -0.96479188095E+02  0.96479188095E+02  0.00000000000E+00 0.  1.
         21    1    1    2  503  506 -0.64856729522E+01 -0.70728478245E+02  0.93701777324E+02  0.11757807900E+03  0.00000000000E+00 0.  1.
         21    1    1    2  504  501 -0.43112678994E+02 -0.12807045287E+02  0.18624507693E+04  0.18629937175E+04  0.00000000000E+00 0.  1.
         21    1    1    2  505  504  0.22065761722E+01  0.17675999528E+03  0.45901528629E+02  0.18263601846E+03  0.00000000000E+00 0.  1.
         21    1    1    2  506  502  0.47391775774E+02 -0.93224471745E+02  0.15603460302E+03  0.18783923947E+03  0.00000000000E+00 0.  1.
<scales pt_clust_3="40.01464" pt_clust_4="44.97470" pt_clust_5="173.33547" pt_clust_6="40.01464"></scales>
<clustering>
<clus scale="   40.015">  3  6 -1 -1</clus>
<clus scale="   44.975">  1  4  2 -1</clus>
<clus scale="  173.335">  2  5  1 -1</clus>
<clus scale="   44.975">  1  3  2 -1</clus>
</clustering>
</event>
<event>
 6    0  0.6207838E+002  0.1425652E+03  0.7546771E-02  0.1209918E+00
         21   -1    0    0  503  501  0.00000000000E+00  0.00000000000E+00  0.49589470585E+03  0.49589470585E+03  0.00000000000E+00 0. -1.
         21   -1    0    0  504  502 -0.00000000000E+00 -0.00000000000E+00 -0.14748390524E+03  0.14748390524E+03  0.00000000000E+00 0. -1.
         21    1    1    2  503  502 -0.11061967390E+03  0.46608284942E+02 -0.63885528654E+02  0.13597942951E+03  0.00000000000E+00 0. -1.
         21    1    1    2  504  506  0.80811534327E+02 -0.42099784850E+02  0.10366760706E+03  0.13802126183E+03  0.00000000000E+00 0. -1.
         21    1    1    2  505  501 -0.81766407165E+01  0.84284694025E+02  0.22917071406E+03  0.24431533575E+03  0.00000000000E+00 0. -1.
         21    1    1    2  506  505  0.37984780287E+02 -0.88793194117E+02  0.79458008145E+02  0.12506258399E+03  0.00000000000E+00 0. -1.
<scales pt_clust_3="126.06445" pt_clust_4="64.66949" pt_clust_5="84.68038" pt_clust_6="64.66949"></scales>
<clustering>
<clus scale="   64.669">  4  6 -1 -1</clus>
<clus scale="   84.680">  1  5  2 -1</clus>
<clus scale="  126.064">  2  3  1 -1</clus>
<clus scale="   84.680">  1  3  2 -1</clus>
</clustering>
</event>
<event>
 6    0  0.7857562E+002  0.8656880E+02  0.7546771E-02  0.1311380E+00
         21   -1    0    0  503  501  0.00000000000E+00  0.00000000000E+00  0.10159175444E+04  0.10159175444E+04  0.00000000000E+00 0.  1.
         21   -1    0    0  504  502 -0.00000000000E+00 -0.00000000000E+00 -0.13541232708E+04  0.13541232708E+04  0.00000000000E+00 0. -1.
         21    1    1    2  503  505  0.45159409044E+02 -0.12388644097E+02  0.98172101622E+03  0.98283722173E+03  0.00000000000E+00 0.  1.
         21    1    1    2  504  506 -0.92062711050E+01 -0.36772590465E+02 -0.86591108872E+03  0.86674044119E+03  0.00000000000E+00 0. -1.
         21    1    1    2  505  502  0.15183597026E+02 -0.56380949091E+02 -0.75794215729E+01  0.58879543735E+02  0.00000000000E+00 0. -1.
         21    1    1    2  506  501 -0.51136734965E+02  0.10554218365E+03 -0.44643623233E+03  0.46158360860E+03  0.00000000000E+00 0.  1.
<scales pt_clust_3="46.82888" pt_clust_4="37.90750" pt_clust_5="86.56880" pt_clust_6="14000.00000"></scales>
<clustering>
<clus scale="   37.908">  2  4  1 -1</clus>
<clus scale="   46.829">  1  3  2 -1</clus>
<clus scale="   86.569">  1  5  2 -1</clus>
<clus scale="   46.829">  1  3  2 -1</clus>
</clustering>
</event>
<event>
 6    0  0.6207838E+002  0.2063136E+03  0.7546771E-02  0.1144519E+00
         21   -1    0    0  504  501  0.00000000000E+00  0.00000000000E+00  0.81983646343E+03  0.81983646343E+03  0.00000000000E+00 0. -1.
         21   -1    0    0  506  502 -0.00000000000E+00 -0.00000000000E+00 -0.17245840518E+03  0.17245840518E+03  0.00000000000E+00 0. -1.
         21    1    1    2  503  505 -0.10286286844E+02 -0.20353063849E+03 -0.32179509907E+02  0.20631541232E+03  0.00000000000E+00 0. -1.
         21    1    1    2  504  502 -0.12452392046E+02  0.32090656878E+02  0.42028777427E+03  0.42169501482E+03  0.00000000000E+00 0. -1.
         21    1    1    2  505  501 -0.96810824980E+01  0.18522508708E+03  0.26989930604E+03  0.32748693354E+03  0.00000000000E+00 0. -1.
         21    1    1    2  506  503  0.32419761388E+02 -0.13785105461E+02 -0.10629512145E+02  0.36797507925E+02  0.00000000000E+00 0. -1.
<scales pt_clust_3="14000.00000" pt_clust_4="34.42197" pt_clust_5="206.31359" pt_clust_6="34.45047"></scales>
<clustering>
<clus scale="   34.422">  1  4  2 -1</clus>
<clus scale="   34.450">  2  6  1 -1</clus>
<clus scale="  206.314">  1  5  2 -1</clus>
<clus scale="   34.422">  1  3  2 -1</clus>
</clustering>
</event>
<event>
 6    0  0.6207838E+002  0.1057548E+03  0.7546771E-02  0.1268640E+00
         21   -1    0    0  506  501  0.00000000000E+00  0.00000000000E+00  0.62713596470E+03  0.62713596470E+03  0.00000000000E+00 0.  1.
         21   -1    0    0  505  502 -0.00000000000E+00 -0.00000000000E+00 -0.96814995288E+03  0.96814995288E+03  0.00000000000E+00 0. -1.
         21    1    1    2  503  501 -0.22978342601E+02  0.53689523712E+02  0.99282862284E+02  0.11518531125E+03  0.00000000000E+00 0. -1.
         21    1    1    2  504  502  0.32447423924E+02 -0.49707822139E+02  0.27435954880E+03  0.28070779277E+03  0.00000000000E+00 0.  1.
         21    1    1    2  505  503 -0.71529336962E+02  0.63264783065E+02 -0.94589683692E+03  0.95070484637E+03  0.00000000000E+00 0. -1.
         21    1    1    2  506  504  0.62060255638E+02 -0.67246484638E+02  0.23124043764E+03  0.24868796719E+03  0.00000000000E+00 0.  1.
<scales pt_clust_3="58.40008" pt_clust_4="36.18578" pt_clust_5="95.73695" pt_clust_6="36.18578"></scales>
<clustering>
<clus scale="   36.186">  4  6 -1 -1</clus>
<clus scale="   58.400">  1  3  2 -1</clus>
<clus scale="   95.737">  2  5  1 -1</clus>
<clus scale="   58.400">  1  3  2 -1</clus>
</clustering>
</event>
<event>
 6    0  0.6207838E+002  0.1101249E+03  0.7546771E-02  0.1260339E+00
         21   -1    0    0  503  501  0.00000000000E+00  0.00000000000E+00  0.20406509543E+03  0.20406509543E+03  0.00000000000E+00 0.  1.
         21   -1    0    0  505  502 -0.00000000000E+00 -0.00000000000E+00 -0.31179270460E+03  0.31179270460E+03  0.00000000000E+00 0. -1.
         21    1    1    2  503  504 -0.26311475400E+02  0.40026186762E+02  0.10791771595E+01  0.47911939929E+02  0.00000000000E+00 0. -1.
         21    1    1    2  504  502 -0.10455707870E+03  0.32209825607E+00 -0.65171414730E+02  0.12320551835E+03  0.00000000000E+00 0.  1.
         21    1    1    2  505  506  0.11290707661E+03 -0.12145747446E+02 -0.17531600901E+03  0.20888089943E+03  0.00000000000E+00 0. -1.
         21    1    1    2  506  501  0.17961477494E+02 -0.28202537572E+02  0.13168063741E+03  0.13585944232E+03  0.00000000000E+00 0.  1.
<scales pt_clust_3="36.24986" pt_clust_4="110.12488" pt_clust_5="14000.00000" pt_clust_6="33.43647"></scales>
<clustering>
<clus scale="   33.436">  1  6  2 -1</clus>
<clus scale="   36.250">  1  3  2 -1</clus>
<clus scale="  110.125">  1  4  2 -1</clus>
<clus scale="   33.436">  1  3  2 -1</clus>
</clustering>
</event>
<event>
 6    0  0.6207838E+002  0.1182105E+03  0.7546771E-02  0.1246079E+00
         21   -1    0    0  506  501  0.00000000000E+00  0.00000000000E+00  0.76331598711E+03  0.76331598711E+03  0.00000000000E+00 0.  1.
         21   -1    0    0  503  502 -0.00000000000E+00 -0.00000000000E+00 -0.66774685329E+02  0.66774685329E+02  0.00000000000E+00 0.  1.
         21    1    1    2  503  505 -0.12667830003E+03 -0.48186476675E+02  0.72496966079E+02  0.15370471145E+03  0.00000000000E+00 0.  1.
         21    1    1    2  504  502  0.10231876411E+03 -0.10408522300E+02  0.12757468725E+03  0.16386814105E+03  0.00000000000E+00 0.  1.
         21    1    1    2  505  501 -0.39194086888E+02  0.41630610529E+00  0.11706627757E+03  0.12345389059E+03  0.00000000000E+00 0. -1.
         21    1    1    2  506  504  0.63553622802E+02  0.58178692870E+02  0.37940337089E+03  0.38906392934E+03  0.00000000000E+00 0.  1.
<scales pt_clust_3="118.21049" pt_clust_4="14000.00000" pt_clust_5="39.19630" pt_clust_6="70.88412"></scales>
<clustering>
<clus scale="   39.196">  1  5  2 -1</clus>
<clus scale="   70.884">  1  6  2 -1</clus>
<clus scale="  118.210">  2  3  1 -1</clus>
<clus scale="   39.196">  1  3  2 -1</clus>
</clustering>
</event>
<event>
 6    0  0.6207838E+002  0.1566355E+03  0.7546771E-02  0.1192549E+00
         21   -1    0    0  504  501  0.00000000000E+00  0.00000000000E+00  0.29751001954E+03  0.29751001954E+03  0.00000000000E+00 0. -1.
         21   -1    0    0  505  502 -0.00000000000E+00 -0.00000000000E+00 -0.22173940098E+04  0.22173940098E+04  0.00000000000E+00 0. -1.
         21    1    1    2  503  506  0.11505163510E+03  0.51055276108E+02  0.46718289911E+02  0.13426138153E+03  0.00000000000E+00 0. -1.
         21    1    1    2  504  503 -0.56084561573E+01 -0.63960561018E+02  0.11070506680E+02  0.65153390275E+02  0.00000000000E+00 0. -1.
         21    1    1    2  505  501  0.31010123525E+02 -0.62031194364E+02  0.15870118770E+03  0.17319227411E+03  0.00000000000E+00 0. -1.
         21    1    1    2  506  502 -0.14045330247E+03  0.74936479274E+02 -0.21363739746E+04  0.21422969835E+04  0.00000000000E+00 0. -1.
<scales pt_clust_3="156.63546" pt_clust_4="64.20598" pt_clust_5="106.53877" pt_clust_6="14000.00000"></scales>
<clustering>
<clus scale="   64.206">  1  4  2 -1</clus>
<clus scale="  106.539">  1  5  2 -1</clus>
<clus scale="  156.635">  1  3  2 -1</clus>
<clus scale="   64.206">  1  3  2 -1</clus>
</clustering>
</event>
<event>
 6    0  0.6207838E+002  0.1724179E+03  0.7546771E-02  0.1175350E+00
         21   -1    0    0  504  501  0.00000000000E+00  0.00000000000E+00  0.54031294042E+03  0.54031294042E+03  0.00000000000E+00 0.  1.
         21   -1    0    0  506  502 -0.00000000000E+00 -0.00000000000E+00 -0.11865032993E+03  0.11865032993E+03  0.00000000000E+00 0.  1.
         21    1    1    2  503  505 -0.15188010405E+02  0.16294511719E+03  0.19103370814E+03  0.25154654544E+03  0.00000000000E+00 0.  1.
         21    1    1    2  504  502 -0.55076294646E+02 -0.14042174220E+03 -0.12252024837E+01  0.15084152292E+03  0.00000000000E+00 0.  1.
         21    1    1    2  505  501  0.45539485200E+02 -0.53383011232E+02  0.15509577808E+03  0.17023011185E+03  0.00000000000E+00 0. -1.
         21    1    1    2  506  503  0.24724819850E+02  0.30859636244E+02  0.76758326754E+02  0.86345090143E+02  0.00000000000E+00 0. -1.
<scales pt_clust_3="34.08071" pt_clust_4="157.86383" pt_clust_5="70.16830" pt_clust_6="34.08071"></scales>
<clustering>
<clus scale="   34.081">  3  6 -1 -1</clus>
<clus scale="   70.168">  1  5  2 -1</clus>
<clus scale="  157.864">  2  4  1 -1</clus>
<clus scale="   70.168">  1  3  2 -1</clus>
</clustering>
</event>
<event>
 6    0  0.6207838E+002  0.7014096E+02  0.7546771E-02  0.1359614E+00
         21   -1    0    0  505  501  0.00000000000E+00  0.00000000000E+00  0.14431490902E+03  0.14431490902E+03  0.00000000000E+00 0.  1.
         21   -1    0    0  506  502 -0.00000000000E+00 -0.00000000000E+00 -0.64094789098E+03  0.64094789098E+03  0.00000000000E+00 0.  1.
         21    1    1    2  503  502 -0.36779417211E+02  0.41759718575E+02 -0.16268872009E+03  0.17194248827E+03  0.00000000000E+00 0.  1.
         21    1    1    2  504  501 -0.21062836494E+02 -0.55770125391E+02 -0.59472124410E+02  0.84207384172E+02  0.00000000000E+00 0.  1.
         21    1    1    2  505  503 -0.36860747463E+02  0.34511608492E+02  0.11615041700E+03  0.12665182665E+03  0.00000000000E+00 0.  1.
         21    1    1    2  506  504  0.94703001168E+02 -0.20501201676E+02 -0.39062255446E+03  0.40246110092E+03  0.00000000000E+00 0.  1.
<scales pt_clust_3="14000.00000" pt_clust_4="55.29155" pt_clust_5="50.49521" pt_clust_6="70.14096"></scales>
<clustering>
<clus scale="   50.495">  1  5  2 -1</clus>
<clus scale="   55.292">  1  4  2 -1</clus>
<clus scale="   70.141">  1  6  2 -1</clus>
<clus scale="   50.495">  1  3  2 -1</clus>
</clustering>
</event>
<event>
 6    0  0.6207838E+002  0.1273244E+03  0.7546771E-02  0.1231481E+00
         21   -1    0    0  503  501  0.00000000000E+00  0.00000000000E+00  0.12635936032E+04  0.12635936032E+04  0.00000000000E+00 0.  1.
         21   -1    0    0  506  502 -0.00000000000E+00 -0.00000000000E+00 -0.64701763601E+02  0.64701763601E+02  0.00000000000E+00 0.  1.
         21    1    1    2  503  504 -0.10462349807E+03 -0.58173030696E+02  0.90594091666E+03  0.91381569385E+03  0.00000000000E+00 0.  1.
         21    1    1    2  504  502  0.13077457161E+03 -0.13616840530E+02  0.27274818697E+02  0.13428076058E+03  0.00000000000E+00 0.  1.
         21    1    1    2  505  501 -0.22986693095E+02  0.33444613127E+02  0.20005634778E+03  0.20413101796E+03  0.00000000000E+00 0. -1.
         21    1    1    2  506  505 -0.31643804425E+01  0.38345258100E+02  0.65619756465E+02  0.76067894416E+02  0.00000000000E+00 0.  1.
<scales pt_clust_3="127.32444" pt_clust_4="14000.00000" pt_clust_5="41.73137" pt_clust_6="38.47560"></scales>
<clustering>
<clus scale="   38.476">  2  6  1 -1</clus>
<clus scale="   41.731">  1  5  2 -1</clus>
<clus scale="  127.324">  1  3  2 -1</clus>
<clus scale="   41.731">  1  3  2 -1</clus>
</clustering>
</event>
<event>
 6    0  0.6207838E+002  0.7976106E+02  0.7546771E-02  0.1329731E+00
         21   -1    0    0  503  501  0.00000000000E+00  0.00000000000E+00  0.88940027935E+03  0.88940027935E+03  0.00000000000E+00 0. -1.
         21   -1    0    0  505  502 -0.00000000000E+00 -0.00000000000E+00 -0.20838385902E+03  0.20838385902E+03  0.00000000000E+00 0. -1.
         21    1    1    2  503  504 -0.17465271622E+01 -0.49075952360E+02  0.17632347740E+03  0.18303406279E+03  0.00000000000E+00 0. -1.
         21    1    1    2  504  506  0.36540526369E+02 -0.36695866235E+02  0.35838214131E+03  0.36210434390E+03  0.00000000000E+00 0. -1.
         21    1    1    2  505  501 -0.10930318556E+03  0.57534509406E+02  0.33003202686E+03  0.35238976276E+03  0.00000000000E+00 0. -1.
         21    1    1    2  506  502  0.74509186356E+02  0.28237309189E+02 -0.18372122524E+03  0.20025596891E+03  0.00000000000E+00 0. -1.
<scales pt_clust_3="49.10702" pt_clust_4="71.17944" pt_clust_5="79.76106" pt_clust_6="14000.00000"></scales>
<clustering>
<clus scale="   49.107">  1  3  2 -1</clus>
<clus scale="   71.179">  1  4  2 -1</clus>
<clus scale="   79.761">  1  5  2 -1</clus>
<clus scale="   49.107">  1  3  2 -1</clus>
</clustering>
</event>
<event>
 6    0  0.6207838E+002  0.1851658E+03  0.7546771E-02  0.1162895E+00
         21   -1    0    0  504  501  0.00000000000E+00  0.00000000000E+00  0.21200570585E+03  0.21200570585E+03  0.00000000000E+00 0. -1.
         21   -1    0    0  506  502 -0.00000000000E+00 -0.00000000000E+00 -0.46119137645E+03  0.46119137645E+03  0.00000000000E+00 0.  1.
         21    1    1    2  503  505 -0.62100870422E+02  0.24624353349E+03 -0.20107132488E+03  0.32391676953E+03  0.00000000000E+00 0. -1.
         21    1    1    2  504  503 -0.28226360271E+02 -0.27598377769E+02  0.32841740019E+02  0.51351511731E+02  0.00000000000E+00 0.  1.
         21    1    1    2  505  502  0.40021743516E+01 -0.84002662810E+02 -0.10677718547E+03  0.13591847592E+03  0.00000000000E+00 0.  1.
         21    1    1    2  506  501  0.86325056342E+02 -0.13464249292E+03  0.25821099737E+02  0.16201032511E+03  0.00000000000E+00 0. -1.
<scales pt_clust_3="14000.00000" pt_clust_4="39.47655" pt_clust_5="86.38386" pt_clust_6="185.16576"></scales>
<clustering>
<clus scale="   39.477">  1  4  2 -1</clus>
<clus scale="   86.384">  2  5  1 -1</clus>
<clus scale="  185.166">  1  6  2 -1</clus>
<clus scale="   39.477">  1  3  2 -1</clus>
</clustering>
</event>
<event>
 6    0  0.6207838E+002  0.1933370E+03  0.7546771E-02  0.1155486E+00
         21   -1    0    0  502  501  0.00000000000E+00  0.00000000000E+00  0.10910789831E+04  0.10910789831E+04  0.00000000000E+00 0. -1.
         21   -1    0    0  505  502 -0.00000000000E+00 -0.00000000000E+00 -0.27144908226E+03  0.27144908226E+03  0.00000000000E+00 0. -1.
         21    1    1    2  503  501 -0.17695281168E+03  0.44286366783E+02  0.10102861483E+04  0.10266214888E+04  0.00000000000E+00 0. -1.
         21    1    1    2  504  506  0.75977594851E+02 -0.27574234469E+02  0.14789512985E+02  0.82168503821E+02  0.00000000000E+00 0.  1.
         21    1    1    2  505  504  0.35744509195E+02 -0.38443470158E+02 -0.16680207093E+03  0.17486709583E+03  0.00000000000E+00 0. -1.
         21    1    1    2  506  503  0.65230707636E+02  0.21731337844E+02 -0.38643689483E+02  0.78870976918E+02  0.00000000000E+00 0.  1.
<scales pt_clust_3="178.85304" pt_clust_4="69.24793" pt_clust_5="52.49353" pt_clust_6="69.24793"></scales>
<clustering>
<clus scale="   52.494">  2  5  1 -1</clus>
<clus scale="   69.248">  4  6 -1 -1</clus>
<clus scale="  178.853">  1  3  2 -1</clus>
<clus scale="  178.853">  1  3  2 -1</clus>
</clustering>
</event>
<event>
 6    0  0.6207838E+002  0.1732037E+03  0.7546771E-02  0.1174547E+00
         21   -1    0    0  502  501  0.00000000000E+00  0.00000000000E+00  0.24067874461E+03  0.24067874461E+03  0.00000000000E+00 0.  1.
         21   -1    0    0  506  502 -0.00000000000E+00 -0.00000000000E+00 -0.30265259394E+04  0.30265259394E+04  0.00000000000E+00 0. -1.
         21    1    1    2  503  504 -0.56751537065E+02 -0.12186799746E+02  0.32525070889E+02  0.66536721317E+02  0.00000000000E+00 0.  1.
         21    1    1    2  504  505 -0.52659623991E+02  0.17744205517E+02  0.66797438665E+02  0.86889531248E+02  0.00000000000E+00 0.  1.
         21    1    1    2  505  501 -0.44186892460E+02 -0.31019919230E+01  0.10796796864E+03  0.11670126851E+03  0.00000000000E+00 0.  1.
         21    1    1    2  506  503  0.15359805352E+03 -0.24554138474E+01 -0.29931376729E+04  0.29970771629E+04  0.00000000000E+00 0. -1.
<scales pt_clust_3="52.98522" pt_clust_4="52.98522" pt_clust_5="32.34708" pt_clust_6="153.61768"></scales>
<clustering>
<clus scale="   32.347">  4  5 -1 -1</clus>
<clus scale="   52.985">  3  4 -1 -1</clus>
<clus scale="  153.618">  2  6  1 -1</clus>
<clus scale="  173.204">  1  3  2 -1</clus>
</clustering>
</event>
<event>
 6    0  0.6207838E+002  0.1359975E+03  0.7546771E-02  0.1218818E+00
         21   -1    0    0  506  501  0.00000000000E+00  0.00000000000E+00  0.18511823163E+03  0.18511823163E+03  0.00000000000E+00 0.  1.
         21   -1    0    0  503  502 -0.00000000000E+00 -0.00000000000E+00 -0.31304180507E+04  0.31304180507E+04  0.00000000000E+00 0. -1.
         21    1    1    2  503  501  0.10162153178E+00  0.12371812237E+03  0.14681980961E+03  0.19199541823E+03  0.00000000000E+00 0.  1.
         21    1    1    2  504  502 -0.31794358864E+02  0.19647596766E+02 -0.27149547824E+04  0.27152120322E+04  0.00000000000E+00 0. -1.
         21    1    1    2  505  504  0.46605301913E+02 -0.94602468979E+02 -0.25253951392E+03  0.27367478399E+03  0.00000000000E+00 0. -1.
         21    1    1    2  506  505 -0.14912564581E+02 -0.48763250153E+02 -0.12462533229E+03  0.13465404783E+03  0.00000000000E+00 0. -1.
<scales pt_clust_3="124.79726" pt_clust_4="37.37525" pt_clust_5="40.86147" pt_clust_6="40.86147"></scales>
<clustering>
<clus scale="   37.375">  2  4  1 -1</clus>
<clus scale="   40.861">  5  6 -1 -1</clus>
<clus scale="  124.797">  1  3  2 -1</clus>
<clus scale="  124.797">  1  3  2 -1</clus>
</clustering>
</event>
<event>
 6    0  0.6207838E+002  0.1165736E+03  0.7546771E-02  0.1248859E+00
         21   -1    0    0  506  501  0.00000000000E+00  0.00000000000E+00  0.36963550172E+03  0.36963550172E+03  0.00000000000E+00 0. -1.
         21   -1    0    0  505  502 -0.00000000000E+00 -0.00000000000E+00 -0.94914505615E+03  0.94914505615E+03  0.00000000000E+00 0.  1.
         21    1    1    2  503  502  0.40064905647E+02 -0.87134455062E+01 -0.89363180992E+03  0.89457192695E+03  0.00000000000E+00 0.  1.
         21    1    1    2  504  503  0.75310335961E+02 -0.56427510924E+02  0.56906595953E+02  0.10997304831E+03  0.00000000000E+00 0. -1.
         21    1    1    2  505  501  0.19195200430E+02  0.24297723243E+02  0.15600374235E+02  0.34672853223E+02  0.00000000000E+00 0.  1.
         21    1    1    2  506  504 -0.13457044204E+03  0.40843233187E+02  0.24161528530E+03  0.27956272938E+03  0.00000000000E+00 0. -1.
<scales pt_clust_3="41.02004" pt_clust_4="116.57356" pt_clust_5="30.96506" pt_clust_6="14000.00000"></scales>
<clustering>
<clus scale="   30.965">  1  5  2 -1</clus>
<clus scale="   41.020">  2  3  1 -1</clus>
<clus scale="  116.574">  2  4  1 -1</clus>
<clus scale="   30.965">  1  3  2 -1</clus>
</clustering>
</event>
<event>
 6    0  0.6207838E+002  0.1062978E+03  0.7546771E-02  0.1267583E+00
         21   -1    0    0  506  501  0.00000000000E+00  0.00000000000E+00  0.97450474679E+03  0.97450474679E+03  0.00000000000E+00 0.  1.
         21   -1    0    0  503  502 -0.00000000000E+00 -0.00000000000E+00 -0.28074669014E+02  0.28074669014E+02  0.00000000000E+00 0.  1.
         21    1    1    2  503  504  0.53787765751E+02  0.41495317237E+02  0.17846066287E+03  0.19095337989E+03  0.00000000000E+00 0.  1.
         21    1    1    2  504  505  0.65016483485E+02  0.19626918857E+02  0.95422458597E+02  0.11712303221E+03  0.00000000000E+00 0.  1.
         21    1    1    2  505  501 -0.73539666019E+02  0.16250536403E+01  0.50028452253E+03  0.50566325431E+03  0.00000000000E+00 0.  1.
         21    1    1    2  506  502 -0.45264583218E+02 -0.62747289735E+02  0.17226243378E+03  0.18883974940E+03  0.00000000000E+00 0.  1.
<scales pt_clust_3="45.25650" pt_clust_4="45.25650" pt_clust_5="73.55762" pt_clust_6="96.17947"></scales>
<clustering>
<clus scale="   45.257">  3  4 -1 -1</clus>
<clus scale="   73.558">  1  5  2 -1</clus>
<clus scale="   96.179">  2  6  1 -1</clus>
<clus scale="   73.558">  1  3  2 -1</clus>
</clustering>
</event>
<event>
 6    0  0.6207838E+002  0.1868678E+03  0.7546771E-02  0.1161317E+00
         21   -1    0    0  503  501  0.00000000000E+00  0.00000000000E+00  0.21407781669E+03  0.21407781669E+03  0.00000000000E+00 0. -1.
         21   -1    0    0  505  502 -0.00000000000E+00 -0.00000000000E+00 -0.30598184692E+03  0.30598184692E+03  0.00000000000E+00 0.  1.
         21    1    1    2  503  502  0.23320259852E+02 -0.26869214524E+02 -0.11904987845E+03  0.12425241554E+03  0.00000000000E+00 0.  1.
         21    1    1    2  504  506 -0.68590974653E+02  0.63883281854E+02  0.50422173636E+02  0.10643397530E+03  0.00000000000E+00 0. -1.
         21    1    1    2  505  504  0.86012302955E+02 -0.13324862599E+03 -0.71872348228E+02  0.17412336726E+03  0.00000000000E+00 0.  1.
         21    1    1    2  506  501 -0.40741588154E+02  0.96234558656E+02  0.48596022812E+02  0.11524990550E+03  0.00000000000E+00 0. -1.
<scales pt_clust_3="35.57793" pt_clust_4="39.61520" pt_clust_5="182.13117" pt_clust_6="39.61520"></scales>
<clustering>
<clus scale="   35.578">  2  3  1 -1</clus>
<clus scale="   39.615">  4  6 -1 -1</clus>
<clus scale="  182.131">  2  5  1 -1</clus>
<clus scale="  186.868">  1  3  2 -1</clus>
</clustering>
</event>
<event>
 6    0  0.6207838E+002  0.1813642E+03  0.7546771E-02  0.1166489E+00
         21   -1    0    0  505  501  0.00000000000E+00  0.00000000000E+00  0.63851413894E+03  0.63851413894E+03  0.00000000000E+00 0.  1.
         21   -1    0    0  503  502 -0.00000000000E+00 -0.00000000000E+00 -0.41686077090E+03  0.41686077090E+03  0.00000000000E+00 0. -1.
         21    1    1    2  503  504  0.80701154802E+02 -0.18653604983E+02  0.78920834165E+02  0.11440774200E+03  0.00000000000E+00 0. -1.
         21    1    1    2  504  501  0.32767405690E+02 -0.12763713867E+02  0.11250137479E+03  0.11786931151E+03  0.00000000000E+00 0.  1.
         21    1    1    2  505  506  0.71551663932E+02  0.58484002359E+02  0.39903652629E+03  0.40959756891E+03  0.00000000000E+00 0.  1.
         21    1    1    2  506  502 -0.18502022442E+03 -0.27066683509E+02 -0.36880536721E+03  0.41350028741E+03  0.00000000000E+00 0. -1.
<scales pt_clust_3="89.26177" pt_clust_4="35.16554" pt_clust_5="181.36424" pt_clust_6="14000.00000"></scales>
<clustering>
<clus scale="   35.166">  1  4  2 -1</clus>
<clus scale="   89.262">  1  3  2 -1</clus>
<clus scale="  181.364">  1  5  2 -1</clus>
<clus scale="   35.166">  1  3  2 -1</clus>
</clustering>
</event>
<event>
 6    0  0.6207838E+002  0.9933159E+02  0.7546771E-02  0.1281708E+00
         21   -1    0    0  503  501  0.00000000000E+00  0.00000000000E+00  0.57479935280E+03  0.57479935280E+03  0.00000000000E+00 0. -1.
         21   -1    0    0  504  502 -0.00000000000E+00 -0.00000000000E+00 -0.87880487665E+03  0.87880487665E+03  0.00000000000E+00 0.  1.
         21    1    1    2  503  505 -0.44973658385E+02  0.16584415910E+02  0.33400887869E+03  0.33743088751E+03  0.00000000000E+00 0. -1.
         21    1    1    2  504  501  0.35170580260E+02  0.98369452693E+01  0.42534697911E+02  0.56061891999E+02  0.00000000000E+00 0.  1.
         21    1    1    2  505  506  0.66844393838E+02 -0.10723629219E+03  0.16554105359E+03  0.20825857912E+03  0.00000000000E+00 0. -1.
         21    1    1    2  506  502 -0.57041315713E+02  0.80814931011E+02 -0.84609015404E+03  0.85185287083E+03  0.00000000000E+00 0.  1.
<scales pt_clust_3="32.08495" pt_clust_4="36.52034" pt_clust_5="14000.00000" pt_clust_6="99.33159"></scales>
<clustering>
<clus scale="   36.520">  1  4  2 -1</clus>
<clus scale="   32.085">  1  3  2 -1</clus>
<clus scale="   99.332">  2  6  1 -1</clus>
<clus scale="   36.520">  1  3  2 -1</clus>
</clustering>
</event>
<event>
 6    0  0.6207838E+002  0.1183388E+03  0.7546771E-02  0.1245863E+00
         21   -1    0    0  503  501  0.00000000000E+00  0.00000000000E+00  0.53076563720E+03  0.53076563720E+03  0.00000000000E+00 0. -1.
         21   -1    0    0  504  502 -0.00000000000E+00 -0.00000000000E+00 -0.23005883095E+03  0.23005883095E+03  0.00000000000E+00 0.  1.
         21    1    1    2  503  502 -0.11949110875E+03 -0.38681853376E+02 -0.67390514262E+02  0.14253382849E+03  0.00000000000E+00 0.  1.
         21    1    1    2  504  506 -0.23333428567E+01 -0.41721009575E+02 -0.70121049138E+02  0.81627499417E+02  0.00000000000E+00 0. -1.
         21    1    1    2  505  501  0.53307502677E+02 -0.46693256814E+01  0.42300445786E+03  0.42637573080E+03  0.00000000000E+00 0. -1.
         21    1    1    2  506  505  0.68516948933E+02  0.85072188632E+02  0.15213911787E+02  0.11028740944E+03  0.00000000000E+00 0.  1.
<scales pt_clust_3="118.33880" pt_clust_4="41.78621" pt_clust_5="53.52795" pt_clust_6="14000.00000"></scales>
<clustering>
<clus scale="   41.786">  2  4  1 -1</clus>
<clus scale="   53.528">  1  5  2 -1</clus>
<clus scale="  118.339">  2  3  1 -1</clus>
<clus scale="   53.528">  1  3  2 -1</clus>
</clustering>
</event>
<event>
 6    0  0.6207838E+002  0.1739441E+03  0.7546771E-02  0.1173796E+00
         21   -1    0    0  505  501  0.00000000000E+00  0.00000000000E+00  0.13235919562E+03  0.13235919562E+03  0.00000000000E+00 0. -1.
         21   -1    0    0  506  502 -0.00000000000E+00 -0.00000000000E+00 -0.49599746861E+03  0.49599746861E+03  0.00000000000E+00 0. -1.
         21    1    1    2  503  504 -0.31440008091E+02 -0.48035912540E+02 -0.38004640688E+02  0.68849660247E+02  0.00000000000E+00 0. -1.
         21    1    1    2  504  502 -0.23421707174E+02 -0.14974458344E+03 -0.16518630987E+03  0.22418415110E+03  0.00000000000E+00 0. -1.
         21    1    1    2  505  503  0.11601669579E+03  0.11001994300E+03 -0.23584604137E+02  0.16161836255E+03  0.00000000000E+00 0. -1.
         21    1    1    2  506  501 -0.61154980528E+02  0.87760552980E+02 -0.13686271830E+03  0.17370449033E+03  0.00000000000E+00 0. -1.
<scales pt_clust_3="30.49640" pt_clust_4="30.49640" pt_clust_5="166.73698" pt_clust_6="106.96657"></scales>
<clustering>
<clus scale="   30.496">  3  4 -1 -1</clus>
<clus scale="  106.967">  2  6  1 -1</clus>
<clus scale="  166.737">  1  5  2 -1</clus>
<clus scale="  166.737">  1  3  2 -1</clus>
</clustering>
</event>
<event>
 6    0  0.6207838E+002  0.1113257E+03  0.7546771E-02  0.1258134E+00
         21   -1    0    0  504  501  0.00000000000E+00  0.00000000000E+00  0.18076784366E+04  0.18076784366E+04  0.00000000000E+00 0. -1.
         21   -1    0    0  501  502 -0.00000000000E+00 -0.00000000000E+00 -0.22900408094E+03  0.22900408094E+03  0.00000000000E+00 0. -1.
         21    1    1    2  503  505  0.10222713869E+03 -0.58876451409E+01  0.43740419982E+03  0.44922988132E+03  0.00000000000E+00 0. -1.
         21    1    1    2  504  503 -0.10796019007E+03  0.45665529065E+02  0.13021388768E+04  0.13074044507E+04  0.00000000000E+00 0. -1.
         21    1    1    2  505  506  0.35164360433E+02 -0.26094586798E+02  0.50133403935E+02  0.66564389090E+02  0.00000000000E+00 0. -1.
         21    1    1    2  506  502 -0.29431309057E+02 -0.13683297126E+02 -0.21100212497E+03  0.21348379638E+03  0.00000000000E+00 0. -1.
<scales pt_clust_3="111.32570" pt_clust_4="14000.00000" pt_clust_5="38.80753" pt_clust_6="32.45666"></scales>
<clustering>
<clus scale="   32.457">  2  6  1 -1</clus>
<clus scale="   38.808">  2  5  1 -1</clus>
<clus scale="  111.326">  2  3  1 -1</clus>
<clus scale="  111.326">  1  3  2 -1</clus>
</clustering>
</event>
<event>
 6    0  0.6207838E+002  0.1436517E+03  0.7546771E-02  0.1208498E+00
         21   -1    0    0  504  501  0.00000000000E+00  0.00000000000E+00  0.12469192011E+04  0.12469192011E+04  0.00000000000E+00 0.  1.
         21   -1    0    0  503  502 -0.00000000000E+00 -0.00000000000E+00 -0.49798951586E+03  0.49798951586E+03  0.00000000000E+00 0.  1.
         21    1    1    2  503  505 -0.11301323243E+02 -0.29357438144E+02 -0.27742246931E+02  0.41942953474E+02  0.00000000000E+00 0.  1.
         21    1    1    2  504  506 -0.12209192276E+03  0.74106333490E+02  0.11428044763E+04  0.11516945156E+04  0.00000000000E+00 0.  1.
         21    1    1    2  505  501 -0.86355046912E+02  0.23147843516E+02  0.29072365019E+02  0.94011803484E+02  0.00000000000E+00 0.  1.
         21    1    1    2  506  502  0.21974829292E+03 -0.67896738862E+02 -0.39520490907E+03  0.45725944445E+03  0.00000000000E+00 0.  1.
<scales pt_clust_3="31.45758" pt_clust_4="14000.00000" pt_clust_5="89.66290" pt_clust_6="143.65174"></scales>
<clustering>
<clus scale="   31.458">  2  3  1 -1</clus>
<clus scale="   89.663">  2  5  1 -1</clus>
<clus scale="  143.652">  2  6  1 -1</clus>
<clus scale="  143.652">  1  3  2 -1</clus>
</clustering>
</event>
<event>
 6    0  0.6207838E+002  0.1526390E+03  0.7546771E-02  0.1197267E+00
         21   -1    0    0  505  501  0.00000000000E+00  0.00000000000E+00  0.78504915018E+02  0.78504915018E+02  0.00000000000E+00 0. -1.
         21   -1    0    0  503  502 -0.00000000000E+00 -0.00000000000E+00 -0.19092593402E+04  0.19092593402E+04  0.00000000000E+00 0. -1.
         21    1    1    2  503  504 -0.56229086912E+02 -0.12565127716E+02 -0.65799724728E+03  0.66051492797E+03  0.00000000000E+00 0. -1.
         21    1    1    2  504  506  0.50758763875E+01 -0.73175008957E+02 -0.52089655806E+03  0.52603571234E+03  0.00000000000E+00 0. -1.
         21    1    1    2  505  502  0.59516121554E+02  0.13775477427E+03 -0.28710596506E+01  0.15008927191E+03  0.00000000000E+00 0. -1.
         21    1    1    2  506  501 -0.83629110298E+01 -0.52014637595E+02 -0.64898956017E+03  0.65112434298E+03  0.00000000000E+00 0. -1.
<scales pt_clust_3="57.61591" pt_clust_4="31.58527" pt_clust_5="148.01911" pt_clust_6="31.58527"></scales>
<clustering>
<clus scale="   31.585">  4  6 -1 -1</clus>
<clus scale="   57.616">  2  3  1 -1</clus>
<clus scale="  148.019">  1  5  2 -1</clus>
<clus scale="  148.019">  1  3  2 -1</clus>
</clustering>
</event>
<event>
 6    0  0.6207838E+002  0.1058673E+03  0.7546771E-02  0.1268420E+00
         21   -1    0    0  506  501  0.00000000000E+00  0.00000000000E+00  0.26324989707E+03  0.26324989707E+03  0.00000000000E+00 0.  1.
         21   -1    0    0  503  502 -0.00000000000E+00 -0.00000000000E+00 -0.98485334947E+03  0.98485334947E+03  0.00000000000E+00 0.  1.
         21    1    1    2  503  501 -0.29857188202E+02 -0.30629941228E+02 -0.11263890955E+01  0.42789177830E+02  0.00000000000E+00 0.  1.
         21    1    1    2  504  502 -0.33165894994E+02 -0.55962952283E+02 -0.82689323167E+03  0.82944815703E+03  0.00000000000E+00 0.  1.
         21    1    1    2  505  504  0.40981714714E+02  0.15610596717E+03 -0.76751219832E+02  0.17871576223E+03  0.00000000000E+00 0.  1.
         21    1    1    2  506  505  0.22041368482E+02 -0.69513073654E+02  0.18316738819E+03  0.19715014946E+03  0.00000000000E+00 0.  1.
<scales pt_clust_3="42.77435" pt_clust_4="65.27160" pt_clust_5="14000.00000" pt_clust_6="105.86728"></scales>
<clustering>
<clus scale="   42.774">  1  3  2 -1</clus>
<clus scale="   65.272">  2  4  1 -1</clus>
<clus scale="  105.867">  1  6  2 -1</clus>
<clus scale="   42.774">  1  3  2 -1</clus>
</clustering>
</event>
<event>
 6    0  0.6207838E+002  0.1495637E+03  0.7546771E-02  0.1201010E+00
         21   -1    0    0  506  501  0.00000000000E+00  0.00000000000E+00  0.70047829684E+03  0.70047829684E+03  0.00000000000E+00 0.  1.
         21   -1    0    0  505  502 -0.00000000000E+00 -0.00000000000E+00 -0.19045221070E+03  0.19045221070E+03  0.00000000000E+00 0.  1.
         21    1    1    2  503  502  0.32292489395E+02  0.16572286806E+03  0.23527011449E+03  0.28958401309E+03  0.00000000000E+00 0.  1.
         21    1    1    2  504  501  0.16646704091E+02 -0.12795151779E+03 -0.61644829517E+02  0.14299926107E+03  0.00000000000E+00 0.  1.
         21    1    1    2  505  504  0.22262100178E+02 -0.22299597246E+02 -0.53286939640E+02  0.61906147335E+02  0.00000000000E+00 0.  1.
         21    1    1    2  506  503 -0.71201293665E+02 -0.15471753028E+02  0.38968774081E+03  0.39644108604E+03  0.00000000000E+00 0.  1.
<scales pt_clust_3="149.56366" pt_clust_4="14000.00000" pt_clust_5="31.50989" pt_clust_6="72.43345"></scales>
<clustering>
<clus scale="   31.510">  2  5  1 -1</clus>
<clus scale="   72.433">  1  6  2 -1</clus>
<clus scale="  149.564">  1  3  2 -1</clus>
<clus scale="   72.433">  1  3  2 -1</clus>
</clustering>
</event>
<event>
 6    0  0.6207838E+002  0.2081010E+03  0.7546771E-02  0.1143079E+00
         21   -1    0    0  506  501  0.00000000000E+00  0.00000000000E+00  0.86854394650E+03  0.86854394650E+03  0.00000000000E+00 0.  1.
         21   -1    0    0  503  502 -0.00000000000E+00 -0.00000000000E+00 -0.68868275931E+02  0.68868275931E+02  0.00000000000E+00 0.  1.
         21    1    1    2  503  504 -0.38704451953E+02  0.57257172908E+01  0.95147195629E+01  0.40265969848E+02  0.00000000000E+00 0. -1.
         21    1    1    2  504  501 -0.17485627515E+03 -0.34767249561E+02  0.46315105367E+03  0.49627852777E+03  0.00000000000E+00 0.  1.
         21    1    1    2  505  502  0.62937108810E+02 -0.23749933366E+02  0.61871587886E+02  0.91396019541E+02  0.00000000000E+00 0.  1.
         21    1    1    2  506  505  0.15062361829E+03  0.52791465636E+02  0.26513830945E+03  0.30947170528E+03  0.00000000000E+00 0.  1.
<scales pt_clust_3="39.12567" pt_clust_4="189.73179" pt_clust_5="53.40396" pt_clust_6="53.40396"></scales>
<clustering>
<clus scale="   39.126">  2  3  1 -1</clus>
<clus scale="   53.404">  5  6 -1 -1</clus>
<clus scale="  189.732">  1  4  2 -1</clus>
<clus scale="  189.732">  1  3  2 -1</clus>
</clustering>
</event>
<event>
 6    0  0.6207838E+002  0.9403880E+02  0.7546771E-02  0.1293356E+00
         21   -1    0    0  505  501  0.00000000000E+00  0.00000000000E+00  0.45591898253E+03  0.45591898253E+03  0.00000000000E+00 0. -1.
         21   -1    0    0  504  502 -0.00000000000E+00 -0.00000000000E+00 -0.38595489711E+03  0.38595489711E+03  0.00000000000E+00 0.  1.
         21    1    1    2  503  502  0.50626486333E+02  0.50429118925E+01 -0.13043681377E+03  0.14000798001E+03  0.00000000000E+00 0.  1.
         21    1    1    2  504  501 -0.72597023365E+02  0.89980330709E+02 -0.13420000599E+03  0.17713393047E+03  0.00000000000E+00 0.  1.
         21    1    1    2  505  506 -0.17013413741E+02 -0.27532308518E+02  0.41295091829E+03  0.41421726808E+03  0.00000000000E+00 0. -1.
         21    1    1    2  506  503  0.38983950773E+02 -0.67490934083E+02 -0.78350013110E+02  0.11051470108E+03  0.00000000000E+00 0.  1.
<scales pt_clust_3="48.74152" pt_clust_4="94.03880" pt_clust_5="32.36486" pt_clust_6="14000.00000"></scales>
<clustering>
<clus scale="   32.365">  1  5  2 -1</clus>
<clus scale="   48.742">  2  3  1 -1</clus>
<clus scale="   94.039">  2  4  1 -1</clus>
<clus scale="   32.365">  1  3  2 -1</clus>
</clustering>
</event>
<event>
 6    0  0.6207838E+002  0.1133327E+03  0.7546771E-02  0.1254520E+00
         21   -1    0    0  502  501  0.00000000000E+00  0.00000000000E+00  0.84324898635E+02  0.84324898635E+02  0.00000000000E+00 0.  1.
         21   -1    0    0  504  502 -0.00000000000E+00 -0.00000000000E+00 -0.46583536676E+03  0.46583536676E+03  0.00000000000E+00 0.  1.
         21    1    1    2  503  501  0.23797222350E+02 -0.31755686471E+02  0.29199570451E+02  0.49268106614E+02  0.00000000000E+00 0.  1.
         21    1    1    2  504  506 -0.27088001976E+02 -0.29323890267E+02 -0.42818449060E+02  0.58541181842E+02  0.00000000000E+00 0.  1.
         21    1    1    2  505  503  0.25874125907E+02 -0.58071112041E+02 -0.98552540142E+01  0.64333898349E+02  0.00000000000E+00 0.  1.
         21    1    1    2  506  505 -0.22583346281E+02  0.11915068878E+03 -0.35803633550E+03  0.37801707859E+03  0.00000000000E+00 0.  1.
<scales pt_clust_3="35.28938" pt_clust_4="39.92055" pt_clust_5="35.28938" pt_clust_6="104.15946"></scales>
<clustering>
<clus scale="   35.289">  3  5 -1 -1</clus>
<clus scale="   39.921">  2  4  1 -1</clus>
<clus scale="  104.159">  2  6  1 -1</clus>
<clus scale="  113.333">  1  3  2 -1</clus>
</clustering>
</event>
<event>
 6    0  0.6207838E+002  0.1421272E+03  0.7546771E-02  0.1210495E+00
         21   -1    0    0  503  501  0.00000000000E+00  0.00000000000E+00  0.70916037856E+03  0.70916037856E+03  0.00000000000E+00 0. -1.
         21   -1    0    0  505  502 -0.00000000000E+00 -0.00000000000E+00 -0.89104884709E+02  0.89104884709E+02  0.00000000000E+00 0. -1.
         21    1    1    2  503  502 -0.70183794580E+02  0.12095282869E+03  0.38190492081E+03  0.40670225021E+03  0.00000000000E+00 0. -1.
         21    1    1    2  504  506  0.32923978562E+02 -0.42440277847E+02  0.95844603862E+02  0.10986971210E+03  0.00000000000E+00 0. -1.
         21    1    1    2  505  504  0.51107628793E+02  0.18349432017E+01 -0.50798490656E+02  0.72082198845E+02  0.00000000000E+00 0. -1.
         21    1    1    2  506  501 -0.13847812775E+02 -0.80347494049E+02  0.19310445983E+03  0.20961110210E+03  0.00000000000E+00 0. -1.
<scales pt_clust_3="130.63098" pt_clust_4="45.45117" pt_clust_5="51.14056" pt_clust_6="45.45117"></scales>
<clustering>
<clus scale="   45.451">  4  6 -1 -1</clus>
<clus scale="   51.141">  2  5  1 -1</clus>
<clus scale="  130.631">  1  3  2 -1</clus>
<clus scale="  130.631">  1  3  2 -1</clus>
</clustering>
</event>
<event>
 6    0  0.6207838E+002  0.1111302E+03  0.7546771E-02  0.1258491E+00
         21   -1    0    0  505  501  0.00000000000E+00  0.00000000000E+00  0.37514177480E+03  0.37514177480E+03  0.00000000000E+00 0. -1.
         21   -1    0    0  503  502 -0.00000000000E+00 -0.00000000000E+00 -0.45469587212E+03  0.45469587212E+03  0.00000000000E+00 0.  1.
         21    1    1    2  503  504 -0.45229627195E+02  0.44737493575E+02 -0.18964714759E+02  0.66383905530E+02  0.00000000000E+00 0.  1.
         21    1    1    2  504  506 -0.10046132569E+03 -0.10771955209E+02  0.13848597934E+02  0.10198184467E+03  0.00000000000E+00 0.  1.
         21    1    1    2  505  502  0.41154697649E+02  0.19673437074E+02 -0.35467725830E+03  0.35759853302E+03  0.00000000000E+00 0.  1.
         21    1    1    2  506  501  0.10453625524E+03 -0.53638975439E+02  0.28023927780E+03  0.30387336370E+03  0.00000000000E+00 0. -1.
<scales pt_clust_3="59.89576" pt_clust_4="14000.00000" pt_clust_5="45.61527" pt_clust_6="111.13020"></scales>
<clustering>
<clus scale="   45.615">  2  5  1 -1</clus>
<clus scale="   59.896">  2  3  1 -1</clus>
<clus scale="  111.130">  1  6  2 -1</clus>
<clus scale="  111.130">  1  3  2 -1</clus>
</clustering>
</event>
<event>
 6    0  0.6207838E+002  0.1798788E+03  0.7546771E-02  0.1167920E+00
         21   -1    0    0  503  501  0.00000000000E+00  0.00000000000E+00  0.36339446924E+03  0.36339446924E+03  0.00000000000E+00 0.  1.
         21   -1    0    0  505  502 -0.00000000000E+00 -0.00000000000E+00 -0.50872088952E+03  0.50872088952E+03  0.00000000000E+00 0. -1.
         21    1    1    2  503  504  0.84454285242E+02 -0.57404281804E+02  0.22200085083E+03  0.24436070804E+03  0.00000000000E+00 0.  1.
         21    1    1    2  504  506  0.60408302132E+02 -0.46288289376E+02  0.89879400871E+02  0.11777128428E+03  0.00000000000E+00 0.  1.
         21    1    1    2  505  501 -0.79582880488E+02  0.12960606752E+02 -0.69384414864E+02  0.10637485239E+03  0.00000000000E+00 0. -1.
         21    1    1    2  506  502 -0.65279706885E+02  0.90731964428E+02 -0.38782225712E+03  0.40360851405E+03  0.00000000000E+00 0. -1.
<scales pt_clust_3="39.87009" pt_clust_4="39.87009" pt_clust_5="80.63134" pt_clust_6="173.84883"></scales>
<clustering>
<clus scale="   39.870">  3  4 -1 -1</clus>
<clus scale="   80.631">  2  5  1 -1</clus>
<clus scale="  173.849">  2  6  1 -1</clus>
<clus scale="  179.879">  1  3  2 -1</clus>
</clustering>
</event>
<event>
 6    0  0.6207838E+002  0.9817183E+02  0.7546771E-02  0.1284188E+00
         21   -1    0    0  505  501  0.00000000000E+00  0.00000000000E+00  0.86513799710E+03  0.86513799710E+03  0.00000000000E+00 0. -1.
         21   -1    0    0  506  502 -0.00000000000E+00 -0.00000000000E+00 -0.84012114298E+02  0.84012114298E+02  0.00000000000E+00 0.  1.
         21    1    1    2  503  504  0.70971391288E+02  0.87793501467E+01 -0.24620053380E+02  0.75631755227E+02  0.00000000000E+00 0.  1.
         21    1    1    2  504  502 -0.15226077621E+00  0.51987344844E+02  0.42596400787E+02  0.67209824931E+02  0.00000000000E+00 0. -1.
         21    1    1    2  505  503 -0.13342182969E+03 -0.11061746428E+03  0.42848323084E+03  0.46220719072E+03  0.00000000000E+00 0. -1.
         21    1    1    2  506  501  0.62602699181E+02  0.49850769290E+02  0.33466630455E+03  0.34410134052E+03  0.00000000000E+00 0. -1.
<scales pt_clust_3="98.17183" pt_clust_4="51.98757" pt_clust_5="14000.00000" pt_clust_6="82.19274"></scales>
<clustering>
<clus scale="   51.988">  2  4  1 -1</clus>
<clus scale="   82.193">  1  6  2 -1</clus>
<clus scale="   98.172">  2  3  1 -1</clus>
<clus scale="   82.193">  1  3  2 -1</clus>
</clustering>
</event>
<event>
 6    0  0.6207838E+002  0.1773488E+03  0.7546771E-02  0.1170394E+00
         21   -1    0    0  503  501  0.00000000000E+00  0.00000000000E+00  0.13518827053E+04  0.13518827053E+04  0.00000000000E+00 0. -1.
         21   -1    0    0  504  502 -0.00000000000E+00 -0.00000000000E+00 -0.47252904549E+03  0.47252904549E+03  0.00000000000E+00 0. -1.
         21    1    1    2  503  505  0.50398343623E+02 -0.37128340672E+02  0.93505828330E+03  0.93715126841E+03  0.00000000000E+00 0. -1.
         21    1    1    2  504  506  0.14532899334E+03 -0.14706928028E+03  0.23122667038E+03  0.31018649649E+03  0.00000000000E+00 0. -1.
         21    1    1    2  505  502 -0.10670066521E+03  0.13924459990E+03 -0.39367335141E+03  0.43099048501E+03  0.00000000000E+00 0. -1.
         21    1    1    2  506  501 -0.89026671758E+02  0.44953021053E+02  0.10674205755E+03  0.14608350090E+03  0.00000000000E+00 0.  1.
<scales pt_clust_3="62.59798" pt_clust_4="177.34880" pt_clust_5="14000.00000" pt_clust_6="81.02791"></scales>
<clustering>
<clus scale="   62.598">  1  3  2 -1</clus>
<clus scale="   81.028">  1  6  2 -1</clus>
<clus scale="  177.349">  1  4  2 -1</clus>
<clus scale="   62.598">  1  3  2 -1</clus>
</clustering>
</event>
<event>
 6    0  0.6207838E+002  0.1066943E+03  0.7546771E-02  0.1266817E+00
         21   -1    0    0  505  501  0.00000000000E+00  0.00000000000E+00  0.16149658258E+04  0.16149658258E+04  0.00000000000E+00 0. -1.
         21   -1    0    0  506  502 -0.00000000000E+00 -0.00000000000E+00 -0.46563609807E+03  0.46563609807E+03  0.00000000000E+00 0.  1.
         21    1    1    2  503  501  0.17884237827E+02  0.84751826335E+02 -0.34078156705E+02  0.93080818616E+02  0.00000000000E+00 0.  1.
         21    1    1    2  504  503  0.97131911715E+02 -0.15004315204E+03 -0.14026991108E+03  0.22720740239E+03  0.00000000000E+00 0.  1.
         21    1    1    2  505  502 -0.41287855236E+02  0.98550848615E+01  0.15319447675E+04  0.15325327339E+04  0.00000000000E+00 0. -1.
         21    1    1    2  506  504 -0.73728294306E+02  0.55436240845E+02 -0.20826697203E+03  0.22778096896E+03  0.00000000000E+00 0.  1.
<scales pt_clust_3="88.32282" pt_clust_4="14000.00000" pt_clust_5="42.44773" pt_clust_6="106.69425"></scales>
<clustering>
<clus scale="   42.448">  1  5  2 -1</clus>
<clus scale="   88.323">  1  3  2 -1</clus>
<clus scale="  106.694">  2  6  1 -1</clus>
<clus scale="   42.448">  1  3  2 -1</clus>
</clustering>
</event>
<event>
 6    0  0.6207838E+002  0.1180533E+03  0.7546771E-02  0.1246344E+00
         21   -1    0    0  505  501  0.00000000000E+00  0.00000000000E+00  0.46276325720E+03  0.46276325720E+03  0.00000000000E+00 0. -1.
         21   -1    0    0  506  502 -0.00000000000E+00 -0.00000000000E+00 -0.74643061578E+02  0.74643061578E+02  0.00000000000E+00 0. -1.
         21    1    1    2  503  501  0.51819694263E+02 -0.13823744216E+03  0.25863252613E+03  0.29780136787E+03  0.00000000000E+00 0. -1.
         21    1    1    2  504  502 -0.19518354493E+02  0.23454126713E+02 -0.15370154852E+02  0.34165829159E+02  0.00000000000E+00 0. -1.
         21    1    1    2  505  504 -0.32434899688E+02  0.17722145089E+02  0.81609350416E+02  0.89588968180E+02  0.00000000000E+00 0. -1.
         21    1    1    2  506  503  0.13355991709E+00  0.97061170357E+02  0.63248473924E+02  0.11585015357E+03  0.00000000000E+00 0. -1.
<scales pt_clust_3="118.05327" pt_clust_4="30.51331" pt_clust_5="39.24085" pt_clust_6="14000.00000"></scales>
<clustering>
<clus scale="   30.513">  2  4  1 -1</clus>
<clus scale="   39.241">  1  5  2 -1</clus>
<clus scale="  118.053">  1  3  2 -1</clus>
<clus scale="   39.241">  1  3  2 -1</clus>
</clustering>
</event>
<event>
 6    0  0.6207838E+002  0.9656459E+02  0.7546771E-02  0.1287691E+00
         21   -1    0    0  504  501  0.00000000000E+00  0.00000000000E+00  0.61122425599E+03  0.61122425599E+03  0.00000000000E+00 0. -1.
         21   -1    0    0  506  502 -0.00000000000E+00 -0.00000000000E+00 -0.14156000731E+03  0.14156000731E+03  0.00000000000E+00 0.  1.
         21    1    1    2  503  501  0.31385825073E+02  0.61942206229E+02  0.31325844627E+03  0.32086252677E+03  0.00000000000E+00 0. -1.
         21    1    1    2  504  502 -0.29360675840E+02 -0.35869104207E+02  0.44545380432E+02  0.64287890308E+02  0.00000000000E+00 0. -1.
         21    1    1    2  505  503  0.93687608323E+02 -0.37901665859E+02  0.20812817653E+03  0.23136819594E+03  0.00000000000E+00 0. -1.
         21    1    1    2  506  505 -0.95712757556E+02  0.11828563838E+02 -0.96267754542E+02  0.13626565028E+03  0.00000000000E+00 0.  1.
<scales pt_clust_3="44.03204" pt_clust_4="46.35345" pt_clust_5="14000.00000" pt_clust_6="96.56459"></scales>
<clustering>
<clus scale="   46.353">  1  4  2 -1</clus>
<clus scale="   44.032">  1  3  2 -1</clus>
<clus scale="   96.565">  2  6  1 -1</clus>
<clus scale="   46.353">  1  3  2 -1</clus>
</clustering>
</event>
<event>
 6    0  0.6207838E+002  0.1371245E+03  0.7546771E-02  0.1217251E+00
         21   -1    0    0  504  501  0.00000000000E+00  0.00000000000E+00  0.33830635897E+03  0.33830635897E+03  0.00000000000E+00 0.  1.
         21   -1    0    0  506  502 -0.00000000000E+00 -0.00000000000E+00 -0.13034446262E+04  0.13034446262E+04  0.00000000000E+00 0.  1.
         21    1    1    2  503  501 -0.14290711213E+02  0.29068226507E+02  0.50776675681E+02  0.60228373816E+02  0.00000000000E+00 0. -1.
         21    1    1    2  504  502  0.43615965921E+01 -0.16990870841E+03  0.23780571260E+03  0.29230044418E+03  0.00000000000E+00 0.  1.
         21    1    1    2  505  503  0.45301647917E+01  0.99564233910E+02 -0.12562905819E+03  0.16036277413E+03  0.00000000000E+00 0.  1.
         21    1    1    2  506  505  0.53989498295E+01  0.41276247997E+02 -0.11280915973E+04  0.11288593930E+04  0.00000000000E+00 0.  1.
<scales pt_clust_3="32.39114" pt_clust_4="14000.00000" pt_clust_5="137.12450" pt_clust_6="41.66446"></scales>
<clustering>
<clus scale="   32.391">  1  3  2 -1</clus>
<clus scale="   41.664">  2  6  1 -1</clus>
<clus scale="  137.125">  2  5  1 -1</clus>
<clus scale="   32.391">  1  3  2 -1</clus>
</clustering>
</event>
<event>
 6    0  0.6207838E+002  0.2603472E+03  0.7546771E-02  0.1106935E+00
         21   -1    0    0  506  501  0.00000000000E+00  0.00000000000E+00  0.18811476610E+03  0.18811476610E+03  0.00000000000E+00 0.  1.
         21   -1    0    0  504  502 -0.00000000000E+00 -0.00000000000E+00 -0.55456727254E+03  0.55456727254E+03  0.00000000000E+00 0. -1.
         21    1    1    2  503  501  0.10345919033E+03  0.19786027682E+03 -0.10177713502E+03  0.24537945803E+03  0.00000000000E+00 0. -1.
         21    1    1    2  504  503  0.62785069035E+01  0.54350408526E+02 -0.19574715032E+03  0.20324943644E+03  0.00000000000E+00 0. -1.
         21    1    1    2  505  502 -0.27472012417E+02 -0.34617624827E+02  0.15122348785E+02  0.46709494192E+02  0.00000000000E+00 0.  1.
         21    1    1    2  506  505 -0.82265684816E+02 -0.21759306052E+03 -0.84050569883E+02  0.24734364997E+03  0.00000000000E+00 0.  1.
<scales pt_clust_3="248.42927" pt_clust_4="54.71185" pt_clust_5="33.94035" pt_clust_6="33.94035"></scales>
<clustering>
<clus scale="   33.940">  5  6 -1 -1</clus>
<clus scale="   54.712">  2  4  1 -1</clus>
<clus scale="  248.429">  2  3  1 -1</clus>
<clus scale="  260.347">  1  3  2 -1</clus>
</clustering>
</event>
<event>
 6    0  0.6207838E+002  0.1462310E+03  0.7546771E-02  0.1205182E+00
         21   -1    0    0  504  501  0.00000000000E+00  0.00000000000E+00  0.13978791506E+04  0.13978791506E+04  0.00000000000E+00 0.  1.
         21   -1    0    0  506  502 -0.00000000000E+00 -0.00000000000E+00 -0.78704171982E+03  0.78704171982E+03  0.00000000000E+00 0. -1.
         21    1    1    2  503  501 -0.86115001603E+02 -0.12164957919E+03  0.11048502781E+04  0.11148580854E+04  0.00000000000E+00 0.  1.
         21    1    1    2  504  502  0.11997303048E+02  0.14893077545E+03  0.19055938116E+03  0.24215116953E+03  0.00000000000E+00 0.  1.
         21    1    1    2  505  503  0.56118847279E+02  0.17374800895E+01  0.60222068709E+02  0.82334934363E+02  0.00000000000E+00 0.  1.
         21    1    1    2  506  505  0.17998851276E+02 -0.29018676349E+02 -0.74479429721E+03  0.74557668108E+03  0.00000000000E+00 0. -1.
<scales pt_clust_3="146.23099" pt_clust_4="14000.00000" pt_clust_5="61.16124" pt_clust_6="34.14736"></scales>
<clustering>
<clus scale="   34.147">  2  6  1 -1</clus>
<clus scale="   61.161">  2  5  1 -1</clus>
<clus scale="  146.231">  1  3  2 -1</clus>
<clus scale="  146.231">  1  3  2 -1</clus>
</clustering>
</event>
<event>
 6    0  0.6207838E+002  0.8431672E+02  0.7546771E-02  0.1317229E+00
         21   -1    0    0  506  501  0.00000000000E+00  0.00000000000E+00  0.24774637648E+02  0.24774637648E+02  0.00000000000E+00 0. -1.
         21   -1    0    0  505  502 -0.00000000000E+00 -0.00000000000E+00 -0.22294611830E+04  0.22294611830E+04  0.00000000000E+00 0. -1.
         21    1    1    2  503  502  0.39261835655E+02  0.18142774521E+02 -0.35577148598E+03  0.35839085122E+03  0.00000000000E+00 0. -1.
         21    1    1    2  504  501 -0.69938877877E+02 -0.47875270550E+02 -0.15063939131E+04  0.15087763617E+04  0.00000000000E+00 0. -1.
         21    1    1    2  505  504 -0.35402123891E+02 -0.22617376809E+02 -0.27734659582E+03  0.28051023212E+03  0.00000000000E+00 0. -1.
         21    1    1    2  506  503  0.66079166112E+02  0.52349872837E+02 -0.65174550369E+02  0.10655837553E+03  0.00000000000E+00 0. -1.
<scales pt_clust_3="35.64611" pt_clust_4="84.31672" pt_clust_5="42.01019" pt_clust_6="14000.00000"></scales>
<clustering>
<clus scale="   42.010">  2  5  1 -1</clus>
<clus scale="   35.646">  2  3  1 -1</clus>
<clus scale="   84.317">  2  4  1 -1</clus>
<clus scale="   84.317">  1  3  2 -1</clus>
</clustering>
</event>
<event>
 6    0  0.6207838E+002  0.6602516E+02  0.7546771E-02  0.1374156E+00
         21   -1    0    0  504  501  0.00000000000E+00  0.00000000000E+00  0.10878019441E+03  0.10878019441E+03  0.00000000000E+00 0.  1.
         21   -1    0    0  503  502 -0.00000000000E+00 -0.00000000000E+00 -0.13361077879E+04  0.13361077879E+04  0.00000000000E+00 0.  1.
         21    1    1    2  503  506  0.31741424617E+02 -0.55214659134E+02 -0.99688157832E+03  0.99891393914E+03  0.00000000000E+00 0.  1.
         21    1    1    2  504  502  0.34569736383E+02 -0.62701968615E+02  0.71249710120E+02  0.10101051794E+03  0.00000000000E+00 0.  1.
         21    1    1    2  505  501 -0.59571513687E+02  0.20550499567E+02 -0.73773737465E+02  0.97023979588E+02  0.00000000000E+00 0.  1.
         21    1    1    2  506  505 -0.67396473133E+01  0.97366128182E+02 -0.22792198784E+03  0.24793954567E+03  0.00000000000E+00 0.  1.
<scales pt_clust_3="66.02516" pt_clust_4="48.07850" pt_clust_5="63.01657" pt_clust_6="14000.00000"></scales>
<clustering>
<clus scale="   63.017">  1  5  2 -1</clus>
<clus scale="   48.078">  1  4  2 -1</clus>
<clus scale="   66.025">  2  3  1 -1</clus>
<clus scale="   63.017">  1  3  2 -1</clus>
</clustering>
</event>
<event>
 6    0  0.6207838E+002  0.1169864E+03  0.7546771E-02  0.1248153E+00
         21   -1    0    0  506  501  0.00000000000E+00  0.00000000000E+00  0.28807956834E+03  0.28807956834E+03  0.00000000000E+00 0. -1.
         21   -1    0    0  505  502 -0.00000000000E+00 -0.00000000000E+00 -0.29531491040E+03  0.29531491040E+03  0.00000000000E+00 0. -1.
         21    1    1    2  503  501 -0.74076450254E+01  0.73514737108E+02  0.17801789712E+03  0.19274247448E+03  0.00000000000E+00 0. -1.
         21    1    1    2  504  502  0.40710871652E+02  0.40010242178E+02  0.84059836892E+01  0.57696231347E+02  0.00000000000E+00 0.  1.
         21    1    1    2  505  503 -0.78819678864E+02 -0.93321937509E+02 -0.23720049665E+03  0.26680629941E+03  0.00000000000E+00 0. -1.
         21    1    1    2  506  504  0.45516452237E+02 -0.20203041777E+02  0.43541273787E+02  0.66149473500E+02  0.00000000000E+00 0. -1.
<scales pt_clust_3="116.98636" pt_clust_4="60.03394" pt_clust_5="14000.00000" pt_clust_6="49.79870"></scales>
<clustering>
<clus scale="   49.799">  1  6  2 -1</clus>
<clus scale="   60.034">  1  4  2 -1</clus>
<clus scale="  116.986">  1  3  2 -1</clus>
<clus scale="   49.799">  1  3  2 -1</clus>
</clustering>
</event>
<event>
 6    0  0.6207838E+002  0.1232826E+03  0.7546771E-02  0.1237778E+00
         21   -1    0    0  505  501  0.00000000000E+00  0.00000000000E+00  0.22219453328E+04  0.22219453328E+04  0.00000000000E+00 0.  1.
         21   -1    0    0  504  502 -0.00000000000E+00 -0.00000000000E+00 -0.10664468734E+03  0.10664468734E+03  0.00000000000E+00 0. -1.
         21    1    1    2  503  502 -0.30807040786E+01 -0.85304306518E+02 -0.21777583176E+02  0.88094146100E+02  0.00000000000E+00 0. -1.
         21    1    1    2  504  506  0.56194769259E+02 -0.32082828599E+02 -0.24910840460E+02  0.69337651787E+02  0.00000000000E+00 0. -1.
         21    1    1    2  505  503 -0.26654190836E+02  0.91438242490E+02  0.20670347633E+04  0.20692279021E+04  0.00000000000E+00 0.  1.
         21    1    1    2  506  501 -0.26459874344E+02  0.25948892627E+02  0.94954305823E+02  0.10193032019E+03  0.00000000000E+00 0. -1.
<scales pt_clust_3="123.28263" pt_clust_4="64.33339" pt_clust_5="14000.00000" pt_clust_6="37.06036"></scales>
<clustering>
<clus scale="   37.060">  1  6  2 -1</clus>
<clus scale="   64.333">  2  4  1 -1</clus>
<clus scale="  123.283">  2  3  1 -1</clus>
<clus scale="   37.060">  1  3  2 -1</clus>
</clustering>
</event>
<event>
 6    0  0.6207838E+002  0.1290668E+03  0.7546771E-02  0.1228847E+00
         21   -1    0    0  503  501  0.00000000000E+00  0.00000000000E+00  0.19715898910E+03  0.19715898910E+03  0.00000000000E+00 0.  1.
         21   -1    0    0  505  502 -0.00000000000E+00 -0.00000000000E+00 -0.20943143043E+03  0.20943143043E+03  0.00000000000E+00 0. -1.
         21    1    1    2  503  504  0.75490500112E+02 -0.29808974128E+02  0.90066732646E+02  0.12124111050E+03  0.00000000000E+00 0.  1.
         21    1    1    2  504  506  0.54799630472E+02  0.16370080019E+01  0.88969558181E+01  0.55541292008E+02  0.00000000000E+00 0.  1.
         21    1    1    2  505  501 -0.16204397786E+03  0.38991118967E+02 -0.84240961609E+02  0.18674875564E+03  0.00000000000E+00 0. -1.
         21    1    1    2  506  502  0.31753847279E+02 -0.10819152841E+02 -0.26995168186E+02  0.43059261380E+02  0.00000000000E+00 0. -1.
<scales pt_clust_3="81.16274" pt_clust_4="33.35944" pt_clust_5="121.81767" pt_clust_6="33.35944"></scales>
<clustering>
<clus scale="   33.359">  4  6 -1 -1</clus>
<clus scale="   81.163">  1  3  2 -1</clus>
<clus scale="  121.818">  1  5  2 -1</clus>
<clus scale="   81.163">  1  3  2 -1</clus>
</clustering>
</event>
<event>
 6    0  0.6207838E+002  0.6432756E+02  0.7546771E-02  0.1380519E+00
         21   -1    0    0  504  501  0.00000000000E+00  0.00000000000E+00  0.46808131023E+02  0.46808131023E+02  0.00000000000E+00 0. -1.
         21   -1    0    0  506  502 -0.00000000000E+00 -0.00000000000E+00 -0.18483387309E+04  0.18483387309E+04  0.00000000000E+00 0.  1.
         21    1    1    2  503  505 -0.25702476611E+02  0.65756485160E+02 -0.12377570421E+04  0.12397689413E+04  0.00000000000E+00 0.  1.
         21    1    1    2  504  503  0.42290231790E+01 -0.64124154911E+02  0.13634783207E+02  0.65693981407E+02  0.00000000000E+00 0. -1.
         21    1    1    2  505  502  0.55361825989E+01  0.57818428569E+02 -0.27088712257E+03  0.27704413579E+03  0.00000000000E+00 0.  1.
         21    1    1    2  506  501  0.15937270833E+02 -0.59450758819E+02 -0.30652121849E+03  0.31263980346E+03  0.00000000000E+00 0. -1.
<scales pt_clust_3="14000.00000" pt_clust_4="64.32756" pt_clust_5="58.08287" pt_clust_6="51.00697"></scales>
<clustering>
<clus scale="   58.083">  2  5  1 -1</clus>
<clus scale="   51.007">  2  6  1 -1</clus>
<clus scale="   64.328">  1  4  2 -1</clus>
<clus scale="   64.328">  1  3  2 -1</clus>
</clustering>
</event>
<event>
 6    0  0.6207838E+002  0.1342144E+03  0.7546771E-02  0.1221333E+00
         21   -1    0    0  506  501  0.00000000000E+00  0.00000000000E+00  0.40150894436E+03  0.40150894436E+03  0.00000000000E+00 0. -1.
         21   -1    0    0  505  502 -0.00000000000E+00 -0.00000000000E+00 -0.32434833355E+03  0.32434833355E+03  0.00000000000E+00 0. -1.
         21    1    1    2  503  501  0.52940821593E+02 -0.16365278360E+02  0.63739664852E+02  0.84458852717E+02  0.00000000000E+00 0. -1.
         21    1    1    2  504  502 -0.42729253843E+02 -0.12311787787E+03 -0.12747883405E+03  0.18230374137E+03  0.00000000000E+00 0. -1.
         21    1    1    2  505  503  0.23277681752E+02  0.13762583156E+03 -0.12723580972E+03  0.18886945560E+03  0.00000000000E+00 0. -1.
         21    1    1    2  506  504 -0.33489249503E+02  0.18573246642E+01  0.26813558974E+03  0.27022522823E+03  0.00000000000E+00 0. -1.
<scales pt_clust_3="37.46578" pt_clust_4="134.21439" pt_clust_5="14000.00000" pt_clust_6="33.54071"></scales>
<clustering>
<clus scale="   33.541">  1  6  2 -1</clus>
<clus scale="   37.466">  1  3  2 -1</clus>
<clus scale="  134.214">  2  4  1 -1</clus>
<clus scale="   33.541">  1  3  2 -1</clus>
</clustering>
</event>
<event>
 6    0  0.6207838E+002  0.1588368E+03  0.7546771E-02  0.1190016E+00
         21   -1    0    0  504  501  0.00000000000E+00  0.00000000000E+00  0.74829054325E+02  0.74829054325E+02  0.00000000000E+00 0. -1.
         21   -1    0    0  503  502 -0.00000000000E+00 -0.00000000000E+00 -0.62664832147E+03  0.62664832147E+03  0.00000000000E+00 0. -1.
         21    1    1    2  503  505  0.14854699981E+03  0.70687077518E+02 -0.45471235467E+03  0.48355578745E+03  0.00000000000E+00 0. -1.
         21    1    1    2  504  502 -0.28487945908E+02  0.97756473104E+01 -0.44393116221E+02  0.53645830316E+02  0.00000000000E+00 0.  1.
         21    1    1    2  505  506 -0.12847850096E+02 -0.37223031279E+02 -0.19819870888E+02  0.44084561829E+02  0.00000000000E+00 0. -1.
         21    1    1    2  506  501 -0.10721120380E+03 -0.43239693550E+02 -0.32893925364E+02  0.12019119621E+03  0.00000000000E+00 0. -1.
<scales pt_clust_3="148.01952" pt_clust_4="30.11854" pt_clust_5="33.20736" pt_clust_6="33.20736"></scales>
<clustering>
<clus scale="   30.119">  2  4  1 -1</clus>
<clus scale="   33.207">  5  6 -1 -1</clus>
<clus scale="  148.020">  2  3  1 -1</clus>
<clus scale="  158.837">  1  3  2 -1</clus>
</clustering>
</event>
<event>
 6    0  0.6207838E+002  0.9081319E+02  0.7546771E-02  0.1300894E+00
         21   -1    0    0  504  501  0.00000000000E+00  0.00000000000E+00  0.25338968690E+03  0.25338968690E+03  0.00000000000E+00 0. -1.
         21   -1    0    0  503  502 -0.00000000000E+00 -0.00000000000E+00 -0.24048492291E+03  0.24048492291E+03  0.00000000000E+00 0. -1.
         21    1    1    2  503  505 -0.34357233187E+02 -0.52489280909E+02 -0.85781017842E+02  0.10627288979E+03  0.00000000000E+00 0. -1.
         21    1    1    2  504  506 -0.63103380774E+02  0.85184156579E+01 -0.70456791768E+02  0.94967149987E+02  0.00000000000E+00 0. -1.
         21    1    1    2  505  501  0.93906582908E+02  0.76850265816E+01  0.21459366895E+03  0.23436712377E+03  0.00000000000E+00 0. -1.
         21    1    1    2  506  502  0.35540310520E+01  0.36285838670E+02 -0.45451095358E+02  0.58267446262E+02  0.00000000000E+00 0. -1.
<scales pt_clust_3="47.07969" pt_clust_4="14000.00000" pt_clust_5="90.81319" pt_clust_6="36.45947"></scales>
<clustering>
<clus scale="   36.459">  2  6  1 -1</clus>
<clus scale="   47.080">  2  3  1 -1</clus>
<clus scale="   90.813">  1  5  2 -1</clus>
<clus scale="   90.813">  1  3  2 -1</clus>
</clustering>
</event>
<event>
 6    0  0.6207838E+002  0.1002839E+03  0.7546771E-02  0.1279700E+00
         21   -1    0    0  503  501  0.00000000000E+00  0.00000000000E+00  0.25916796931E+02  0.25916796931E+02  0.00000000000E+00 0. -1.
         21   -1    0    0  505  502 -0.00000000000E+00 -0.00000000000E+00 -0.11873357523E+04  0.11873357523E+04  0.00000000000E+00 0.  1.
         21    1    1    2  503  502 -0.80073333623E+02  0.68518892606E+02 -0.29971913609E+03  0.31770762965E+03  0.00000000000E+00 0. -1.
         21    1    1    2  504  501  0.14020255846E+02 -0.57962853468E+02 -0.12443292753E+03  0.13798483036E+03  0.00000000000E+00 0.  1.
         21    1    1    2  505  506 -0.34525037330E+02  0.33492435153E+02 -0.39971513671E+03  0.40259894676E+03  0.00000000000E+00 0. -1.
         21    1    1    2  506  504  0.10057811511E+03 -0.44048474291E+02 -0.33755175503E+03  0.35496114245E+03  0.00000000000E+00 0.  1.
<scales pt_clust_3="100.28392" pt_clust_4="53.02023" pt_clust_5="48.10116" pt_clust_6="14000.00000"></scales>
<clustering>
<clus scale="   48.101">  2  5  1 -1</clus>
<clus scale="   53.020">  1  4  2 -1</clus>
<clus scale="  100.284">  1  3  2 -1</clus>
<clus scale="   53.020">  1  3  2 -1</clus>
</clustering>
</event>
<event>
 6    0  0.6207838E+002  0.1355801E+03  0.7546771E-02  0.1219403E+00
         21   -1    0    0  505  501  0.00000000000E+00  0.00000000000E+00  0.11123384880E+03  0.11123384880E+03  0.00000000000E+00 0.  1.
         21   -1    0    0  504  502 -0.00000000000E+00 -0.00000000000E+00 -0.11664002309E+04  0.11664002309E+04  0.00000000000E+00 0.  1.
         21    1    1    2  503  501  0.56451811883E+02  0.25586452620E+01 -0.31454542100E+02  0.64674121170E+02  0.00000000000E+00 0. -1.
         21    1    1    2  504  506  0.66474988248E+02  0.35225070464E+01 -0.87729848050E+03  0.87982041122E+03  0.00000000000E+00 0.  1.
         21    1    1    2  505  502  0.44749126196E+02  0.92084874061E+02 -0.30220175437E+02  0.10674908585E+03  0.00000000000E+00 0.  1.
         21    1    1    2  506  503 -0.16767592633E+03 -0.98166026369E+02 -0.11619318402E+03  0.22639046140E+03  0.00000000000E+00 0.  1.
<scales pt_clust_3="56.50977" pt_clust_4="67.32128" pt_clust_5="135.58009" pt_clust_6="14000.00000"></scales>
<clustering>
<clus scale="   56.510">  1  3  2 -1</clus>
<clus scale="   67.321">  2  4  1 -1</clus>
<clus scale="  135.580">  1  5  2 -1</clus>
<clus scale="   56.510">  1  3  2 -1</clus>
</clustering>
</event>
<event>
 6    0  0.6207838E+002  0.4235094E+03  0.7546771E-02  0.1035930E+00
         21   -1    0    0  504  501  0.00000000000E+00  0.00000000000E+00  0.32733197896E+03  0.32733197896E+03  0.00000000000E+00 0.  1.
         21   -1    0    0  506  502 -0.00000000000E+00 -0.00000000000E+00 -0.54432611848E+03  0.54432611848E+03  0.00000000000E+00 0. -1.
         21    1    1    2  503  501  0.27132007002E+02 -0.88411143224E+02 -0.38575713595E+02  0.10020360138E+03  0.00000000000E+00 0. -1.
         21    1    1    2  504  505 -0.96189272446E+02  0.61935626206E+02 -0.28591293967E+02  0.11792311062E+03  0.00000000000E+00 0. -1.
         21    1    1    2  505  502 -0.21998480019E+03  0.16847337213E+03 -0.17947195093E+03  0.33013144443E+03  0.00000000000E+00 0. -1.
         21    1    1    2  506  503  0.28904206563E+03 -0.14199785511E+03  0.29644818968E+02  0.32339994102E+03  0.00000000000E+00 0.  1.
<scales pt_clust_3="86.91563" pt_clust_4="42.66247" pt_clust_5="396.81554" pt_clust_6="86.91563"></scales>
<clustering>
<clus scale="   42.662">  4  5 -1 -1</clus>
<clus scale="   86.916">  3  6 -1 -1</clus>
<clus scale="  396.816">  2  4  1 -1</clus>
<clus scale="  423.509">  1  3  2 -1</clus>
</clustering>
</event>
<event>
 6    0  0.6207838E+002  0.1115103E+03  0.7546771E-02  0.1257798E+00
         21   -1    0    0  504  501  0.00000000000E+00  0.00000000000E+00  0.25561342156E+03  0.25561342156E+03  0.00000000000E+00 0. -1.
         21   -1    0    0  506  502 -0.00000000000E+00 -0.00000000000E+00 -0.87353289346E+03  0.87353289346E+03  0.00000000000E+00 0. -1.
         21    1    1    2  503  505  0.25379824673E+02  0.38822917313E+02 -0.22091500243E+02  0.51374982162E+02  0.00000000000E+00 0.  1.
         21    1    1    2  504  503 -0.30043535664E+02  0.29572290407E+02  0.22161941587E+03  0.22559321773E+03  0.00000000000E+00 0. -1.
         21    1    1    2  505  502  0.10438962107E+03  0.32498363868E+01 -0.23871406419E+03  0.26056123822E+03  0.00000000000E+00 0. -1.
         21    1    1    2  506  501 -0.99725910078E+02 -0.71645044107E+02 -0.57873332335E+03  0.59161687690E+03  0.00000000000E+00 0. -1.
<scales pt_clust_3="53.62849" pt_clust_4="42.15607" pt_clust_5="14000.00000" pt_clust_6="111.51027"></scales>
<clustering>
<clus scale="   42.156">  1  4  2 -1</clus>
<clus scale="   53.628">  1  3  2 -1</clus>
<clus scale="  111.510">  2  6  1 -1</clus>
<clus scale="   42.156">  1  3  2 -1</clus>
</clustering>
</event>
<event>
 6    0  0.6207838E+002  0.1066817E+03  0.7546771E-02  0.1266841E+00
         21   -1    0    0  504  501  0.00000000000E+00  0.00000000000E+00  0.99022249395E+03  0.99022249395E+03  0.00000000000E+00 0.  1.
         21   -1    0    0  503  502 -0.00000000000E+00 -0.00000000000E+00 -0.30504001506E+02  0.30504001506E+02  0.00000000000E+00 0.  1.
         21    1    1    2  503  505  0.75703112888E+02  0.67438036399E+02  0.15991153319E+03  0.18934241073E+03  0.00000000000E+00 0.  1.
         21    1    1    2  504  502  0.19483123671E+02  0.41815402513E+02  0.30668690538E+03  0.31013703089E+03  0.00000000000E+00 0.  1.
         21    1    1    2  505  506 -0.10137633822E+03 -0.60109145394E+02  0.31347046584E+03  0.33489401945E+03  0.00000000000E+00 0.  1.
         21    1    1    2  506  501  0.61901016657E+01 -0.49144293518E+02  0.17964958803E+03  0.18635303438E+03  0.00000000000E+00 0.  1.
<scales pt_clust_3="106.68166" pt_clust_4="46.13155" pt_clust_5="14000.00000" pt_clust_6="39.60295"></scales>
<clustering>
<clus scale="   46.132">  1  4  2 -1</clus>
<clus scale="   39.603">  1  6  2 -1</clus>
<clus scale="  106.682">  2  3  1 -1</clus>
<clus scale="   46.132">  1  3  2 -1</clus>
</clustering>
</event>
<event>
 6    0  0.6207838E+002  0.1237062E+03  0.7546771E-02  0.1237105E+00
         21   -1    0    0  505  501  0.00000000000E+00  0.00000000000E+00  0.42681141985E+02  0.42681141985E+02  0.00000000000E+00 0.  1.
         21   -1    0    0  506  502 -0.00000000000E+00 -0.00000000000E+00 -0.12445101634E+04  0.12445101634E+04  0.00000000000E+00 0.  1.
         21    1    1    2  503  504 -0.52812234626E+02  0.32756363603E+02 -0.79670865925E+02  0.10104235924E+03  0.00000000000E+00 0.  1.
         21    1    1    2  504  502  0.27016944005E+02 -0.74164588974E+02 -0.85150173509E+03  0.85515232935E+03  0.00000000000E+00 0.  1.
         21    1    1    2  505  503 -0.65816917758E+02 -0.19137791617E+02 -0.51047952506E+02  0.85463531323E+02  0.00000000000E+00 0.  1.
         21    1    1    2  506  501  0.91612208380E+02  0.60546016988E+02 -0.21960846793E+03  0.24553308551E+03  0.00000000000E+00 0.  1.
<scales pt_clust_3="55.83700" pt_clust_4="78.93226" pt_clust_5="55.83700" pt_clust_6="108.92439"></scales>
<clustering>
<clus scale="   55.837">  3  5 -1 -1</clus>
<clus scale="   78.932">  2  4  1 -1</clus>
<clus scale="  108.924">  2  6  1 -1</clus>
<clus scale="  123.706">  1  3  2 -1</clus>
</clustering>
</event>
<event>
 6    0  0.6207838E+002  0.9073803E+02  0.7546771E-02  0.1301074E+00
         21   -1    0    0  504  501  0.00000000000E+00  0.00000000000E+00  0.75623463233E+02  0.75623463233E+02  0.00000000000E+00 0. -1.
         21   -1    0    0  503  502 -0.00000000000E+00 -0.00000000000E+00 -0.35947459591E+04  0.35947459591E+04  0.00000000000E+00 0. -1.
         21    1    1    2  503  505  0.79376252622E+02 -0.24837950313E+02 -0.18234323393E+03  0.20041598792E+03  0.00000000000E+00 0. -1.
         21    1    1    2  504  506  0.52376985220E+02  0.81742279904E+01 -0.25416446285E+03  0.25963385904E+03  0.00000000000E+00 0. -1.
         21    1    1    2  505  501 -0.40204030772E+02  0.16157751107E+02  0.55756516592E+02  0.70613215148E+02  0.00000000000E+00 0. -1.
         21    1    1    2  506  502 -0.91549207070E+02  0.50597121557E+00 -0.31383713157E+04  0.31397063602E+04  0.00000000000E+00 0. -1.
<scales pt_clust_3="90.73803" pt_clust_4="45.08948" pt_clust_5="43.32940" pt_clust_6="14000.00000"></scales>
<clustering>
<clus scale="   43.329">  1  5  2 -1</clus>
<clus scale="   45.089">  1  4  2 -1</clus>
<clus scale="   90.738">  1  3  2 -1</clus>
<clus scale="   43.329">  1  3  2 -1</clus>
</clustering>
</event>
<event>
 6    0  0.6207838E+002  0.1018759E+03  0.7546771E-02  0.1276400E+00
         21   -1    0    0  503  501  0.00000000000E+00  0.00000000000E+00  0.35988510365E+03  0.35988510365E+03  0.00000000000E+00 0.  1.
         21   -1    0    0  506  502 -0.00000000000E+00 -0.00000000000E+00 -0.18364700690E+03  0.18364700690E+03  0.00000000000E+00 0.  1.
         21    1    1    2  503  502 -0.70107587785E+02  0.32978482678E+02 -0.49271146282E+02  0.91816665376E+02  0.00000000000E+00 0.  1.
         21    1    1    2  504  505 -0.38262541014E+01 -0.53447985863E+02 -0.44093663027E+02  0.69394369602E+02  0.00000000000E+00 0. -1.
         21    1    1    2  505  501  0.10156756326E+03  0.35629941080E+02  0.31168327003E+03  0.32974524019E+03  0.00000000000E+00 0.  1.
         21    1    1    2  506  504 -0.27633721370E+02 -0.15160437895E+02 -0.42080363979E+02  0.52575835386E+02  0.00000000000E+00 0.  1.
<scales pt_clust_3="101.87593" pt_clust_4="61.69341" pt_clust_5="14000.00000" pt_clust_6="31.51922"></scales>
<clustering>
<clus scale="   31.519">  2  6  1 -1</clus>
<clus scale="   61.693">  2  4  1 -1</clus>
<clus scale="  101.876">  2  3  1 -1</clus>
<clus scale="  101.876">  1  3  2 -1</clus>
</clustering>
</event>
<event>
 6    0  0.6207838E+002  0.9406586E+02  0.7546771E-02  0.1293294E+00
         21   -1    0    0  505  501  0.00000000000E+00  0.00000000000E+00  0.11714141232E+04  0.11714141232E+04  0.00000000000E+00 0.  1.
         21   -1    0    0  504  502 -0.00000000000E+00 -0.00000000000E+00 -0.84541576107E+02  0.84541576107E+02  0.00000000000E+00 0.  1.
         21    1    1    2  503  506 -0.29647991329E+02  0.75953057236E+02  0.26125749609E+03  0.27368476311E+03  0.00000000000E+00 0.  1.
         21    1    1    2  504  503  0.10993996458E+03  0.26205071740E+02 -0.17598329136E+02  0.11438182891E+03  0.00000000000E+00 0.  1.
         21    1    1    2  505  502 -0.54240217238E+02  0.27758673130E+01  0.77827014968E+02  0.94903903314E+02  0.00000000000E+00 0.  1.
         21    1    1    2  506  501 -0.26051756016E+02 -0.10493399629E+03  0.76538636515E+03  0.77298520395E+03  0.00000000000E+00 0.  1.
<scales pt_clust_3="14000.00000" pt_clust_4="69.05364" pt_clust_5="54.31120" pt_clust_6="94.06586"></scales>
<clustering>
<clus scale="   54.311">  2  5  1 -1</clus>
<clus scale="   69.054">  2  4  1 -1</clus>
<clus scale="   94.066">  1  6  2 -1</clus>
<clus scale="   94.066">  1  3  2 -1</clus>
</clustering>
</event>
<event>
 6    0  0.6207838E+002  0.1073870E+03  0.7546771E-02  0.1265487E+00
         21   -1    0    0  505  501  0.00000000000E+00  0.00000000000E+00  0.17973155455E+03  0.17973155455E+03  0.00000000000E+00 0.  1.
         21   -1    0    0  504  502 -0.00000000000E+00 -0.00000000000E+00 -0.13197931855E+03  0.13197931855E+03  0.00000000000E+00 0.  1.
         21    1    1    2  503  506  0.37907924682E+02 -0.59403076825E+02  0.33412749525E+02  0.77988128077E+02  0.00000000000E+00 0.  1.
         21    1    1    2  504  503 -0.55286168172E+02  0.78816223223E+02 -0.58431841855E+02  0.11261810501E+03  0.00000000000E+00 0.  1.
         21    1    1    2  505  502 -0.33484118150E+02  0.43515047547E+01  0.50412495844E+02  0.60675707653E+02  0.00000000000E+00 0. -1.
         21    1    1    2  506  501  0.50862361639E+02 -0.23764651153E+02  0.22358832482E+02  0.60428932358E+02  0.00000000000E+00 0. -1.
<scales pt_clust_3="31.57951" pt_clust_4="101.39132" pt_clust_5="33.76569" pt_clust_6="31.57951"></scales>
<clustering>
<clus scale="   31.580">  3  6 -1 -1</clus>
<clus scale="   33.766">  1  5  2 -1</clus>
<clus scale="  101.391">  2  4  1 -1</clus>
<clus scale="   33.766">  1  3  2 -1</clus>
</clustering>
</event>
<event>
 6    0  0.6207839E+002  0.1226395E+03  0.7546771E-02  0.1238805E+00
         21   -1    0    0  504  501  0.00000000000E+00  0.00000000000E+00  0.36138894408E+03  0.36138894408E+03  0.00000000000E+00 0.  1.
         21   -1    0    0  503  502 -0.00000000000E+00 -0.00000000000E+00 -0.44328478332E+03  0.44328478332E+03  0.00000000000E+00 0.  1.
         21    1    1    2  503  506 -0.11415731427E+03 -0.13690346774E+02 -0.40886777721E+03  0.42472600255E+03  0.00000000000E+00 0.  1.
         21    1    1    2  504  502 -0.28910927381E+02  0.20192752946E+02  0.24958144633E+02  0.43202985743E+02  0.00000000000E+00 0.  1.
         21    1    1    2  505  501  0.70061864079E+02 -0.91506553645E+01  0.19289823290E+03  0.20543156415E+03  0.00000000000E+00 0.  1.
         21    1    1    2  506  505  0.73006377573E+02  0.26482491921E+01  0.10911556044E+03  0.13131317497E+03  0.00000000000E+00 0.  1.
<scales pt_clust_3="115.61384" pt_clust_4="35.26456" pt_clust_5="37.31340" pt_clust_6="37.31340"></scales>
<clustering>
<clus scale="   35.265">  1  4  2 -1</clus>
<clus scale="   37.313">  5  6 -1 -1</clus>
<clus scale="  115.614">  2  3  1 -1</clus>
<clus scale="   35.265">  1  3  2 -1</clus>
</clustering>
</event>
<event>
 6    0  0.6207838E+002  0.1676372E+03  0.7546771E-02  0.1180335E+00
         21   -1    0    0  505  501  0.00000000000E+00  0.00000000000E+00  0.11594245494E+04  0.11594245494E+04  0.00000000000E+00 0.  1.
         21   -1    0    0  504  502 -0.00000000000E+00 -0.00000000000E+00 -0.70668670974E+02  0.70668670974E+02  0.00000000000E+00 0. -1.
         21    1    1    2  503  506 -0.25559937318E+02 -0.37122970368E+02  0.41351158496E+02  0.61166523798E+02  0.00000000000E+00 0. -1.
         21    1    1    2  504  503  0.11435846348E+03 -0.17749444132E+02  0.14391318762E+03  0.18467243029E+03  0.00000000000E+00 0. -1.
         21    1    1    2  505  502 -0.97474222866E+02  0.14058564533E+03  0.87785659823E+03  0.89437003240E+03  0.00000000000E+00 0.  1.
         21    1    1    2  506  501  0.86756967030E+01 -0.85713230830E+02  0.25634934046E+02  0.89884233858E+02  0.00000000000E+00 0. -1.
<scales pt_clust_3="39.32119" pt_clust_4="115.72770" pt_clust_5="158.57756" pt_clust_6="39.32119"></scales>
<clustering>
<clus scale="   39.321">  3  6 -1 -1</clus>
<clus scale="  115.728">  2  4  1 -1</clus>
<clus scale="  158.578">  1  5  2 -1</clus>
<clus scale="  158.578">  1  3  2 -1</clus>
</clustering>
</event>
<event>
 6    0  0.6207838E+002  0.1799123E+03  0.7546771E-02  0.1167888E+00
         21   -1    0    0  504  501  0.00000000000E+00  0.00000000000E+00  0.25603081684E+03  0.25603081684E+03  0.00000000000E+00 0.  1.
         21   -1    0    0  505  502 -0.00000000000E+00 -0.00000000000E+00 -0.97306045642E+03  0.97306045642E+03  0.00000000000E+00 0. -1.
         21    1    1    2  503  501 -0.47699562997E+02 -0.67067723111E+02 -0.80879214686E+02  0.11538966662E+03  0.00000000000E+00 0.  1.
         21    1    1    2  504  506 -0.31193241844E+02 -0.31462115844E+01  0.15791613397E+03  0.16099820605E+03  0.00000000000E+00 0.  1.
         21    1    1    2  505  503 -0.98362996418E+02 -0.89553543855E+01  0.32239936356E+02  0.10389846453E+03  0.00000000000E+00 0.  1.
         21    1    1    2  506  502  0.17725580126E+03  0.79169289081E+02 -0.82630649522E+03  0.84880493605E+03  0.00000000000E+00 0. -1.
<scales pt_clust_3="86.09188" pt_clust_4="31.35151" pt_clust_5="14000.00000" pt_clust_6="179.91229"></scales>
<clustering>
<clus scale="   31.352">  1  4  2 -1</clus>
<clus scale="   86.092">  1  3  2 -1</clus>
<clus scale="  179.912">  2  6  1 -1</clus>
<clus scale="   31.352">  1  3  2 -1</clus>
</clustering>
</event>
<event>
 6    0  0.6207838E+002  0.1384885E+03  0.7546771E-02  0.1215377E+00
         21   -1    0    0  504  501  0.00000000000E+00  0.00000000000E+00  0.12610676591E+03  0.12610676591E+03  0.00000000000E+00 0.  1.
         21   -1    0    0  506  502 -0.00000000000E+00 -0.00000000000E+00 -0.59979532253E+03  0.59979532253E+03  0.00000000000E+00 0.  1.
         21    1    1    2  503  502 -0.45698137141E+02 -0.18497231977E+03 -0.77643683447E+02  0.20574649547E+03  0.00000000000E+00 0.  1.
         21    1    1    2  504  503 -0.33449842308E+02  0.83513747352E+01  0.82702829774E+01  0.35454689265E+02  0.00000000000E+00 0.  1.
         21    1    1    2  505  501  0.11119770724E+03  0.49839400840E+02 -0.11656853972E+03  0.16863309410E+03  0.00000000000E+00 0.  1.
         21    1    1    2  506  505 -0.32049727795E+02  0.12678154419E+03 -0.28774661643E+03  0.31606780960E+03  0.00000000000E+00 0.  1.
<scales pt_clust_3="14000.00000" pt_clust_4="34.47662" pt_clust_5="115.20932" pt_clust_6="138.48846"></scales>
<clustering>
<clus scale="   34.477">  1  4  2 -1</clus>
<clus scale="  115.209">  1  5  2 -1</clus>
<clus scale="  138.488">  2  6  1 -1</clus>
<clus scale="   34.477">  1  3  2 -1</clus>
</clustering>
</event>
<event>
 6    0  0.6207838E+002  0.1310662E+03  0.7546771E-02  0.1225882E+00
         21   -1    0    0  505  501  0.00000000000E+00  0.00000000000E+00  0.42497479714E+03  0.42497479714E+03  0.00000000000E+00 0. -1.
         21   -1    0    0  506  502 -0.00000000000E+00 -0.00000000000E+00 -0.18096190124E+03  0.18096190124E+03  0.00000000000E+00 0. -1.
         21    1    1    2  503  504 -0.52616724110E+02  0.80367268967E+02  0.23233824520E+01  0.96087541769E+02  0.00000000000E+00 0. -1.
         21    1    1    2  504  501  0.76257333023E+02 -0.11945121814E+03  0.33778607996E+03  0.36631026489E+03  0.00000000000E+00 0. -1.
         21    1    1    2  505  502  0.30866734695E+02 -0.80460999268E+01 -0.15621638852E+02  0.35518032536E+02  0.00000000000E+00 0. -1.
         21    1    1    2  506  503 -0.54507343609E+02  0.47130049096E+02 -0.80474927665E+02  0.10802085918E+03  0.00000000000E+00 0. -1.
<scales pt_clust_3="14000.00000" pt_clust_4="131.06617" pt_clust_5="31.89820" pt_clust_6="55.36883"></scales>
<clustering>
<clus scale="   31.898">  2  5  1 -1</clus>
<clus scale="   55.369">  2  6  1 -1</clus>
<clus scale="  131.066">  1  4  2 -1</clus>
<clus scale="  131.066">  1  3  2 -1</clus>
</clustering>
</event>
<event>
 6    0  0.6207838E+002  0.8321054E+02  0.7546771E-02  0.1320180E+00
         21   -1    0    0  503  501  0.00000000000E+00  0.00000000000E+00  0.14653346070E+04  0.14653346070E+04  0.00000000000E+00 0.  1.
         21   -1    0    0  504  502 -0.00000000000E+00 -0.00000000000E+00 -0.51440918804E+02  0.51440918804E+02  0.00000000000E+00 0.  1.
         21    1    1    2  503  506  0.78733969190E+02 -0.30417923399E+02  0.11877377766E+04  0.11907330994E+04  0.00000000000E+00 0.  1.
         21    1    1    2  504  501  0.62085710995E+02  0.26294197169E+02  0.82583443716E+02  0.10661165739E+03  0.00000000000E+00 0. -1.
         21    1    1    2  505  502 -0.54730339915E+02  0.41562692179E+02  0.39470806320E+02  0.79251574368E+02  0.00000000000E+00 0.  1.
         21    1    1    2  506  505 -0.86089340271E+02 -0.37438965950E+02  0.10410166153E+03  0.14017919465E+03  0.00000000000E+00 0.  1.
<scales pt_clust_3="14000.00000" pt_clust_4="67.42418" pt_clust_5="59.61595" pt_clust_6="83.21054"></scales>
<clustering>
<clus scale="   67.424">  2  4  1 -1</clus>
<clus scale="   59.616">  2  5  1 -1</clus>
<clus scale="   83.211">  2  6  1 -1</clus>
<clus scale="   83.211">  1  3  2 -1</clus>
</clustering>
</event>
<event>
 6    0  0.6207838E+002  0.1012137E+03  0.7546771E-02  0.1277764E+00
         21   -1    0    0  506  501  0.00000000000E+00  0.00000000000E+00  0.14448800475E+04  0.14448800475E+04  0.00000000000E+00 0.  1.
         21   -1    0    0  505  502 -0.00000000000E+00 -0.00000000000E+00 -0.29322925234E+03  0.29322925234E+03  0.00000000000E+00 0. -1.
         21    1    1    2  503  502  0.15742987519E+02  0.48924217770E+02 -0.26660215391E+03  0.27151082706E+03  0.00000000000E+00 0. -1.
         21    1    1    2  504  503 -0.52426245138E+02  0.27257800144E+01  0.40725847553E+02  0.66441972539E+02  0.00000000000E+00 0.  1.
         21    1    1    2  505  501  0.12944955213E+03 -0.46611772799E+02  0.53055403820E+03  0.54810348600E+03  0.00000000000E+00 0.  1.
         21    1    1    2  506  504 -0.92766294509E+02 -0.50382249854E+01  0.84697306334E+03  0.85205301428E+03  0.00000000000E+00 0.  1.
<scales pt_clust_3="51.39475" pt_clust_4="52.60362" pt_clust_5="14000.00000" pt_clust_6="101.21370"></scales>
<clustering>
<clus scale="   51.395">  2  3  1 -1</clus>
<clus scale="   52.604">  2  4  1 -1</clus>
<clus scale="  101.214">  1  6  2 -1</clus>
<clus scale="  101.214">  1  3  2 -1</clus>
</clustering>
</event>
<event>
 6    0  0.6207838E+002  0.1370586E+03  0.7546771E-02  0.1217343E+00
         21   -1    0    0  505  501  0.00000000000E+00  0.00000000000E+00  0.47170429032E+03  0.47170429032E+03  0.00000000000E+00 0. -1.
         21   -1    0    0  506  502 -0.00000000000E+00 -0.00000000000E+00 -0.93935856228E+03  0.93935856228E+03  0.00000000000E+00 0.  1.
         21    1    1    2  503  502  0.11469162475E+03 -0.61053813196E+02 -0.91789674807E+03  0.92704701985E+03  0.00000000000E+00 0.  1.
         21    1    1    2  504  503 -0.29148709995E+02  0.53069734300E+02  0.95016993961E+02  0.11266886497E+03  0.00000000000E+00 0.  1.
         21    1    1    2  505  504 -0.46062168305E+02  0.80994917516E+01  0.75236626931E+02  0.88588233686E+02  0.00000000000E+00 0. -1.
         21    1    1    2  506  501 -0.39480746449E+02 -0.11541285490E+00  0.27998885522E+03  0.28275873410E+03  0.00000000000E+00 0. -1.
<scales pt_clust_3="129.09409" pt_clust_4="42.86247" pt_clust_5="42.86247" pt_clust_6="39.48092"></scales>
<clustering>
<clus scale="   39.481">  1  6  2 -1</clus>
<clus scale="   42.862">  4  5 -1 -1</clus>
<clus scale="  129.094">  2  3  1 -1</clus>
<clus scale="   39.481">  1  3  2 -1</clus>
</clustering>
</event>
<event>
 6    0  0.6207838E+002  0.1391166E+03  0.7546771E-02  0.1214523E+00
         21   -1    0    0  503  501  0.00000000000E+00  0.00000000000E+00  0.14056018361E+03  0.14056018361E+03  0.00000000000E+00 0.  1.
         21   -1    0    0  504  502 -0.00000000000E+00 -0.00000000000E+00 -0.27296237256E+03  0.27296237256E+03  0.00000000000E+00 0.  1.
         21    1    1    2  503  505  0.24924677263E+02 -0.44776111928E+02  0.17871977144E+02  0.54272896580E+02  0.00000000000E+00 0.  1.
         21    1    1    2  504  501 -0.14721037641E+03  0.72333683622E+02 -0.13155191454E+03  0.21025927549E+03  0.00000000000E+00 0.  1.
         21    1    1    2  505  506  0.78204230214E+02 -0.25735044737E+01  0.24918089677E+02  0.82118425106E+02  0.00000000000E+00 0.  1.
         21    1    1    2  506  502  0.44081468935E+02 -0.24984067220E+02 -0.43640341221E+02  0.66871958998E+02  0.00000000000E+00 0.  1.
<scales pt_clust_3="50.50069" pt_clust_4="124.33572" pt_clust_5="50.50069" pt_clust_6="50.66932"></scales>
<clustering>
<clus scale="   50.501">  3  5 -1 -1</clus>
<clus scale="   50.669">  2  6  1 -1</clus>
<clus scale="  124.336">  2  4  1 -1</clus>
<clus scale="  139.117">  1  3  2 -1</clus>
</clustering>
</event>
<event>
 6    0  0.6207838E+002  0.1571351E+03  0.7546771E-02  0.1191970E+00
         21   -1    0    0  505  501  0.00000000000E+00  0.00000000000E+00  0.91172444704E+03  0.91172444704E+03  0.00000000000E+00 0. -1.
         21   -1    0    0  506  502 -0.00000000000E+00 -0.00000000000E+00 -0.36755115493E+03  0.36755115493E+03  0.00000000000E+00 0.  1.
         21    1    1    2  503  501  0.15625015650E+03  0.33749729292E+02  0.86798528384E+03  0.88258235230E+03  0.00000000000E+00 0. -1.
         21    1    1    2  504  502 -0.10720275996E+02 -0.43730860425E+02 -0.53277002263E+02  0.69754938471E+02  0.00000000000E+00 0. -1.
         21    1    1    2  505  504 -0.11333979656E+03  0.41353506424E+02 -0.12131190601E+03  0.17109237422E+03  0.00000000000E+00 0. -1.
         21    1    1    2  506  503 -0.32190083952E+02 -0.31372375291E+02 -0.14922308346E+03  0.15584593698E+03  0.00000000000E+00 0.  1.
<scales pt_clust_3="157.13513" pt_clust_4="56.34863" pt_clust_5="14000.00000" pt_clust_6="44.94917"></scales>
<clustering>
<clus scale="   44.949">  2  6  1 -1</clus>
<clus scale="   56.349">  2  4  1 -1</clus>
<clus scale="  157.135">  1  3  2 -1</clus>
<clus scale="  157.135">  1  3  2 -1</clus>
</clustering>
</event>
<event>
 6    0  0.6207838E+002  0.1127415E+03  0.7546771E-02  0.1255576E+00
         21   -1    0    0  506  501  0.00000000000E+00  0.00000000000E+00  0.17838167158E+03  0.17838167158E+03  0.00000000000E+00 0. -1.
         21   -1    0    0  504  502 -0.00000000000E+00 -0.00000000000E+00 -0.70133285333E+03  0.70133285333E+03  0.00000000000E+00 0.  1.
         21    1    1    2  503  502 -0.11485518020E+02  0.27794927734E+02 -0.36624981788E+03  0.36748252234E+03  0.00000000000E+00 0.  1.
         21    1    1    2  504  505  0.37380639384E+02  0.89616148876E+02 -0.28658078975E+03  0.30258373286E+03  0.00000000000E+00 0.  1.
         21    1    1    2  505  501  0.39023593325E+02 -0.59372976342E+02  0.29957332586E+02  0.77106633511E+02  0.00000000000E+00 0.  1.
         21    1    1    2  506  503 -0.64918714689E+02 -0.58038100268E+02  0.99922093289E+02  0.13254163620E+03  0.00000000000E+00 0. -1.
<scales pt_clust_3="30.07449" pt_clust_4="112.74154" pt_clust_5="68.96858" pt_clust_6="14000.00000"></scales>
<clustering>
<clus scale="   30.074">  2  3  1 -1</clus>
<clus scale="   68.969">  1  5  2 -1</clus>
<clus scale="  112.742">  2  4  1 -1</clus>
<clus scale="   68.969">  1  3  2 -1</clus>
</clustering>
</event>
<event>
 6    0  0.6207838E+002  0.8004917E+02  0.7546771E-02  0.1328912E+00
         21   -1    0    0  504  501  0.00000000000E+00  0.00000000000E+00  0.64130978311E+03  0.64130978311E+03  0.00000000000E+00 0. -1.
         21   -1    0    0  503  502 -0.00000000000E+00 -0.00000000000E+00 -0.17076562032E+03  0.17076562032E+03  0.00000000000E+00 0.  1.
         21    1    1    2  503  505  0.48861893072E+02  0.47188871761E+02 -0.89201351462E+02  0.11212116355E+03  0.00000000000E+00 0.  1.
         21    1    1    2  504  506 -0.52870618031E+02  0.58646967287E+02  0.54986267951E+03  0.55550313711E+03  0.00000000000E+00 0. -1.
         21    1    1    2  505  501  0.39539590229E+02 -0.99389708492E+02 -0.17392858654E+00  0.10696599273E+03  0.00000000000E+00 0. -1.
         21    1    1    2  506  502 -0.35530865269E+02 -0.64461305559E+01  0.10056763328E+02  0.37485110038E+02  0.00000000000E+00 0. -1.
<scales pt_clust_3="50.34423" pt_clust_4="80.04917" pt_clust_5="14000.00000" pt_clust_6="36.11087"></scales>
<clustering>
<clus scale="   36.111">  2  6  1 -1</clus>
<clus scale="   50.344">  2  3  1 -1</clus>
<clus scale="   80.049">  1  4  2 -1</clus>
<clus scale="   80.049">  1  3  2 -1</clus>
</clustering>
</event>
<event>
 6    0  0.6207838E+002  0.9660370E+02  0.7546771E-02  0.1287604E+00
         21   -1    0    0  505  501  0.00000000000E+00  0.00000000000E+00  0.95651092996E+02  0.95651092996E+02  0.00000000000E+00 0. -1.
         21   -1    0    0  503  502 -0.00000000000E+00 -0.00000000000E+00 -0.90758938071E+03  0.90758938071E+03  0.00000000000E+00 0. -1.
         21    1    1    2  503  501  0.28601645431E+02  0.16037539713E+02  0.49801462091E+02  0.59627530788E+02  0.00000000000E+00 0. -1.
         21    1    1    2  504  506 -0.65416982126E+02 -0.22596358098E+02 -0.26071507429E+03  0.26974492935E+03  0.00000000000E+00 0.  1.
         21    1    1    2  505  504  0.52441699875E+02  0.67440384365E+02 -0.17798549800E+02  0.87264687612E+02  0.00000000000E+00 0. -1.
         21    1    1    2  506  502 -0.15626363180E+02 -0.60881565980E+02 -0.58322612572E+03  0.58660332596E+03  0.00000000000E+00 0. -1.
<scales pt_clust_3="32.79111" pt_clust_4="96.60370" pt_clust_5="14000.00000" pt_clust_6="61.92863"></scales>
<clustering>
<clus scale="   32.791">  1  3  2 -1</clus>
<clus scale="   61.929">  2  6  1 -1</clus>
<clus scale="   96.604">  2  4  1 -1</clus>
<clus scale="   32.791">  1  3  2 -1</clus>
</clustering>
</event>
<event>
 6    0  0.6207838E+002  0.8461846E+02  0.7546771E-02  0.1316433E+00
         21   -1    0    0  504  501  0.00000000000E+00  0.00000000000E+00  0.84478380199E+02  0.84478380199E+02  0.00000000000E+00 0. -1.
         21   -1    0    0  503  502 -0.00000000000E+00 -0.00000000000E+00 -0.51575391405E+03  0.51575391405E+03  0.00000000000E+00 0.  1.
         21    1    1    2  503  506  0.16752769042E+02  0.81358306528E+02 -0.21042402280E+03  0.22622576927E+03  0.00000000000E+00 0.  1.
         21    1    1    2  504  502  0.72214344093E+02 -0.33582918641E+02  0.28125413073E+02  0.84461605347E+02  0.00000000000E+00 0. -1.
         21    1    1    2  505  501 -0.11254700158E+02 -0.45212819580E+02 -0.25904281807E+02  0.53309465819E+02  0.00000000000E+00 0. -1.
         21    1    1    2  506  505 -0.77712412977E+02 -0.25625683067E+01 -0.22307264232E+03  0.23623545382E+03  0.00000000000E+00 0.  1.
<scales pt_clust_3="77.86861" pt_clust_4="84.61846" pt_clust_5="46.59257" pt_clust_6="14000.00000"></scales>
<clustering>
<clus scale="   46.593">  1  5  2 -1</clus>
<clus scale="   77.869">  2  3  1 -1</clus>
<clus scale="   84.618">  1  4  2 -1</clus>
<clus scale="   46.593">  1  3  2 -1</clus>
</clustering>
</event>
<event>
 6    0  0.6207838E+002  0.8695113E+02  0.7546771E-02  0.1310408E+00
         21   -1    0    0  505  501  0.00000000000E+00  0.00000000000E+00  0.58612634587E+03  0.58612634587E+03  0.00000000000E+00 0.  1.
         21   -1    0    0  504  502 -0.00000000000E+00 -0.00000000000E+00 -0.87763535563E+02  0.87763535563E+02  0.00000000000E+00 0.  1.
         21    1    1    2  503  502 -0.39973068493E+02 -0.89661466899E+02  0.60752993072E+02  0.11544674538E+03  0.00000000000E+00 0.  1.
         21    1    1    2  504  506  0.20767663010E+02  0.77212946591E+02  0.31010181787E+02  0.85759934250E+02  0.00000000000E+00 0.  1.
         21    1    1    2  505  503  0.69701424563E+02 -0.32957300918E+02  0.19305571085E+02  0.79480672776E+02  0.00000000000E+00 0.  1.
         21    1    1    2  506  501 -0.50496019080E+02  0.45405821226E+02  0.38729406437E+03  0.39320252903E+03  0.00000000000E+00 0.  1.
<scales pt_clust_3="86.95113" pt_clust_4="14000.00000" pt_clust_5="60.89299" pt_clust_6="67.90830"></scales>
<clustering>
<clus scale="   67.908">  1  6  2 -1</clus>
<clus scale="   60.893">  1  5  2 -1</clus>
<clus scale="   86.951">  1  3  2 -1</clus>
<clus scale="   67.908">  1  3  2 -1</clus>
</clustering>
</event>
<event>
 6    0  0.6207838E+002  0.1107666E+03  0.7546771E-02  0.1259157E+00
         21   -1    0    0  503  501  0.00000000000E+00  0.00000000000E+00  0.70222237751E+03  0.70222237751E+03  0.00000000000E+00 0. -1.
         21   -1    0    0  505  502 -0.00000000000E+00 -0.00000000000E+00 -0.19739671896E+03  0.19739671896E+03  0.00000000000E+00 0. -1.
         21    1    1    2  503  502 -0.10421616244E+01 -0.10075535649E+03 -0.34107309698E+02  0.10637686091E+03  0.00000000000E+00 0. -1.
         21    1    1    2  504  506 -0.76053527896E+02 -0.57280712640E+02  0.56639323706E+02  0.11078462048E+03  0.00000000000E+00 0. -1.
         21    1    1    2  505  504  0.63398810376E+02  0.11384858058E+03 -0.56248329376E+02  0.14193231843E+03  0.00000000000E+00 0. -1.
         21    1    1    2  506  501  0.13696879144E+02  0.44187488557E+02  0.53854197391E+03  0.54052529664E+03  0.00000000000E+00 0. -1.
<scales pt_clust_3="110.76663" pt_clust_4="77.16914" pt_clust_5="14000.00000" pt_clust_6="46.26163"></scales>
<clustering>
<clus scale="   46.262">  1  6  2 -1</clus>
<clus scale="   77.169">  1  4  2 -1</clus>
<clus scale="  110.767">  2  3  1 -1</clus>
<clus scale="   46.262">  1  3  2 -1</clus>
</clustering>
</event>
<event>
 6    0  0.6207838E+002  0.1053215E+03  0.7546771E-02  0.1269487E+00
         21   -1    0    0  506  501  0.00000000000E+00  0.00000000000E+00  0.31440553527E+03  0.31440553527E+03  0.00000000000E+00 0. -1.
         21   -1    0    0  504  502 -0.00000000000E+00 -0.00000000000E+00 -0.28746269628E+03  0.28746269628E+03  0.00000000000E+00 0. -1.
         21    1    1    2  503  501  0.23843065422E+02  0.75543627729E+02  0.35073717621E+02  0.86634272242E+02  0.00000000000E+00 0. -1.
         21    1    1    2  504  503  0.64766213655E+02 -0.48527547417E+02  0.24832838972E+02  0.84653736958E+02  0.00000000000E+00 0. -1.
         21    1    1    2  505  502  0.33816465963E+02  0.95676258503E+02 -0.17779083640E+03  0.20471219143E+03  0.00000000000E+00 0. -1.
         21    1    1    2  506  505 -0.12242574504E+03 -0.12269233881E+03  0.14482711879E+03  0.22586803092E+03  0.00000000000E+00 0. -1.
<scales pt_clust_3="79.21699" pt_clust_4="76.98005" pt_clust_5="14000.00000" pt_clust_6="105.32149"></scales>
<clustering>
<clus scale="   79.217">  1  3  2 -1</clus>
<clus scale="   76.980">  1  4  2 -1</clus>
<clus scale="  105.321">  1  6  2 -1</clus>
<clus scale="   79.217">  1  3  2 -1</clus>
</clustering>
</event>
<event>
 6    0  0.6207838E+002  0.2951498E+03  0.7546771E-02  0.1087691E+00
         21   -1    0    0  505  501  0.00000000000E+00  0.00000000000E+00  0.20570379086E+03  0.20570379086E+03  0.00000000000E+00 0. -1.
         21   -1    0    0  506  502 -0.00000000000E+00 -0.00000000000E+00 -0.10421192722E+04  0.10421192722E+04  0.00000000000E+00 0. -1.
         21    1    1    2  503  504  0.41314048380E+02  0.16483458049E+02 -0.36580471268E+02  0.57590675122E+02  0.00000000000E+00 0.  1.
         21    1    1    2  504  501 -0.25897211011E+03  0.52152752796E+02  0.20772987543E+02  0.26498675524E+03  0.00000000000E+00 0. -1.
         21    1    1    2  505  502 -0.97695665096E+02 -0.58515963682E+01 -0.27551690637E+03  0.29238373733E+03  0.00000000000E+00 0. -1.
         21    1    1    2  506  503  0.31535372683E+03 -0.62784614477E+02 -0.54509109123E+03  0.63286189535E+03  0.00000000000E+00 0. -1.
<scales pt_clust_3="35.33826" pt_clust_4="279.43899" pt_clust_5="97.87075" pt_clust_6="35.33826"></scales>
<clustering>
<clus scale="   35.338">  3  6 -1 -1</clus>
<clus scale="   97.871">  2  5  1 -1</clus>
<clus scale="  279.439">  1  4  2 -1</clus>
<clus scale="  279.439">  1  3  2 -1</clus>
</clustering>
</event>
<event>
 6    0  0.6207838E+002  0.1125361E+03  0.7546771E-02  0.1255944E+00
         21   -1    0    0  504  501  0.00000000000E+00  0.00000000000E+00  0.93288638927E+02  0.93288638927E+02  0.00000000000E+00 0. -1.
         21   -1    0    0  503  502 -0.00000000000E+00 -0.00000000000E+00 -0.50665944760E+03  0.50665944760E+03  0.00000000000E+00 0.  1.
         21    1    1    2  503  506  0.51063083492E+02 -0.28646339987E+02 -0.14374431462E+03  0.15521107975E+03  0.00000000000E+00 0.  1.
         21    1    1    2  504  505  0.74895951943E+01 -0.63754419785E+02  0.29515070670E+02  0.70653092466E+02  0.00000000000E+00 0. -1.
         21    1    1    2  505  502 -0.64396386049E+02  0.14948025043E+03 -0.25116545682E+03  0.29929137392E+03  0.00000000000E+00 0.  1.
         21    1    1    2  506  501  0.58437073627E+01 -0.57079490653E+02 -0.47976107899E+02  0.74792540391E+02  0.00000000000E+00 0.  1.
<scales pt_clust_3="61.01283" pt_clust_4="112.53609" pt_clust_5="14000.00000" pt_clust_6="57.37785"></scales>
<clustering>
<clus scale="   57.378">  1  6  2 -1</clus>
<clus scale="   61.013">  2  3  1 -1</clus>
<clus scale="  112.536">  1  4  2 -1</clus>
<clus scale="   57.378">  1  3  2 -1</clus>
</clustering>
</event>
<event>
 6    0  0.6207838E+002  0.3918866E+03  0.7546771E-02  0.1046626E+00
         21   -1    0    0  503  501  0.00000000000E+00  0.00000000000E+00  0.24693860301E+04  0.24693860301E+04  0.00000000000E+00 0.  1.
         21   -1    0    0  505  502 -0.00000000000E+00 -0.00000000000E+00 -0.14404953105E+03  0.14404953105E+03  0.00000000000E+00 0.  1.
         21    1    1    2  503  504  0.19535999059E+03 -0.32748666494E+03  0.95342783467E+03  0.10268581584E+04  0.00000000000E+00 0.  1.
         21    1    1    2  504  506 -0.26206690583E+02  0.92839536853E+02  0.13175000973E+03  0.16329125910E+03  0.00000000000E+00 0.  1.
         21    1    1    2  505  501 -0.57865687203E+02 -0.18200257291E+02  0.11206480322E+04  0.11222885989E+04  0.00000000000E+00 0.  1.
         21    1    1    2  506  502 -0.11128761280E+03  0.25284738538E+03  0.11951062248E+03  0.30099754474E+03  0.00000000000E+00 0.  1.
<scales pt_clust_3="373.55996" pt_clust_4="69.85010" pt_clust_5="60.66042" pt_clust_6="69.85010"></scales>
<clustering>
<clus scale="   60.660">  1  5  2 -1</clus>
<clus scale="   69.850">  4  6 -1 -1</clus>
<clus scale="  373.560">  1  3  2 -1</clus>
<clus scale="   60.660">  1  3  2 -1</clus>
</clustering>
</event>
<event>
 6    0  0.6207838E+002  0.1873555E+03  0.7546771E-02  0.1160868E+00
         21   -1    0    0  502  501  0.00000000000E+00  0.00000000000E+00  0.25955709477E+04  0.25955709477E+04  0.00000000000E+00 0.  1.
         21   -1    0    0  505  502 -0.00000000000E+00 -0.00000000000E+00 -0.52733792953E+02  0.52733792953E+02  0.00000000000E+00 0.  1.
         21    1    1    2  503  504  0.19779526001E+03  0.90312949731E+02  0.52805216710E+03  0.57106784619E+03  0.00000000000E+00 0.  1.
         21    1    1    2  504  501 -0.10428741855E+03  0.46061468718E+02  0.17768396254E+04  0.17804933527E+04  0.00000000000E+00 0.  1.
         21    1    1    2  505  506 -0.55004835981E+02 -0.10018760104E+03  0.11136931312E+03  0.15958136259E+03  0.00000000000E+00 0.  1.
         21    1    1    2  506  503 -0.38503005473E+02 -0.36186817410E+02  0.12657604910E+03  0.13716217916E+03  0.00000000000E+00 0.  1.
<scales pt_clust_3="176.08249" pt_clust_4="114.00669" pt_clust_5="43.52121" pt_clust_6="43.52121"></scales>
<clustering>
<clus scale="   43.521">  5  6 -1 -1</clus>
<clus scale="  114.007">  1  4  2 -1</clus>
<clus scale="  176.082">  1  3  2 -1</clus>
<clus scale="  114.007">  1  3  2 -1</clus>
</clustering>
</event>
<event>
 6    0  0.6207838E+002  0.1099643E+03  0.7546771E-02  0.1260636E+00
         21   -1    0    0  505  501  0.00000000000E+00  0.00000000000E+00  0.50664879206E+02  0.50664879206E+02  0.00000000000E+00 0.  1.
         21   -1    0    0  504  502 -0.00000000000E+00 -0.00000000000E+00 -0.23364676536E+04  0.23364676536E+04  0.00000000000E+00 0.  1.
         21    1    1    2  503  501 -0.43529848880E+02  0.53704006915E+02 -0.13849243193E+03  0.15478734381E+03  0.00000000000E+00 0.  1.
         21    1    1    2  504  503 -0.66227191503E+02  0.65468088521E+02 -0.16775837419E+04  0.16801664568E+04  0.00000000000E+00 0.  1.
         21    1    1    2  505  506  0.73963681354E+02  0.53115260337E+02 -0.68140579490E+02  0.11373212217E+03  0.00000000000E+00 0.  1.
         21    1    1    2  506  502  0.35793359029E+02 -0.17228735577E+03 -0.40158602108E+03  0.43844661002E+03  0.00000000000E+00 0.  1.
<scales pt_clust_3="69.13008" pt_clust_4="95.21141" pt_clust_5="109.96432" pt_clust_6="14000.00000"></scales>
<clustering>
<clus scale="   69.130">  1  3  2 -1</clus>
<clus scale="   95.211">  2  4  1 -1</clus>
<clus scale="  109.964">  1  5  2 -1</clus>
<clus scale="   69.130">  1  3  2 -1</clus>
</clustering>
</event>
<event>
 6    0  0.6207838E+002  0.1338812E+03  0.7546771E-02  0.1221808E+00
         21   -1    0    0  505  501  0.00000000000E+00  0.00000000000E+00  0.15642907375E+03  0.15642907375E+03  0.00000000000E+00 0. -1.
         21   -1    0    0  504  502 -0.00000000000E+00 -0.00000000000E+00 -0.13487153525E+04  0.13487153525E+04  0.00000000000E+00 0.  1.
         21    1    1    2  503  502 -0.21157233491E+02  0.36690102219E+02 -0.11049729364E+04  0.11057843290E+04  0.00000000000E+00 0.  1.
         21    1    1    2  504  501  0.99881619070E+01 -0.13249220993E+03  0.11248419554E+03  0.17408803324E+03  0.00000000000E+00 0. -1.
         21    1    1    2  505  506  0.13442181613E+02  0.37829386016E+02 -0.12053485018E+03  0.12704489285E+03  0.00000000000E+00 0. -1.
         21    1    1    2  506  503 -0.22731100284E+01  0.57972721690E+02 -0.79262687743E+02  0.98227171178E+02  0.00000000000E+00 0. -1.
<scales pt_clust_3="42.35318" pt_clust_4="128.05674" pt_clust_5="32.49183" pt_clust_6="32.49183"></scales>
<clustering>
<clus scale="   32.492">  5  6 -1 -1</clus>
<clus scale="   42.353">  2  3  1 -1</clus>
<clus scale="  128.057">  1  4  2 -1</clus>
<clus scale="  128.057">  1  3  2 -1</clus>
</clustering>
</event>
<event>
 6    0  0.6207838E+002  0.1488692E+03  0.7546771E-02  0.1201869E+00
         21   -1    0    0  503  501  0.00000000000E+00  0.00000000000E+00  0.30782516854E+03  0.30782516854E+03  0.00000000000E+00 0. -1.
         21   -1    0    0  504  502 -0.00000000000E+00 -0.00000000000E+00 -0.32953370901E+03  0.32953370901E+03  0.00000000000E+00 0. -1.
         21    1    1    2  503  502  0.83540225071E+02 -0.74076057688E+02 -0.15077735265E+03  0.18761674126E+03  0.00000000000E+00 0. -1.
         21    1    1    2  504  505 -0.24732084403E+02 -0.60402213804E+02 -0.10043534002E+03  0.11978046984E+03  0.00000000000E+00 0. -1.
         21    1    1    2  505  506 -0.27679066145E+02 -0.19055224973E+02 -0.17177735819E+02  0.37739990850E+02  0.00000000000E+00 0.  1.
         21    1    1    2  506  501 -0.31129074523E+02  0.15353349646E+03  0.24668188802E+03  0.29222167561E+03  0.00000000000E+00 0. -1.
<scales pt_clust_3="14000.00000" pt_clust_4="104.78483" pt_clust_5="31.43611" pt_clust_6="148.86921"></scales>
<clustering>
<clus scale="   31.436">  4  5 -1 -1</clus>
<clus scale="  104.785">  2  4  1 -1</clus>
<clus scale="  148.869">  1  6  2 -1</clus>
<clus scale="  148.869">  1  3  2 -1</clus>
</clustering>
</event>
<event>
 6    0  0.6207838E+002  0.1876249E+03  0.7546771E-02  0.1160621E+00
         21   -1    0    0  503  501  0.00000000000E+00  0.00000000000E+00  0.22239254785E+04  0.22239254785E+04  0.00000000000E+00 0.  1.
         21   -1    0    0  506  502 -0.00000000000E+00 -0.00000000000E+00 -0.20195217854E+03  0.20195217854E+03  0.00000000000E+00 0.  1.
         21    1    1    2  503  504 -0.67545411332E+00 -0.61298260862E+02  0.43367883775E+03  0.43799003110E+03  0.00000000000E+00 0. -1.
         21    1    1    2  504  505 -0.12939025342E+03 -0.19216656673E+02  0.11559936118E+03  0.17456898315E+03  0.00000000000E+00 0.  1.
         21    1    1    2  505  502 -0.62228694939E+02 -0.44622542439E+02 -0.15322398036E+03  0.17129264411E+03  0.00000000000E+00 0.  1.
         21    1    1    2  506  501  0.19229440247E+03  0.12513745997E+03  0.16259190814E+04  0.16420259987E+04  0.00000000000E+00 0.  1.
<scales pt_clust_3="61.30198" pt_clust_4="187.62490" pt_clust_5="76.75769" pt_clust_6="14000.00000"></scales>
<clustering>
<clus scale="   61.302">  1  3  2 -1</clus>
<clus scale="   76.758">  2  5  1 -1</clus>
<clus scale="  187.625">  2  4  1 -1</clus>
<clus scale="   61.302">  1  3  2 -1</clus>
</clustering>
</event>
<event>
 6    0  0.6207838E+002  0.1393466E+03  0.7546771E-02  0.1214211E+00
         21   -1    0    0  504  501  0.00000000000E+00  0.00000000000E+00  0.22557621034E+03  0.22557621034E+03  0.00000000000E+00 0. -1.
         21   -1    0    0  501  502 -0.00000000000E+00 -0.00000000000E+00 -0.21074107320E+03  0.21074107320E+03  0.00000000000E+00 0. -1.
         21    1    1    2  503  506  0.89983091994E+02 -0.13604590907E+03 -0.36852754637E+01  0.16315338634E+03  0.00000000000E+00 0. -1.
         21    1    1    2  504  505 -0.78711223922E+00  0.32983704634E+02  0.39056293678E+02  0.51126689634E+02  0.00000000000E+00 0. -1.
         21    1    1    2  505  503 -0.10790945323E+03  0.61635649877E+02  0.53388958468E+02  0.13525451681E+03  0.00000000000E+00 0. -1.
         21    1    1    2  506  502  0.18713473471E+02  0.41426554560E+02 -0.73924839550E+02  0.86782690754E+02  0.00000000000E+00 0. -1.
<scales pt_clust_3="139.34665" pt_clust_4="32.99309" pt_clust_5="14000.00000" pt_clust_6="46.51912"></scales>
<clustering>
<clus scale="   32.993">  1  4  2 -1</clus>
<clus scale="   46.519">  2  6  1 -1</clus>
<clus scale="  139.347">  2  3  1 -1</clus>
<clus scale="   32.993">  1  3  2 -1</clus>
</clustering>
</event>
<event>
 6    0  0.6207838E+002  0.1054185E+03  0.7546771E-02  0.1269297E+00
         21   -1    0    0  506  501  0.00000000000E+00  0.00000000000E+00  0.86505708378E+02  0.86505708378E+02  0.00000000000E+00 0.  1.
         21   -1    0    0  504  502 -0.00000000000E+00 -0.00000000000E+00 -0.35729103066E+03  0.35729103066E+03  0.00000000000E+00 0. -1.
         21    1    1    2  503  505 -0.32483055861E+02 -0.79832357781E+01 -0.29518667387E+02  0.44612024118E+02  0.00000000000E+00 0. -1.
         21    1    1    2  504  501  0.97726766640E+02  0.40966815600E+02  0.24965723609E+02  0.10886729653E+03  0.00000000000E+00 0.  1.
         21    1    1    2  505  502 -0.20343786521E+02 -0.59242003641E+02 -0.16531910569E+03  0.17678770136E+03  0.00000000000E+00 0. -1.
         21    1    1    2  506  503 -0.44899924257E+02  0.26258423819E+02 -0.10091327282E+03  0.11352971704E+03  0.00000000000E+00 0. -1.
<scales pt_clust_3="32.81247" pt_clust_4="97.15371" pt_clust_5="62.63773" pt_clust_6="32.81247"></scales>
<clustering>
<clus scale="   32.812">  3  6 -1 -1</clus>
<clus scale="   62.638">  2  5  1 -1</clus>
<clus scale="   97.154">  1  4  2 -1</clus>
<clus scale="   97.154">  1  3  2 -1</clus>
</clustering>
</event>
<event>
 6    0  0.6207838E+002  0.2069337E+03  0.7546771E-02  0.1144017E+00
         21   -1    0    0  503  501  0.00000000000E+00  0.00000000000E+00  0.13444857176E+03  0.13444857176E+03  0.00000000000E+00 0.  1.
         21   -1    0    0  506  502 -0.00000000000E+00 -0.00000000000E+00 -0.12391608795E+04  0.12391608795E+04  0.00000000000E+00 0.  1.
         21    1    1    2  503  505 -0.46779138160E+02 -0.11798413033E+03 -0.12261271410E+03  0.17647215201E+03  0.00000000000E+00 0.  1.
         21    1    1    2  504  502  0.14495229039E+03  0.60470752084E+02 -0.38034964020E+02  0.16159992833E+03  0.00000000000E+00 0.  1.
         21    1    1    2  505  504  0.97729385221E+02  0.65628684208E+02 -0.64195359866E+02  0.13408654353E+03  0.00000000000E+00 0.  1.
         21    1    1    2  506  501 -0.19590253745E+03 -0.81153059662E+01 -0.87986926976E+03  0.90145082741E+03  0.00000000000E+00 0.  1.
<scales pt_clust_3="126.91943" pt_clust_4="40.45931" pt_clust_5="40.45931" pt_clust_6="201.58761"></scales>
<clustering>
<clus scale="   40.459">  4  5 -1 -1</clus>
<clus scale="  126.919">  1  3  2 -1</clus>
<clus scale="  201.588">  2  6  1 -1</clus>
<clus scale="  126.919">  1  3  2 -1</clus>
</clustering>
</event>
<event>
 6    0  0.6207838E+002  0.2462690E+03  0.7546771E-02  0.1115686E+00
         21   -1    0    0  504  501  0.00000000000E+00  0.00000000000E+00  0.87412680749E+03  0.87412680749E+03  0.00000000000E+00 0. -1.
         21   -1    0    0  506  502 -0.00000000000E+00 -0.00000000000E+00 -0.11630142101E+03  0.11630142101E+03  0.00000000000E+00 0. -1.
         21    1    1    2  503  501 -0.15488890580E+02 -0.25552442121E+03  0.37160454503E+03  0.45124557998E+03  0.00000000000E+00 0. -1.
         21    1    1    2  504  505  0.30729095204E+02  0.23642588741E+03  0.39408945661E+03  0.46059524242E+03  0.00000000000E+00 0. -1.
         21    1    1    2  505  502  0.21983335634E+02  0.28930303876E+02 -0.15216305845E+02  0.39392454754E+02  0.00000000000E+00 0. -1.
         21    1    1    2  506  503 -0.37223540258E+02 -0.98317700753E+01  0.73476906948E+01  0.39194951342E+02  0.00000000000E+00 0. -1.
<scales pt_clust_3="246.26904" pt_clust_4="14000.00000" pt_clust_5="36.33496" pt_clust_6="33.61416"></scales>
<clustering>
<clus scale="   36.335">  2  5  1 -1</clus>
<clus scale="   33.614">  2  6  1 -1</clus>
<clus scale="  246.269">  2  3  1 -1</clus>
<clus scale="  246.269">  1  3  2 -1</clus>
</clustering>
</event>
<event>
 6    0  0.6207838E+002  0.7026862E+02  0.7546771E-02  0.1359182E+00
         21   -1    0    0  504  501  0.00000000000E+00  0.00000000000E+00  0.99694853073E+02  0.99694853073E+02  0.00000000000E+00 0.  1.
         21   -1    0    0  503  502 -0.00000000000E+00 -0.00000000000E+00 -0.72278873270E+03  0.72278873270E+03  0.00000000000E+00 0.  1.
         21    1    1    2  503  505 -0.23469832848E+01  0.35054863820E+02 -0.16912018114E+03  0.17273096849E+03  0.00000000000E+00 0.  1.
         21    1    1    2  504  506  0.88556049427E+02  0.44878555976E+02 -0.14391062132E+03  0.17483285047E+03  0.00000000000E+00 0.  1.
         21    1    1    2  505  501 -0.68293414632E+02  0.98846124319E+01  0.61378888468E+02  0.92352931705E+02  0.00000000000E+00 0.  1.
         21    1    1    2  506  502 -0.17915651511E+02 -0.89818032228E+02 -0.37144196564E+03  0.38256683510E+03  0.00000000000E+00 0.  1.
<scales pt_clust_3="35.13334" pt_clust_4="14000.00000" pt_clust_5="70.26862" pt_clust_6="68.70149"></scales>
<clustering>
<clus scale="   35.133">  2  3  1 -1</clus>
<clus scale="   68.701">  2  6  1 -1</clus>
<clus scale="   70.269">  1  5  2 -1</clus>
<clus scale="   70.269">  1  3  2 -1</clus>
</clustering>
</event>
<event>
 6    0  0.6207838E+002  0.1076281E+03  0.7546771E-02  0.1265026E+00
         21   -1    0    0  506  501  0.00000000000E+00  0.00000000000E+00  0.49968170065E+03  0.49968170065E+03  0.00000000000E+00 0. -1.
         21   -1    0    0  505  502 -0.00000000000E+00 -0.00000000000E+00 -0.17300301694E+03  0.17300301694E+03  0.00000000000E+00 0. -1.
         21    1    1    2  503  504  0.60438637482E+02 -0.39607423087E+02  0.68937054478E+02  0.99869386422E+02  0.00000000000E+00 0. -1.
         21    1    1    2  504  501  0.42706679664E+02 -0.45282830327E+02  0.36893820260E+03  0.37415209815E+03  0.00000000000E+00 0. -1.
         21    1    1    2  505  503 -0.95543825348E+02  0.45848788974E+02 -0.11767909473E+03  0.15836383220E+03  0.00000000000E+00 0. -1.
         21    1    1    2  506  502 -0.76014917984E+01  0.39041464440E+02  0.64825213624E+01  0.40299400820E+02  0.00000000000E+00 0. -1.
<scales pt_clust_3="107.62813" pt_clust_4="61.68420" pt_clust_5="14000.00000" pt_clust_6="39.77460"></scales>
<clustering>
<clus scale="   39.775">  2  6  1 -1</clus>
<clus scale="   61.684">  1  4  2 -1</clus>
<clus scale="  107.628">  1  3  2 -1</clus>
<clus scale="   61.684">  1  3  2 -1</clus>
</clustering>
</event>
<event>
 6    0  0.6207838E+002  0.1468899E+03  0.7546771E-02  0.1204348E+00
         21   -1    0    0  506  501  0.00000000000E+00  0.00000000000E+00  0.26618936551E+04  0.26618936551E+04  0.00000000000E+00 0.  1.
         21   -1    0    0  505  502 -0.00000000000E+00 -0.00000000000E+00 -0.48130302626E+02  0.48130302626E+02  0.00000000000E+00 0. -1.
         21    1    1    2  503  502 -0.67865874296E+02  0.80046005226E+01  0.50995762282E+03  0.51451591579E+03  0.00000000000E+00 0.  1.
         21    1    1    2  504  501 -0.10635631051E+02 -0.64284190648E+02  0.13503927356E+04  0.13519637992E+04  0.00000000000E+00 0.  1.
         21    1    1    2  505  504  0.12382241764E+03  0.72189578622E+02  0.71921549771E+02  0.16036220158E+03  0.00000000000E+00 0. -1.
         21    1    1    2  506  503 -0.45320912297E+02 -0.15909988497E+02  0.68149144429E+03  0.68318204124E+03  0.00000000000E+00 0.  1.
<scales pt_clust_3="38.01273" pt_clust_4="65.15807" pt_clust_5="139.71709" pt_clust_6="38.01273"></scales>
<clustering>
<clus scale="   38.013">  3  6 -1 -1</clus>
<clus scale="   65.158">  1  4  2 -1</clus>
<clus scale="  139.717">  2  5  1 -1</clus>
<clus scale="   65.158">  1  3  2 -1</clus>
</clustering>
</event>
<event>
 6    0  0.6207838E+002  0.7997515E+02  0.7546771E-02  0.1329122E+00
         21   -1    0    0  505  501  0.00000000000E+00  0.00000000000E+00  0.61578651203E+03  0.61578651203E+03  0.00000000000E+00 0. -1.
         21   -1    0    0  506  502 -0.00000000000E+00 -0.00000000000E+00 -0.12303241504E+03  0.12303241504E+03  0.00000000000E+00 0.  1.
         21    1    1    2  503  502  0.37199412058E+02  0.93987471717E+01 -0.88560898713E+02  0.96515104966E+02  0.00000000000E+00 0.  1.
         21    1    1    2  504  501 -0.68216889424E+02 -0.36956390298E+02  0.33746685718E+03  0.34627041237E+03  0.00000000000E+00 0. -1.
         21    1    1    2  505  503 -0.56420193390E+02  0.15103731314E+02  0.32196029665E+02  0.66692917525E+02  0.00000000000E+00 0. -1.
         21    1    1    2  506  504  0.87437670756E+02  0.12453911813E+02  0.21165210886E+03  0.22934049222E+03  0.00000000000E+00 0. -1.
<scales pt_clust_3="38.36838" pt_clust_4="79.97515" pt_clust_5="40.84926" pt_clust_6="14000.00000"></scales>
<clustering>
<clus scale="   38.368">  2  3  1 -1</clus>
<clus scale="   40.849">  2  5  1 -1</clus>
<clus scale="   79.975">  1  4  2 -1</clus>
<clus scale="   79.975">  1  3  2 -1</clus>
</clustering>
</event>
<event>
 6    0  0.6207838E+002  0.8898756E+02  0.7546771E-02  0.1305322E+00
         21   -1    0    0  505  501  0.00000000000E+00  0.00000000000E+00  0.11037074741E+03  0.11037074741E+03  0.00000000000E+00 0. -1.
         21   -1    0    0  504  502 -0.00000000000E+00 -0.00000000000E+00 -0.88009730826E+03  0.88009730826E+03  0.00000000000E+00 0.  1.
         21    1    1    2  503  502  0.40059214104E+02  0.23203509821E+02 -0.44053621317E+02  0.63905125411E+02  0.00000000000E+00 0.  1.
         21    1    1    2  504  506 -0.25409031507E+02 -0.17945454605E+02 -0.70062556462E+03  0.70131579193E+03  0.00000000000E+00 0.  1.
         21    1    1    2  505  503 -0.62744669288E+01 -0.93035912003E+02 -0.78709365017E+02  0.12202546455E+03  0.00000000000E+00 0.  1.
         21    1    1    2  506  501 -0.83757156687E+01  0.87777856788E+02  0.53661990094E+02  0.10322167377E+03  0.00000000000E+00 0. -1.
<scales pt_clust_3="36.96746" pt_clust_4="31.10721" pt_clust_5="14000.00000" pt_clust_6="88.98756"></scales>
<clustering>
<clus scale="   31.107">  2  4  1 -1</clus>
<clus scale="   36.967">  2  3  1 -1</clus>
<clus scale="   88.988">  1  6  2 -1</clus>
<clus scale="   88.988">  1  3  2 -1</clus>
</clustering>
</event>
<event>
 6    0  0.6207838E+002  0.8472972E+02  0.7546771E-02  0.1316141E+00
         21   -1    0    0  505  501  0.00000000000E+00  0.00000000000E+00  0.10509404058E+03  0.10509404058E+03  0.00000000000E+00 0. -1.
         21   -1    0    0  504  502 -0.00000000000E+00 -0.00000000000E+00 -0.89674176115E+03  0.89674176115E+03  0.00000000000E+00 0. -1.
         21    1    1    2  503  506  0.57530379871E+01 -0.74350885369E+02 -0.12388692270E+03  0.14459986590E+03  0.00000000000E+00 0. -1.
         21    1    1    2  504  501  0.64363752865E+02  0.51472495149E+02  0.33884485932E+02  0.89108186081E+02  0.00000000000E+00 0. -1.
         21    1    1    2  505  503 -0.10230008379E+03  0.50037989256E+02 -0.67086233946E+02  0.13217288034E+03  0.00000000000E+00 0. -1.
         21    1    1    2  506  502  0.32183292940E+02 -0.27159599037E+02 -0.63455904986E+03  0.63595486941E+03  0.00000000000E+00 0.  1.
<scales pt_clust_3="14000.00000" pt_clust_4="83.39134" pt_clust_5="84.72972" pt_clust_6="42.11185"></scales>
<clustering>
<clus scale="   42.112">  2  6  1 -1</clus>
<clus scale="   83.391">  1  4  2 -1</clus>
<clus scale="   84.730">  1  5  2 -1</clus>
<clus scale="   83.391">  1  3  2 -1</clus>
</clustering>
</event>
<event>
 6    0  0.6207838E+002  0.4027019E+03  0.7546771E-02  0.1042848E+00
         21   -1    0    0  505  501  0.00000000000E+00  0.00000000000E+00  0.37955699177E+03  0.37955699177E+03  0.00000000000E+00 0. -1.
         21   -1    0    0  503  502 -0.00000000000E+00 -0.00000000000E+00 -0.19300643614E+04  0.19300643614E+04  0.00000000000E+00 0.  1.
         21    1    1    2  503  506  0.16478659661E+02 -0.16576712038E+03 -0.28756430220E+03  0.33233042642E+03  0.00000000000E+00 0. -1.
         21    1    1    2  504  501 -0.57909768049E+02  0.69847157003E+02 -0.46434612840E+02  0.10192320563E+03  0.00000000000E+00 0. -1.
         21    1    1    2  505  502 -0.17846856010E+03 -0.22736101604E+03 -0.14098643172E+04  0.14391877749E+04  0.00000000000E+00 0.  1.
         21    1    1    2  506  504  0.21989966849E+03  0.32328097942E+03  0.19335586262E+03  0.43617994620E+03  0.00000000000E+00 0. -1.
<scales pt_clust_3="161.82985" pt_clust_4="90.73129" pt_clust_5="14000.00000" pt_clust_6="402.70192"></scales>
<clustering>
<clus scale="   90.731">  1  4  2 -1</clus>
<clus scale="  161.830">  2  3  1 -1</clus>
<clus scale="  402.702">  1  6  2 -1</clus>
<clus scale="   90.731">  1  3  2 -1</clus>
</clustering>
</event>
<event>
 6    0  0.6207838E+002  0.8791674E+02  0.7546771E-02  0.1307976E+00
         21   -1    0    0  506  501  0.00000000000E+00  0.00000000000E+00  0.53574827326E+03  0.53574827326E+03  0.00000000000E+00 0.  1.
         21   -1    0    0  505  502 -0.00000000000E+00 -0.00000000000E+00 -0.22722892303E+03  0.22722892303E+03  0.00000000000E+00 0. -1.
         21    1    1    2  503  501  0.28448830902E+02 -0.12861175957E+02  0.41064478649E+03  0.41182992424E+03  0.00000000000E+00 0.  1.
         21    1    1    2  504  502 -0.12026956245E+03  0.44966180447E+01  0.19552042356E+02  0.12193141345E+03  0.00000000000E+00 0.  1.
         21    1    1    2  505  503  0.66691803274E+02  0.55471343764E+02 -0.14656346192E+03  0.17031064257E+03  0.00000000000E+00 0. -1.
         21    1    1    2  506  504  0.25128928277E+02 -0.47106785851E+02  0.24885983311E+02  0.58905216025E+02  0.00000000000E+00 0.  1.
<scales pt_clust_3="31.22092" pt_clust_4="87.91674" pt_clust_5="14000.00000" pt_clust_6="62.04579"></scales>
<clustering>
<clus scale="   31.221">  1  3  2 -1</clus>
<clus scale="   62.046">  1  6  2 -1</clus>
<clus scale="   87.917">  1  4  2 -1</clus>
<clus scale="   31.221">  1  3  2 -1</clus>
</clustering>
</event>
<event>
 6    0  0.6207838E+002  0.1035700E+03  0.7546771E-02  0.1272963E+00
         21   -1    0    0  503  501  0.00000000000E+00  0.00000000000E+00  0.20264469277E+02  0.20264469277E+02  0.00000000000E+00 0.  1.
         21   -1    0    0  506  502 -0.00000000000E+00 -0.00000000000E+00 -0.19682012055E+04  0.19682012055E+04  0.00000000000E+00 0.  1.
         21    1    1    2  503  505  0.56247835741E+01  0.10517439279E+03 -0.19384930574E+03  0.22061469675E+03  0.00000000000E+00 0.  1.
         21    1    1    2  504  502 -0.34025661837E+02 -0.76439141148E+01 -0.23994373675E+03  0.24246478485E+03  0.00000000000E+00 0.  1.
         21    1    1    2  505  504  0.65623313569E+02 -0.95848901343E+02 -0.64050004138E+03  0.65094833449E+03  0.00000000000E+00 0.  1.
         21    1    1    2  506  501 -0.37222435306E+02 -0.16815773317E+01 -0.87364365234E+03  0.87443785867E+03  0.00000000000E+00 0.  1.
<scales pt_clust_3="14000.00000" pt_clust_4="34.87370" pt_clust_5="103.57002" pt_clust_6="54.72515"></scales>
<clustering>
<clus scale="   34.874">  2  4  1 -1</clus>
<clus scale="   54.725">  2  6  1 -1</clus>
<clus scale="  103.570">  2  5  1 -1</clus>
<clus scale="  103.570">  1  3  2 -1</clus>
</clustering>
</event>
<event>
 6    0  0.6207838E+002  0.1175199E+03  0.7546771E-02  0.1247245E+00
         21   -1    0    0  506  501  0.00000000000E+00  0.00000000000E+00  0.40422727053E+03  0.40422727053E+03  0.00000000000E+00 0.  1.
         21   -1    0    0  505  502 -0.00000000000E+00 -0.00000000000E+00 -0.48654144153E+03  0.48654144153E+03  0.00000000000E+00 0. -1.
         21    1    1    2  503  502  0.74542105037E+02 -0.91253126245E+02 -0.44119273022E+03  0.45665597957E+03  0.00000000000E+00 0. -1.
         21    1    1    2  504  503 -0.12441854624E+03  0.41097073993E+02  0.11974102237E+03  0.17750170866E+03  0.00000000000E+00 0.  1.
         21    1    1    2  505  501  0.41752287943E+02 -0.11480572379E+00  0.96060347945E+02  0.10474185971E+03  0.00000000000E+00 0.  1.
         21    1    1    2  506  504  0.81241532574E+01  0.50270857976E+02  0.14307718890E+03  0.15186916413E+03  0.00000000000E+00 0. -1.
<scales pt_clust_3="14000.00000" pt_clust_4="117.51995" pt_clust_5="41.75245" pt_clust_6="57.68501"></scales>
<clustering>
<clus scale="   41.752">  1  5  2 -1</clus>
<clus scale="   57.685">  1  6  2 -1</clus>
<clus scale="  117.520">  1  4  2 -1</clus>
<clus scale="   41.752">  1  3  2 -1</clus>
</clustering>
</event>
<event>
 6    0  0.6207838E+002  0.1231575E+03  0.7546771E-02  0.1237977E+00
         21   -1    0    0  506  501  0.00000000000E+00  0.00000000000E+00  0.34713591669E+03  0.34713591669E+03  0.00000000000E+00 0.  1.
         21   -1    0    0  503  502 -0.00000000000E+00 -0.00000000000E+00 -0.56791055749E+03  0.56791055749E+03  0.00000000000E+00 0. -1.
         21    1    1    2  503  501  0.57977320705E+02 -0.54847638206E+02 -0.69613307482E+02  0.10590394568E+03  0.00000000000E+00 0.  1.
         21    1    1    2  504  502 -0.36246367197E+02 -0.31540633126E+02 -0.21393472564E+03  0.21926394484E+03  0.00000000000E+00 0. -1.
         21    1    1    2  505  504 -0.83977569850E+02 -0.98182826873E+01 -0.24621474602E+03  0.26032735559E+03  0.00000000000E+00 0. -1.
         21    1    1    2  506  505  0.62246616343E+02  0.96206554019E+02  0.30898813834E+03  0.32955122806E+03  0.00000000000E+00 0.  1.
<scales pt_clust_3="79.80998" pt_clust_4="34.59420" pt_clust_5="34.59420" pt_clust_6="114.28839"></scales>
<clustering>
<clus scale="   34.594">  4  5 -1 -1</clus>
<clus scale="   79.810">  2  3  1 -1</clus>
<clus scale="  114.288">  1  6  2 -1</clus>
<clus scale="  114.288">  1  3  2 -1</clus>
</clustering>
</event>
<event>
 6    0  0.6207838E+002  0.1490748E+03  0.7546771E-02  0.1201614E+00
         21   -1    0    0  504  501  0.00000000000E+00  0.00000000000E+00  0.17059115310E+04  0.17059115310E+04  0.00000000000E+00 0. -1.
         21   -1    0    0  503  502 -0.00000000000E+00 -0.00000000000E+00 -0.69734477849E+02  0.69734477849E+02  0.00000000000E+00 0. -1.
         21    1    1    2  503  505  0.19534423626E+02 -0.55171480858E+02  0.54239616821E+03  0.54554476379E+03  0.00000000000E+00 0. -1.
         21    1    1    2  504  506 -0.84643511487E+02  0.67645602607E+02  0.38072571797E+03  0.39584406515E+03  0.00000000000E+00 0. -1.
         21    1    1    2  505  501  0.97103368708E+02 -0.39387416720E+02  0.76240827809E+03  0.76957573722E+03  0.00000000000E+00 0. -1.
         21    1    1    2  506  502 -0.31994280847E+02  0.26913294971E+02 -0.49353111117E+02  0.64681442702E+02  0.00000000000E+00 0. -1.
<scales pt_clust_3="50.89400" pt_clust_4="133.19825" pt_clust_5="50.89400" pt_clust_6="41.80861"></scales>
<clustering>
<clus scale="   41.809">  2  6  1 -1</clus>
<clus scale="   50.894">  3  5 -1 -1</clus>
<clus scale="  133.198">  2  4  1 -1</clus>
<clus scale="  149.075">  1  3  2 -1</clus>
</clustering>
</event>
<event>
 6    0  0.6207838E+002  0.1325814E+03  0.7546771E-02  0.1223675E+00
         21   -1    0    0  506  501  0.00000000000E+00  0.00000000000E+00  0.28797193660E+03  0.28797193660E+03  0.00000000000E+00 0.  1.
         21   -1    0    0  503  502 -0.00000000000E+00 -0.00000000000E+00 -0.37996504185E+03  0.37996504185E+03  0.00000000000E+00 0.  1.
         21    1    1    2  503  505  0.15154496042E+02 -0.28412274537E+02 -0.15934922652E+03  0.16257026815E+03  0.00000000000E+00 0.  1.
         21    1    1    2  504  502 -0.12995858948E+03  0.74012636528E+01  0.39715965775E+01  0.13022974799E+03  0.00000000000E+00 0.  1.
         21    1    1    2  505  501  0.11024848849E+03 -0.62993702452E+02 -0.11916444315E+03  0.17413529302E+03  0.00000000000E+00 0.  1.
         21    1    1    2  506  504  0.45556049402E+01  0.84004713335E+02  0.18254896784E+03  0.20100166929E+03  0.00000000000E+00 0.  1.
<scales pt_clust_3="32.20118" pt_clust_4="132.58138" pt_clust_5="14000.00000" pt_clust_6="82.97048"></scales>
<clustering>
<clus scale="   32.201">  2  3  1 -1</clus>
<clus scale="   82.970">  1  6  2 -1</clus>
<clus scale="  132.581">  1  4  2 -1</clus>
<clus scale="   82.970">  1  3  2 -1</clus>
</clustering>
</event>
<event>
 6    0  0.6207838E+002  0.1049287E+03  0.7546771E-02  0.1270260E+00
         21   -1    0    0  504  501  0.00000000000E+00  0.00000000000E+00  0.64236934878E+02  0.64236934878E+02  0.00000000000E+00 0. -1.
         21   -1    0    0  506  502 -0.00000000000E+00 -0.00000000000E+00 -0.37490778898E+03  0.37490778898E+03  0.00000000000E+00 0. -1.
         21    1    1    2  503  501  0.25752954075E+02  0.50452873276E+02 -0.13680595338E+02  0.58274057300E+02  0.00000000000E+00 0. -1.
         21    1    1    2  504  502 -0.57045351835E+02 -0.10596109355E+02 -0.26261752701E+02  0.63687748856E+02  0.00000000000E+00 0. -1.
         21    1    1    2  505  503  0.22621493018E+02  0.55927116876E+02 -0.57833343726E+02  0.83571945023E+02  0.00000000000E+00 0. -1.
         21    1    1    2  506  505  0.86709047419E+01 -0.95783880796E+02 -0.21289516233E+03  0.23361097268E+03  0.00000000000E+00 0. -1.
<scales pt_clust_3="35.59319" pt_clust_4="58.02111" pt_clust_5="35.59319" pt_clust_6="98.28925"></scales>
<clustering>
<clus scale="   35.593">  3  5 -1 -1</clus>
<clus scale="   58.021">  1  4  2 -1</clus>
<clus scale="   98.289">  2  6  1 -1</clus>
<clus scale="   58.021">  1  3  2 -1</clus>
</clustering>
</event>
<event>
 6    0  0.6207838E+002  0.1188328E+03  0.7546771E-02  0.1245035E+00
         21   -1    0    0  504  501  0.00000000000E+00  0.00000000000E+00  0.48304807406E+03  0.48304807406E+03  0.00000000000E+00 0.  1.
         21   -1    0    0  505  502 -0.00000000000E+00 -0.00000000000E+00 -0.40783203943E+03  0.40783203943E+03  0.00000000000E+00 0.  1.
         21    1    1    2  503  501 -0.60204997345E+02 -0.32949979190E+02  0.17381974854E+03  0.18687869814E+03  0.00000000000E+00 0.  1.
         21    1    1    2  504  502  0.65966211373E+02 -0.51242862860E+02  0.18475748495E+03  0.20276266984E+03  0.00000000000E+00 0.  1.
         21    1    1    2  505  506  0.52746832099E+02  0.10154175381E+03 -0.37448024566E+03  0.39157171815E+03  0.00000000000E+00 0.  1.
         21    1    1    2  506  503 -0.58508046127E+02 -0.17348911765E+02  0.91119046798E+02  0.10966702736E+03  0.00000000000E+00 0.  1.
<scales pt_clust_3="31.61438" pt_clust_4="83.53067" pt_clust_5="114.00527" pt_clust_6="31.61438"></scales>
<clustering>
<clus scale="   31.614">  3  6 -1 -1</clus>
<clus scale="   83.531">  1  4  2 -1</clus>
<clus scale="  114.005">  2  5  1 -1</clus>
<clus scale="   83.531">  1  3  2 -1</clus>
</clustering>
</event>
<event>
 6    0  0.6207838E+002  0.1416725E+03  0.7546771E-02  0.1211096E+00
         21   -1    0    0  505  501  0.00000000000E+00  0.00000000000E+00  0.21025273463E+04  0.21025273463E+04  0.00000000000E+00 0. -1.
         21   -1    0    0  506  502 -0.00000000000E+00 -0.00000000000E+00 -0.12046078133E+03  0.12046078133E+03  0.00000000000E+00 0.  1.
         21    1    1    2  503  501  0.16503513674E+03  0.69891205166E+02  0.72911432866E+03  0.75081894035E+03  0.00000000000E+00 0.  1.
         21    1    1    2  504  502 -0.57404960310E+02 -0.12941438990E+02  0.11091782393E+03  0.12556103686E+03  0.00000000000E+00 0.  1.
         21    1    1    2  505  504 -0.78714142908E+02 -0.10986056977E+03  0.12314049262E+04  0.12387991578E+04  0.00000000000E+00 0. -1.
         21    1    1    2  506  503 -0.28916033527E+02  0.52910803593E+02 -0.89370513874E+02  0.10780899258E+03  0.00000000000E+00 0.  1.
<scales pt_clust_3="141.67254" pt_clust_4="58.84565" pt_clust_5="14000.00000" pt_clust_6="89.24517"></scales>
<clustering>
<clus scale="   58.846">  2  4  1 -1</clus>
<clus scale="   89.245">  2  6  1 -1</clus>
<clus scale="  141.673">  2  3  1 -1</clus>
<clus scale="  141.673">  1  3  2 -1</clus>
</clustering>
</event>
<event>
 6    0  0.6207838E+002  0.9704993E+02  0.7546771E-02  0.1286625E+00
         21   -1    0    0  504  501  0.00000000000E+00  0.00000000000E+00  0.75197753211E+01  0.75197753211E+01  0.00000000000E+00 0. -1.
         21   -1    0    0  503  502 -0.00000000000E+00 -0.00000000000E+00 -0.36590172391E+04  0.36590172391E+04  0.00000000000E+00 0. -1.
         21    1    1    2  503  505  0.34798237283E+02 -0.11492309480E+02 -0.41592340039E+03  0.41753474764E+03  0.00000000000E+00 0. -1.
         21    1    1    2  504  506  0.23742683345E+02  0.28306867371E+02 -0.13999011485E+03  0.14478337615E+03  0.00000000000E+00 0. -1.
         21    1    1    2  505  501 -0.10909020547E+03 -0.70827284461E+02 -0.11686875287E+04  0.11759029369E+04  0.00000000000E+00 0. -1.
         21    1    1    2  506  502  0.50549284842E+02  0.54012726570E+02 -0.19268964198E+04  0.19283159537E+04  0.00000000000E+00 0. -1.
<scales pt_clust_3="36.64683" pt_clust_4="37.57097" pt_clust_5="97.04993" pt_clust_6="14000.00000"></scales>
<clustering>
<clus scale="   36.647">  2  3  1 -1</clus>
<clus scale="   37.571">  1  4  2 -1</clus>
<clus scale="   97.050">  1  5  2 -1</clus>
<clus scale="   37.571">  1  3  2 -1</clus>
</clustering>
</event>
<event>
 6    0  0.6207838E+002  0.7777197E+02  0.7546771E-02  0.1335496E+00
         21   -1    0    0  505  501  0.00000000000E+00  0.00000000000E+00  0.12981805712E+04  0.12981805712E+04  0.00000000000E+00 0. -1.
         21   -1    0    0  503  502 -0.00000000000E+00 -0.00000000000E+00 -0.84192924604E+02  0.84192924604E+02  0.00000000000E+00 0. -1.
         21    1    1    2  503  501 -0.37539559196E+02 -0.42894492990E+02  0.53198958017E+03  0.53503464322E+03  0.00000000000E+00 0. -1.
         21    1    1    2  504  502  0.44691442247E+02 -0.43079876724E+02 -0.55481166897E+02  0.83254793670E+02  0.00000000000E+00 0. -1.
         21    1    1    2  505  506 -0.59825979569E+02  0.29354060621E+02  0.61914786802E+03  0.62272376795E+03  0.00000000000E+00 0. -1.
         21    1    1    2  506  504  0.52674096518E+02  0.56620309093E+02  0.11833136532E+03  0.14136029097E+03  0.00000000000E+00 0. -1.
<scales pt_clust_3="57.00137" pt_clust_4="62.13255" pt_clust_5="77.77197" pt_clust_6="14000.00000"></scales>
<clustering>
<clus scale="   57.001">  1  3  2 -1</clus>
<clus scale="   62.133">  2  4  1 -1</clus>
<clus scale="   77.772">  1  5  2 -1</clus>
<clus scale="   57.001">  1  3  2 -1</clus>
</clustering>
</event>
<event>
 6    0  0.6207838E+002  0.8391909E+02  0.7546771E-02  0.1318284E+00
         21   -1    0    0  504  501  0.00000000000E+00  0.00000000000E+00  0.83249800072E+03  0.83249800072E+03  0.00000000000E+00 0.  1.
         21   -1    0    0  503  502 -0.00000000000E+00 -0.00000000000E+00 -0.68759063669E+03  0.68759063669E+03  0.00000000000E+00 0. -1.
         21    1    1    2  503  505 -0.34913428236E+02  0.58868556053E+02  0.12963119297E+03  0.14659024713E+03  0.00000000000E+00 0.  1.
         21    1    1    2  504  506  0.76113333490E+02 -0.15283263396E+02  0.19596043831E+03  0.21077787137E+03  0.00000000000E+00 0.  1.
         21    1    1    2  505  501 -0.87480015244E+02  0.39621140162E+01  0.48545240103E+03  0.49328742644E+03  0.00000000000E+00 0.  1.
         21    1    1    2  506  502  0.46280109991E+02 -0.47547406673E+02 -0.66613666829E+03  0.66943309247E+03  0.00000000000E+00 0. -1.
<scales pt_clust_3="41.36609" pt_clust_4="14000.00000" pt_clust_5="83.91909" pt_clust_6="66.35212"></scales>
<clustering>
<clus scale="   66.352">  2  6  1 -1</clus>
<clus scale="   41.366">  2  3  1 -1</clus>
<clus scale="   83.919">  1  5  2 -1</clus>
<clus scale="   83.919">  1  3  2 -1</clus>
</clustering>
</event>
<event>
 6    0  0.6207838E+002  0.1358707E+03  0.7546771E-02  0.1218996E+00
         21   -1    0    0  505  501  0.00000000000E+00  0.00000000000E+00  0.29187281094E+03  0.29187281094E+03  0.00000000000E+00 0. -1.
         21   -1    0    0  506  502 -0.00000000000E+00 -0.00000000000E+00 -0.19753701225E+03  0.19753701225E+03  0.00000000000E+00 0.  1.
         21    1    1    2  503  502 -0.13197913379E+02  0.56971040377E+02 -0.10786753070E+02  0.59466279529E+02  0.00000000000E+00 0.  1.
         21    1    1    2  504  503  0.12744802896E+02 -0.36802282926E+02  0.29493495279E+02  0.48853907655E+02  0.00000000000E+00 0.  1.
         21    1    1    2  505  504  0.51130707754E+02 -0.77852604295E+02  0.20808946333E+03  0.22798377579E+03  0.00000000000E+00 0. -1.
         21    1    1    2  506  501 -0.50677597271E+02  0.57683846844E+02 -0.13246040685E+03  0.15310586022E+03  0.00000000000E+00 0.  1.
<scales pt_clust_3="58.47978" pt_clust_4="35.22627" pt_clust_5="35.22627" pt_clust_6="124.47177"></scales>
<clustering>
<clus scale="   35.226">  4  5 -1 -1</clus>
<clus scale="   58.480">  2  3  1 -1</clus>
<clus scale="  124.472">  2  6  1 -1</clus>
<clus scale="  135.871">  1  3  2 -1</clus>
</clustering>
</event>
<event>
 6    0  0.6207838E+002  0.1025973E+03  0.7546771E-02  0.1274927E+00
         21   -1    0    0  505  501  0.00000000000E+00  0.00000000000E+00  0.64846080150E+03  0.64846080150E+03  0.00000000000E+00 0. -1.
         21   -1    0    0  504  502 -0.00000000000E+00 -0.00000000000E+00 -0.67314486759E+02  0.67314486759E+02  0.00000000000E+00 0.  1.
         21    1    1    2  503  501 -0.21860668999E+02 -0.44563227840E+02  0.16491545034E+03  0.17222333142E+03  0.00000000000E+00 0. -1.
         21    1    1    2  504  506 -0.64467250416E+02  0.85673565505E+02 -0.33099057363E+01  0.10727041381E+03  0.00000000000E+00 0.  1.
         21    1    1    2  505  502  0.27430159752E+02  0.16098041253E+02  0.18665368919E+03  0.18934402627E+03  0.00000000000E+00 0.  1.
         21    1    1    2  506  503  0.58897759662E+02 -0.57208378919E+02  0.23288708094E+03  0.24693751676E+03  0.00000000000E+00 0. -1.
<scales pt_clust_3="40.43573" pt_clust_4="102.59734" pt_clust_5="31.80504" pt_clust_6="14000.00000"></scales>
<clustering>
<clus scale="   31.805">  1  5  2 -1</clus>
<clus scale="   40.436">  1  3  2 -1</clus>
<clus scale="  102.597">  2  4  1 -1</clus>
<clus scale="   31.805">  1  3  2 -1</clus>
</clustering>
</event>
<event>
 6    0  0.6827605E+002  0.1659916E+03  0.7546771E-02  0.1182094E+00
         21   -1    0    0  504  501  0.00000000000E+00  0.00000000000E+00  0.57913200630E+03  0.57913200630E+03  0.00000000000E+00 0. -1.
         21   -1    0    0  505  502 -0.00000000000E+00 -0.00000000000E+00 -0.44997206476E+03  0.44997206476E+03  0.00000000000E+00 0.  1.
         21    1    1    2  503  501 -0.45966854475E+01 -0.54280074718E+02  0.11038582442E+03  0.12309543558E+03  0.00000000000E+00 0. -1.
         21    1    1    2  504  506 -0.28946105343E+02  0.13212065259E+02  0.31445857228E+02  0.44735641492E+02  0.00000000000E+00 0. -1.
         21    1    1    2  505  503  0.43789339665E+02 -0.11616217874E+03  0.40038271396E+03  0.41918668356E+03  0.00000000000E+00 0. -1.
         21    1    1    2  506  502 -0.10246548875E+02  0.15723018820E+03 -0.41305445407E+03  0.44208631043E+03  0.00000000000E+00 0.  1.
<scales pt_clust_3="35.50001" pt_clust_4="31.81879" pt_clust_5="35.50001" pt_clust_6="157.96973"></scales>
<clustering>
<clus scale="   31.819">  1  4  2 -1</clus>
<clus scale="   35.500">  3  5 -1 -1</clus>
<clus scale="  157.970">  2  6  1 -1</clus>
<clus scale="   31.819">  1  3  2 -1</clus>
</clustering>
</event>
<event>
 6    0  0.6207838E+002  0.1097097E+03  0.7546771E-02  0.1261108E+00
         21   -1    0    0  503  501  0.00000000000E+00  0.00000000000E+00  0.93693600595E+02  0.93693600595E+02  0.00000000000E+00 0.  1.
         21   -1    0    0  506  502 -0.00000000000E+00 -0.00000000000E+00 -0.39171356074E+03  0.39171356074E+03  0.00000000000E+00 0.  1.
         21    1    1    2  503  505 -0.35930535262E+01  0.64927243558E+02  0.10462943990E+02  0.65862965213E+02  0.00000000000E+00 0.  1.
         21    1    1    2  504  502  0.64238560204E+01 -0.50795643447E+02 -0.25613484575E+03  0.26120207221E+03  0.00000000000E+00 0.  1.
         21    1    1    2  505  504  0.73704698570E+01  0.66995014461E+02 -0.28431795750E+02  0.73150685562E+02  0.00000000000E+00 0.  1.
         21    1    1    2  506  501 -0.10201272351E+02 -0.81126614573E+02 -0.23916262634E+02  0.85191438349E+02  0.00000000000E+00 0.  1.
<scales pt_clust_3="39.09472" pt_clust_4="51.20023" pt_clust_5="39.09472" pt_clust_6="102.23531"></scales>
<clustering>
<clus scale="   39.095">  3  5 -1 -1</clus>
<clus scale="   51.200">  2  4  1 -1</clus>
<clus scale="  102.235">  1  6  2 -1</clus>
<clus scale="  102.235">  1  3  2 -1</clus>
</clustering>
</event>
<event>
 6    0  0.6207838E+002  0.1385064E+03  0.7546771E-02  0.1215353E+00
         21   -1    0    0  506  501  0.00000000000E+00  0.00000000000E+00  0.19813118694E+03  0.19813118694E+03  0.00000000000E+00 0. -1.
         21   -1    0    0  504  502 -0.00000000000E+00 -0.00000000000E+00 -0.19754220079E+03  0.19754220079E+03  0.00000000000E+00 0. -1.
         21    1    1    2  503  501 -0.11485975541E+03  0.56614282442E+02  0.10482320806E+03  0.16548669232E+03  0.00000000000E+00 0. -1.
         21    1    1    2  504  503  0.40946344147E+01  0.44464549497E+02 -0.44951592956E+02  0.63360144431E+02  0.00000000000E+00 0. -1.
         21    1    1    2  505  502  0.76151047879E+02 -0.63541787548E+02 -0.17201023015E+02  0.10065990289E+03  0.00000000000E+00 0. -1.
         21    1    1    2  506  505  0.34614073112E+02 -0.37537044390E+02 -0.42081605939E+02  0.66166648074E+02  0.00000000000E+00 0. -1.
<scales pt_clust_3="131.73158" pt_clust_4="44.65268" pt_clust_5="30.70117" pt_clust_6="30.70117"></scales>
<clustering>
<clus scale="   30.701">  5  6 -1 -1</clus>
<clus scale="   44.653">  2  4  1 -1</clus>
<clus scale="  131.732">  1  3  2 -1</clus>
<clus scale="  131.732">  1  3  2 -1</clus>
</clustering>
</event>
<event>
 6    0  0.6207838E+002  0.8221229E+02  0.7546771E-02  0.1322888E+00
         21   -1    0    0  504  501  0.00000000000E+00  0.00000000000E+00  0.11608763923E+03  0.11608763923E+03  0.00000000000E+00 0.  1.
         21   -1    0    0  506  502 -0.00000000000E+00 -0.00000000000E+00 -0.32592908848E+03  0.32592908848E+03  0.00000000000E+00 0.  1.
         21    1    1    2  503  505 -0.76834186127E+02  0.10690262925E+02 -0.27366386297E+02  0.82259911124E+02  0.00000000000E+00 0. -1.
         21    1    1    2  504  502  0.11736546199E+02  0.52411093504E+02 -0.16751216981E+03  0.17591189918E+03  0.00000000000E+00 0.  1.
         21    1    1    2  505  501  0.84823984527E+02  0.18510151389E+02  0.25715002095E+02  0.90548304171E+02  0.00000000000E+00 0.  1.
         21    1    1    2  506  503 -0.19726344599E+02 -0.81611507818E+02 -0.40677895233E+02  0.93296613230E+02  0.00000000000E+00 0.  1.
<scales pt_clust_3="82.21229" pt_clust_4="53.70912" pt_clust_5="14000.00000" pt_clust_6="60.63667"></scales>
<clustering>
<clus scale="   53.709">  2  4  1 -1</clus>
<clus scale="   60.637">  2  6  1 -1</clus>
<clus scale="   82.212">  2  3  1 -1</clus>
<clus scale="   82.212">  1  3  2 -1</clus>
</clustering>
</event>
<event>
 6    0  0.6207838E+002  0.1003991E+03  0.7546771E-02  0.1279459E+00
         21   -1    0    0  504  501  0.00000000000E+00  0.00000000000E+00  0.85962482562E+03  0.85962482562E+03  0.00000000000E+00 0.  1.
         21   -1    0    0  506  502 -0.00000000000E+00 -0.00000000000E+00 -0.92791966892E+03  0.92791966892E+03  0.00000000000E+00 0. -1.
         21    1    1    2  503  502  0.17002868544E+02  0.67331799460E+02  0.36974792760E+02  0.78675307797E+02  0.00000000000E+00 0.  1.
         21    1    1    2  504  503  0.16997793388E+02 -0.41639209180E+02  0.68611796749E+03  0.68759044063E+03  0.00000000000E+00 0.  1.
         21    1    1    2  505  501  0.57399162270E+02  0.18308718166E+02  0.10398511969E+03  0.12017810993E+03  0.00000000000E+00 0.  1.
         21    1    1    2  506  505 -0.91399824201E+02 -0.44001308446E+02 -0.89537272324E+03  0.90110063618E+03  0.00000000000E+00 0. -1.
<scales pt_clust_3="58.01722" pt_clust_4="44.97498" pt_clust_5="14000.00000" pt_clust_6="100.39909"></scales>
<clustering>
<clus scale="   44.975">  1  4  2 -1</clus>
<clus scale="   58.017">  1  3  2 -1</clus>
<clus scale="  100.399">  2  6  1 -1</clus>
<clus scale="   44.975">  1  3  2 -1</clus>
</clustering>
</event>
<event>
 6    0  0.6207838E+002  0.2614946E+03  0.7546771E-02  0.1106249E+00
         21   -1    0    0  504  501  0.00000000000E+00  0.00000000000E+00  0.27561984359E+03  0.27561984359E+03  0.00000000000E+00 0.  1.
         21   -1    0    0  506  502 -0.00000000000E+00 -0.00000000000E+00 -0.11985482567E+04  0.11985482567E+04  0.00000000000E+00 0.  1.
         21    1    1    2  503  501  0.31169171743E+02 -0.14817025662E+02  0.12857484258E+03  0.13312607431E+03  0.00000000000E+00 0.  1.
         21    1    1    2  504  505 -0.23077964692E+01 -0.92409515287E+02 -0.24611472343E+03  0.26290169556E+03  0.00000000000E+00 0. -1.
         21    1    1    2  505  502  0.31113891598E+01 -0.15581178078E+03 -0.79798736128E+03  0.81306261785E+03  0.00000000000E+00 0.  1.
         21    1    1    2  506  503 -0.31972764434E+02  0.26303832173E+03 -0.74011709674E+01  0.26507771256E+03  0.00000000000E+00 0.  1.
<scales pt_clust_3="34.51176" pt_clust_4="59.44710" pt_clust_5="59.44710" pt_clust_6="249.88770"></scales>
<clustering>
<clus scale="   34.512">  1  3  2 -1</clus>
<clus scale="   59.447">  4  5 -1 -1</clus>
<clus scale="  249.888">  1  6  2 -1</clus>
<clus scale="   34.512">  1  3  2 -1</clus>
</clustering>
</event>
<event>
 6    0  0.6207838E+002  0.1345886E+03  0.7546771E-02  0.1220802E+00
         21   -1    0    0  505  501  0.00000000000E+00  0.00000000000E+00  0.33079039632E+03  0.33079039632E+03  0.00000000000E+00 0.  1.
         21   -1    0    0  503  502 -0.00000000000E+00 -0.00000000000E+00 -0.28444932083E+04  0.28444932083E+04  0.00000000000E+00 0.  1.
         21    1    1    2  503  501 -0.10017388341E+03 -0.13165429731E+03 -0.59919900389E+02  0.17594901358E+03  0.00000000000E+00 0. -1.
         21    1    1    2  504  502 -0.24802211574E+01  0.33300594223E+02 -0.24340793207E+04  0.24343083660E+04  0.00000000000E+00 0.  1.
         21    1    1    2  505  506 -0.25286540056E+02  0.13473969466E+03  0.23820473669E+03  0.27483757204E+03  0.00000000000E+00 0.  1.
         21    1    1    2  506  504  0.12794064462E+03 -0.36385991573E+02 -0.25790832758E+03  0.29018865305E+03  0.00000000000E+00 0. -1.
<scales pt_clust_3="134.58860" pt_clust_4="33.39283" pt_clust_5="14000.00000" pt_clust_6="127.07363"></scales>
<clustering>
<clus scale="   33.393">  2  4  1 -1</clus>
<clus scale="  127.074">  2  6  1 -1</clus>
<clus scale="  134.589">  2  3  1 -1</clus>
<clus scale="  134.589">  1  3  2 -1</clus>
</clustering>
</event>
<event>
 6    0  0.6207838E+002  0.1237279E+03  0.7546771E-02  0.1237071E+00
         21   -1    0    0  505  501  0.00000000000E+00  0.00000000000E+00  0.96789638834E+03  0.96789638834E+03  0.00000000000E+00 0. -1.
         21   -1    0    0  503  502 -0.00000000000E+00 -0.00000000000E+00 -0.78296238574E+02  0.78296238574E+02  0.00000000000E+00 0. -1.
         21    1    1    2  503  506 -0.53398239714E+02  0.74467668604E+02  0.71376147170E+02  0.11615231404E+03  0.00000000000E+00 0. -1.
         21    1    1    2  504  502  0.27512149385E+02  0.43924509816E+02  0.30270427459E+02  0.60021493691E+02  0.00000000000E+00 0.  1.
         21    1    1    2  505  504 -0.10387486447E+02  0.52713265635E+02  0.63617068682E+03  0.63843537732E+03  0.00000000000E+00 0. -1.
         21    1    1    2  506  501  0.36273576776E+02 -0.17110544405E+03  0.15178288831E+03  0.23158344186E+03  0.00000000000E+00 0. -1.
<scales pt_clust_3="123.72794" pt_clust_4="51.82934" pt_clust_5="54.40515" pt_clust_6="14000.00000"></scales>
<clustering>
<clus scale="   51.829">  2  4  1 -1</clus>
<clus scale="   54.405">  1  5  2 -1</clus>
<clus scale="  123.728">  2  3  1 -1</clus>
<clus scale="   54.405">  1  3  2 -1</clus>
</clustering>
</event>
<event>
 6    0  0.6207838E+002  0.7508260E+02  0.7546771E-02  0.1343615E+00
         21   -1    0    0  506  501  0.00000000000E+00  0.00000000000E+00  0.11307480306E+03  0.11307480306E+03  0.00000000000E+00 0. -1.
         21   -1    0    0  503  502 -0.00000000000E+00 -0.00000000000E+00 -0.86906903950E+03  0.86906903950E+03  0.00000000000E+00 0.  1.
         21    1    1    2  503  501  0.47247339654E+02 -0.38945514509E+02 -0.51778654379E+03  0.52139425498E+03  0.00000000000E+00 0.  1.
         21    1    1    2  504  502  0.40168825198E+02  0.37802667397E+02 -0.93229056939E+02  0.10832466588E+03  0.00000000000E+00 0.  1.
         21    1    1    2  505  504 -0.50253751452E+02  0.69153032160E+02 -0.22520170214E+03  0.24088044345E+03  0.00000000000E+00 0.  1.
         21    1    1    2  506  505 -0.37162413400E+02 -0.68010185048E+02  0.80223066421E+02  0.11154447824E+03  0.00000000000E+00 0. -1.
<scales pt_clust_3="75.60653" pt_clust_4="55.15955" pt_clust_5="14000.00000" pt_clust_6="75.08260"></scales>
<clustering>
<clus scale="   55.160">  2  4  1 -1</clus>
<clus scale="   75.607">  2  3  1 -1</clus>
<clus scale="   75.083">  1  6  2 -1</clus>
<clus scale="   75.083">  1  3  2 -1</clus>
</clustering>
</event>
<event>
 6    0  0.6207838E+002  0.8981132E+02  0.7546771E-02  0.1303309E+00
         21   -1    0    0  504  501  0.00000000000E+00  0.00000000000E+00  0.14685870191E+03  0.14685870191E+03  0.00000000000E+00 0. -1.
         21   -1    0    0  506  502 -0.00000000000E+00 -0.00000000000E+00 -0.84915371010E+03  0.84915371010E+03  0.00000000000E+00 0.  1.
         21    1    1    2  503  502 -0.53025684305E+02 -0.11408485987E+02 -0.65300257215E+02  0.84888163727E+02  0.00000000000E+00 0. -1.
         21    1    1    2  504  503  0.92927845979E+02  0.32664225306E+02  0.11548399041E+03  0.15178632420E+03  0.00000000000E+00 0. -1.
         21    1    1    2  505  501 -0.34975909921E+02 -0.55181025899E+02 -0.41338337083E+03  0.41851412303E+03  0.00000000000E+00 0.  1.
         21    1    1    2  506  505 -0.49262517535E+01  0.33925286580E+02 -0.33909537056E+03  0.34082380105E+03  0.00000000000E+00 0.  1.
<scales pt_clust_3="89.81132" pt_clust_4="14000.00000" pt_clust_5="47.70229" pt_clust_6="34.28109"></scales>
<clustering>
<clus scale="   34.281">  2  6  1 -1</clus>
<clus scale="   47.702">  2  5  1 -1</clus>
<clus scale="   89.811">  2  3  1 -1</clus>
<clus scale="   89.811">  1  3  2 -1</clus>
</clustering>
</event>
<event>
 6    0  0.6207838E+002  0.1237076E+03  0.7546771E-02  0.1237103E+00
         21   -1    0    0  505  501  0.00000000000E+00  0.00000000000E+00  0.57254415152E+03  0.57254415152E+03  0.00000000000E+00 0.  1.
         21   -1    0    0  501  502 -0.00000000000E+00 -0.00000000000E+00 -0.26868921989E+03  0.26868921989E+03  0.00000000000E+00 0.  1.
         21    1    1    2  503  506  0.25382544525E+02  0.80428429897E+02 -0.11481408776E+03  0.14246150586E+03  0.00000000000E+00 0.  1.
         21    1    1    2  504  503 -0.71370767752E+02 -0.80844805721E+02 -0.77822194898E+02  0.13298858267E+03  0.00000000000E+00 0.  1.
         21    1    1    2  505  504  0.30622370655E+02 -0.41013168941E+02  0.51524494676E+03  0.51778100079E+03  0.00000000000E+00 0.  1.
         21    1    1    2  506  502  0.15365852572E+02  0.41429544765E+02 -0.18753732476E+02  0.48002282097E+02  0.00000000000E+00 0.  1.
<scales pt_clust_3="31.76850" pt_clust_4="115.66018" pt_clust_5="51.18408" pt_clust_6="31.76850"></scales>
<clustering>
<clus scale="   31.768">  3  6 -1 -1</clus>
<clus scale="   51.184">  1  5  2 -1</clus>
<clus scale="  115.660">  1  4  2 -1</clus>
<clus scale="   51.184">  1  3  2 -1</clus>
</clustering>
</event>
<event>
 6    0  0.6207838E+002  0.7834562E+02  0.7546771E-02  0.1333813E+00
         21   -1    0    0  502  501  0.00000000000E+00  0.00000000000E+00  0.84305647794E+03  0.84305647794E+03  0.00000000000E+00 0.  1.
         21   -1    0    0  506  502 -0.00000000000E+00 -0.00000000000E+00 -0.71690681406E+03  0.71690681406E+03  0.00000000000E+00 0. -1.
         21    1    1    2  503  504  0.68469324621E+02  0.71776646879E+02 -0.86432895502E+02  0.13156968069E+03  0.00000000000E+00 0. -1.
         21    1    1    2  504  501  0.15310778192E+01 -0.35248460721E+02  0.81267756870E+03  0.81344307044E+03  0.00000000000E+00 0.  1.
         21    1    1    2  505  503 -0.75617645221E+02  0.19448145640E+02 -0.35328225383E+03  0.36180742048E+03  0.00000000000E+00 0. -1.
         21    1    1    2  506  505  0.56172427810E+01 -0.55976331798E+02 -0.24681275548E+03  0.25314312040E+03  0.00000000000E+00 0. -1.
<scales pt_clust_3="14000.00000" pt_clust_4="35.28170" pt_clust_5="78.34562" pt_clust_6="59.97479"></scales>
<clustering>
<clus scale="   35.282">  1  4  2 -1</clus>
<clus scale="   59.975">  2  6  1 -1</clus>
<clus scale="   78.346">  2  5  1 -1</clus>
<clus scale="   35.282">  1  3  2 -1</clus>
</clustering>
</event>
<event>
 6    0  0.6207838E+002  0.1556507E+03  0.7546771E-02  0.1193696E+00
         21   -1    0    0  503  501  0.00000000000E+00  0.00000000000E+00  0.52794532885E+03  0.52794532885E+03  0.00000000000E+00 0.  1.
         21   -1    0    0  506  502 -0.00000000000E+00 -0.00000000000E+00 -0.23716734722E+03  0.23716734722E+03  0.00000000000E+00 0.  1.
         21    1    1    2  503  505 -0.39238158424E+02 -0.20077237033E+02  0.59789490986E+01  0.44480066949E+02  0.00000000000E+00 0.  1.
         21    1    1    2  504  501  0.13616358655E+03 -0.76445664042E+02  0.40354209922E+03  0.43270161509E+03  0.00000000000E+00 0.  1.
         21    1    1    2  505  502 -0.18005400644E+02 -0.63320440421E+02  0.11929133053E+02  0.66902741669E+02  0.00000000000E+00 0.  1.
         21    1    1    2  506  504 -0.78920027483E+02  0.15984334150E+03 -0.13067219974E+03  0.22102825237E+03  0.00000000000E+00 0.  1.
<scales pt_clust_3="35.22715" pt_clust_4="14000.00000" pt_clust_5="109.93376" pt_clust_6="155.65070"></scales>
<clustering>
<clus scale="   35.227">  3  5 -1 -1</clus>
<clus scale="  109.934">  2  3  1 -1</clus>
<clus scale="  155.651">  2  6  1 -1</clus>
<clus scale="  155.651">  1  3  2 -1</clus>
</clustering>
</event>
<event>
 6    0  0.6207838E+002  0.1437070E+03  0.7546771E-02  0.1208426E+00
         21   -1    0    0  504  501  0.00000000000E+00  0.00000000000E+00  0.37861192227E+03  0.37861192227E+03  0.00000000000E+00 0.  1.
         21   -1    0    0  505  502 -0.00000000000E+00 -0.00000000000E+00 -0.25738098897E+03  0.25738098897E+03  0.00000000000E+00 0. -1.
         21    1    1    2  503  502 -0.16600693694E+02 -0.57103119480E+02 -0.38230643733E+02  0.70696049435E+02  0.00000000000E+00 0. -1.
         21    1    1    2  504  506  0.25676419801E+02 -0.84801837112E+02  0.19199301480E+02  0.90660042404E+02  0.00000000000E+00 0. -1.
         21    1    1    2  505  501 -0.71294965478E+02  0.17742683469E+03  0.26738089413E+03  0.32871841494E+03  0.00000000000E+00 0.  1.
         21    1    1    2  506  503  0.62219239370E+02 -0.35521878100E+02 -0.12711861859E+03  0.14591840447E+03  0.00000000000E+00 0. -1.
<scales pt_clust_3="59.46721" pt_clust_4="14000.00000" pt_clust_5="143.70700" pt_clust_6="89.85118"></scales>
<clustering>
<clus scale="   59.467">  2  3  1 -1</clus>
<clus scale="   89.851">  2  6  1 -1</clus>
<clus scale="  143.707">  1  5  2 -1</clus>
<clus scale="  143.707">  1  3  2 -1</clus>
</clustering>
</event>
<event>
 6    0  0.6207838E+002  0.1514829E+03  0.7546771E-02  0.1198663E+00
         21   -1    0    0  506  501  0.00000000000E+00  0.00000000000E+00  0.40651329193E+03  0.40651329193E+03  0.00000000000E+00 0. -1.
         21   -1    0    0  504  502 -0.00000000000E+00 -0.00000000000E+00 -0.20092292366E+03  0.20092292366E+03  0.00000000000E+00 0.  1.
         21    1    1    2  503  502  0.99643336999E+02 -0.13393217413E+03 -0.11155520333E+03  0.20077645595E+03  0.00000000000E+00 0.  1.
         21    1    1    2  504  501 -0.10216255715E+03  0.56837318234E+02  0.96210739635E+02  0.15140731570E+03  0.00000000000E+00 0. -1.
         21    1    1    2  505  503  0.81114697747E+01  0.42196107508E+02  0.13809573105E+02  0.45133266446E+02  0.00000000000E+00 0. -1.
         21    1    1    2  506  505 -0.55922496225E+01  0.34898748389E+02  0.20712525885E+03  0.21011917749E+03  0.00000000000E+00 0. -1.
<scales pt_clust_3="151.48291" pt_clust_4="14000.00000" pt_clust_5="47.94915" pt_clust_6="35.34397"></scales>
<clustering>
<clus scale="   35.344">  1  6  2 -1</clus>
<clus scale="   47.949">  1  5  2 -1</clus>
<clus scale="  151.483">  2  3  1 -1</clus>
<clus scale="   35.344">  1  3  2 -1</clus>
</clustering>
</event>
<event>
 6    0  0.6207838E+002  0.8779007E+02  0.7546771E-02  0.1308293E+00
         21   -1    0    0  503  501  0.00000000000E+00  0.00000000000E+00  0.87826817544E+02  0.87826817544E+02  0.00000000000E+00 0.  1.
         21   -1    0    0  506  502 -0.00000000000E+00 -0.00000000000E+00 -0.10455336227E+04  0.10455336227E+04  0.00000000000E+00 0. -1.
         21    1    1    2  503  504  0.47736500185E+02 -0.70586446456E+02  0.92698778151E+01  0.85715520811E+02  0.00000000000E+00 0.  1.
         21    1    1    2  504  502 -0.34903798930E+02 -0.24533175123E+02 -0.85207994575E+03  0.85314734121E+03  0.00000000000E+00 0. -1.
         21    1    1    2  505  501  0.13799281718E+02  0.11061490482E+03 -0.49026421551E+02  0.12177712164E+03  0.00000000000E+00 0.  1.
         21    1    1    2  506  505 -0.26631982972E+02 -0.15495283243E+02 -0.65870315699E+02  0.72720456614E+02  0.00000000000E+00 0. -1.
<scales pt_clust_3="87.79007" pt_clust_4="69.51262" pt_clust_5="14000.00000" pt_clust_6="30.81179"></scales>
<clustering>
<clus scale="   30.812">  2  6  1 -1</clus>
<clus scale="   69.513">  2  4  1 -1</clus>
<clus scale="   87.790">  1  3  2 -1</clus>
<clus scale="   87.790">  1  3  2 -1</clus>
</clustering>
</event>
<event>
 6    0  0.6207838E+002  0.9784475E+02  0.7546771E-02  0.1284895E+00
         21   -1    0    0  505  501  0.00000000000E+00  0.00000000000E+00  0.14291301716E+04  0.14291301716E+04  0.00000000000E+00 0.  1.
         21   -1    0    0  503  502 -0.00000000000E+00 -0.00000000000E+00 -0.27636555564E+02  0.27636555564E+02  0.00000000000E+00 0. -1.
         21    1    1    2  503  504 -0.93836840325E+00  0.61583754588E+02  0.27827851599E+03  0.28501293273E+03  0.00000000000E+00 0.  1.
         21    1    1    2  504  501 -0.95434272233E+02  0.37900716792E+02  0.57110919976E+03  0.58026707877E+03  0.00000000000E+00 0.  1.
         21    1    1    2  505  506  0.62986208774E+02 -0.77003234994E+02  0.54052541311E+03  0.54960393277E+03  0.00000000000E+00 0.  1.
         21    1    1    2  506  502  0.33386431862E+02 -0.22481236386E+02  0.11580487210E+02  0.41882782929E+02  0.00000000000E+00 0. -1.
<scales pt_clust_3="56.10356" pt_clust_4="97.84475" pt_clust_5="14000.00000" pt_clust_6="40.24997"></scales>
<clustering>
<clus scale="   40.250">  2  6  1 -1</clus>
<clus scale="   56.104">  2  3  1 -1</clus>
<clus scale="   97.845">  2  4  1 -1</clus>
<clus scale="   97.845">  1  3  2 -1</clus>
</clustering>
</event>
<event>
 6    0  0.6207838E+002  0.9962489E+02  0.7546771E-02  0.1281087E+00
         21   -1    0    0  503  501  0.00000000000E+00  0.00000000000E+00  0.29331206914E+03  0.29331206914E+03  0.00000000000E+00 0.  1.
         21   -1    0    0  506  502 -0.00000000000E+00 -0.00000000000E+00 -0.28680860937E+03  0.28680860937E+03  0.00000000000E+00 0.  1.
         21    1    1    2  503  502 -0.93144751812E+02 -0.20981293103E+02  0.21924670217E+03  0.23913443053E+03  0.00000000000E+00 0.  1.
         21    1    1    2  504  501  0.13819134258E+03  0.14582044993E+02 -0.40125112361E+02  0.14463577650E+03  0.00000000000E+00 0.  1.
         21    1    1    2  505  504 -0.36217720671E+02 -0.31860656354E+02 -0.12867980742E+03  0.13742386092E+03  0.00000000000E+00 0.  1.
         21    1    1    2  506  505 -0.88288701001E+01  0.38259904464E+02 -0.43938322625E+02  0.58926610559E+02  0.00000000000E+00 0.  1.
<scales pt_clust_3="99.62489" pt_clust_4="14000.00000" pt_clust_5="42.46007" pt_clust_6="39.26537"></scales>
<clustering>
<clus scale="   39.265">  2  6  1 -1</clus>
<clus scale="   42.460">  2  5  1 -1</clus>
<clus scale="   99.625">  1  3  2 -1</clus>
<clus scale="   99.625">  1  3  2 -1</clus>
</clustering>
</event>
<event>
 6    0  0.6207838E+002  0.1000723E+03  0.7546771E-02  0.1280144E+00
         21   -1    0    0  504  501  0.00000000000E+00  0.00000000000E+00  0.12893540785E+03  0.12893540785E+03  0.00000000000E+00 0.  1.
         21   -1    0    0  506  502 -0.00000000000E+00 -0.00000000000E+00 -0.12059796660E+04  0.12059796660E+04  0.00000000000E+00 0. -1.
         21    1    1    2  503  505  0.40317643475E+02 -0.51986654822E+02 -0.80568736027E+02  0.10401656541E+03  0.00000000000E+00 0.  1.
         21    1    1    2  504  502  0.18114977365E+02  0.61585276488E+02  0.87512041361E+02  0.10853228123E+03  0.00000000000E+00 0.  1.
         21    1    1    2  505  501  0.19561813245E+02 -0.58960916809E+02 -0.39083536435E+02  0.73393303977E+02  0.00000000000E+00 0.  1.
         21    1    1    2  506  503 -0.77994434085E+02  0.49362295144E+02 -0.10449040270E+04  0.10489729232E+04  0.00000000000E+00 0. -1.
<scales pt_clust_3="34.52966" pt_clust_4="64.19423" pt_clust_5="34.52966" pt_clust_6="93.55097"></scales>
<clustering>
<clus scale="   34.530">  3  5 -1 -1</clus>
<clus scale="   64.194">  1  4  2 -1</clus>
<clus scale="   93.551">  2  6  1 -1</clus>
<clus scale="   64.194">  1  3  2 -1</clus>
</clustering>
</event>
<event>
 6    0  0.6207838E+002  0.1102534E+03  0.7546771E-02  0.1260101E+00
         21   -1    0    0  503  501  0.00000000000E+00  0.00000000000E+00  0.17281020054E+03  0.17281020054E+03  0.00000000000E+00 0.  1.
         21   -1    0    0  505  502 -0.00000000000E+00 -0.00000000000E+00 -0.51276389025E+03  0.51276389025E+03  0.00000000000E+00 0.  1.
         21    1    1    2  503  504  0.97694856917E+01 -0.79101639280E+02 -0.11614568707E+03  0.14086281558E+03  0.00000000000E+00 0.  1.
         21    1    1    2  504  506  0.30398019546E+02 -0.18581837790E+02 -0.20045945818E+03  0.20360088080E+03  0.00000000000E+00 0.  1.
         21    1    1    2  505  501 -0.13361823523E+02  0.11449659294E+03  0.13621210407E+03  0.17844255495E+03  0.00000000000E+00 0.  1.
         21    1    1    2  506  502 -0.26805681715E+02 -0.16813115871E+02 -0.15956064852E+03  0.16266783946E+03  0.00000000000E+00 0. -1.
<scales pt_clust_3="110.25340" pt_clust_4="31.97656" pt_clust_5="14000.00000" pt_clust_6="31.64215"></scales>
<clustering>
<clus scale="   31.642">  2  6  1 -1</clus>
<clus scale="   31.977">  2  4  1 -1</clus>
<clus scale="  110.253">  2  3  1 -1</clus>
<clus scale="  110.253">  1  3  2 -1</clus>
</clustering>
</event>
<event>
 6    0  0.6207838E+002  0.1292545E+03  0.7546771E-02  0.1228566E+00
         21   -1    0    0  505  501  0.00000000000E+00  0.00000000000E+00  0.51806656361E+03  0.51806656361E+03  0.00000000000E+00 0. -1.
         21   -1    0    0  503  502 -0.00000000000E+00 -0.00000000000E+00 -0.46874320519E+03  0.46874320519E+03  0.00000000000E+00 0. -1.
         21    1    1    2  503  504 -0.79025552482E+02 -0.99781307575E+02  0.33028055251E+03  0.35395845893E+03  0.00000000000E+00 0. -1.
         21    1    1    2  504  501  0.43025649744E+02  0.40329840188E+00  0.12142952017E+03  0.12882739442E+03  0.00000000000E+00 0. -1.
         21    1    1    2  505  506  0.18981480709E+02 -0.29295139390E+02  0.34009161554E+02  0.48735252861E+02  0.00000000000E+00 0. -1.
         21    1    1    2  506  502  0.17018422029E+02  0.12867314856E+03 -0.43639587581E+03  0.45528866258E+03  0.00000000000E+00 0. -1.
<scales pt_clust_3="14000.00000" pt_clust_4="48.55794" pt_clust_5="34.90705" pt_clust_6="129.25445"></scales>
<clustering>
<clus scale="   34.907">  1  5  2 -1</clus>
<clus scale="   48.558">  1  4  2 -1</clus>
<clus scale="  129.254">  2  6  1 -1</clus>
<clus scale="   34.907">  1  3  2 -1</clus>
</clustering>
</event>
<event>
 6    0  0.6207838E+002  0.1325068E+03  0.7546771E-02  0.1223783E+00
         21   -1    0    0  504  501  0.00000000000E+00  0.00000000000E+00  0.36017585775E+03  0.36017585775E+03  0.00000000000E+00 0.  1.
         21   -1    0    0  503  502 -0.00000000000E+00 -0.00000000000E+00 -0.38524998181E+03  0.38524998181E+03  0.00000000000E+00 0.  1.
         21    1    1    2  503  506 -0.26378319194E+02 -0.39795964172E+02 -0.18628213303E+03  0.19230332179E+03  0.00000000000E+00 0.  1.
         21    1    1    2  504  505  0.40302817440E+02  0.80898683358E+02  0.25344997442E+03  0.26908326517E+03  0.00000000000E+00 0.  1.
         21    1    1    2  505  502 -0.13516900113E+03 -0.34987042108E+02 -0.82673358850E+02  0.16226409413E+03  0.00000000000E+00 0.  1.
         21    1    1    2  506  501  0.12124450288E+03 -0.61156770781E+01 -0.95686066011E+01  0.12177515846E+03  0.00000000000E+00 0.  1.
<scales pt_clust_3="47.74447" pt_clust_4="88.49227" pt_clust_5="14000.00000" pt_clust_6="132.50681"></scales>
<clustering>
<clus scale="   47.744">  2  3  1 -1</clus>
<clus scale="   88.492">  1  4  2 -1</clus>
<clus scale="  132.507">  2  6  1 -1</clus>
<clus scale="   88.492">  1  3  2 -1</clus>
</clustering>
</event>
<event>
 6    0  0.6207838E+002  0.1078379E+03  0.7546771E-02  0.1264627E+00
         21   -1    0    0  506  501  0.00000000000E+00  0.00000000000E+00  0.12131256662E+03  0.12131256662E+03  0.00000000000E+00 0. -1.
         21   -1    0    0  505  502 -0.00000000000E+00 -0.00000000000E+00 -0.12096524340E+04  0.12096524340E+04  0.00000000000E+00 0. -1.
         21    1    1    2  503  501 -0.19563812140E+02 -0.37848898098E+02  0.73208865025E+02  0.84704307748E+02  0.00000000000E+00 0. -1.
         21    1    1    2  504  502  0.16401527672E+02 -0.11781707893E+03 -0.95830144532E+03  0.96565601240E+03  0.00000000000E+00 0. -1.
         21    1    1    2  505  503 -0.36408148507E+02  0.72949398749E+02 -0.15923706497E+03  0.17889553073E+03  0.00000000000E+00 0.  1.
         21    1    1    2  506  504  0.39570432975E+02  0.82716578279E+02 -0.44010222124E+02  0.10170914973E+03  0.00000000000E+00 0. -1.
<scales pt_clust_3="42.60612" pt_clust_4="107.83791" pt_clust_5="14000.00000" pt_clust_6="62.69471"></scales>
<clustering>
<clus scale="   42.606">  1  3  2 -1</clus>
<clus scale="   62.695">  1  6  2 -1</clus>
<clus scale="  107.838">  2  4  1 -1</clus>
<clus scale="   42.606">  1  3  2 -1</clus>
</clustering>
</event>
<event>
 6    0  0.6207838E+002  0.1931092E+03  0.7546771E-02  0.1155687E+00
         21   -1    0    0  504  501  0.00000000000E+00  0.00000000000E+00  0.18258132602E+04  0.18258132602E+04  0.00000000000E+00 0. -1.
         21   -1    0    0  503  502 -0.00000000000E+00 -0.00000000000E+00 -0.13350957678E+03  0.13350957678E+03  0.00000000000E+00 0. -1.
         21    1    1    2  503  501  0.56802674664E+00  0.38060714316E+02  0.16424717249E+03  0.16860033897E+03  0.00000000000E+00 0. -1.
         21    1    1    2  504  505  0.59434782398E+01  0.93491127138E+02  0.13367756711E+04  0.13400541446E+04  0.00000000000E+00 0. -1.
         21    1    1    2  505  506 -0.14918966018E+03  0.60565009338E+02  0.12051678700E+03  0.20112178154E+03  0.00000000000E+00 0.  1.
         21    1    1    2  506  502  0.14267815520E+03 -0.19211685079E+03  0.70764052838E+02  0.24954657181E+03  0.00000000000E+00 0. -1.
<scales pt_clust_3="38.06495" pt_clust_4="124.35467" pt_clust_5="193.10922" pt_clust_6="14000.00000"></scales>
<clustering>
<clus scale="   38.065">  1  3  2 -1</clus>
<clus scale="  124.355">  1  4  2 -1</clus>
<clus scale="  193.109">  1  5  2 -1</clus>
<clus scale="   38.065">  1  3  2 -1</clus>
</clustering>
</event>
<event>
 6    0  0.6207838E+002  0.1347355E+03  0.7546771E-02  0.1220594E+00
         21   -1    0    0  506  501  0.00000000000E+00  0.00000000000E+00  0.11407606036E+03  0.11407606036E+03  0.00000000000E+00 0. -1.
         21   -1    0    0  503  502 -0.00000000000E+00 -0.00000000000E+00 -0.12001012733E+04  0.12001012733E+04  0.00000000000E+00 0.  1.
         21    1    1    2  503  501  0.29508367543E+02 -0.79022447296E+01  0.86433265498E+02  0.91672780101E+02  0.00000000000E+00 0. -1.
         21    1    1    2  504  505  0.45840421755E+02 -0.43580113907E+02 -0.43358608785E+03  0.43817515467E+03  0.00000000000E+00 0. -1.
         21    1    1    2  505  502 -0.10745789331E+02 -0.67677861944E+02 -0.53587059864E+03  0.54023426722E+03  0.00000000000E+00 0.  1.
         21    1    1    2  506  504 -0.64602999967E+02  0.11916022058E+03 -0.20300179200E+03  0.24409513172E+03  0.00000000000E+00 0.  1.
<scales pt_clust_3="30.54815" pt_clust_4="60.45435" pt_clust_5="60.45435" pt_clust_6="119.68668"></scales>
<clustering>
<clus scale="   30.548">  1  3  2 -1</clus>
<clus scale="   60.454">  4  5 -1 -1</clus>
<clus scale="  119.687">  1  6  2 -1</clus>
<clus scale="   30.548">  1  3  2 -1</clus>
</clustering>
</event>
<event>
 6    0  0.6207838E+002  0.9303753E+02  0.7546771E-02  0.1295658E+00
         21   -1    0    0  506  501  0.00000000000E+00  0.00000000000E+00  0.17041641315E+03  0.17041641315E+03  0.00000000000E+00 0.  1.
         21   -1    0    0  504  502 -0.00000000000E+00 -0.00000000000E+00 -0.35209720119E+03  0.35209720119E+03  0.00000000000E+00 0.  1.
         21    1    1    2  503  505  0.20668897456E+02 -0.64349460387E+02 -0.87984451834E+01  0.68157677571E+02  0.00000000000E+00 0.  1.
         21    1    1    2  504  501 -0.34128283338E+02 -0.10506191794E+01 -0.28854350693E+01  0.34266153268E+02  0.00000000000E+00 0.  1.
         21    1    1    2  505  502  0.12094576481E+02 -0.50302696264E+02 -0.26522996661E+03  0.27022874610E+03  0.00000000000E+00 0.  1.
         21    1    1    2  506  503  0.13648094014E+01  0.11570277583E+03  0.95233058822E+02  0.14986103741E+03  0.00000000000E+00 0.  1.
<scales pt_clust_3="93.03753" pt_clust_4="34.14445" pt_clust_5="51.62670" pt_clust_6="14000.00000"></scales>
<clustering>
<clus scale="   34.144">  1  4  2 -1</clus>
<clus scale="   51.627">  2  5  1 -1</clus>
<clus scale="   93.038">  2  3  1 -1</clus>
<clus scale="   34.144">  1  3  2 -1</clus>
</clustering>
</event>
<event>
 6    0  0.6207838E+002  0.2167372E+03  0.7546771E-02  0.1136339E+00
         21   -1    0    0  504  501  0.00000000000E+00  0.00000000000E+00  0.70740904038E+03  0.70740904038E+03  0.00000000000E+00 0.  1.
         21   -1    0    0  506  502 -0.00000000000E+00 -0.00000000000E+00 -0.51928415900E+03  0.51928415900E+03  0.00000000000E+00 0.  1.
         21    1    1    2  503  505 -0.28411694906E+02 -0.79304042131E+02 -0.86435524757E+02  0.12069571428E+03  0.00000000000E+00 0.  1.
         21    1    1    2  504  502  0.12395570550E+03  0.17651251966E+03  0.64406625949E+03  0.67922237385E+03  0.00000000000E+00 0.  1.
         21    1    1    2  505  501 -0.65358587279E+02 -0.86485355013E+02 -0.78085440066E+02  0.13359939189E+03  0.00000000000E+00 0.  1.
         21    1    1    2  506  503 -0.30185423320E+02 -0.10723122514E+02 -0.29142041329E+03  0.29317571936E+03  0.00000000000E+00 0.  1.
<scales pt_clust_3="32.02582" pt_clust_4="213.67070" pt_clust_5="32.02582" pt_clust_6="32.03350"></scales>
<clustering>
<clus scale="   32.026">  3  5 -1 -1</clus>
<clus scale="   32.034">  2  6  1 -1</clus>
<clus scale="  213.671">  1  4  2 -1</clus>
<clus scale="  213.671">  1  3  2 -1</clus>
</clustering>
</event>
<event>
 6    0  0.6207838E+002  0.2111419E+03  0.7546771E-02  0.1140665E+00
         21   -1    0    0  505  501  0.00000000000E+00  0.00000000000E+00  0.93390518370E+02  0.93390518370E+02  0.00000000000E+00 0. -1.
         21   -1    0    0  506  502 -0.00000000000E+00 -0.00000000000E+00 -0.13543592125E+04  0.13543592125E+04  0.00000000000E+00 0.  1.
         21    1    1    2  503  504 -0.15057815105E+03  0.73181337251E+02 -0.62968567179E+03  0.65156222493E+03  0.00000000000E+00 0.  1.
         21    1    1    2  504  501  0.11595594680E+03 -0.85779467737E+02 -0.20650423288E+03  0.25188865969E+03  0.00000000000E+00 0. -1.
         21    1    1    2  505  502  0.11891769894E+03 -0.80294886310E+00 -0.83505778825E+01  0.11921323752E+03  0.00000000000E+00 0. -1.
         21    1    1    2  506  503 -0.84295494687E+02  0.13401079349E+02 -0.41642821156E+03  0.42508560872E+03  0.00000000000E+00 0.  1.
<scales pt_clust_3="33.13964" pt_clust_4="205.97756" pt_clust_5="118.92041" pt_clust_6="33.13964"></scales>
<clustering>
<clus scale="   33.140">  3  6 -1 -1</clus>
<clus scale="  118.920">  1  5  2 -1</clus>
<clus scale="  205.978">  1  4  2 -1</clus>
<clus scale="  118.920">  1  3  2 -1</clus>
</clustering>
</event>
<event>
 6    0  0.6207838E+002  0.1750633E+03  0.7546771E-02  0.1172668E+00
         21   -1    0    0  503  501  0.00000000000E+00  0.00000000000E+00  0.23394626396E+03  0.23394626396E+03  0.00000000000E+00 0.  1.
         21   -1    0    0  506  502 -0.00000000000E+00 -0.00000000000E+00 -0.61753021253E+03  0.61753021253E+03  0.00000000000E+00 0.  1.
         21    1    1    2  503  504  0.26967054596E+02 -0.91143925221E+02  0.83633201449E+02  0.12660548773E+03  0.00000000000E+00 0.  1.
         21    1    1    2  504  502 -0.10397815895E+02 -0.77233685844E+02  0.37646205846E+02  0.86547060141E+02  0.00000000000E+00 0.  1.
         21    1    1    2  505  501  0.49065199749E+02  0.12122919871E+02  0.42054183281E+02  0.65748865724E+02  0.00000000000E+00 0.  1.
         21    1    1    2  506  505 -0.65634438450E+02  0.15625469119E+03 -0.54691753914E+03  0.57257506290E+03  0.00000000000E+00 0.  1.
<scales pt_clust_3="41.49183" pt_clust_4="41.49183" pt_clust_5="50.54067" pt_clust_6="168.95975"></scales>
<clustering>
<clus scale="   41.492">  3  4 -1 -1</clus>
<clus scale="   50.541">  1  5  2 -1</clus>
<clus scale="  168.960">  2  6  1 -1</clus>
<clus scale="   50.541">  1  3  2 -1</clus>
</clustering>
</event>
<event>
 6    0  0.6207838E+002  0.1203115E+03  0.7546771E-02  0.1242584E+00
         21   -1    0    0  504  501  0.00000000000E+00  0.00000000000E+00  0.19298152469E+03  0.19298152469E+03  0.00000000000E+00 0. -1.
         21   -1    0    0  503  502 -0.00000000000E+00 -0.00000000000E+00 -0.49700720823E+03  0.49700720823E+03  0.00000000000E+00 0. -1.
         21    1    1    2  503  506 -0.37529383159E+02  0.10093790236E+02 -0.41430420241E+02  0.56805095924E+02  0.00000000000E+00 0.  1.
         21    1    1    2  504  505  0.57613321438E+02 -0.79784320403E+02  0.12791676278E+03  0.16139247439E+03  0.00000000000E+00 0. -1.
         21    1    1    2  505  502  0.73383203267E+02 -0.64482702198E+02 -0.11015394883E+03  0.14723113070E+03  0.00000000000E+00 0. -1.
         21    1    1    2  506  501 -0.93467141546E+02  0.13417323237E+03 -0.28035807725E+03  0.32456003191E+03  0.00000000000E+00 0. -1.
<scales pt_clust_3="30.51700" pt_clust_4="102.74435" pt_clust_5="97.68886" pt_clust_6="30.51700"></scales>
<clustering>
<clus scale="   30.517">  3  6 -1 -1</clus>
<clus scale="   97.689">  2  5  1 -1</clus>
<clus scale="  102.744">  1  4  2 -1</clus>
<clus scale="  102.744">  1  3  2 -1</clus>
</clustering>
</event>
<event>
 6    0  0.6207838E+002  0.9358807E+02  0.7546771E-02  0.1294388E+00
         21   -1    0    0  506  501  0.00000000000E+00  0.00000000000E+00  0.10443791558E+03  0.10443791558E+03  0.00000000000E+00 0.  1.
         21   -1    0    0  504  502 -0.00000000000E+00 -0.00000000000E+00 -0.35387521279E+03  0.35387521279E+03  0.00000000000E+00 0. -1.
         21    1    1    2  503  505  0.63340707420E+02  0.35638726307E+02 -0.14992089671E+02  0.74208670531E+02  0.00000000000E+00 0.  1.
         21    1    1    2  504  503  0.40816598512E+02  0.72206742267E+02 -0.11062546145E+03  0.13826713660E+03  0.00000000000E+00 0.  1.
         21    1    1    2  505  501  0.11789523074E+02 -0.56804729528E+02  0.12916295862E+02  0.59435686669E+02  0.00000000000E+00 0.  1.
         21    1    1    2  506  502 -0.11594682901E+03 -0.51040739046E+02 -0.13673604195E+03  0.18640163456E+03  0.00000000000E+00 0. -1.
<scales pt_clust_3="69.33252" pt_clust_4="93.58807" pt_clust_5="58.01526" pt_clust_6="14000.00000"></scales>
<clustering>
<clus scale="   58.015">  1  5  2 -1</clus>
<clus scale="   69.333">  1  3  2 -1</clus>
<clus scale="   93.588">  2  4  1 -1</clus>
<clus scale="   58.015">  1  3  2 -1</clus>
</clustering>
</event>
<event>
 6    0  0.6207838E+002  0.1403287E+03  0.7546771E-02  0.1212887E+00
         21   -1    0    0  506  501  0.00000000000E+00  0.00000000000E+00  0.10455509645E+03  0.10455509645E+03  0.00000000000E+00 0. -1.
         21   -1    0    0  505  502 -0.00000000000E+00 -0.00000000000E+00 -0.10307444351E+04  0.10307444351E+04  0.00000000000E+00 0. -1.
         21    1    1    2  503  501  0.29325630817E+02  0.27609190120E+02  0.42084983079E+02  0.58252946729E+02  0.00000000000E+00 0. -1.
         21    1    1    2  504  503  0.13033509219E+03 -0.11292469446E+03 -0.13900561043E+03  0.22149894493E+03  0.00000000000E+00 0. -1.
         21    1    1    2  505  504 -0.12646894792E+03  0.51871433824E+02 -0.75722140188E+03  0.76946039008E+03  0.00000000000E+00 0. -1.
         21    1    1    2  506  502 -0.33191775092E+02  0.33444070513E+02 -0.72047309393E+02  0.86087249793E+02  0.00000000000E+00 0. -1.
<scales pt_clust_3="40.27729" pt_clust_4="140.32872" pt_clust_5="14000.00000" pt_clust_6="47.26858"></scales>
<clustering>
<clus scale="   40.277">  1  3  2 -1</clus>
<clus scale="   47.269">  1  6  2 -1</clus>
<clus scale="  140.329">  1  4  2 -1</clus>
<clus scale="   40.277">  1  3  2 -1</clus>
</clustering>
</event>
<event>
 6    0  0.6207838E+002  0.9191078E+02  0.7546771E-02  0.1298289E+00
         21   -1    0    0  504  501  0.00000000000E+00  0.00000000000E+00  0.12993596330E+04  0.12993596330E+04  0.00000000000E+00 0.  1.
         21   -1    0    0  503  502 -0.00000000000E+00 -0.00000000000E+00 -0.69592276716E+02  0.69592276716E+02  0.00000000000E+00 0. -1.
         21    1    1    2  503  501  0.71806419886E+01  0.73631547192E+02  0.94976867283E+03  0.95264563099E+03  0.00000000000E+00 0.  1.
         21    1    1    2  504  506 -0.39957692879E+02 -0.87466428488E+01  0.97179918954E+02  0.10543745838E+03  0.00000000000E+00 0. -1.
         21    1    1    2  505  502  0.13406539789E+02  0.80096807729E+02  0.60585497812E+01  0.81436723553E+02  0.00000000000E+00 0. -1.
         21    1    1    2  506  505  0.19370511101E+02 -0.14498171207E+03  0.17676021476E+03  0.22943209684E+03  0.00000000000E+00 0. -1.
<scales pt_clust_3="71.06041" pt_clust_4="40.90380" pt_clust_5="91.91078" pt_clust_6="14000.00000"></scales>
<clustering>
<clus scale="   40.904">  1  4  2 -1</clus>
<clus scale="   71.060">  1  3  2 -1</clus>
<clus scale="   91.911">  2  5  1 -1</clus>
<clus scale="   40.904">  1  3  2 -1</clus>
</clustering>
</event>
<event>
 6    0  0.6207838E+002  0.2152467E+03  0.7546771E-02  0.1137477E+00
         21   -1    0    0  505  501  0.00000000000E+00  0.00000000000E+00  0.24954390652E+03  0.24954390652E+03  0.00000000000E+00 0. -1.
         21   -1    0    0  506  502 -0.00000000000E+00 -0.00000000000E+00 -0.39990937538E+03  0.39990937538E+03  0.00000000000E+00 0. -1.
         21    1    1    2  503  504  0.14628837396E+02  0.10806019441E+03 -0.24774248673E+02  0.11182473741E+03  0.00000000000E+00 0. -1.
         21    1    1    2  504  501 -0.26154263993E+02  0.28633540168E+02  0.13012616090E+03  0.13578196824E+03  0.00000000000E+00 0. -1.
         21    1    1    2  505  502  0.26509392976E+02 -0.22136865162E+03 -0.19892726801E+03  0.29879572587E+03  0.00000000000E+00 0. -1.
         21    1    1    2  506  503 -0.14983966379E+02  0.84674917047E+02 -0.56790113072E+02  0.10305085040E+03  0.00000000000E+00 0. -1.
<scales pt_clust_3="42.98349" pt_clust_4="38.78047" pt_clust_5="209.66476" pt_clust_6="42.98349"></scales>
<clustering>
<clus scale="   38.780">  1  4  2 -1</clus>
<clus scale="   42.983">  3  6 -1 -1</clus>
<clus scale="  209.665">  2  5  1 -1</clus>
<clus scale="   38.780">  1  3  2 -1</clus>
</clustering>
</event>
<event>
 6    0  0.6207838E+002  0.4276364E+03  0.7546771E-02  0.1034609E+00
         21   -1    0    0  504  501  0.00000000000E+00  0.00000000000E+00  0.19944234446E+04  0.19944234446E+04  0.00000000000E+00 0.  1.
         21   -1    0    0  503  502 -0.00000000000E+00 -0.00000000000E+00 -0.15079855943E+03  0.15079855943E+03  0.00000000000E+00 0.  1.
         21    1    1    2  503  506 -0.41940046220E+02 -0.32132891283E+02  0.42748842213E+01  0.53007214737E+02  0.00000000000E+00 0.  1.
         21    1    1    2  504  505  0.39295936605E+03  0.15879984628E+03  0.95295711536E+03  0.10429581575E+04  0.00000000000E+00 0.  1.
         21    1    1    2  505  502  0.41160582638E+02  0.54861852787E+02  0.64090973686E+01  0.68884635321E+02  0.00000000000E+00 0.  1.
         21    1    1    2  506  501 -0.39217990247E+03 -0.18152880779E+03  0.87998378826E+03  0.98037199652E+03  0.00000000000E+00 0.  1.
<scales pt_clust_3="52.83455" pt_clust_4="427.63639" pt_clust_5="56.12742" pt_clust_6="14000.00000"></scales>
<clustering>
<clus scale="   52.835">  2  3  1 -1</clus>
<clus scale="   56.127">  2  5  1 -1</clus>
<clus scale="  427.636">  1  4  2 -1</clus>
<clus scale="  427.636">  1  3  2 -1</clus>
</clustering>
</event>
<event>
 6    0  0.6207838E+002  0.9393165E+02  0.7546771E-02  0.1293601E+00
         21   -1    0    0  505  501  0.00000000000E+00  0.00000000000E+00  0.16613260903E+03  0.16613260903E+03  0.00000000000E+00 0.  1.
         21   -1    0    0  506  502 -0.00000000000E+00 -0.00000000000E+00 -0.30091832119E+03  0.30091832119E+03  0.00000000000E+00 0.  1.
         21    1    1    2  503  504 -0.92383663401E+01  0.63074178196E+02 -0.14808875742E+02  0.65444649655E+02  0.00000000000E+00 0.  1.
         21    1    1    2  504  501 -0.76887038917E+00  0.33030573521E+02  0.44720391189E+02  0.55601468837E+02  0.00000000000E+00 0.  1.
         21    1    1    2  505  502  0.36181357035E+02 -0.13141491607E+03  0.35652628315E+02  0.14089031432E+03  0.00000000000E+00 0.  1.
         21    1    1    2  506  503 -0.26174120306E+02  0.35310164357E+02 -0.20034985591E+03  0.20511449740E+03  0.00000000000E+00 0.  1.
<scales pt_clust_3="93.93165" pt_clust_4="33.03952" pt_clust_5="14000.00000" pt_clust_6="44.50952"></scales>
<clustering>
<clus scale="   33.040">  1  4  2 -1</clus>
<clus scale="   44.510">  2  6  1 -1</clus>
<clus scale="   93.932">  2  3  1 -1</clus>
<clus scale="   33.040">  1  3  2 -1</clus>
</clustering>
</event>
<event>
 6    0  0.6207838E+002  0.1253849E+03  0.7546771E-02  0.1234469E+00
         21   -1    0    0  502  501  0.00000000000E+00  0.00000000000E+00  0.67619708424E+02  0.67619708424E+02  0.00000000000E+00 0.  1.
         21   -1    0    0  504  502 -0.00000000000E+00 -0.00000000000E+00 -0.55163506669E+03  0.55163506669E+03  0.00000000000E+00 0.  1.
         21    1    1    2  503  506 -0.45251933572E+02 -0.10914279826E+02 -0.11782031757E+03  0.12668262008E+03  0.00000000000E+00 0.  1.
         21    1    1    2  504  503 -0.15312722305E+02  0.29141442528E+02 -0.26081615422E+03  0.26288546829E+03  0.00000000000E+00 0.  1.
         21    1    1    2  505  501  0.12081137657E+03 -0.31373123484E+02 -0.23218301307E+02  0.12695964360E+03  0.00000000000E+00 0.  1.
         21    1    1    2  506  505 -0.60246720697E+02  0.13145960782E+02 -0.82160585171E+02  0.10272704315E+03  0.00000000000E+00 0.  1.
<scales pt_clust_3="33.57810" pt_clust_4="32.91965" pt_clust_5="119.24722" pt_clust_6="33.57810"></scales>
<clustering>
<clus scale="   32.920">  2  4  1 -1</clus>
<clus scale="   33.578">  3  6 -1 -1</clus>
<clus scale="  119.247">  1  5  2 -1</clus>
<clus scale="  119.247">  1  3  2 -1</clus>
</clustering>
</event>
<event>
 6    0  0.6207838E+002  0.1898072E+03  0.7546771E-02  0.1158635E+00
         21   -1    0    0  504  501  0.00000000000E+00  0.00000000000E+00  0.33531691030E+03  0.33531691030E+03  0.00000000000E+00 0.  1.
         21   -1    0    0  505  502 -0.00000000000E+00 -0.00000000000E+00 -0.43451774684E+03  0.43451774684E+03  0.00000000000E+00 0.  1.
         21    1    1    2  503  502  0.98230752304E+02  0.15758110412E+03 -0.26419107278E+02  0.18756080162E+03  0.00000000000E+00 0.  1.
         21    1    1    2  504  503 -0.36128857840E+02  0.60027682275E+02  0.30354928587E+01  0.70127250231E+02  0.00000000000E+00 0. -1.
         21    1    1    2  505  506 -0.16255585706E+03 -0.11081550589E+03 -0.22778540685E+03  0.30098284766E+03  0.00000000000E+00 0.  1.
         21    1    1    2  506  501  0.10045396260E+03 -0.10679328051E+03  0.15196818474E+03  0.21116375763E+03  0.00000000000E+00 0.  1.
<scales pt_clust_3="14000.00000" pt_clust_4="70.06152" pt_clust_5="189.80723" pt_clust_6="105.38016"></scales>
<clustering>
<clus scale="   70.062">  1  4  2 -1</clus>
<clus scale="  105.380">  1  6  2 -1</clus>
<clus scale="  189.807">  2  5  1 -1</clus>
<clus scale="   70.062">  1  3  2 -1</clus>
</clustering>
</event>
<event>
 6    0  0.6207838E+002  0.1485662E+03  0.7546771E-02  0.1202246E+00
         21   -1    0    0  506  501  0.00000000000E+00  0.00000000000E+00  0.78729302907E+03  0.78729302907E+03  0.00000000000E+00 0.  1.
         21   -1    0    0  503  502 -0.00000000000E+00 -0.00000000000E+00 -0.26630381113E+03  0.26630381113E+03  0.00000000000E+00 0.  1.
         21    1    1    2  503  501  0.32801284978E+01  0.52137393048E+02  0.64818211125E+03  0.65028387366E+03  0.00000000000E+00 0.  1.
         21    1    1    2  504  505  0.63811093467E+01  0.64133395034E+02  0.49303054253E+02  0.81145561024E+02  0.00000000000E+00 0.  1.
         21    1    1    2  505  502  0.24215499352E+02 -0.14674744112E+03 -0.21573297050E+03  0.26203418946E+03  0.00000000000E+00 0.  1.
         21    1    1    2  506  504 -0.33876737196E+02  0.30476653040E+02  0.39237022940E+02  0.60133216052E+02  0.00000000000E+00 0.  1.
<scales pt_clust_3="52.24047" pt_clust_4="41.30692" pt_clust_5="140.20931" pt_clust_6="41.30692"></scales>
<clustering>
<clus scale="   41.307">  4  6 -1 -1</clus>
<clus scale="   52.240">  1  3  2 -1</clus>
<clus scale="  140.209">  2  5  1 -1</clus>
<clus scale="   52.240">  1  3  2 -1</clus>
</clustering>
</event>
<event>
 6    0  0.6207838E+002  0.1207454E+03  0.7546771E-02  0.1241872E+00
         21   -1    0    0  506  501  0.00000000000E+00  0.00000000000E+00  0.43905697145E+03  0.43905697145E+03  0.00000000000E+00 0. -1.
         21   -1    0    0  505  502 -0.00000000000E+00 -0.00000000000E+00 -0.17547783208E+03  0.17547783208E+03  0.00000000000E+00 0. -1.
         21    1    1    2  503  502 -0.52744887880E+02 -0.56581148927E+02 -0.10440263248E+03  0.12993598147E+03  0.00000000000E+00 0. -1.
         21    1    1    2  504  503 -0.11013382824E+03 -0.10591804502E+02  0.16335636020E+03  0.19729913042E+03  0.00000000000E+00 0. -1.
         21    1    1    2  505  501  0.15241505179E+03  0.34117246183E+02  0.12363030597E+03  0.19919534897E+03  0.00000000000E+00 0. -1.
         21    1    1    2  506  504  0.10463664333E+02  0.33055707246E+02  0.80995105677E+02  0.88104342665E+02  0.00000000000E+00 0.  1.
<scales pt_clust_3="76.22695" pt_clust_4="120.74541" pt_clust_5="14000.00000" pt_clust_6="34.67230"></scales>
<clustering>
<clus scale="   34.672">  1  6  2 -1</clus>
<clus scale="   76.227">  2  3  1 -1</clus>
<clus scale="  120.745">  1  4  2 -1</clus>
<clus scale="   34.672">  1  3  2 -1</clus>
</clustering>
</event>
<event>
 6    0  0.6207838E+002  0.1611119E+03  0.7546771E-02  0.1187447E+00
         21   -1    0    0  504  501  0.00000000000E+00  0.00000000000E+00  0.24160902265E+03  0.24160902265E+03  0.00000000000E+00 0.  1.
         21   -1    0    0  506  502 -0.00000000000E+00 -0.00000000000E+00 -0.69240769056E+03  0.69240769056E+03  0.00000000000E+00 0.  1.
         21    1    1    2  503  502 -0.62681271049E+02  0.47898039028E+02 -0.26460938775E+03  0.27611825722E+03  0.00000000000E+00 0.  1.
         21    1    1    2  504  503  0.14250662228E+03 -0.16177649859E+03 -0.22912071488E+03  0.31460463264E+03  0.00000000000E+00 0.  1.
         21    1    1    2  505  501 -0.34387553060E+02 -0.10223707161E+02  0.16168606242E+03  0.16561826824E+03  0.00000000000E+00 0.  1.
         21    1    1    2  506  505 -0.45437798171E+02  0.12410216672E+03 -0.11875462769E+03  0.17767555511E+03  0.00000000000E+00 0.  1.
<scales pt_clust_3="80.47419" pt_clust_4="161.11189" pt_clust_5="35.87517" pt_clust_6="14000.00000"></scales>
<clustering>
<clus scale="   35.875">  1  5  2 -1</clus>
<clus scale="   80.474">  2  3  1 -1</clus>
<clus scale="  161.112">  2  4  1 -1</clus>
<clus scale="   35.875">  1  3  2 -1</clus>
</clustering>
</event>
<event>
 6    0  0.6207838E+002  0.1212588E+03  0.7546771E-02  0.1241035E+00
         21   -1    0    0  506  501  0.00000000000E+00  0.00000000000E+00  0.36384685443E+03  0.36384685443E+03  0.00000000000E+00 0.  1.
         21   -1    0    0  505  502 -0.00000000000E+00 -0.00000000000E+00 -0.60028640895E+02  0.60028640895E+02  0.00000000000E+00 0.  1.
         21    1    1    2  503  502 -0.10128579757E+03  0.16885092964E+02  0.57390119299E+02  0.11763309461E+03  0.00000000000E+00 0.  1.
         21    1    1    2  504  501  0.63722737548E+02 -0.11085683286E+02  0.10008004910E+03  0.11916163763E+03  0.00000000000E+00 0.  1.
         21    1    1    2  505  504  0.47707937258E+02 -0.37552807115E+02  0.33355637958E+02  0.69273798678E+02  0.00000000000E+00 0.  1.
         21    1    1    2  506  503 -0.10144877232E+02  0.31753397437E+02  0.11299240718E+03  0.11780696441E+03  0.00000000000E+00 0.  1.
<scales pt_clust_3="108.55116" pt_clust_4="52.10510" pt_clust_5="52.10510" pt_clust_6="33.33462"></scales>
<clustering>
<clus scale="   33.335">  1  6  2 -1</clus>
<clus scale="   52.105">  4  5 -1 -1</clus>
<clus scale="  108.551">  2  3  1 -1</clus>
<clus scale="   33.335">  1  3  2 -1</clus>
</clustering>
</event>
<event>
 6    0  0.6207838E+002  0.1947860E+03  0.7546771E-02  0.1154214E+00
         21   -1    0    0  504  501  0.00000000000E+00  0.00000000000E+00  0.12143382075E+04  0.12143382075E+04  0.00000000000E+00 0. -1.
         21   -1    0    0  505  502 -0.00000000000E+00 -0.00000000000E+00 -0.26978853179E+03  0.26978853179E+03  0.00000000000E+00 0.  1.
         21    1    1    2  503  502 -0.22100024371E+02 -0.72902901405E+02  0.33792491556E+03  0.34640509907E+03  0.00000000000E+00 0. -1.
         21    1    1    2  504  506 -0.97887668868E+01 -0.33425049191E+02  0.44861535129E+03  0.44996531787E+03  0.00000000000E+00 0. -1.
         21    1    1    2  505  501  0.20238590790E+02  0.17508186010E+03 -0.23211654410E+03  0.29144699061E+03  0.00000000000E+00 0.  1.
         21    1    1    2  506  503  0.11650200468E+02 -0.68753909501E+02  0.39012595292E+03  0.39630933169E+03  0.00000000000E+00 0.  1.
<scales pt_clust_3="52.37244" pt_clust_4="33.52124" pt_clust_5="176.24772" pt_clust_6="52.37244"></scales>
<clustering>
<clus scale="   33.521">  4  6 -1 -1</clus>
<clus scale="   52.372">  3  4 -1 -1</clus>
<clus scale="  176.248">  2  5  1 -1</clus>
<clus scale="  194.786">  1  3  2 -1</clus>
</clustering>
</event>
<event>
 6    0  0.6207838E+002  0.1166665E+03  0.7546771E-02  0.1248700E+00
         21   -1    0    0  503  501  0.00000000000E+00  0.00000000000E+00  0.37993128096E+02  0.37993128096E+02  0.00000000000E+00 0.  1.
         21   -1    0    0  505  502 -0.00000000000E+00 -0.00000000000E+00 -0.16285762824E+04  0.16285762824E+04  0.00000000000E+00 0.  1.
         21    1    1    2  503  506 -0.30432366583E+02 -0.46974961072E+02  0.31167947785E+01  0.56057919273E+02  0.00000000000E+00 0.  1.
         21    1    1    2  504  501  0.43738548571E+02  0.47559603988E+02 -0.45313530932E+03  0.45771889311E+03  0.00000000000E+00 0.  1.
         21    1    1    2  505  504  0.61928491557E+02  0.14826547996E+02 -0.84560589944E+03  0.84800017792E+03  0.00000000000E+00 0.  1.
         21    1    1    2  506  502 -0.75234673545E+02 -0.15411190912E+02 -0.29495874036E+03  0.30479242022E+03  0.00000000000E+00 0.  1.
<scales pt_clust_3="55.97121" pt_clust_4="55.41568" pt_clust_5="55.41568" pt_clust_6="102.44541"></scales>
<clustering>
<clus scale="   55.416">  4  5 -1 -1</clus>
<clus scale="   55.971">  1  3  2 -1</clus>
<clus scale="  102.445">  1  6  2 -1</clus>
<clus scale="   55.971">  1  3  2 -1</clus>
</clustering>
</event>
<event>
 6    0  0.6207838E+002  0.1511521E+03  0.7546771E-02  0.1199064E+00
         21   -1    0    0  503  501  0.00000000000E+00  0.00000000000E+00  0.21354781069E+03  0.21354781069E+03  0.00000000000E+00 0.  1.
         21   -1    0    0  504  502 -0.00000000000E+00 -0.00000000000E+00 -0.11187114827E+04  0.11187114827E+04  0.00000000000E+00 0.  1.
         21    1    1    2  503  505 -0.99797833531E+02  0.68368512269E+02  0.16607355335E+03  0.20546115489E+03  0.00000000000E+00 0.  1.
         21    1    1    2  504  506  0.29443087111E+02  0.25486227667E+02 -0.47854684610E+02  0.61696953073E+02  0.00000000000E+00 0. -1.
         21    1    1    2  505  502  0.71264890891E+02 -0.14130476248E+03 -0.99953797783E+03  0.10119890759E+04  0.00000000000E+00 0.  1.
         21    1    1    2  506  501 -0.91014447061E+00  0.47450022541E+02 -0.23844562965E+02  0.53112109590E+02  0.00000000000E+00 0. -1.
<scales pt_clust_3="151.15211" pt_clust_4="38.94154" pt_clust_5="14000.00000" pt_clust_6="48.37201"></scales>
<clustering>
<clus scale="   38.942">  2  4  1 -1</clus>
<clus scale="   48.372">  1  6  2 -1</clus>
<clus scale="  151.152">  1  3  2 -1</clus>
<clus scale="   48.372">  1  3  2 -1</clus>
</clustering>
</event>
<event>
 6    0  0.6207838E+002  0.1633292E+03  0.7546771E-02  0.1184989E+00
         21   -1    0    0  503  501  0.00000000000E+00  0.00000000000E+00  0.15993999640E+03  0.15993999640E+03  0.00000000000E+00 0. -1.
         21   -1    0    0  504  502 -0.00000000000E+00 -0.00000000000E+00 -0.78694822665E+03  0.78694822665E+03  0.00000000000E+00 0. -1.
         21    1    1    2  503  506  0.20997858166E+02  0.92383323484E+02  0.91114748174E+02  0.13144385052E+03  0.00000000000E+00 0. -1.
         21    1    1    2  504  505  0.69695206888E+02 -0.15482957914E+03 -0.18761749733E+03  0.25304139137E+03  0.00000000000E+00 0. -1.
         21    1    1    2  505  501 -0.26243953753E+02 -0.43822537948E+02 -0.78769946305E+02  0.93882183516E+02  0.00000000000E+00 0. -1.
         21    1    1    2  506  502 -0.64449111301E+02  0.10626879361E+03 -0.45173553478E+03  0.46852079765E+03  0.00000000000E+00 0. -1.
<scales pt_clust_3="94.73958" pt_clust_4="49.18980" pt_clust_5="49.18980" pt_clust_6="136.50426"></scales>
<clustering>
<clus scale="   49.190">  4  5 -1 -1</clus>
<clus scale="   94.740">  1  3  2 -1</clus>
<clus scale="  136.504">  2  6  1 -1</clus>
<clus scale="   94.740">  1  3  2 -1</clus>
</clustering>
</event>
<event>
 6    0  0.6207838E+002  0.1939792E+03  0.7546771E-02  0.1154921E+00
         21   -1    0    0  503  501  0.00000000000E+00  0.00000000000E+00  0.33554294326E+03  0.33554294326E+03  0.00000000000E+00 0. -1.
         21   -1    0    0  506  502 -0.00000000000E+00 -0.00000000000E+00 -0.18588456692E+03  0.18588456692E+03  0.00000000000E+00 0.  1.
         21    1    1    2  503  504 -0.31377706077E+02  0.81762919412E+02  0.54586948796E+02  0.10319627129E+03  0.00000000000E+00 0. -1.
         21    1    1    2  504  505 -0.91236070276E+02 -0.30314089958E+02  0.47350462889E+01  0.96256871094E+02  0.00000000000E+00 0.  1.
         21    1    1    2  505  502 -0.87619344122E+02  0.55354793137E+01  0.46808515583E+01  0.87918720230E+02  0.00000000000E+00 0.  1.
         21    1    1    2  506  501  0.21023312048E+03 -0.56984308768E+02  0.85655529701E+02  0.23405564757E+03  0.00000000000E+00 0. -1.
<scales pt_clust_3="87.57703" pt_clust_4="33.49743" pt_clust_5="33.49743" pt_clust_6="190.78569"></scales>
<clustering>
<clus scale="   33.497">  4  5 -1 -1</clus>
<clus scale="   87.577">  1  3  2 -1</clus>
<clus scale="  190.786">  1  6  2 -1</clus>
<clus scale="   87.577">  1  3  2 -1</clus>
</clustering>
</event>
<event>
 6    0  0.6207838E+002  0.1141798E+03  0.7546771E-02  0.1253020E+00
         21   -1    0    0  503  501  0.00000000000E+00  0.00000000000E+00  0.15214663322E+03  0.15214663322E+03  0.00000000000E+00 0.  1.
         21   -1    0    0  504  502 -0.00000000000E+00 -0.00000000000E+00 -0.16730623730E+04  0.16730623730E+04  0.00000000000E+00 0. -1.
         21    1    1    2  503  506  0.88256279377E+02 -0.59600445589E+02  0.12600242126E+03  0.16497876872E+03  0.00000000000E+00 0.  1.
         21    1    1    2  504  505 -0.21780801750E+02  0.46887669760E+02 -0.64470227972E+03  0.64677189671E+03  0.00000000000E+00 0. -1.
         21    1    1    2  505  501 -0.74484237168E+02  0.45515932014E+02 -0.92590438141E+03  0.93000995971E+03  0.00000000000E+00 0. -1.
         21    1    1    2  506  502  0.80087595406E+01 -0.32803156185E+02 -0.76311499900E+02  0.83448381063E+02  0.00000000000E+00 0. -1.
<scales pt_clust_3="106.80204" pt_clust_4="31.07435" pt_clust_5="31.07435" pt_clust_6="33.76666"></scales>
<clustering>
<clus scale="   31.074">  4  5 -1 -1</clus>
<clus scale="   33.767">  2  6  1 -1</clus>
<clus scale="  106.802">  1  3  2 -1</clus>
<clus scale="  106.802">  1  3  2 -1</clus>
</clustering>
</event>
<event>
 6    0  0.6207838E+002  0.1128788E+03  0.7546771E-02  0.1255330E+00
         21   -1    0    0  503  501  0.00000000000E+00  0.00000000000E+00  0.95648754465E+03  0.95648754465E+03  0.00000000000E+00 0. -1.
         21   -1    0    0  505  502 -0.00000000000E+00 -0.00000000000E+00 -0.74442746890E+02  0.74442746890E+02  0.00000000000E+00 0. -1.
         21    1    1    2  503  502  0.13822693520E+03 -0.12542894415E+03  0.16941301957E+03  0.25207117417E+03  0.00000000000E+00 0. -1.
         21    1    1    2  504  501 -0.98105078459E+02  0.39746780419E+02  0.61406175071E+03  0.62311816429E+03  0.00000000000E+00 0. -1.
         21    1    1    2  505  506  0.16785860136E+02  0.46651528332E+02  0.27561544976E+02  0.56725381953E+02  0.00000000000E+00 0.  1.
         21    1    1    2  506  504 -0.56907716876E+02  0.39030635404E+02  0.71008482496E+02  0.99015571131E+02  0.00000000000E+00 0.  1.
<scales pt_clust_3="14000.00000" pt_clust_4="112.87880" pt_clust_5="49.57953" pt_clust_6="72.81062"></scales>
<clustering>
<clus scale="   49.580">  2  5  1 -1</clus>
<clus scale="   72.811">  2  6  1 -1</clus>
<clus scale="  112.879">  1  4  2 -1</clus>
<clus scale="  112.879">  1  3  2 -1</clus>
</clustering>
</event>
<event>
 6    0  0.6207838E+002  0.1734884E+03  0.7546771E-02  0.1174258E+00
         21   -1    0    0  505  501  0.00000000000E+00  0.00000000000E+00  0.27979170826E+03  0.27979170826E+03  0.00000000000E+00 0.  1.
         21   -1    0    0  506  502 -0.00000000000E+00 -0.00000000000E+00 -0.55622818150E+03  0.55622818150E+03  0.00000000000E+00 0.  1.
         21    1    1    2  503  504 -0.35640613309E+02  0.85714251091E+02 -0.69091410233E+02  0.11571866369E+03  0.00000000000E+00 0.  1.
         21    1    1    2  504  502 -0.81330415885E+02  0.11185771495E+03 -0.14931152432E+03  0.20352080050E+03  0.00000000000E+00 0.  1.
         21    1    1    2  505  503  0.71090361281E+02 -0.14621090004E+03  0.19538034769E+03  0.25417503226E+03  0.00000000000E+00 0.  1.
         21    1    1    2  506  501  0.45880667913E+02 -0.51361065997E+02 -0.25341388638E+03  0.26260539331E+03  0.00000000000E+00 0.  1.
<scales pt_clust_3="31.69968" pt_clust_4="31.69968" pt_clust_5="169.11870" pt_clust_6="68.86940"></scales>
<clustering>
<clus scale="   31.700">  3  4 -1 -1</clus>
<clus scale="   68.869">  2  6  1 -1</clus>
<clus scale="  169.119">  1  5  2 -1</clus>
<clus scale="  169.119">  1  3  2 -1</clus>
</clustering>
</event>
<event>
 6    0  0.6207838E+002  0.1066417E+03  0.7546771E-02  0.1266918E+00
         21   -1    0    0  506  501  0.00000000000E+00  0.00000000000E+00  0.56946996526E+03  0.56946996526E+03  0.00000000000E+00 0.  1.
         21   -1    0    0  504  502 -0.00000000000E+00 -0.00000000000E+00 -0.32302930091E+03  0.32302930091E+03  0.00000000000E+00 0.  1.
         21    1    1    2  503  502  0.47380286623E+02 -0.35333499279E+02 -0.80744216477E+02  0.10006486010E+03  0.00000000000E+00 0. -1.
         21    1    1    2  504  505  0.83081069654E+01  0.11102625639E+03 -0.12846948532E+03  0.17000077325E+03  0.00000000000E+00 0.  1.
         21    1    1    2  505  501  0.16893067034E+02  0.26798523690E+02  0.49095662454E+03  0.49197758461E+03  0.00000000000E+00 0.  1.
         21    1    1    2  506  503 -0.72581460622E+02 -0.10249128080E+03 -0.35302258397E+02  0.13045604821E+03  0.00000000000E+00 0.  1.
<scales pt_clust_3="58.92755" pt_clust_4="14000.00000" pt_clust_5="31.67865" pt_clust_6="106.64172"></scales>
<clustering>
<clus scale="   31.679">  1  5  2 -1</clus>
<clus scale="   58.928">  2  3  1 -1</clus>
<clus scale="  106.642">  1  6  2 -1</clus>
<clus scale="   31.679">  1  3  2 -1</clus>
</clustering>
</event>
<event>
 6    0  0.6207838E+002  0.2299911E+03  0.7546771E-02  0.1126646E+00
         21   -1    0    0  506  501  0.00000000000E+00  0.00000000000E+00  0.86065134313E+03  0.86065134313E+03  0.00000000000E+00 0. -1.
         21   -1    0    0  503  502 -0.00000000000E+00 -0.00000000000E+00 -0.18346159655E+03  0.18346159655E+03  0.00000000000E+00 0. -1.
         21    1    1    2  503  504  0.13646042002E+02 -0.28574112222E+02  0.15866360938E+02  0.35418014639E+02  0.00000000000E+00 0.  1.
         21    1    1    2  504  501 -0.11376260843E+03 -0.21114663235E+03  0.56144129332E+03  0.61052531256E+03  0.00000000000E+00 0. -1.
         21    1    1    2  505  502 -0.28899859862E+02  0.70869551705E+02 -0.86510811267E+02  0.11550677783E+03  0.00000000000E+00 0. -1.
         21    1    1    2  506  505  0.12901642629E+03  0.16885119286E+03  0.18639290360E+03  0.28266283466E+03  0.00000000000E+00 0. -1.
<scales pt_clust_3="31.66535" pt_clust_4="229.99109" pt_clust_5="58.16150" pt_clust_6="14000.00000"></scales>
<clustering>
<clus scale="   31.665">  2  3  1 -1</clus>
<clus scale="   58.162">  2  5  1 -1</clus>
<clus scale="  229.991">  1  4  2 -1</clus>
<clus scale="  229.991">  1  3  2 -1</clus>
</clustering>
</event>
<event>
 6    0  0.6207838E+002  0.1010558E+03  0.7546771E-02  0.1278091E+00
         21   -1    0    0  504  501  0.00000000000E+00  0.00000000000E+00  0.23279294345E+04  0.23279294345E+04  0.00000000000E+00 0.  1.
         21   -1    0    0  505  502 -0.00000000000E+00 -0.00000000000E+00 -0.10960435785E+03  0.10960435785E+03  0.00000000000E+00 0. -1.
         21    1    1    2  503  506 -0.44957133225E+02  0.13038025220E+03  0.10509261307E+02  0.13831340703E+03  0.00000000000E+00 0. -1.
         21    1    1    2  504  502  0.24932789811E+02 -0.19122905156E+02  0.41137940147E+02  0.51765428897E+02  0.00000000000E+00 0. -1.
         21    1    1    2  505  503  0.24873525398E+02 -0.69264929151E+02 -0.64851476049E+01  0.73880848773E+02  0.00000000000E+00 0. -1.
         21    1    1    2  506  501 -0.48491819839E+01 -0.41992417892E+02  0.21731630228E+04  0.21735741077E+04  0.00000000000E+00 0.  1.
<scales pt_clust_3="14000.00000" pt_clust_4="31.42180" pt_clust_5="101.05576" pt_clust_6="42.30331"></scales>
<clustering>
<clus scale="   31.422">  2  4  1 -1</clus>
<clus scale="   42.303">  1  6  2 -1</clus>
<clus scale="  101.056">  2  5  1 -1</clus>
<clus scale="   42.303">  1  3  2 -1</clus>
</clustering>
</event>
<event>
 6    0  0.6207838E+002  0.1361049E+03  0.7546771E-02  0.1218668E+00
         21   -1    0    0  503  501  0.00000000000E+00  0.00000000000E+00  0.15805653002E+03  0.15805653002E+03  0.00000000000E+00 0. -1.
         21   -1    0    0  505  502 -0.00000000000E+00 -0.00000000000E+00 -0.31166160457E+03  0.31166160457E+03  0.00000000000E+00 0.  1.
         21    1    1    2  503  504 -0.32523953746E+02  0.29635233381E+02 -0.31930395380E+01  0.44116324941E+02  0.00000000000E+00 0. -1.
         21    1    1    2  504  502  0.93836024651E+02  0.84154166736E+02 -0.13269735639E+03  0.18301833704E+03  0.00000000000E+00 0.  1.
         21    1    1    2  505  506 -0.11443498476E+03 -0.10740752135E+03 -0.66240288723E+02  0.17035115858E+03  0.00000000000E+00 0. -1.
         21    1    1    2  506  501  0.53122913858E+02 -0.63818787674E+01  0.48525610102E+02  0.72232314023E+02  0.00000000000E+00 0. -1.
<scales pt_clust_3="44.00062" pt_clust_4="14000.00000" pt_clust_5="136.10485" pt_clust_6="39.41126"></scales>
<clustering>
<clus scale="   44.001">  1  3  2 -1</clus>
<clus scale="   39.411">  1  6  2 -1</clus>
<clus scale="  136.105">  1  5  2 -1</clus>
<clus scale="   44.001">  1  3  2 -1</clus>
</clustering>
</event>
<event>
 6    0  0.6207838E+002  0.1011079E+03  0.7546771E-02  0.1277983E+00
         21   -1    0    0  502  501  0.00000000000E+00  0.00000000000E+00  0.46129809336E+03  0.46129809336E+03  0.00000000000E+00 0. -1.
         21   -1    0    0  503  502 -0.00000000000E+00 -0.00000000000E+00 -0.98953024944E+02  0.98953024944E+02  0.00000000000E+00 0. -1.
         21    1    1    2  503  505 -0.66778038104E+02 -0.43917650737E+02 -0.29052813778E+02  0.85041944990E+02  0.00000000000E+00 0. -1.
         21    1    1    2  504  506  0.71328531246E+02  0.27127941680E+02  0.52487750168E+02  0.92620993880E+02  0.00000000000E+00 0. -1.
         21    1    1    2  505  504  0.30280324969E+02  0.51463650215E+02  0.24800009638E+02  0.64656367449E+02  0.00000000000E+00 0. -1.
         21    1    1    2  506  501 -0.34830818111E+02 -0.34673941158E+02  0.31411012239E+03  0.31793181199E+03  0.00000000000E+00 0. -1.
<scales pt_clust_3="89.22467" pt_clust_4="42.06804" pt_clust_5="42.06804" pt_clust_6="49.14741"></scales>
<clustering>
<clus scale="   42.068">  4  5 -1 -1</clus>
<clus scale="   49.147">  1  6  2 -1</clus>
<clus scale="   89.225">  2  3  1 -1</clus>
<clus scale="   49.147">  1  3  2 -1</clus>
</clustering>
</event>
<event>
 6    0  0.6207838E+002  0.8192181E+02  0.7546771E-02  0.1323684E+00
         21   -1    0    0  506  501  0.00000000000E+00  0.00000000000E+00  0.90760605439E+03  0.90760605439E+03  0.00000000000E+00 0.  1.
         21   -1    0    0  503  502 -0.00000000000E+00 -0.00000000000E+00 -0.26043528583E+03  0.26043528583E+03  0.00000000000E+00 0. -1.
         21    1    1    2  503  504  0.31117843253E+02  0.50871486390E+02  0.46884261421E+02  0.75857512912E+02  0.00000000000E+00 0.  1.
         21    1    1    2  504  501  0.46248219482E+02  0.48260374861E+02  0.11357492434E+03  0.13178476781E+03  0.00000000000E+00 0.  1.
         21    1    1    2  505  502 -0.56957129258E+02 -0.41367458932E+02 -0.23027778052E+03  0.24079708767E+03  0.00000000000E+00 0. -1.
         21    1    1    2  506  505 -0.20408933476E+02 -0.57764402318E+02  0.71698936332E+03  0.71960197182E+03  0.00000000000E+00 0.  1.
<scales pt_clust_3="37.25286" pt_clust_4="37.25286" pt_clust_5="71.80286" pt_clust_6="61.26378"></scales>
<clustering>
<clus scale="   37.253">  3  4 -1 -1</clus>
<clus scale="   61.264">  1  6  2 -1</clus>
<clus scale="   71.803">  2  5  1 -1</clus>
<clus scale="   61.264">  1  3  2 -1</clus>
</clustering>
</event>
<event>
 6    0  0.6207838E+002  0.9661519E+02  0.7546771E-02  0.1287579E+00
         21   -1    0    0  506  501  0.00000000000E+00  0.00000000000E+00  0.16668445026E+03  0.16668445026E+03  0.00000000000E+00 0. -1.
         21   -1    0    0  503  502 -0.00000000000E+00 -0.00000000000E+00 -0.85994875470E+03  0.85994875470E+03  0.00000000000E+00 0. -1.
         21    1    1    2  503  504 -0.99242474241E+02 -0.12405442939E+02 -0.65805532083E+03  0.66561232634E+03  0.00000000000E+00 0. -1.
         21    1    1    2  504  501 -0.29133337373E+02 -0.23782327484E+02 -0.11489415395E+03  0.12089258480E+03  0.00000000000E+00 0. -1.
         21    1    1    2  505  502  0.53264774041E+02  0.20867651590E+02 -0.58677650902E+02  0.81949141252E+02  0.00000000000E+00 0. -1.
         21    1    1    2  506  505  0.75111037572E+02  0.15320118832E+02  0.13836282124E+03  0.15817915257E+03  0.00000000000E+00 0. -1.
<scales pt_clust_3="35.48758" pt_clust_4="35.48758" pt_clust_5="57.20660" pt_clust_6="77.36481"></scales>
<clustering>
<clus scale="   35.488">  3  4 -1 -1</clus>
<clus scale="   57.207">  2  5  1 -1</clus>
<clus scale="   77.365">  1  6  2 -1</clus>
<clus scale="   77.365">  1  3  2 -1</clus>
</clustering>
</event>
<event>
 6    0  0.6207838E+002  0.1465205E+03  0.7546771E-02  0.1204815E+00
         21   -1    0    0  504  501  0.00000000000E+00  0.00000000000E+00  0.36798282019E+03  0.36798282019E+03  0.00000000000E+00 0.  1.
         21   -1    0    0  505  502 -0.00000000000E+00 -0.00000000000E+00 -0.20200837856E+03  0.20200837856E+03  0.00000000000E+00 0.  1.
         21    1    1    2  503  502 -0.40012138654E+02  0.13829871869E+03 -0.14739628662E+03  0.20604167574E+03  0.00000000000E+00 0.  1.
         21    1    1    2  504  506  0.73777980680E+01 -0.50413869371E+02  0.19530312395E+03  0.20183978883E+03  0.00000000000E+00 0.  1.
         21    1    1    2  505  501 -0.99178967250E+00 -0.57592418877E+02  0.34689642061E+02  0.67240178652E+02  0.00000000000E+00 0.  1.
         21    1    1    2  506  503  0.33626130258E+02 -0.30292430440E+02  0.83377962247E+02  0.94869555531E+02  0.00000000000E+00 0.  1.
<scales pt_clust_3="138.88769" pt_clust_4="43.98958" pt_clust_5="57.60096" pt_clust_6="43.98958"></scales>
<clustering>
<clus scale="   43.990">  4  6 -1 -1</clus>
<clus scale="   57.601">  1  5  2 -1</clus>
<clus scale="  138.888">  2  3  1 -1</clus>
<clus scale="   57.601">  1  3  2 -1</clus>
</clustering>
</event>
<event>
 6    0  0.6207838E+002  0.1199865E+03  0.7546771E-02  0.1243119E+00
         21   -1    0    0  505  501  0.00000000000E+00  0.00000000000E+00  0.42304783214E+03  0.42304783214E+03  0.00000000000E+00 0.  1.
         21   -1    0    0  504  502 -0.00000000000E+00 -0.00000000000E+00 -0.98203529140E+02  0.98203529140E+02  0.00000000000E+00 0.  1.
         21    1    1    2  503  501  0.23037314098E+02 -0.68851330195E+02  0.10188093679E+03  0.12510375211E+03  0.00000000000E+00 0.  1.
         21    1    1    2  504  503 -0.21336183067E+02 -0.96078651258E+02 -0.17021351364E+02  0.99880260000E+02  0.00000000000E+00 0.  1.
         21    1    1    2  505  506 -0.24041716957E+02  0.47405492819E+02  0.60063314029E+02  0.80205277855E+02  0.00000000000E+00 0.  1.
         21    1    1    2  506  502  0.22340585926E+02  0.11752448863E+03  0.17992140355E+03  0.21606207132E+03  0.00000000000E+00 0.  1.
<scales pt_clust_3="72.60319" pt_clust_4="106.86379" pt_clust_5="36.36874" pt_clust_6="36.36874"></scales>
<clustering>
<clus scale="   36.369">  5  6 -1 -1</clus>
<clus scale="   72.603">  1  3  2 -1</clus>
<clus scale="  106.864">  2  4  1 -1</clus>
<clus scale="   72.603">  1  3  2 -1</clus>
</clustering>
</event>
<event>
 6    0  0.6207838E+002  0.2139510E+03  0.7546771E-02  0.1138475E+00
         21   -1    0    0  503  501  0.00000000000E+00  0.00000000000E+00  0.70231033580E+03  0.70231033580E+03  0.00000000000E+00 0.  1.
         21   -1    0    0  506  502 -0.00000000000E+00 -0.00000000000E+00 -0.21479502570E+03  0.21479502570E+03  0.00000000000E+00 0.  1.
         21    1    1    2  503  505 -0.40480238842E+02 -0.19152860629E+03  0.54799199133E+03  0.58190813650E+03  0.00000000000E+00 0.  1.
         21    1    1    2  504  501  0.44388666544E+02  0.17768031354E+03  0.44628113459E+02  0.18850017520E+03  0.00000000000E+00 0.  1.
         21    1    1    2  505  502  0.41820494114E+00 -0.37617323300E+02 -0.81798826116E+02  0.90034914681E+02  0.00000000000E+00 0.  1.
         21    1    1    2  506  504 -0.43266326438E+01  0.51465616041E+02 -0.23305968578E+02  0.56662135116E+02  0.00000000000E+00 0. -1.
<scales pt_clust_3="200.59399" pt_clust_4="36.87887" pt_clust_5="37.61965" pt_clust_6="36.87887"></scales>
<clustering>
<clus scale="   37.620">  2  5  1 -1</clus>
<clus scale="   36.879">  4  6 -1 -1</clus>
<clus scale="  200.594">  1  3  2 -1</clus>
<clus scale="  200.594">  1  3  2 -1</clus>
</clustering>
</event>
<event>
 6    0  0.6207838E+002  0.2825965E+03  0.7546771E-02  0.1094279E+00
         21   -1    0    0  504  501  0.00000000000E+00  0.00000000000E+00  0.18620105161E+03  0.18620105161E+03  0.00000000000E+00 0. -1.
         21   -1    0    0  503  502 -0.00000000000E+00 -0.00000000000E+00 -0.14800423006E+04  0.14800423006E+04  0.00000000000E+00 0.  1.
         21    1    1    2  503  501  0.13501296278E+02 -0.34926867938E+02  0.59542594601E+02  0.70338408264E+02  0.00000000000E+00 0.  1.
         21    1    1    2  504  505 -0.90549963075E+02  0.29300722203E+02 -0.10400239317E+02  0.95739193188E+02  0.00000000000E+00 0. -1.
         21    1    1    2  505  506 -0.10806185719E+03  0.18157166406E+03 -0.10468588294E+03  0.23580663319E+03  0.00000000000E+00 0. -1.
         21    1    1    2  506  502  0.18511052399E+03 -0.17594551832E+03 -0.12382977214E+04  0.12643591176E+04  0.00000000000E+00 0.  1.
<scales pt_clust_3="37.44558" pt_clust_4="76.38177" pt_clust_5="76.38177" pt_clust_6="259.03049"></scales>
<clustering>
<clus scale="   37.446">  1  3  2 -1</clus>
<clus scale="   76.382">  4  5 -1 -1</clus>
<clus scale="  259.030">  2  6  1 -1</clus>
<clus scale="   37.446">  1  3  2 -1</clus>
</clustering>
</event>
<event>
 6    0  0.6207838E+002  0.9924934E+02  0.7546771E-02  0.1281882E+00
         21   -1    0    0  505  501  0.00000000000E+00  0.00000000000E+00  0.17999202196E+03  0.17999202196E+03  0.00000000000E+00 0. -1.
         21   -1    0    0  504  502 -0.00000000000E+00 -0.00000000000E+00 -0.29664417452E+03  0.29664417452E+03  0.00000000000E+00 0. -1.
         21    1    1    2  503  501 -0.35318780379E+02  0.22436412097E+02  0.52977992258E+02  0.67509084566E+02  0.00000000000E+00 0. -1.
         21    1    1    2  504  503 -0.61457182810E+02 -0.63075998165E+02  0.14994701030E+02  0.89333128918E+02  0.00000000000E+00 0. -1.
         21    1    1    2  505  506  0.86470690508E+02  0.71462726522E+02  0.18839879034E+02  0.11374991271E+03  0.00000000000E+00 0. -1.
         21    1    1    2  506  502  0.10305272681E+02 -0.30823140455E+02 -0.20346472488E+03  0.20604407029E+03  0.00000000000E+00 0. -1.
<scales pt_clust_3="39.88101" pt_clust_4="99.24934" pt_clust_5="14000.00000" pt_clust_6="32.50023"></scales>
<clustering>
<clus scale="   32.500">  2  6  1 -1</clus>
<clus scale="   39.881">  1  3  2 -1</clus>
<clus scale="   99.249">  1  4  2 -1</clus>
<clus scale="   39.881">  1  3  2 -1</clus>
</clustering>
</event>
<event>
 6    0  0.6207838E+002  0.1589128E+03  0.7546771E-02  0.1189930E+00
         21   -1    0    0  503  501  0.00000000000E+00  0.00000000000E+00  0.39784386004E+03  0.39784386004E+03  0.00000000000E+00 0. -1.
         21   -1    0    0  506  502 -0.00000000000E+00 -0.00000000000E+00 -0.88398967873E+03  0.88398967873E+03  0.00000000000E+00 0. -1.
         21    1    1    2  503  502 -0.69145335864E+02  0.38339191985E+02  0.28437862944E+02  0.84021920727E+02  0.00000000000E+00 0. -1.
         21    1    1    2  504  501  0.73067147632E+02 -0.17849421887E+03  0.28795880376E+03  0.34658226569E+03  0.00000000000E+00 0. -1.
         21    1    1    2  505  504  0.50587401988E+00  0.81447238436E+02 -0.48301299382E+02  0.94693843936E+02  0.00000000000E+00 0. -1.
         21    1    1    2  506  505 -0.44276857874E+01  0.58707788447E+02 -0.75424118601E+03  0.75653550842E+03  0.00000000000E+00 0. -1.
<scales pt_clust_3="86.70655" pt_clust_4="158.91283" pt_clust_5="14000.00000" pt_clust_6="58.87452"></scales>
<clustering>
<clus scale="   58.875">  2  6  1 -1</clus>
<clus scale="   86.707">  2  3  1 -1</clus>
<clus scale="  158.913">  1  4  2 -1</clus>
<clus scale="  158.913">  1  3  2 -1</clus>
</clustering>
</event>
<event>
 6    0  0.6207838E+002  0.8115326E+02  0.7546771E-02  0.1325810E+00
         21   -1    0    0  506  501  0.00000000000E+00  0.00000000000E+00  0.90177137404E+02  0.90177137404E+02  0.00000000000E+00 0.  1.
         21   -1    0    0  504  502 -0.00000000000E+00 -0.00000000000E+00 -0.91472992294E+03  0.91472992294E+03  0.00000000000E+00 0.  1.
         21    1    1    2  503  505 -0.59222951440E+02 -0.74861574097E+02 -0.30964128973E+03  0.32402058817E+03  0.00000000000E+00 0.  1.
         21    1    1    2  504  503 -0.36317582967E+02  0.67658078575E+01 -0.11545176203E+03  0.12121820137E+03  0.00000000000E+00 0.  1.
         21    1    1    2  505  501  0.50291027708E+02  0.35201893838E+01  0.68533428080E+02  0.85078845582E+02  0.00000000000E+00 0.  1.
         21    1    1    2  506  502  0.45249506699E+02  0.64575576855E+02 -0.46799316186E+03  0.47458942521E+03  0.00000000000E+00 0.  1.
<scales pt_clust_3="81.15326" pt_clust_4="36.94243" pt_clust_5="50.04274" pt_clust_6="14000.00000"></scales>
<clustering>
<clus scale="   36.942">  2  4  1 -1</clus>
<clus scale="   50.043">  1  5  2 -1</clus>
<clus scale="   81.153">  1  3  2 -1</clus>
<clus scale="   50.043">  1  3  2 -1</clus>
</clustering>
</event>
<event>
 6    0  0.6207838E+002  0.7931872E+02  0.7546771E-02  0.1330996E+00
         21   -1    0    0  506  501  0.00000000000E+00  0.00000000000E+00  0.92085309312E+02  0.92085309312E+02  0.00000000000E+00 0. -1.
         21   -1    0    0  503  502 -0.00000000000E+00 -0.00000000000E+00 -0.65799152949E+03  0.65799152949E+03  0.00000000000E+00 0. -1.
         21    1    1    2  503  504 -0.11245756001E+02 -0.53806752147E+02 -0.27778809138E+03  0.28317460571E+03  0.00000000000E+00 0. -1.
         21    1    1    2  504  501  0.59510962837E+02 -0.72807577149E+02 -0.26467459031E+03  0.28088278114E+03  0.00000000000E+00 0. -1.
         21    1    1    2  505  502 -0.52126319003E+02  0.46729566290E+02 -0.65315047571E+02  0.95743725317E+02  0.00000000000E+00 0. -1.
         21    1    1    2  506  505  0.38611121676E+01  0.79884763006E+02  0.41871509078E+02  0.90275726638E+02  0.00000000000E+00 0. -1.
<scales pt_clust_3="54.96939" pt_clust_4="14000.00000" pt_clust_5="64.92827" pt_clust_6="79.31872"></scales>
<clustering>
<clus scale="   54.969">  2  3  1 -1</clus>
<clus scale="   64.928">  2  5  1 -1</clus>
<clus scale="   79.319">  1  6  2 -1</clus>
<clus scale="   79.319">  1  3  2 -1</clus>
</clustering>
</event>
<event>
 6    0  0.6207838E+002  0.9622246E+02  0.7546771E-02  0.1288446E+00
         21   -1    0    0  505  501  0.00000000000E+00  0.00000000000E+00  0.40628420060E+03  0.40628420060E+03  0.00000000000E+00 0. -1.
         21   -1    0    0  503  502 -0.00000000000E+00 -0.00000000000E+00 -0.27497131710E+03  0.27497131710E+03  0.00000000000E+00 0.  1.
         21    1    1    2  503  504  0.70675665795E+02 -0.11532024171E+03 -0.19657475837E+02  0.13667561685E+03  0.00000000000E+00 0.  1.
         21    1    1    2  504  501 -0.18572477965E+01  0.44482871113E+02  0.32875634745E+03  0.33175730765E+03  0.00000000000E+00 0. -1.
         21    1    1    2  505  506 -0.58054325907E+02  0.41849188260E+02 -0.67836428996E+02  0.98607506882E+02  0.00000000000E+00 0.  1.
         21    1    1    2  506  502 -0.10764092091E+02  0.28988182339E+02 -0.10994955911E+03  0.11421508632E+03  0.00000000000E+00 0.  1.
<scales pt_clust_3="14000.00000" pt_clust_4="44.79265" pt_clust_5="96.22246" pt_clust_6="30.92217"></scales>
<clustering>
<clus scale="   30.922">  2  6  1 -1</clus>
<clus scale="   44.793">  1  4  2 -1</clus>
<clus scale="   96.222">  2  5  1 -1</clus>
<clus scale="   44.793">  1  3  2 -1</clus>
</clustering>
</event>
<event>
 6    0  0.6207838E+002  0.8947702E+02  0.7546771E-02  0.1304123E+00
         21   -1    0    0  503  501  0.00000000000E+00  0.00000000000E+00  0.54638393593E+03  0.54638393593E+03  0.00000000000E+00 0.  1.
         21   -1    0    0  504  502 -0.00000000000E+00 -0.00000000000E+00 -0.25017793000E+04  0.25017793000E+04  0.00000000000E+00 0. -1.
         21    1    1    2  503  506 -0.30187037299E+02 -0.98073196379E+02  0.13311152892E+03  0.16807227076E+03  0.00000000000E+00 0.  1.
         21    1    1    2  504  505  0.44307924818E+01  0.82765073996E+02  0.14669827776E+03  0.16849354318E+03  0.00000000000E+00 0.  1.
         21    1    1    2  505  501  0.31448856943E+01  0.49990884631E+02  0.23538744982E+03  0.24065791154E+03  0.00000000000E+00 0.  1.
         21    1    1    2  506  502  0.22611359123E+02 -0.34682762248E+02 -0.24705926206E+04  0.24709395105E+04  0.00000000000E+00 0. -1.
<scales pt_clust_3="89.47702" pt_clust_4="14000.00000" pt_clust_5="47.31586" pt_clust_6="41.40251"></scales>
<clustering>
<clus scale="   41.403">  2  6  1 -1</clus>
<clus scale="   47.316">  1  5  2 -1</clus>
<clus scale="   89.477">  1  3  2 -1</clus>
<clus scale="   47.316">  1  3  2 -1</clus>
</clustering>
</event>
<event>
 6    0  0.6207838E+002  0.9339714E+02  0.7546771E-02  0.1294827E+00
         21   -1    0    0  506  501  0.00000000000E+00  0.00000000000E+00  0.46025941485E+03  0.46025941485E+03  0.00000000000E+00 0. -1.
         21   -1    0    0  503  502 -0.00000000000E+00 -0.00000000000E+00 -0.12419228007E+04  0.12419228007E+04  0.00000000000E+00 0. -1.
         21    1    1    2  503  505  0.61653436735E+02  0.23308412524E+02  0.38216759740E+02  0.76190216437E+02  0.00000000000E+00 0. -1.
         21    1    1    2  504  502  0.44268729657E+02  0.36437053081E+01 -0.12019474166E+04  0.12027678867E+04  0.00000000000E+00 0. -1.
         21    1    1    2  505  501 -0.13033232300E+03  0.17287686198E+02  0.27143543892E+03  0.30160002655E+03  0.00000000000E+00 0. -1.
         21    1    1    2  506  504  0.24410156611E+02 -0.44239804030E+02  0.11063183206E+03  0.12162408590E+03  0.00000000000E+00 0. -1.
<scales pt_clust_3="93.39714" pt_clust_4="44.41843" pt_clust_5="14000.00000" pt_clust_6="53.35284"></scales>
<clustering>
<clus scale="   44.418">  2  4  1 -1</clus>
<clus scale="   53.353">  1  6  2 -1</clus>
<clus scale="   93.397">  2  3  1 -1</clus>
<clus scale="   53.353">  1  3  2 -1</clus>
</clustering>
</event>
<event>
 6    0  0.6207838E+002  0.6534561E+02  0.7546771E-02  0.1376676E+00
         21   -1    0    0  503  501  0.00000000000E+00  0.00000000000E+00  0.33277937375E+02  0.33277937375E+02  0.00000000000E+00 0.  1.
         21   -1    0    0  506  502 -0.00000000000E+00 -0.00000000000E+00 -0.77149206227E+03  0.77149206227E+03  0.00000000000E+00 0.  1.
         21    1    1    2  503  505  0.47584775580E+02 -0.29589971524E+02 -0.31740842144E+02  0.64399987125E+02  0.00000000000E+00 0.  1.
         21    1    1    2  504  502  0.61875300414E+02  0.30749155483E+02 -0.25263342845E+03  0.26191165025E+03  0.00000000000E+00 0.  1.
         21    1    1    2  505  504 -0.78632458805E+02  0.48977666328E+02 -0.27583939664E+03  0.29097980706E+03  0.00000000000E+00 0.  1.
         21    1    1    2  506  501 -0.30827617188E+02 -0.50136850287E+02 -0.17800045766E+03  0.18747855521E+03  0.00000000000E+00 0.  1.
<scales pt_clust_3="56.03461" pt_clust_4="14000.00000" pt_clust_5="65.34561" pt_clust_6="60.98225"></scales>
<clustering>
<clus scale="   56.035">  1  3  2 -1</clus>
<clus scale="   60.982">  2  6  1 -1</clus>
<clus scale="   65.346">  1  5  2 -1</clus>
<clus scale="   56.035">  1  3  2 -1</clus>
</clustering>
</event>
<event>
 6    0  0.6207838E+002  0.2175430E+03  0.7546771E-02  0.1135728E+00
         21   -1    0    0  503  501  0.00000000000E+00  0.00000000000E+00  0.60170206501E+03  0.60170206501E+03  0.00000000000E+00 0.  1.
         21   -1    0    0  506  502 -0.00000000000E+00 -0.00000000000E+00 -0.51268947235E+03  0.51268947235E+03  0.00000000000E+00 0.  1.
         21    1    1    2  503  504  0.43769198147E+02  0.14901893616E+02  0.14678484956E+03  0.15389477314E+03  0.00000000000E+00 0. -1.
         21    1    1    2  504  502  0.21005353819E+03  0.27945895452E+02 -0.44565646530E+03  0.49347051283E+03  0.00000000000E+00 0.  1.
         21    1    1    2  505  501 -0.10871993537E+03 -0.20726130193E+02  0.20026753051E+03  0.22881582243E+03  0.00000000000E+00 0.  1.
         21    1    1    2  506  505 -0.14510280096E+03 -0.22121658875E+02  0.18761667790E+03  0.23821042896E+03  0.00000000000E+00 0.  1.
<scales pt_clust_3="46.23645" pt_clust_4="214.30704" pt_clust_5="32.46126" pt_clust_6="32.46126"></scales>
<clustering>
<clus scale="   32.461">  5  6 -1 -1</clus>
<clus scale="   46.236">  1  3  2 -1</clus>
<clus scale="  214.307">  2  4  1 -1</clus>
<clus scale="   46.236">  1  3  2 -1</clus>
</clustering>
</event>
<event>
 6    0  0.6207838E+002  0.1423731E+03  0.7546771E-02  0.1210171E+00
         21   -1    0    0  503  501  0.00000000000E+00  0.00000000000E+00  0.26281151409E+03  0.26281151409E+03  0.00000000000E+00 0.  1.
         21   -1    0    0  505  502 -0.00000000000E+00 -0.00000000000E+00 -0.17080985700E+03  0.17080985700E+03  0.00000000000E+00 0.  1.
         21    1    1    2  503  504 -0.65898534289E+02 -0.55207596008E+02  0.65228626432E+02  0.10791324842E+03  0.00000000000E+00 0.  1.
         21    1    1    2  504  506 -0.59665238453E+02 -0.77422442138E+02  0.21287381140E+02  0.10003663240E+03  0.00000000000E+00 0.  1.
         21    1    1    2  505  501  0.91553723133E+02  0.60243558019E+02  0.63687651515E+02  0.12675759329E+03  0.00000000000E+00 0.  1.
         21    1    1    2  506  502  0.34010049609E+02  0.72386480127E+02 -0.58202001992E+02  0.98913896978E+02  0.00000000000E+00 0.  1.
<scales pt_clust_3="45.95463" pt_clust_4="45.95463" pt_clust_5="133.67480" pt_clust_6="79.97803"></scales>
<clustering>
<clus scale="   45.955">  3  4 -1 -1</clus>
<clus scale="   79.978">  2  6  1 -1</clus>
<clus scale="  133.675">  1  5  2 -1</clus>
<clus scale="  133.675">  1  3  2 -1</clus>
</clustering>
</event>
<event>
 6    0  0.6207838E+002  0.2135448E+03  0.7546771E-02  0.1138789E+00
         21   -1    0    0  506  501  0.00000000000E+00  0.00000000000E+00  0.50364900065E+03  0.50364900065E+03  0.00000000000E+00 0. -1.
         21   -1    0    0  504  502 -0.00000000000E+00 -0.00000000000E+00 -0.21810100614E+03  0.21810100614E+03  0.00000000000E+00 0. -1.
         21    1    1    2  503  501  0.10299242684E+03  0.15055668601E+03  0.33112192021E+03  0.37804296282E+03  0.00000000000E+00 0. -1.
         21    1    1    2  504  503  0.17930672886E+01  0.35724063688E+02  0.21000007589E+02  0.41477995798E+02  0.00000000000E+00 0. -1.
         21    1    1    2  505  502 -0.27249117329E+02 -0.35901874240E+02 -0.11724747705E+03  0.12561222012E+03  0.00000000000E+00 0.  1.
         21    1    1    2  506  505 -0.77536376798E+02 -0.15037887546E+03  0.50673543760E+02  0.17661682804E+03  0.00000000000E+00 0. -1.
<scales pt_clust_3="35.22409" pt_clust_4="35.22409" pt_clust_5="45.07171" pt_clust_6="198.17648"></scales>
<clustering>
<clus scale="   35.224">  3  4 -1 -1</clus>
<clus scale="   45.072">  2  5  1 -1</clus>
<clus scale="  198.176">  2  6  1 -1</clus>
<clus scale="  213.545">  1  3  2 -1</clus>
</clustering>
</event>
<event>
 6    0  0.6207838E+002  0.7362165E+02  0.7546771E-02  0.1348193E+00
         21   -1    0    0  505  501  0.00000000000E+00  0.00000000000E+00  0.30917314747E+03  0.30917314747E+03  0.00000000000E+00 0.  1.
         21   -1    0    0  506  502 -0.00000000000E+00 -0.00000000000E+00 -0.11932596302E+03  0.11932596302E+03  0.00000000000E+00 0.  1.
         21    1    1    2  503  501 -0.64568029848E+01 -0.40141144789E+02  0.66715130284E+02  0.78127526638E+02  0.00000000000E+00 0.  1.
         21    1    1    2  504  503  0.86912256018E+02  0.14119005895E+01  0.23369594858E+02  0.90010397584E+02  0.00000000000E+00 0.  1.
         21    1    1    2  505  502 -0.24650265196E+02  0.87612631060E+02  0.14665103789E+03  0.17259819121E+03  0.00000000000E+00 0.  1.
         21    1    1    2  506  504 -0.55805187837E+02 -0.48883386861E+02 -0.46888578580E+02  0.87762995059E+02  0.00000000000E+00 0.  1.
<scales pt_clust_3="40.65712" pt_clust_4="73.62165" pt_clust_5="67.13653" pt_clust_6="14000.00000"></scales>
<clustering>
<clus scale="   40.657">  1  3  2 -1</clus>
<clus scale="   67.137">  1  5  2 -1</clus>
<clus scale="   73.622">  1  4  2 -1</clus>
<clus scale="   40.657">  1  3  2 -1</clus>
</clustering>
</event>
<event>
 6    0  0.6207838E+002  0.1624239E+03  0.7546771E-02  0.1185987E+00
         21   -1    0    0  505  501  0.00000000000E+00  0.00000000000E+00  0.14983727896E+03  0.14983727896E+03  0.00000000000E+00 0.  1.
         21   -1    0    0  501  502 -0.00000000000E+00 -0.00000000000E+00 -0.75737121210E+03  0.75737121210E+03  0.00000000000E+00 0. -1.
         21    1    1    2  503  502  0.95540787999E+01  0.39060254383E+02 -0.43749201554E+02  0.59422020588E+02  0.00000000000E+00 0.  1.
         21    1    1    2  504  503 -0.13592845087E+03  0.38763545900E+02 -0.64863416727E+03  0.66385648991E+03  0.00000000000E+00 0. -1.
         21    1    1    2  505  506  0.82250562625E+02 -0.85221048393E+02  0.62534925294E+02  0.13393430861E+03  0.00000000000E+00 0.  1.
         21    1    1    2  506  504  0.44123809446E+02  0.73972481095E+01  0.22314510391E+02  0.49995671949E+02  0.00000000000E+00 0.  1.
<scales pt_clust_3="40.21174" pt_clust_4="147.57286" pt_clust_5="42.04047" pt_clust_6="42.04047"></scales>
<clustering>
<clus scale="   40.212">  2  3  1 -1</clus>
<clus scale="   42.040">  5  6 -1 -1</clus>
<clus scale="  147.573">  2  4  1 -1</clus>
<clus scale="  162.424">  1  3  2 -1</clus>
</clustering>
</event>
<event>
 6    0  0.6207838E+002  0.1361233E+03  0.7546771E-02  0.1218643E+00
         21   -1    0    0  505  501  0.00000000000E+00  0.00000000000E+00  0.23286190555E+04  0.23286190555E+04  0.00000000000E+00 0. -1.
         21   -1    0    0  504  502 -0.00000000000E+00 -0.00000000000E+00 -0.45605263920E+02  0.45605263920E+02  0.00000000000E+00 0. -1.
         21    1    1    2  503  501 -0.54157649830E+02 -0.23126138956E+02  0.12096834610E+04  0.12111159916E+04  0.00000000000E+00 0. -1.
         21    1    1    2  504  503  0.69245444414E+02  0.12888707650E+03  0.88896909210E+02  0.17120008916E+03  0.00000000000E+00 0. -1.
         21    1    1    2  505  506  0.21516957727E+02 -0.29126052769E+02  0.33255988217E+03  0.33452560687E+03  0.00000000000E+00 0.  1.
         21    1    1    2  506  502 -0.36604752311E+02 -0.76634884771E+02  0.65187353922E+03  0.65738263180E+03  0.00000000000E+00 0. -1.
<scales pt_clust_3="57.91258" pt_clust_4="136.12327" pt_clust_5="36.21197" pt_clust_6="14000.00000"></scales>
<clustering>
<clus scale="   36.212">  1  5  2 -1</clus>
<clus scale="   57.913">  1  3  2 -1</clus>
<clus scale="  136.123">  2  4  1 -1</clus>
<clus scale="   36.212">  1  3  2 -1</clus>
</clustering>
</event>
<event>
 6    0  0.6207838E+002  0.1549551E+03  0.7546771E-02  0.1194513E+00
         21   -1    0    0  503  501  0.00000000000E+00  0.00000000000E+00  0.78949052766E+03  0.78949052766E+03  0.00000000000E+00 0. -1.
         21   -1    0    0  504  502 -0.00000000000E+00 -0.00000000000E+00 -0.33113730394E+03  0.33113730394E+03  0.00000000000E+00 0.  1.
         21    1    1    2  503  505 -0.16457548691E+02  0.27500192593E+02  0.66206779382E+03  0.66284302450E+03  0.00000000000E+00 0. -1.
         21    1    1    2  504  506 -0.32174209573E+02 -0.16478586806E+02 -0.34695760467E+02  0.50105083366E+02  0.00000000000E+00 0. -1.
         21    1    1    2  505  502  0.18169600443E+03  0.36093344510E+02 -0.18954631312E+03  0.26503579450E+03  0.00000000000E+00 0.  1.
         21    1    1    2  506  501 -0.13306424617E+03 -0.47114950297E+02  0.20527503494E+02  0.14264392924E+03  0.00000000000E+00 0. -1.
<scales pt_clust_3="32.04858" pt_clust_4="36.32853" pt_clust_5="14000.00000" pt_clust_6="154.95508"></scales>
<clustering>
<clus scale="   32.049">  1  3  2 -1</clus>
<clus scale="   36.329">  2  4  1 -1</clus>
<clus scale="  154.955">  1  6  2 -1</clus>
<clus scale="   32.049">  1  3  2 -1</clus>
</clustering>
</event>
<event>
 6    0  0.6207838E+002  0.1232235E+03  0.7546771E-02  0.1237872E+00
         21   -1    0    0  506  501  0.00000000000E+00  0.00000000000E+00  0.13308855882E+03  0.13308855882E+03  0.00000000000E+00 0. -1.
         21   -1    0    0  503  502 -0.00000000000E+00 -0.00000000000E+00 -0.11073006801E+04  0.11073006801E+04  0.00000000000E+00 0. -1.
         21    1    1    2  503  505 -0.60751551204E+02  0.32288827886E+02 -0.87835062194E+03  0.88104093801E+03  0.00000000000E+00 0. -1.
         21    1    1    2  504  502 -0.84684734568E+02 -0.60508670618E+02 -0.13859471015E+03  0.17332425442E+03  0.00000000000E+00 0. -1.
         21    1    1    2  505  501  0.50123439086E+02 -0.14660613980E+02 -0.28546988331E+02  0.59516579966E+02  0.00000000000E+00 0. -1.
         21    1    1    2  506  504  0.95312846685E+02  0.42880456712E+02  0.71280199105E+02  0.12650746656E+03  0.00000000000E+00 0. -1.
<scales pt_clust_3="68.21428" pt_clust_4="123.22347" pt_clust_5="52.22349" pt_clust_6="14000.00000"></scales>
<clustering>
<clus scale="   52.223">  1  5  2 -1</clus>
<clus scale="   68.214">  2  3  1 -1</clus>
<clus scale="  123.223">  2  4  1 -1</clus>
<clus scale="   52.223">  1  3  2 -1</clus>
</clustering>
</event>
<event>
 6    0  0.6207838E+002  0.2416376E+03  0.7546771E-02  0.1118707E+00
         21   -1    0    0  503  501  0.00000000000E+00  0.00000000000E+00  0.24607868955E+04  0.24607868955E+04  0.00000000000E+00 0. -1.
         21   -1    0    0  506  502 -0.00000000000E+00 -0.00000000000E+00 -0.12948090267E+03  0.12948090267E+03  0.00000000000E+00 0.  1.
         21    1    1    2  503  504  0.98596942322E+02 -0.22715480764E+03  0.21551845639E+04  0.21693642313E+04  0.00000000000E+00 0. -1.
         21    1    1    2  504  502  0.15438761858E+02  0.83662140249E+02  0.14345634888E+03  0.16678559024E+03  0.00000000000E+00 0. -1.
         21    1    1    2  505  501 -0.53523491497E+02  0.17338038228E+03  0.41249586359E+02  0.18608344762E+03  0.00000000000E+00 0.  1.
         21    1    1    2  506  505 -0.60512212683E+02 -0.29887714892E+02 -0.85845063076E+01  0.68034528982E+02  0.00000000000E+00 0.  1.
<scales pt_clust_3="241.63757" pt_clust_4="80.20840" pt_clust_5="14000.00000" pt_clust_6="67.49077"></scales>
<clustering>
<clus scale="   67.491">  2  6  1 -1</clus>
<clus scale="   80.208">  2  4  1 -1</clus>
<clus scale="  241.638">  1  3  2 -1</clus>
<clus scale="  241.638">  1  3  2 -1</clus>
</clustering>
</event>
<event>
 6    0  0.6207838E+002  0.1485792E+03  0.7546771E-02  0.1202230E+00
         21   -1    0    0  503  501  0.00000000000E+00  0.00000000000E+00  0.13910779200E+04  0.13910779200E+04  0.00000000000E+00 0.  1.
         21   -1    0    0  506  502 -0.00000000000E+00 -0.00000000000E+00 -0.29127930346E+02  0.29127930346E+02  0.00000000000E+00 0.  1.
         21    1    1    2  503  504  0.26973381163E+02 -0.20328909299E+02  0.22775886167E+03  0.23024970557E+03  0.00000000000E+00 0.  1.
         21    1    1    2  504  505 -0.24470331169E+02 -0.46207622565E+02  0.18624077008E+03  0.19344137595E+03  0.00000000000E+00 0. -1.
         21    1    1    2  505  502  0.14448648141E+03  0.65872120290E+02  0.54143173271E+03  0.56423736205E+03  0.00000000000E+00 0.  1.
         21    1    1    2  506  501 -0.14698953140E+03  0.66441157381E+00  0.40651862520E+03  0.43227740679E+03  0.00000000000E+00 0.  1.
<scales pt_clust_3="33.77614" pt_clust_4="53.43822" pt_clust_5="148.57922" pt_clust_6="14000.00000"></scales>
<clustering>
<clus scale="   33.776">  1  3  2 -1</clus>
<clus scale="   53.438">  1  4  2 -1</clus>
<clus scale="  148.579">  1  5  2 -1</clus>
<clus scale="   33.776">  1  3  2 -1</clus>
</clustering>
</event>
<event>
 6    0  0.6207838E+002  0.1776289E+03  0.7546771E-02  0.1170118E+00
         21   -1    0    0  503  501  0.00000000000E+00  0.00000000000E+00  0.65586267474E+03  0.65586267474E+03  0.00000000000E+00 0.  1.
         21   -1    0    0  506  502 -0.00000000000E+00 -0.00000000000E+00 -0.38384170878E+03  0.38384170878E+03  0.00000000000E+00 0.  1.
         21    1    1    2  503  504  0.54644794582E+02  0.69170360731E+02  0.56737555947E+03  0.57418256492E+03  0.00000000000E+00 0.  1.
         21    1    1    2  504  505 -0.95002780077E+02 -0.51338644779E+02 -0.46285953075E+02  0.11748861273E+03  0.00000000000E+00 0.  1.
         21    1    1    2  505  502 -0.86790865066E+02 -0.61034892340E+02 -0.13592932893E+03  0.17243750986E+03  0.00000000000E+00 0.  1.
         21    1    1    2  506  501  0.12714885056E+03  0.43203176388E+02 -0.11313931150E+03  0.17559569600E+03  0.00000000000E+00 0.  1.
<scales pt_clust_3="88.15096" pt_clust_4="71.32801" pt_clust_5="71.32801" pt_clust_6="162.40083"></scales>
<clustering>
<clus scale="   71.328">  4  5 -1 -1</clus>
<clus scale="   88.151">  1  3  2 -1</clus>
<clus scale="  162.401">  2  6  1 -1</clus>
<clus scale="   88.151">  1  3  2 -1</clus>
</clustering>
</event>
<event>
 6    0  0.6207838E+002  0.7687635E+02  0.7546771E-02  0.1338157E+00
         21   -1    0    0  504  501  0.00000000000E+00  0.00000000000E+00  0.58103484932E+03  0.58103484932E+03  0.00000000000E+00 0. -1.
         21   -1    0    0  506  502 -0.00000000000E+00 -0.00000000000E+00 -0.13214780848E+03  0.13214780848E+03  0.00000000000E+00 0. -1.
         21    1    1    2  503  501  0.80577005993E+02  0.36009024611E+02  0.31611313763E+03  0.32820240634E+03  0.00000000000E+00 0. -1.
         21    1    1    2  504  505  0.61498696866E+01  0.70516565428E+02  0.11569973317E+03  0.13563493338E+03  0.00000000000E+00 0. -1.
         21    1    1    2  505  502 -0.17478173467E+02 -0.74297230446E+02  0.10695339368E+03  0.13139479982E+03  0.00000000000E+00 0. -1.
         21    1    1    2  506  503 -0.69248702213E+02 -0.32228359593E+02 -0.89879223630E+02  0.11795051827E+03  0.00000000000E+00 0. -1.
<scales pt_clust_3="76.87635" pt_clust_4="70.78423" pt_clust_5="58.05329" pt_clust_6="14000.00000"></scales>
<clustering>
<clus scale="   70.784">  1  4  2 -1</clus>
<clus scale="   58.053">  1  5  2 -1</clus>
<clus scale="   76.876">  1  3  2 -1</clus>
<clus scale="   70.784">  1  3  2 -1</clus>
</clustering>
</event>
<event>
 6    0  0.6207838E+002  0.1483260E+03  0.7546771E-02  0.1202545E+00
         21   -1    0    0  505  501  0.00000000000E+00  0.00000000000E+00  0.85178257696E+03  0.85178257696E+03  0.00000000000E+00 0. -1.
         21   -1    0    0  503  502 -0.00000000000E+00 -0.00000000000E+00 -0.35967485889E+03  0.35967485889E+03  0.00000000000E+00 0. -1.
         21    1    1    2  503  504 -0.62251541306E+02  0.58483056503E+02 -0.31851873534E+03  0.32977220480E+03  0.00000000000E+00 0. -1.
         21    1    1    2  504  501  0.61328346518E+02  0.11643627184E+03  0.53339494745E+03  0.54938942605E+03  0.00000000000E+00 0. -1.
         21    1    1    2  505  506  0.56147204111E+01 -0.11004136802E+03  0.12430120517E+03  0.16610664456E+03  0.00000000000E+00 0. -1.
         21    1    1    2  506  502 -0.46915256237E+01 -0.64877960329E+02  0.15293030079E+03  0.16618916044E+03  0.00000000000E+00 0. -1.
<scales pt_clust_3="85.41383" pt_clust_4="137.96745" pt_clust_5="41.84164" pt_clust_6="41.84164"></scales>
<clustering>
<clus scale="   41.842">  5  6 -1 -1</clus>
<clus scale="   85.414">  2  3  1 -1</clus>
<clus scale="  137.967">  1  4  2 -1</clus>
<clus scale="  137.967">  1  3  2 -1</clus>
</clustering>
</event>
<event>
 6    0  0.6207838E+002  0.8434501E+02  0.7546771E-02  0.1317154E+00
         21   -1    0    0  505  501  0.00000000000E+00  0.00000000000E+00  0.15995273751E+03  0.15995273751E+03  0.00000000000E+00 0. -1.
         21   -1    0    0  506  502 -0.00000000000E+00 -0.00000000000E+00 -0.39262873493E+03  0.39262873493E+03  0.00000000000E+00 0. -1.
         21    1    1    2  503  501  0.12491014629E+02  0.74421149365E+02  0.18189807473E+02  0.77623463045E+02  0.00000000000E+00 0. -1.
         21    1    1    2  504  502 -0.39154331122E+02  0.78654754159E+01 -0.27451504523E+03  0.27740482585E+03  0.00000000000E+00 0. -1.
         21    1    1    2  505  504 -0.68785334929E+02 -0.72763199254E+02  0.14907611807E+02  0.10123310899E+03  0.00000000000E+00 0. -1.
         21    1    1    2  506  503  0.95448651422E+02 -0.95234255270E+01  0.87416285334E+01  0.96320074551E+02  0.00000000000E+00 0. -1.
<scales pt_clust_3="76.46604" pt_clust_4="39.93654" pt_clust_5="14000.00000" pt_clust_6="84.34501"></scales>
<clustering>
<clus scale="   39.937">  2  4  1 -1</clus>
<clus scale="   76.466">  1  3  2 -1</clus>
<clus scale="   84.345">  2  6  1 -1</clus>
<clus scale="   76.466">  1  3  2 -1</clus>
</clustering>
</event>
<event>
 6    0  0.6207838E+002  0.1365887E+03  0.7546771E-02  0.1217994E+00
         21   -1    0    0  502  501  0.00000000000E+00  0.00000000000E+00  0.90383861680E+03  0.90383861680E+03  0.00000000000E+00 0. -1.
         21   -1    0    0  505  502 -0.00000000000E+00 -0.00000000000E+00 -0.31917932596E+02  0.31917932596E+02  0.00000000000E+00 0. -1.
         21    1    1    2  503  504 -0.22404699176E+02  0.48653755550E+02  0.13034678568E+03  0.14092353605E+03  0.00000000000E+00 0.  1.
         21    1    1    2  504  501 -0.30060260626E+02  0.86406198588E+02  0.46030566094E+03  0.46930901538E+03  0.00000000000E+00 0. -1.
         21    1    1    2  505  506 -0.14089297216E+02 -0.50837312277E+02  0.62118769384E+02  0.81496516032E+02  0.00000000000E+00 0. -1.
         21    1    1    2  506  503  0.66554257018E+02 -0.84222641861E+02  0.21914946821E+03  0.24402748194E+03  0.00000000000E+00 0.  1.
<scales pt_clust_3="38.40922" pt_clust_4="38.40922" pt_clust_5="52.75358" pt_clust_6="127.03067"></scales>
<clustering>
<clus scale="   38.409">  3  4 -1 -1</clus>
<clus scale="   52.754">  2  5  1 -1</clus>
<clus scale="  127.031">  2  6  1 -1</clus>
<clus scale="  136.589">  1  3  2 -1</clus>
</clustering>
</event>
<event>
 6    0  0.6207838E+002  0.1498115E+03  0.7546771E-02  0.1200705E+00
         21   -1    0    0  503  501  0.00000000000E+00  0.00000000000E+00  0.14530540935E+04  0.14530540935E+04  0.00000000000E+00 0. -1.
         21   -1    0    0  505  502 -0.00000000000E+00 -0.00000000000E+00 -0.15436455089E+02  0.15436455089E+02  0.00000000000E+00 0. -1.
         21    1    1    2  503  506 -0.84232103849E+01 -0.63990925355E+02  0.51577800641E+03  0.51980067420E+03  0.00000000000E+00 0. -1.
         21    1    1    2  504  501  0.27180472813E+02  0.75099223471E+02  0.46152974571E+03  0.46838913057E+03  0.00000000000E+00 0. -1.
         21    1    1    2  505  504 -0.55709190846E+01  0.62135291677E+02  0.19365053519E+03  0.20345112285E+03  0.00000000000E+00 0. -1.
         21    1    1    2  506  502 -0.13186343344E+02 -0.73243589793E+02  0.26665935115E+03  0.27684962101E+03  0.00000000000E+00 0. -1.
<scales pt_clust_3="52.21094" pt_clust_4="148.68801" pt_clust_5="46.83194" pt_clust_6="52.21094"></scales>
<clustering>
<clus scale="   46.832">  4  5 -1 -1</clus>
<clus scale="   52.211">  3  6 -1 -1</clus>
<clus scale="  148.688">  2  4  1 -1</clus>
<clus scale="  149.811">  1  3  2 -1</clus>
</clustering>
</event>
<event>
 6    0  0.6207838E+002  0.1254754E+03  0.7546771E-02  0.1234328E+00
         21   -1    0    0  502  501  0.00000000000E+00  0.00000000000E+00  0.88251893878E+03  0.88251893878E+03  0.00000000000E+00 0. -1.
         21   -1    0    0  503  502 -0.00000000000E+00 -0.00000000000E+00 -0.80809207218E+02  0.80809207218E+02  0.00000000000E+00 0. -1.
         21    1    1    2  503  504 -0.22943006208E+02  0.10671213150E+03 -0.20919494890E+02  0.11113723863E+03  0.00000000000E+00 0. -1.
         21    1    1    2  504  506  0.76847503422E+01 -0.11609761069E+03  0.48871447677E+03  0.50237391493E+03  0.00000000000E+00 0. -1.
         21    1    1    2  505  501  0.31486022369E+02  0.47594890374E+02  0.24686996974E+03  0.25338000148E+03  0.00000000000E+00 0.  1.
         21    1    1    2  506  505 -0.16227766503E+02 -0.38209411190E+02  0.87044779947E+02  0.96436990959E+02  0.00000000000E+00 0.  1.
<scales pt_clust_3="112.03545" pt_clust_4="33.74775" pt_clust_5="57.06701" pt_clust_6="33.74775"></scales>
<clustering>
<clus scale="   33.748">  4  6 -1 -1</clus>
<clus scale="   57.067">  1  5  2 -1</clus>
<clus scale="  112.035">  2  3  1 -1</clus>
<clus scale="   57.067">  1  3  2 -1</clus>
</clustering>
</event>
<event>
 6    0  0.6207838E+002  0.9059567E+02  0.7546771E-02  0.1301416E+00
         21   -1    0    0  504  501  0.00000000000E+00  0.00000000000E+00  0.26063145334E+03  0.26063145334E+03  0.00000000000E+00 0.  1.
         21   -1    0    0  506  502 -0.00000000000E+00 -0.00000000000E+00 -0.44999134193E+03  0.44999134193E+03  0.00000000000E+00 0. -1.
         21    1    1    2  503  505 -0.30965026636E+02 -0.11246791894E+03 -0.58094196271E+02  0.13031807743E+03  0.00000000000E+00 0. -1.
         21    1    1    2  504  502  0.20122634727E+02 -0.37512166012E+02 -0.80581101856E+02  0.91133950884E+02  0.00000000000E+00 0. -1.
         21    1    1    2  505  501 -0.14961097157E+02  0.50917926637E+02  0.20605286582E+03  0.21277747342E+03  0.00000000000E+00 0.  1.
         21    1    1    2  506  503  0.25803489065E+02  0.99062158315E+02 -0.25673745628E+03  0.27639329354E+03  0.00000000000E+00 0. -1.
<scales pt_clust_3="14000.00000" pt_clust_4="42.56857" pt_clust_5="52.68578" pt_clust_6="90.59567"></scales>
<clustering>
<clus scale="   42.569">  2  4  1 -1</clus>
<clus scale="   52.686">  1  5  2 -1</clus>
<clus scale="   90.596">  2  6  1 -1</clus>
<clus scale="   52.686">  1  3  2 -1</clus>
</clustering>
</event>
<event>
 6    0  0.6207838E+002  0.8326014E+02  0.7546771E-02  0.1320046E+00
         21   -1    0    0  503  501  0.00000000000E+00  0.00000000000E+00  0.68299195992E+02  0.68299195992E+02  0.00000000000E+00 0.  1.
         21   -1    0    0  504  502 -0.00000000000E+00 -0.00000000000E+00 -0.83582206336E+03  0.83582206336E+03  0.00000000000E+00 0.  1.
         21    1    1    2  503  506 -0.15893414728E+02 -0.41825711996E+02  0.37224182390E+02  0.58203355318E+02  0.00000000000E+00 0.  1.
         21    1    1    2  504  505  0.34503873619E+02  0.13311903176E+03 -0.36139896840E+03  0.38667868867E+03  0.00000000000E+00 0.  1.
         21    1    1    2  505  501 -0.36092401286E+02 -0.39690789319E+02 -0.12156362051E+03  0.13287488107E+03  0.00000000000E+00 0.  1.
         21    1    1    2  506  502  0.17481942395E+02 -0.51602530441E+02 -0.32178446084E+03  0.32636433429E+03  0.00000000000E+00 0.  1.
<scales pt_clust_3="44.74361" pt_clust_4="14000.00000" pt_clust_5="83.26014" pt_clust_6="58.40874"></scales>
<clustering>
<clus scale="   44.744">  1  3  2 -1</clus>
<clus scale="   58.409">  2  6  1 -1</clus>
<clus scale="   83.260">  1  5  2 -1</clus>
<clus scale="   44.744">  1  3  2 -1</clus>
</clustering>
</event>
<event>
 6    0  0.6207838E+002  0.1999352E+03  0.7546771E-02  0.1149794E+00
         21   -1    0    0  504  501  0.00000000000E+00  0.00000000000E+00  0.11691187661E+04  0.11691187661E+04  0.00000000000E+00 0. -1.
         21   -1    0    0  506  502 -0.00000000000E+00 -0.00000000000E+00 -0.57532431559E+02  0.57532431559E+02  0.00000000000E+00 0. -1.
         21    1    1    2  503  502 -0.34672311462E+02 -0.22700691259E+02  0.29614363511E+02  0.50936245365E+02  0.00000000000E+00 0.  1.
         21    1    1    2  504  503 -0.16274479281E+03  0.90818316843E+02  0.79129573034E+03  0.81294696451E+03  0.00000000000E+00 0. -1.
         21    1    1    2  505  501  0.10621977665E+03 -0.40628262721E+02  0.20606811217E+03  0.23536644522E+03  0.00000000000E+00 0. -1.
         21    1    1    2  506  505  0.91197327620E+02 -0.27489362862E+02  0.84608128532E+02  0.12740154257E+03  0.00000000000E+00 0. -1.
<scales pt_clust_3="41.44262" pt_clust_4="190.99650" pt_clust_5="52.56700" pt_clust_6="52.56700"></scales>
<clustering>
<clus scale="   41.443">  2  3  1 -1</clus>
<clus scale="   52.567">  5  6 -1 -1</clus>
<clus scale="  190.996">  1  4  2 -1</clus>
<clus scale="  190.996">  1  3  2 -1</clus>
</clustering>
</event>
<event>
 6    0  0.6207838E+002  0.1458820E+03  0.7546771E-02  0.1205626E+00
         21   -1    0    0  504  501  0.00000000000E+00  0.00000000000E+00  0.26982306513E+03  0.26982306513E+03  0.00000000000E+00 0. -1.
         21   -1    0    0  503  502 -0.00000000000E+00 -0.00000000000E+00 -0.15419928493E+03  0.15419928493E+03  0.00000000000E+00 0.  1.
         21    1    1    2  503  506 -0.56563086925E+02  0.11672740604E+03 -0.83631157011E+02  0.15433353669E+03  0.00000000000E+00 0.  1.
         21    1    1    2  504  505 -0.33152927556E-01 -0.50464153140E+02  0.36686741208E+02  0.62390294372E+02  0.00000000000E+00 0. -1.
         21    1    1    2  505  502  0.79517318992E+02 -0.45451645581E+02  0.90031177048E+02  0.12843079438E+03  0.00000000000E+00 0. -1.
         21    1    1    2  506  501 -0.22921079139E+02 -0.20811607319E+02  0.72537018954E+02  0.78867724620E+02  0.00000000000E+00 0.  1.
<scales pt_clust_3="128.23366" pt_clust_4="55.59517" pt_clust_5="55.59517" pt_clust_6="30.95963"></scales>
<clustering>
<clus scale="   30.960">  1  6  2 -1</clus>
<clus scale="   55.595">  4  5 -1 -1</clus>
<clus scale="  128.234">  2  3  1 -1</clus>
<clus scale="   30.960">  1  3  2 -1</clus>
</clustering>
</event>
<event>
 6    0  0.6207838E+002  0.8574290E+02  0.7546771E-02  0.1313501E+00
         21   -1    0    0  504  501  0.00000000000E+00  0.00000000000E+00  0.66419452763E+03  0.66419452763E+03  0.00000000000E+00 0.  1.
         21   -1    0    0  503  502 -0.00000000000E+00 -0.00000000000E+00 -0.63728805274E+02  0.63728805274E+02  0.00000000000E+00 0.  1.
         21    1    1    2  503  506  0.16847501762E+02  0.60655985436E+02 -0.18123741860E+02  0.65509212359E+02  0.00000000000E+00 0.  1.
         21    1    1    2  504  505  0.18160361226E+02  0.27626111434E+02  0.70373009486E+02  0.77751920985E+02  0.00000000000E+00 0.  1.
         21    1    1    2  505  502  0.61571049821E+02  0.46880961341E+01  0.25312834027E+03  0.26055120240E+03  0.00000000000E+00 0.  1.
         21    1    1    2  506  501 -0.96578912809E+02 -0.92970193004E+02  0.29508811445E+03  0.32411099716E+03  0.00000000000E+00 0.  1.
<scales pt_clust_3="64.21735" pt_clust_4="33.06056" pt_clust_5="14000.00000" pt_clust_6="85.74290"></scales>
<clustering>
<clus scale="   33.061">  1  4  2 -1</clus>
<clus scale="   64.217">  2  3  1 -1</clus>
<clus scale="   85.743">  2  6  1 -1</clus>
<clus scale="   33.061">  1  3  2 -1</clus>
</clustering>
</event>
<event>
 6    0  0.6207838E+002  0.1009339E+03  0.7546771E-02  0.1278344E+00
         21   -1    0    0  504  501  0.00000000000E+00  0.00000000000E+00  0.40831855890E+03  0.40831855890E+03  0.00000000000E+00 0.  1.
         21   -1    0    0  506  502 -0.00000000000E+00 -0.00000000000E+00 -0.43920372769E+03  0.43920372769E+03  0.00000000000E+00 0.  1.
         21    1    1    2  503  502 -0.10598292787E+03 -0.85161149661E+01 -0.12271608968E+03  0.16237039102E+03  0.00000000000E+00 0.  1.
         21    1    1    2  504  505  0.54378199192E+02  0.16361374041E+02  0.34899125904E+03  0.35358108263E+03  0.00000000000E+00 0.  1.
         21    1    1    2  505  503  0.78253265481E+02  0.12684917130E+02 -0.74714398583E+01  0.79626020211E+02  0.00000000000E+00 0.  1.
         21    1    1    2  506  501 -0.26648536803E+02 -0.20530176204E+02 -0.24968889829E+03  0.25194479272E+03  0.00000000000E+00 0.  1.
<scales pt_clust_3="100.93390" pt_clust_4="56.40356" pt_clust_5="14000.00000" pt_clust_6="33.63975"></scales>
<clustering>
<clus scale="   33.640">  2  6  1 -1</clus>
<clus scale="   56.404">  1  4  2 -1</clus>
<clus scale="  100.934">  2  3  1 -1</clus>
<clus scale="   56.404">  1  3  2 -1</clus>
</clustering>
</event>
<event>
 6    0  0.6207838E+002  0.8865920E+02  0.7546771E-02  0.1306132E+00
         21   -1    0    0  505  501  0.00000000000E+00  0.00000000000E+00  0.37838387067E+03  0.37838387067E+03  0.00000000000E+00 0. -1.
         21   -1    0    0  506  502 -0.00000000000E+00 -0.00000000000E+00 -0.23905933052E+03  0.23905933052E+03  0.00000000000E+00 0.  1.
         21    1    1    2  503  504  0.60498197537E+02 -0.38441821614E+02  0.11767717127E+01  0.71688146481E+02  0.00000000000E+00 0.  1.
         21    1    1    2  504  502 -0.36077456168E+01 -0.63264721155E+02 -0.83616543836E+02  0.10491504742E+03  0.00000000000E+00 0.  1.
         21    1    1    2  505  503  0.41162060713E+02  0.44209944716E+02  0.29794431059E+03  0.30400599775E+03  0.00000000000E+00 0. -1.
         21    1    1    2  506  501 -0.98052512634E+02  0.57496598052E+02 -0.76179998325E+02  0.13683400954E+03  0.00000000000E+00 0. -1.
<scales pt_clust_3="14000.00000" pt_clust_4="57.21960" pt_clust_5="60.40558" pt_clust_6="88.65920"></scales>
<clustering>
<clus scale="   60.406">  1  5  2 -1</clus>
<clus scale="   57.220">  2  4  1 -1</clus>
<clus scale="   88.659">  2  6  1 -1</clus>
<clus scale="   60.406">  1  3  2 -1</clus>
</clustering>
</event>
<event>
 6    0  0.6207838E+002  0.2346189E+03  0.7546771E-02  0.1123430E+00
         21   -1    0    0  504  501  0.00000000000E+00  0.00000000000E+00  0.30468860556E+03  0.30468860556E+03  0.00000000000E+00 0. -1.
         21   -1    0    0  505  502 -0.00000000000E+00 -0.00000000000E+00 -0.14769492192E+04  0.14769492192E+04  0.00000000000E+00 0.  1.
         21    1    1    2  503  502  0.71549660622E+02  0.56689482327E+01 -0.11459303290E+04  0.11481758619E+04  0.00000000000E+00 0.  1.
         21    1    1    2  504  503  0.11349518046E+03  0.13999497680E+03 -0.24613106043E+03  0.30505777883E+03  0.00000000000E+00 0.  1.
         21    1    1    2  505  506 -0.89705458439E+02 -0.38669068540E+02  0.11485352882E+03  0.15077698504E+03  0.00000000000E+00 0. -1.
         21    1    1    2  506  501 -0.95339382647E+02 -0.10699485649E+03  0.10494724694E+03  0.17762719904E+03  0.00000000000E+00 0. -1.
<scales pt_clust_3="71.77389" pt_clust_4="225.76241" pt_clust_5="52.71891" pt_clust_6="52.71891"></scales>
<clustering>
<clus scale="   52.719">  5  6 -1 -1</clus>
<clus scale="   71.774">  2  3  1 -1</clus>
<clus scale="  225.762">  2  4  1 -1</clus>
<clus scale="  234.619">  1  3  2 -1</clus>
</clustering>
</event>
<event>
 6    0  0.6207838E+002  0.7513877E+02  0.7546771E-02  0.1343442E+00
         21   -1    0    0  503  501  0.00000000000E+00  0.00000000000E+00  0.31066757652E+03  0.31066757652E+03  0.00000000000E+00 0.  1.
         21   -1    0    0  505  502 -0.00000000000E+00 -0.00000000000E+00 -0.10088682047E+04  0.10088682047E+04  0.00000000000E+00 0.  1.
         21    1    1    2  503  504 -0.20784755225E+02  0.73608844710E+02  0.21811877474E+03  0.23114079684E+03  0.00000000000E+00 0.  1.
         21    1    1    2  504  506  0.22848462530E+02 -0.65176660846E+02  0.10068850330E+02  0.69795638159E+02  0.00000000000E+00 0.  1.
         21    1    1    2  505  501 -0.46061132205E+02 -0.33513672190E+02  0.27579373960E+02  0.63288355894E+02  0.00000000000E+00 0.  1.
         21    1    1    2  506  502  0.43997424901E+02  0.25081488326E+02 -0.95396762717E+03  0.95531099027E+03  0.00000000000E+00 0.  1.
<scales pt_clust_3="75.13877" pt_clust_4="14000.00000" pt_clust_5="40.43330" pt_clust_6="50.64439"></scales>
<clustering>
<clus scale="   50.644">  2  6  1 -1</clus>
<clus scale="   40.433">  2  5  1 -1</clus>
<clus scale="   75.139">  1  3  2 -1</clus>
<clus scale="   75.139">  1  3  2 -1</clus>
</clustering>
</event>
<event>
 6    0  0.9180779E+002  0.1547901E+03  0.7546771E-02  0.1194707E+00
         21   -1    0    0  505  501  0.00000000000E+00  0.00000000000E+00  0.10855257103E+04  0.10855257103E+04  0.00000000000E+00 0.  1.
         21   -1    0    0  501  502 -0.00000000000E+00 -0.00000000000E+00 -0.50539208988E+03  0.50539208988E+03  0.00000000000E+00 0. -1.
         21    1    1    2  503  502  0.47448413195E+02 -0.10513669475E+02 -0.43292917350E+03  0.43564843444E+03  0.00000000000E+00 0. -1.
         21    1    1    2  504  506 -0.86218058235E+02  0.34642169752E+02  0.50808365825E+03  0.51651005535E+03  0.00000000000E+00 0.  1.
         21    1    1    2  505  504 -0.49882780337E+02  0.37326903222E+02  0.52530834523E+03  0.52899002547E+03  0.00000000000E+00 0.  1.
         21    1    1    2  506  503  0.88652425377E+02 -0.61455403499E+02 -0.20329209580E+02  0.10976928490E+03  0.00000000000E+00 0. -1.
<scales pt_clust_3="48.59927" pt_clust_4="31.37807" pt_clust_5="31.37807" pt_clust_6="149.97191"></scales>
<clustering>
<clus scale="   31.378">  4  5 -1 -1</clus>
<clus scale="   48.599">  2  3  1 -1</clus>
<clus scale="  149.972">  2  6  1 -1</clus>
<clus scale="  154.790">  1  3  2 -1</clus>
</clustering>
</event>
<event>
 6    0  0.6207838E+002  0.8248124E+02  0.7546771E-02  0.1322154E+00
         21   -1    0    0  506  501  0.00000000000E+00  0.00000000000E+00  0.18040022651E+04  0.18040022651E+04  0.00000000000E+00 0. -1.
         21   -1    0    0  503  502 -0.00000000000E+00 -0.00000000000E+00 -0.36397518050E+03  0.36397518050E+03  0.00000000000E+00 0.  1.
         21    1    1    2  503  501  0.19731364709E+02 -0.80052708672E+02  0.17676312753E+04  0.17695530758E+04  0.00000000000E+00 0. -1.
         21    1    1    2  504  502 -0.52975590768E+02  0.74521533840E+01 -0.20380209194E+03  0.21070652692E+03  0.00000000000E+00 0.  1.
         21    1    1    2  505  504  0.54327684339E+02 -0.10300768970E+02 -0.54333090920E+02  0.77522176801E+02  0.00000000000E+00 0.  1.
         21    1    1    2  506  505 -0.21083458280E+02  0.82901324258E+02 -0.69469007779E+02  0.11019566606E+03  0.00000000000E+00 0. -1.
<scales pt_clust_3="14000.00000" pt_clust_4="53.49718" pt_clust_5="32.83399" pt_clust_6="82.48124"></scales>
<clustering>
<clus scale="   53.497">  2  4  1 -1</clus>
<clus scale="   32.834">  2  5  1 -1</clus>
<clus scale="   82.481">  2  6  1 -1</clus>
<clus scale="   82.481">  1  3  2 -1</clus>
</clustering>
</event>
<event>
 6    0  0.6207838E+002  0.8862847E+02  0.7546771E-02  0.1306207E+00
         21   -1    0    0  505  501  0.00000000000E+00  0.00000000000E+00  0.39191277959E+03  0.39191277959E+03  0.00000000000E+00 0.  1.
         21   -1    0    0  506  502 -0.00000000000E+00 -0.00000000000E+00 -0.11355386164E+03  0.11355386164E+03  0.00000000000E+00 0.  1.
         21    1    1    2  503  502  0.34928495773E+02  0.64311297726E+02 -0.31138122527E+02  0.79533172366E+02  0.00000000000E+00 0.  1.
         21    1    1    2  504  501 -0.62225157827E+01 -0.41148794573E+02  0.13781027279E+02  0.43839020408E+02  0.00000000000E+00 0.  1.
         21    1    1    2  505  503 -0.68130835881E+02  0.32541813450E+02  0.30410366539E+03  0.31333659174E+03  0.00000000000E+00 0.  1.
         21    1    1    2  506  504  0.39424855891E+02 -0.55704316603E+02 -0.83876521897E+01  0.68757856711E+02  0.00000000000E+00 0.  1.
<scales pt_clust_3="73.18431" pt_clust_4="36.34411" pt_clust_5="75.42518" pt_clust_6="36.34411"></scales>
<clustering>
<clus scale="   36.344">  4  6 -1 -1</clus>
<clus scale="   73.184">  2  3  1 -1</clus>
<clus scale="   75.425">  1  5  2 -1</clus>
<clus scale="   75.425">  1  3  2 -1</clus>
</clustering>
</event>
<event>
 6    0  0.6207838E+002  0.9351899E+02  0.7546771E-02  0.1294547E+00
         21   -1    0    0  504  501  0.00000000000E+00  0.00000000000E+00  0.41857277924E+03  0.41857277924E+03  0.00000000000E+00 0.  1.
         21   -1    0    0  506  502 -0.00000000000E+00 -0.00000000000E+00 -0.49894712714E+03  0.49894712714E+03  0.00000000000E+00 0. -1.
         21    1    1    2  503  505  0.83357544432E+02 -0.80235612108E+02  0.92436282577E+02  0.14809017523E+03  0.00000000000E+00 0.  1.
         21    1    1    2  504  502 -0.16549277399E+02  0.63717128671E+02 -0.15367121932E+02  0.67601031834E+02  0.00000000000E+00 0.  1.
         21    1    1    2  505  501 -0.37470432978E+02 -0.34036993492E+02  0.26782247327E+03  0.27256453816E+03  0.00000000000E+00 0.  1.
         21    1    1    2  506  503 -0.29337834055E+02  0.50555476929E+02 -0.42526598182E+03  0.42926416115E+03  0.00000000000E+00 0. -1.
<scales pt_clust_3="93.51899" pt_clust_4="14000.00000" pt_clust_5="50.62164" pt_clust_6="58.31196"></scales>
<clustering>
<clus scale="   50.622">  1  5  2 -1</clus>
<clus scale="   58.312">  2  6  1 -1</clus>
<clus scale="   93.519">  1  3  2 -1</clus>
<clus scale="   50.622">  1  3  2 -1</clus>
</clustering>
</event>
<event>
 6    0  0.6207838E+002  0.1267589E+03  0.7546771E-02  0.1232346E+00
         21   -1    0    0  503  501  0.00000000000E+00  0.00000000000E+00  0.68722350623E+03  0.68722350623E+03  0.00000000000E+00 0.  1.
         21   -1    0    0  504  502 -0.00000000000E+00 -0.00000000000E+00 -0.33540309993E+03  0.33540309993E+03  0.00000000000E+00 0.  1.
         21    1    1    2  503  502 -0.55749409075E+02 -0.62165586732E+02  0.75607851838E+02  0.11264592334E+03  0.00000000000E+00 0.  1.
         21    1    1    2  504  505 -0.17439496082E+02 -0.52176163521E+02 -0.30581069123E+03  0.31071959535E+03  0.00000000000E+00 0.  1.
         21    1    1    2  505  506  0.29031025755E+02  0.79885189646E+02  0.39445715163E+03  0.40351070426E+03  0.00000000000E+00 0.  1.
         21    1    1    2  506  501  0.44157879402E+02  0.34456560607E+02  0.18756609406E+03  0.19575038320E+03  0.00000000000E+00 0.  1.
<scales pt_clust_3="118.89354" pt_clust_4="55.01353" pt_clust_5="35.68230" pt_clust_6="35.68230"></scales>
<clustering>
<clus scale="   35.682">  5  6 -1 -1</clus>
<clus scale="   55.014">  2  4  1 -1</clus>
<clus scale="  118.894">  2  3  1 -1</clus>
<clus scale="  126.759">  1  3  2 -1</clus>
</clustering>
</event>
<event>
 6    0  0.6207838E+002  0.6653509E+02  0.7546771E-02  0.1372288E+00
         21   -1    0    0  506  501  0.00000000000E+00  0.00000000000E+00  0.39309594265E+03  0.39309594265E+03  0.00000000000E+00 0. -1.
         21   -1    0    0  505  502 -0.00000000000E+00 -0.00000000000E+00 -0.18381617676E+03  0.18381617676E+03  0.00000000000E+00 0. -1.
         21    1    1    2  503  504  0.67948098633E+02 -0.14306054410E+02  0.72891954838E+02  0.10067196422E+03  0.00000000000E+00 0. -1.
         21    1    1    2  504  502 -0.31506827957E+02 -0.90134085310E+01 -0.14901901441E+03  0.15257977716E+03  0.00000000000E+00 0. -1.
         21    1    1    2  505  501 -0.88464270210E+02 -0.10348954645E+02  0.14473757539E+03  0.16994703203E+03  0.00000000000E+00 0. -1.
         21    1    1    2  506  503  0.52022999533E+02  0.33668417586E+02  0.14066925007E+03  0.15371334600E+03  0.00000000000E+00 0. -1.
<scales pt_clust_3="66.53509" pt_clust_4="32.77075" pt_clust_5="14000.00000" pt_clust_6="55.80689"></scales>
<clustering>
<clus scale="   32.771">  2  4  1 -1</clus>
<clus scale="   55.807">  1  6  2 -1</clus>
<clus scale="   66.535">  2  3  1 -1</clus>
<clus scale="   55.807">  1  3  2 -1</clus>
</clustering>
</event>
<event>
 6    0  0.6207838E+002  0.1121540E+03  0.7546771E-02  0.1256632E+00
         21   -1    0    0  504  501  0.00000000000E+00  0.00000000000E+00  0.10986159153E+03  0.10986159153E+03  0.00000000000E+00 0.  1.
         21   -1    0    0  505  502 -0.00000000000E+00 -0.00000000000E+00 -0.15471656919E+04  0.15471656919E+04  0.00000000000E+00 0. -1.
         21    1    1    2  503  501 -0.70271221895E+02 -0.12984058439E+02 -0.58717971399E+03  0.59151216971E+03  0.00000000000E+00 0. -1.
         21    1    1    2  504  506  0.11328918726E+03 -0.17354038130E+02  0.68492751567E+02  0.13351726333E+03  0.00000000000E+00 0.  1.
         21    1    1    2  505  503 -0.35664033436E+02 -0.90388199232E+01 -0.86121494758E+03  0.86200046953E+03  0.00000000000E+00 0. -1.
         21    1    1    2  506  502 -0.73539319261E+01  0.39376916492E+02 -0.57402190320E+02  0.69997380814E+02  0.00000000000E+00 0.  1.
<scales pt_clust_3="112.15405" pt_clust_4="14000.00000" pt_clust_5="36.79162" pt_clust_6="39.98631"></scales>
<clustering>
<clus scale="   36.792">  2  5  1 -1</clus>
<clus scale="   39.986">  2  6  1 -1</clus>
<clus scale="  112.154">  2  3  1 -1</clus>
<clus scale="  112.154">  1  3  2 -1</clus>
</clustering>
</event>
<event>
 6    0  0.6207838E+002  0.7229515E+02  0.7546771E-02  0.1352458E+00
         21   -1    0    0  503  501  0.00000000000E+00  0.00000000000E+00  0.19991254095E+04  0.19991254095E+04  0.00000000000E+00 0. -1.
         21   -1    0    0  505  502 -0.00000000000E+00 -0.00000000000E+00 -0.89952511055E+02  0.89952511055E+02  0.00000000000E+00 0.  1.
         21    1    1    2  503  502  0.32706151684E+02  0.35728812498E+01 -0.45559693427E+01  0.33214675898E+02  0.00000000000E+00 0.  1.
         21    1    1    2  504  506  0.79141533577E+01  0.80698768624E+02  0.29371025725E+03  0.30469762108E+03  0.00000000000E+00 0.  1.
         21    1    1    2  505  504 -0.75238385207E+02 -0.59896189142E+02 -0.29895755548E+02  0.10070811428E+03  0.00000000000E+00 0.  1.
         21    1    1    2  506  501  0.34618080165E+02 -0.24375460732E+02  0.16499143661E+04  0.16504575093E+04  0.00000000000E+00 0. -1.
<scales pt_clust_3="32.90073" pt_clust_4="72.29515" pt_clust_5="14000.00000" pt_clust_6="42.43322"></scales>
<clustering>
<clus scale="   32.901">  2  3  1 -1</clus>
<clus scale="   42.433">  1  6  2 -1</clus>
<clus scale="   72.295">  1  4  2 -1</clus>
<clus scale="   42.433">  1  3  2 -1</clus>
</clustering>
</event>
<event>
 6    0  0.6207838E+002  0.1033715E+03  0.7546771E-02  0.1273362E+00
         21   -1    0    0  506  501  0.00000000000E+00  0.00000000000E+00  0.61070435842E+03  0.61070435842E+03  0.00000000000E+00 0. -1.
         21   -1    0    0  505  502 -0.00000000000E+00 -0.00000000000E+00 -0.95214663239E+02  0.95214663239E+02  0.00000000000E+00 0.  1.
         21    1    1    2  503  504  0.11891398372E+02  0.74894581280E+02  0.79881419201E+02  0.11014374605E+03  0.00000000000E+00 0.  1.
         21    1    1    2  504  501 -0.32413728695E+02 -0.11442644710E+03  0.41114598788E+03  0.42800126747E+03  0.00000000000E+00 0. -1.
         21    1    1    2  505  503  0.89019381464E+01 -0.53015809546E+02  0.47455545870E+02  0.71707387335E+02  0.00000000000E+00 0. -1.
         21    1    1    2  506  502  0.11620392176E+02  0.92547675366E+02 -0.22993257771E+02  0.96066620805E+02  0.00000000000E+00 0.  1.
<scales pt_clust_3="103.37148" pt_clust_4="14000.00000" pt_clust_5="53.75798" pt_clust_6="57.45566"></scales>
<clustering>
<clus scale="   53.758">  2  5  1 -1</clus>
<clus scale="   57.456">  2  6  1 -1</clus>
<clus scale="  103.371">  2  3  1 -1</clus>
<clus scale="  103.371">  1  3  2 -1</clus>
</clustering>
</event>
<event>
 6    0  0.6207838E+002  0.1384194E+03  0.7546771E-02  0.1215472E+00
         21   -1    0    0  503  501  0.00000000000E+00  0.00000000000E+00  0.15931502332E+03  0.15931502332E+03  0.00000000000E+00 0. -1.
         21   -1    0    0  506  502 -0.00000000000E+00 -0.00000000000E+00 -0.32852208447E+03  0.32852208447E+03  0.00000000000E+00 0. -1.
         21    1    1    2  503  502 -0.11974187002E+03  0.91018473693E+02 -0.20992499421E+03  0.25824597031E+03  0.00000000000E+00 0. -1.
         21    1    1    2  504  501  0.41948515129E+02 -0.49222192567E+02 -0.10653757996E+02  0.65543914455E+02  0.00000000000E+00 0. -1.
         21    1    1    2  505  504  0.59184053865E+02 -0.67590836976E+02  0.80714479390E+02  0.12077293016E+03  0.00000000000E+00 0. -1.
         21    1    1    2  506  505  0.18609301022E+02  0.25794555850E+02 -0.29342788335E+02  0.43274292869E+02  0.00000000000E+00 0. -1.
<scales pt_clust_3="14000.00000" pt_clust_4="63.81363" pt_clust_5="138.41942" pt_clust_6="31.80668"></scales>
<clustering>
<clus scale="   31.807">  2  6  1 -1</clus>
<clus scale="   63.814">  1  4  2 -1</clus>
<clus scale="  138.419">  1  5  2 -1</clus>
<clus scale="   63.814">  1  3  2 -1</clus>
</clustering>
</event>
<event>
 6    0  0.6207838E+002  0.1070873E+03  0.7546771E-02  0.1266061E+00
         21   -1    0    0  504  501  0.00000000000E+00  0.00000000000E+00  0.79841542291E+02  0.79841542291E+02  0.00000000000E+00 0. -1.
         21   -1    0    0  506  502 -0.00000000000E+00 -0.00000000000E+00 -0.10122909705E+04  0.10122909705E+04  0.00000000000E+00 0. -1.
         21    1    1    2  503  502  0.32532101433E+02  0.77635688131E+01 -0.94613766165E+02  0.10035125994E+03  0.00000000000E+00 0.  1.
         21    1    1    2  504  503  0.11420589665E+02 -0.31690749270E+02 -0.36308338786E+02  0.49528061975E+02  0.00000000000E+00 0. -1.
         21    1    1    2  505  501  0.68295666681E+01 -0.76929814947E+02  0.44223431152E+02  0.88997479018E+02  0.00000000000E+00 0. -1.
         21    1    1    2  506  505 -0.50782257766E+02  0.10085699540E+03 -0.84575075439E+03  0.85325571184E+03  0.00000000000E+00 0. -1.
<scales pt_clust_3="33.44564" pt_clust_4="33.89648" pt_clust_5="107.08728" pt_clust_6="14000.00000"></scales>
<clustering>
<clus scale="   33.446">  2  3  1 -1</clus>
<clus scale="   33.896">  1  4  2 -1</clus>
<clus scale="  107.087">  1  5  2 -1</clus>
<clus scale="   33.896">  1  3  2 -1</clus>
</clustering>
</event>
<event>
 6    0  0.6207838E+002  0.8263162E+02  0.7546771E-02  0.1321745E+00
         21   -1    0    0  505  501  0.00000000000E+00  0.00000000000E+00  0.86208625066E+03  0.86208625066E+03  0.00000000000E+00 0. -1.
         21   -1    0    0  503  502 -0.00000000000E+00 -0.00000000000E+00 -0.11740661484E+03  0.11740661484E+03  0.00000000000E+00 0.  1.
         21    1    1    2  503  501 -0.42901519619E+02  0.23450674963E+01  0.26272878957E+03  0.26621881338E+03  0.00000000000E+00 0. -1.
         21    1    1    2  504  506  0.68524327333E+01 -0.76176139618E+02  0.23225122474E+03  0.24452073834E+03  0.00000000000E+00 0. -1.
         21    1    1    2  505  504  0.86925233833E+02  0.71726765915E+01  0.33676275272E+03  0.34787439570E+03  0.00000000000E+00 0. -1.
         21    1    1    2  506  502 -0.50876146947E+02  0.66658395531E+02 -0.87063131209E+02  0.12087891809E+03  0.00000000000E+00 0.  1.
<scales pt_clust_3="42.96556" pt_clust_4="82.63162" pt_clust_5="62.92967" pt_clust_6="14000.00000"></scales>
<clustering>
<clus scale="   42.966">  1  3  2 -1</clus>
<clus scale="   62.930">  1  5  2 -1</clus>
<clus scale="   82.632">  1  4  2 -1</clus>
<clus scale="   42.966">  1  3  2 -1</clus>
</clustering>
</event>
<event>
 6    0  0.6207838E+002  0.9191822E+02  0.7546771E-02  0.1298272E+00
         21   -1    0    0  506  501  0.00000000000E+00  0.00000000000E+00  0.48313193533E+03  0.48313193533E+03  0.00000000000E+00 0.  1.
         21   -1    0    0  503  502 -0.00000000000E+00 -0.00000000000E+00 -0.23641450500E+04  0.23641450500E+04  0.00000000000E+00 0. -1.
         21    1    1    2  503  501  0.26429438384E+02 -0.64036414666E+02 -0.90355539471E+02  0.11385649358E+03  0.00000000000E+00 0.  1.
         21    1    1    2  504  505 -0.43192858335E+02  0.10118244955E+03 -0.48339093548E+03  0.49575226436E+03  0.00000000000E+00 0.  1.
         21    1    1    2  505  502  0.23396936080E+01 -0.89726133592E+02 -0.17697286441E+04  0.17720033090E+04  0.00000000000E+00 0. -1.
         21    1    1    2  506  504  0.14423726343E+02  0.52580098703E+02  0.46246200444E+03  0.46566491838E+03  0.00000000000E+00 0.  1.
<scales pt_clust_3="47.41442" pt_clust_4="14000.00000" pt_clust_5="91.91822" pt_clust_6="54.52257"></scales>
<clustering>
<clus scale="   54.523">  1  6  2 -1</clus>
<clus scale="   47.414">  1  3  2 -1</clus>
<clus scale="   91.918">  2  5  1 -1</clus>
<clus scale="   54.523">  1  3  2 -1</clus>
</clustering>
</event>
<event>
 6    0  0.6207838E+002  0.1668767E+03  0.7546771E-02  0.1181145E+00
         21   -1    0    0  505  501  0.00000000000E+00  0.00000000000E+00  0.63325965115E+03  0.63325965115E+03  0.00000000000E+00 0.  1.
         21   -1    0    0  503  502 -0.00000000000E+00 -0.00000000000E+00 -0.13711135202E+03  0.13711135202E+03  0.00000000000E+00 0.  1.
         21    1    1    2  503  504 -0.14045606301E+02 -0.12296756972E+03 -0.20993238272E+02  0.12553492865E+03  0.00000000000E+00 0.  1.
         21    1    1    2  504  501  0.11209019713E+03  0.20579701478E+03  0.25257149002E+03  0.34454169726E+03  0.00000000000E+00 0.  1.
         21    1    1    2  505  506 -0.34265363174E+02 -0.32610537794E+02  0.41550568267E+02  0.62960400348E+02  0.00000000000E+00 0. -1.
         21    1    1    2  506  502 -0.63779227654E+02 -0.50218907265E+02  0.22301947912E+03  0.23733397690E+03  0.00000000000E+00 0.  1.
<scales pt_clust_3="123.76713" pt_clust_4="155.37662" pt_clust_5="46.47039" pt_clust_6="46.47039"></scales>
<clustering>
<clus scale="   46.470">  5  6 -1 -1</clus>
<clus scale="  123.767">  2  3  1 -1</clus>
<clus scale="  155.377">  2  4  1 -1</clus>
<clus scale="  166.877">  1  3  2 -1</clus>
</clustering>
</event>
<event>
 6    0  0.6207838E+002  0.1309942E+03  0.7546771E-02  0.1225988E+00
         21   -1    0    0  505  501  0.00000000000E+00  0.00000000000E+00  0.15993878038E+03  0.15993878038E+03  0.00000000000E+00 0.  1.
         21   -1    0    0  503  502 -0.00000000000E+00 -0.00000000000E+00 -0.20319789106E+03  0.20319789106E+03  0.00000000000E+00 0.  1.
         21    1    1    2  503  504 -0.23195421283E+02 -0.23152403398E+02 -0.30543951066E+02  0.44799489934E+02  0.00000000000E+00 0. -1.
         21    1    1    2  504  506  0.31111611096E+02  0.37659389920E+02 -0.43509665359E+01  0.49041746543E+02  0.00000000000E+00 0.  1.
         21    1    1    2  505  502 -0.12370790005E+03  0.46173163053E+02 -0.33374791743E+02  0.13619648396E+03  0.00000000000E+00 0.  1.
         21    1    1    2  506  501  0.11579171023E+03 -0.60680149575E+02  0.25010598671E+02  0.13309895100E+03  0.00000000000E+00 0.  1.
<scales pt_clust_3="32.77288" pt_clust_4="43.58989" pt_clust_5="130.99422" pt_clust_6="14000.00000"></scales>
<clustering>
<clus scale="   32.773">  2  3  1 -1</clus>
<clus scale="   43.590">  2  4  1 -1</clus>
<clus scale="  130.994">  2  5  1 -1</clus>
<clus scale="  130.994">  1  3  2 -1</clus>
</clustering>
</event>
<event>
 6    0  0.6207838E+002  0.1463327E+03  0.7546771E-02  0.1205053E+00
         21   -1    0    0  505  501  0.00000000000E+00  0.00000000000E+00  0.12109669654E+03  0.12109669654E+03  0.00000000000E+00 0.  1.
         21   -1    0    0  506  502 -0.00000000000E+00 -0.00000000000E+00 -0.12542411746E+04  0.12542411746E+04  0.00000000000E+00 0. -1.
         21    1    1    2  503  504  0.51024462329E+02  0.66166832504E+02 -0.36775847542E+03  0.37713106703E+03  0.00000000000E+00 0. -1.
         21    1    1    2  504  501 -0.17662961821E+02  0.27971747716E+02  0.10092795662E+03  0.10621135212E+03  0.00000000000E+00 0.  1.
         21    1    1    2  505  502 -0.86557265907E+02 -0.11591791596E+03 -0.47684212922E+03  0.49830466556E+03  0.00000000000E+00 0. -1.
         21    1    1    2  506  503  0.53195765399E+02  0.21779335739E+02 -0.38947183002E+03  0.39369078641E+03  0.00000000000E+00 0. -1.
<scales pt_clust_3="37.70191" pt_clust_4="33.08170" pt_clust_5="138.71213" pt_clust_6="37.70191"></scales>
<clustering>
<clus scale="   33.082">  1  4  2 -1</clus>
<clus scale="   37.702">  3  6 -1 -1</clus>
<clus scale="  138.712">  1  5  2 -1</clus>
<clus scale="   33.082">  1  3  2 -1</clus>
</clustering>
</event>
<event>
 6    0  0.6207838E+002  0.1178898E+03  0.7546771E-02  0.1246619E+00
         21   -1    0    0  506  501  0.00000000000E+00  0.00000000000E+00  0.12748487560E+03  0.12748487560E+03  0.00000000000E+00 0. -1.
         21   -1    0    0  504  502 -0.00000000000E+00 -0.00000000000E+00 -0.20870852721E+03  0.20870852721E+03  0.00000000000E+00 0.  1.
         21    1    1    2  503  501 -0.88395393006E+02  0.44015998543E+02  0.30385751538E+02  0.10331721797E+03  0.00000000000E+00 0. -1.
         21    1    1    2  504  503 -0.24971780496E+02  0.19047129969E+02 -0.20070396494E+02  0.37272024316E+02  0.00000000000E+00 0. -1.
         21    1    1    2  505  502  0.10119456733E+03  0.55195800512E+00 -0.81767175089E+02  0.13010194479E+03  0.00000000000E+00 0.  1.
         21    1    1    2  506  505  0.12172606167E+02 -0.63615086517E+02 -0.97718315617E+01  0.65502215730E+02  0.00000000000E+00 0. -1.
<scales pt_clust_3="30.00056" pt_clust_4="30.00056" pt_clust_5="105.20533" pt_clust_6="64.76922"></scales>
<clustering>
<clus scale="   30.001">  3  4 -1 -1</clus>
<clus scale="   64.769">  1  6  2 -1</clus>
<clus scale="  105.205">  2  5  1 -1</clus>
<clus scale="   64.769">  1  3  2 -1</clus>
</clustering>
</event>
<event>
 6    0  0.6207838E+002  0.9929461E+02  0.7546771E-02  0.1281786E+00
         21   -1    0    0  506  501  0.00000000000E+00  0.00000000000E+00  0.64382978383E+02  0.64382978383E+02  0.00000000000E+00 0. -1.
         21   -1    0    0  503  502 -0.00000000000E+00 -0.00000000000E+00 -0.28728184321E+04  0.28728184321E+04  0.00000000000E+00 0. -1.
         21    1    1    2  503  505  0.66993206274E+02  0.43083120074E+02 -0.53161483257E+03  0.53754867234E+03  0.00000000000E+00 0. -1.
         21    1    1    2  504  502  0.15288988156E+02 -0.46653654658E+02 -0.90356926813E+03  0.90490206042E+03  0.00000000000E+00 0. -1.
         21    1    1    2  505  501  0.39222405196E+02  0.16967038191E+02  0.50275969146E+02  0.65984471870E+02  0.00000000000E+00 0. -1.
         21    1    1    2  506  504 -0.12150459963E+03 -0.13396503607E+02 -0.14235273222E+04  0.14287662059E+04  0.00000000000E+00 0. -1.
<scales pt_clust_3="99.29461" pt_clust_4="48.88922" pt_clust_5="42.73497" pt_clust_6="14000.00000"></scales>
<clustering>
<clus scale="   42.735">  1  5  2 -1</clus>
<clus scale="   48.889">  2  4  1 -1</clus>
<clus scale="   99.295">  1  3  2 -1</clus>
<clus scale="   42.735">  1  3  2 -1</clus>
</clustering>
</event>
<event>
 6    0  0.6207838E+002  0.1076676E+03  0.7546771E-02  0.1264951E+00
         21   -1    0    0  505  501  0.00000000000E+00  0.00000000000E+00  0.18440359760E+03  0.18440359760E+03  0.00000000000E+00 0.  1.
         21   -1    0    0  504  502 -0.00000000000E+00 -0.00000000000E+00 -0.12076728600E+04  0.12076728600E+04  0.00000000000E+00 0.  1.
         21    1    1    2  503  501  0.23334596954E+02  0.25023928256E+02  0.16001128177E+03  0.16362857542E+03  0.00000000000E+00 0.  1.
         21    1    1    2  504  503  0.54264741813E+02 -0.11595554649E+02 -0.22583003766E+03  0.23254746827E+03  0.00000000000E+00 0.  1.
         21    1    1    2  505  506 -0.59418436869E+02  0.87449675493E+02 -0.15928421807E+03  0.19117912676E+03  0.00000000000E+00 0.  1.
         21    1    1    2  506  502 -0.18180901898E+02 -0.10087804910E+03 -0.79816628842E+03  0.80472128713E+03  0.00000000000E+00 0.  1.
<scales pt_clust_3="34.21550" pt_clust_4="58.26959" pt_clust_5="14000.00000" pt_clust_6="107.66760"></scales>
<clustering>
<clus scale="   34.215">  1  3  2 -1</clus>
<clus scale="   58.270">  2  4  1 -1</clus>
<clus scale="  107.668">  2  6  1 -1</clus>
<clus scale="   34.215">  1  3  2 -1</clus>
</clustering>
</event>
<event>
 6    0  0.6207838E+002  0.1390023E+03  0.7546771E-02  0.1214678E+00
         21   -1    0    0  504  501  0.00000000000E+00  0.00000000000E+00  0.98729583001E+02  0.98729583001E+02  0.00000000000E+00 0.  1.
         21   -1    0    0  505  502 -0.00000000000E+00 -0.00000000000E+00 -0.42871537992E+03  0.42871537992E+03  0.00000000000E+00 0.  1.
         21    1    1    2  503  506 -0.49468666024E+02  0.47232867110E+02 -0.13922406703E+03  0.15511748288E+03  0.00000000000E+00 0.  1.
         21    1    1    2  504  503  0.32229082399E+02 -0.12177202203E+03 -0.11867940102E+03  0.17306628594E+03  0.00000000000E+00 0.  1.
         21    1    1    2  505  501  0.71744163314E+02  0.14661442377E+02  0.20719392288E+02  0.76101748200E+02  0.00000000000E+00 0.  1.
         21    1    1    2  506  502 -0.54504579689E+02  0.59877712544E+02 -0.92801721151E+02  0.12315944590E+03  0.00000000000E+00 0.  1.
<scales pt_clust_3="33.37902" pt_clust_4="134.17407" pt_clust_5="73.22693" pt_clust_6="33.37902"></scales>
<clustering>
<clus scale="   33.379">  3  6 -1 -1</clus>
<clus scale="   73.227">  1  5  2 -1</clus>
<clus scale="  134.174">  1  4  2 -1</clus>
<clus scale="   73.227">  1  3  2 -1</clus>
</clustering>
</event>
<event>
 6    0  0.6207838E+002  0.8621964E+02  0.7546771E-02  0.1312274E+00
         21   -1    0    0  503  501  0.00000000000E+00  0.00000000000E+00  0.50459607361E+03  0.50459607361E+03  0.00000000000E+00 0. -1.
         21   -1    0    0  505  502 -0.00000000000E+00 -0.00000000000E+00 -0.12356363318E+03  0.12356363318E+03  0.00000000000E+00 0. -1.
         21    1    1    2  503  504 -0.72082130000E+01 -0.77273107919E+02  0.19583842770E+03  0.21065559881E+03  0.00000000000E+00 0. -1.
         21    1    1    2  504  502 -0.96836769520E+02  0.36534536524E+02  0.39668975898E+02  0.11084114732E+03  0.00000000000E+00 0. -1.
         21    1    1    2  505  506  0.26951589757E+02  0.21312928335E+02 -0.69435139121E+02  0.77471721611E+02  0.00000000000E+00 0. -1.
         21    1    1    2  506  501  0.77093392763E+02  0.19425643061E+02  0.21496017595E+03  0.22919123906E+03  0.00000000000E+00 0. -1.
<scales pt_clust_3="74.19214" pt_clust_4="14000.00000" pt_clust_5="34.36028" pt_clust_6="86.21964"></scales>
<clustering>
<clus scale="   34.360">  2  5  1 -1</clus>
<clus scale="   74.192">  1  3  2 -1</clus>
<clus scale="   86.220">  1  6  2 -1</clus>
<clus scale="   74.192">  1  3  2 -1</clus>
</clustering>
</event>
<event>
 6    0  0.6207838E+002  0.7289151E+02  0.7546771E-02  0.1350528E+00
         21   -1    0    0  506  501  0.00000000000E+00  0.00000000000E+00  0.48784115065E+03  0.48784115065E+03  0.00000000000E+00 0. -1.
         21   -1    0    0  503  502 -0.00000000000E+00 -0.00000000000E+00 -0.21262269684E+03  0.21262269684E+03  0.00000000000E+00 0. -1.
         21    1    1    2  503  504 -0.63153394986E+02 -0.29126201850E+02 -0.84194617960E+02  0.10920357424E+03  0.00000000000E+00 0. -1.
         21    1    1    2  504  505 -0.44640463954E+02  0.46572919988E+02 -0.81208710616E+02  0.10371433159E+03  0.00000000000E+00 0. -1.
         21    1    1    2  505  501  0.60994838191E+02 -0.40515047995E+02  0.42752664704E+03  0.43375208740E+03  0.00000000000E+00 0. -1.
         21    1    1    2  506  502  0.46799020748E+02  0.23068329856E+02  0.13095135346E+02  0.53793854250E+02  0.00000000000E+00 0. -1.
<scales pt_clust_3="43.31993" pt_clust_4="14000.00000" pt_clust_5="72.89151" pt_clust_6="52.17563"></scales>
<clustering>
<clus scale="   52.176">  2  6  1 -1</clus>
<clus scale="   43.320">  2  3  1 -1</clus>
<clus scale="   72.892">  1  5  2 -1</clus>
<clus scale="   72.892">  1  3  2 -1</clus>
</clustering>
</event>
<event>
 6    0  0.6207838E+002  0.1444655E+03  0.7546771E-02  0.1207444E+00
         21   -1    0    0  504  501  0.00000000000E+00  0.00000000000E+00  0.24519983598E+03  0.24519983598E+03  0.00000000000E+00 0. -1.
         21   -1    0    0  505  502 -0.00000000000E+00 -0.00000000000E+00 -0.30998880774E+03  0.30998880774E+03  0.00000000000E+00 0. -1.
         21    1    1    2  503  506  0.13726994497E+03 -0.11166132348E+02  0.10610648989E+03  0.17385714682E+03  0.00000000000E+00 0. -1.
         21    1    1    2  504  503  0.18498514519E+02  0.37145649230E+02  0.32287998078E+02  0.52578599411E+02  0.00000000000E+00 0. -1.
         21    1    1    2  505  501 -0.10741314438E+03 -0.10583934244E+03 -0.17547807936E+03  0.23137006360E+03  0.00000000000E+00 0. -1.
         21    1    1    2  506  502 -0.48355315110E+02  0.79859825558E+02 -0.27705380359E+02  0.97382833900E+02  0.00000000000E+00 0. -1.
<scales pt_clust_3="14000.00000" pt_clust_4="41.49692" pt_clust_5="144.46546" pt_clust_6="97.35838"></scales>
<clustering>
<clus scale="   41.497">  1  4  2 -1</clus>
<clus scale="   97.358">  2  6  1 -1</clus>
<clus scale="  144.465">  2  5  1 -1</clus>
<clus scale="   41.497">  1  3  2 -1</clus>
</clustering>
</event>
<event>
 6    0  0.6207838E+002  0.1014242E+03  0.7546771E-02  0.1277329E+00
         21   -1    0    0  505  501  0.00000000000E+00  0.00000000000E+00  0.74968370113E+03  0.74968370113E+03  0.00000000000E+00 0. -1.
         21   -1    0    0  506  502 -0.00000000000E+00 -0.00000000000E+00 -0.93431047609E+02  0.93431047609E+02  0.00000000000E+00 0. -1.
         21    1    1    2  503  501  0.24764382079E+02 -0.14976602985E+03  0.74057713272E+02  0.16890140086E+03  0.00000000000E+00 0. -1.
         21    1    1    2  504  502 -0.55163329225E+02  0.50797551170E+02  0.54016517180E+02  0.92418440932E+02  0.00000000000E+00 0. -1.
         21    1    1    2  505  504 -0.31584485336E+01  0.57744862532E+02  0.52539349031E+03  0.52856670781E+03  0.00000000000E+00 0. -1.
         21    1    1    2  506  503  0.33557395679E+02  0.41223616148E+02  0.27849327595E+01  0.53228199139E+02  0.00000000000E+00 0.  1.
<scales pt_clust_3="14000.00000" pt_clust_4="101.42416" pt_clust_5="58.75190" pt_clust_6="53.15529"></scales>
<clustering>
<clus scale="   53.155">  2  6  1 -1</clus>
<clus scale="   58.752">  1  5  2 -1</clus>
<clus scale="  101.424">  1  4  2 -1</clus>
<clus scale="   58.752">  1  3  2 -1</clus>
</clustering>
</event>
<event>
 6    0  0.6207838E+002  0.7534410E+02  0.7546771E-02  0.1342809E+00
         21   -1    0    0  504  501  0.00000000000E+00  0.00000000000E+00  0.26989674329E+03  0.26989674329E+03  0.00000000000E+00 0. -1.
         21   -1    0    0  506  502 -0.00000000000E+00 -0.00000000000E+00 -0.82145529683E+03  0.82145529683E+03  0.00000000000E+00 0.  1.
         21    1    1    2  503  501 -0.81015474941E+02  0.28720674915E+01  0.21116989429E+03  0.22619566797E+03  0.00000000000E+00 0. -1.
         21    1    1    2  504  502 -0.26756463447E+02 -0.49470838115E+02 -0.72243932017E+03  0.72462531248E+03  0.00000000000E+00 0.  1.
         21    1    1    2  505  503  0.53621020104E+02  0.36236997501E+02  0.10507152199E+02  0.65564731618E+02  0.00000000000E+00 0.  1.
         21    1    1    2  506  505  0.54150918284E+02  0.10361773123E+02 -0.50796279873E+02  0.74966328056E+02  0.00000000000E+00 0.  1.
<scales pt_clust_3="14000.00000" pt_clust_4="46.76376" pt_clust_5="75.34410" pt_clust_6="55.13337"></scales>
<clustering>
<clus scale="   55.133">  2  6  1 -1</clus>
<clus scale="   46.764">  2  4  1 -1</clus>
<clus scale="   75.344">  2  5  1 -1</clus>
<clus scale="   75.344">  1  3  2 -1</clus>
</clustering>
</event>
<event>
 6    0  0.6207838E+002  0.1083193E+03  0.7546771E-02  0.1263714E+00
         21   -1    0    0  503  501  0.00000000000E+00  0.00000000000E+00  0.38048186882E+02  0.38048186882E+02  0.00000000000E+00 0.  1.
         21   -1    0    0  504  502 -0.00000000000E+00 -0.00000000000E+00 -0.13906719891E+04  0.13906719891E+04  0.00000000000E+00 0.  1.
         21    1    1    2  503  502  0.18322236282E+02 -0.51023125136E+02 -0.64308233693E+03  0.64536342917E+03  0.00000000000E+00 0. -1.
         21    1    1    2  504  505 -0.17730273952E+02  0.31932270890E+02 -0.19230756137E+03  0.19574532102E+03  0.00000000000E+00 0. -1.
         21    1    1    2  505  506  0.75438623733E+02 -0.61726732240E+02 -0.44420912201E+03  0.45477787930E+03  0.00000000000E+00 0.  1.
         21    1    1    2  506  501 -0.76030586063E+02  0.80817586486E+02 -0.73024781911E+02  0.13283354650E+03  0.00000000000E+00 0.  1.
<scales pt_clust_3="34.95212" pt_clust_4="36.52441" pt_clust_5="14000.00000" pt_clust_6="108.31933"></scales>
<clustering>
<clus scale="   36.524">  2  4  1 -1</clus>
<clus scale="   34.952">  2  3  1 -1</clus>
<clus scale="  108.319">  1  6  2 -1</clus>
<clus scale="  108.319">  1  3  2 -1</clus>
</clustering>
</event>
<event>
 6    0  0.6207838E+002  0.1295292E+03  0.7546771E-02  0.1228156E+00
         21   -1    0    0  506  501  0.00000000000E+00  0.00000000000E+00  0.27271361033E+03  0.27271361033E+03  0.00000000000E+00 0.  1.
         21   -1    0    0  505  502 -0.00000000000E+00 -0.00000000000E+00 -0.85473990126E+03  0.85473990126E+03  0.00000000000E+00 0.  1.
         21    1    1    2  503  502  0.33514372609E+02  0.94820985502E+02 -0.76520956317E+03  0.77179006733E+03  0.00000000000E+00 0.  1.
         21    1    1    2  504  501  0.34565411105E+02  0.29806639671E+02  0.67588102680E+02  0.81555839995E+02  0.00000000000E+00 0.  1.
         21    1    1    2  505  504  0.34436182252E+02  0.13815029555E+02 -0.30657008334E+02  0.48130633173E+02  0.00000000000E+00 0.  1.
         21    1    1    2  506  503 -0.10251596597E+03 -0.13844265473E+03  0.14625217790E+03  0.22597697110E+03  0.00000000000E+00 0.  1.
<scales pt_clust_3="14000.00000" pt_clust_4="45.94290" pt_clust_5="37.10398" pt_clust_6="129.52915"></scales>
<clustering>
<clus scale="   37.104">  2  5  1 -1</clus>
<clus scale="   45.943">  1  4  2 -1</clus>
<clus scale="  129.529">  1  6  2 -1</clus>
<clus scale="   45.943">  1  3  2 -1</clus>
</clustering>
</event>
<event>
 6    0  0.6207838E+002  0.1142603E+03  0.7546771E-02  0.1252878E+00
         21   -1    0    0  504  501  0.00000000000E+00  0.00000000000E+00  0.35869393886E+03  0.35869393886E+03  0.00000000000E+00 0. -1.
         21   -1    0    0  506  502 -0.00000000000E+00 -0.00000000000E+00 -0.16290305643E+03  0.16290305643E+03  0.00000000000E+00 0.  1.
         21    1    1    2  503  501  0.27315408374E+02 -0.10709951995E+03  0.20675956127E+03  0.23444819233E+03  0.00000000000E+00 0. -1.
         21    1    1    2  504  505 -0.38571822906E+02  0.38687844736E+02  0.43485286063E+02  0.69824816195E+02  0.00000000000E+00 0. -1.
         21    1    1    2  505  502 -0.44536628074E+02 -0.35785653880E+02  0.36837174122E+02  0.67978685344E+02  0.00000000000E+00 0.  1.
         21    1    1    2  506  503  0.55793042606E+02  0.10419732909E+03 -0.91291139029E+02  0.14934530143E+03  0.00000000000E+00 0.  1.
<scales pt_clust_3="114.26034" pt_clust_4="54.63090" pt_clust_5="58.90395" pt_clust_6="14000.00000"></scales>
<clustering>
<clus scale="   54.631">  1  4  2 -1</clus>
<clus scale="   58.904">  1  5  2 -1</clus>
<clus scale="  114.260">  1  3  2 -1</clus>
<clus scale="   54.631">  1  3  2 -1</clus>
</clustering>
</event>
<event>
 6    0  0.6207838E+002  0.1001239E+03  0.7546771E-02  0.1280036E+00
         21   -1    0    0  506  501  0.00000000000E+00  0.00000000000E+00  0.12287749910E+03  0.12287749910E+03  0.00000000000E+00 0.  1.
         21   -1    0    0  505  502 -0.00000000000E+00 -0.00000000000E+00 -0.15247528901E+04  0.15247528901E+04  0.00000000000E+00 0.  1.
         21    1    1    2  503  504  0.12207604093E+02 -0.11276867389E+03 -0.10481391573E+04  0.10542587408E+04  0.00000000000E+00 0.  1.
         21    1    1    2  504  502  0.22801763542E+02  0.21080287208E+02 -0.35385291394E+03  0.35521287088E+03  0.00000000000E+00 0.  1.
         21    1    1    2  505  501  0.42031433081E+02  0.27149710281E+02 -0.90127810162E+02  0.10308622750E+03  0.00000000000E+00 0. -1.
         21    1    1    2  506  503 -0.77040800716E+02  0.64538676405E+02  0.90244490422E+02  0.13507255006E+03  0.00000000000E+00 0.  1.
<scales pt_clust_3="100.12385" pt_clust_4="31.05316" pt_clust_5="52.56477" pt_clust_6="14000.00000"></scales>
<clustering>
<clus scale="   31.053">  2  4  1 -1</clus>
<clus scale="   52.565">  2  5  1 -1</clus>
<clus scale="  100.124">  2  3  1 -1</clus>
<clus scale="  100.124">  1  3  2 -1</clus>
</clustering>
</event>
<event>
 6    0  0.6207838E+002  0.1597256E+03  0.7546771E-02  0.1189007E+00
         21   -1    0    0  504  501  0.00000000000E+00  0.00000000000E+00  0.12848991935E+04  0.12848991935E+04  0.00000000000E+00 0.  1.
         21   -1    0    0  506  502 -0.00000000000E+00 -0.00000000000E+00 -0.15080392540E+03  0.15080392540E+03  0.00000000000E+00 0. -1.
         21    1    1    2  503  505 -0.22979982905E+02 -0.12229394796E+03  0.85408752927E+03  0.86310451104E+03  0.00000000000E+00 0.  1.
         21    1    1    2  504  502  0.88420288697E+02  0.52138712770E+02  0.87509053186E+02  0.13488671992E+03  0.00000000000E+00 0.  1.
         21    1    1    2  505  501 -0.41976371144E+02 -0.28704255369E+02  0.29146843338E+03  0.29587125185E+03  0.00000000000E+00 0. -1.
         21    1    1    2  506  503 -0.23463934648E+02  0.98859490555E+02 -0.98969747691E+02  0.14184063614E+03  0.00000000000E+00 0. -1.
<scales pt_clust_3="39.95608" pt_clust_4="146.98873" pt_clust_5="39.95608" pt_clust_6="101.60588"></scales>
<clustering>
<clus scale="   39.956">  3  5 -1 -1</clus>
<clus scale="  101.606">  2  6  1 -1</clus>
<clus scale="  146.989">  2  4  1 -1</clus>
<clus scale="  159.726">  1  3  2 -1</clus>
</clustering>
</event>
<event>
 6    0  0.6207838E+002  0.1225435E+03  0.7546771E-02  0.1238959E+00
         21   -1    0    0  504  501  0.00000000000E+00  0.00000000000E+00  0.98429130340E+03  0.98429130340E+03  0.00000000000E+00 0. -1.
         21   -1    0    0  503  502 -0.00000000000E+00 -0.00000000000E+00 -0.91302326460E+02  0.91302326460E+02  0.00000000000E+00 0. -1.
         21    1    1    2  503  506  0.75821206907E+02  0.10097862701E+03 -0.14961648026E+02  0.12715891413E+03  0.00000000000E+00 0. -1.
         21    1    1    2  504  505  0.75962003538E+01 -0.98622285441E+02  0.47270011680E+03  0.48293835825E+03  0.00000000000E+00 0. -1.
         21    1    1    2  505  502 -0.11201939952E+03 -0.35493027016E+02  0.35690394099E+03  0.37575061401E+03  0.00000000000E+00 0. -1.
         21    1    1    2  506  501  0.28601992258E+02  0.33136685446E+02  0.78346567176E+02  0.89745743474E+02  0.00000000000E+00 0. -1.
<scales pt_clust_3="122.54352" pt_clust_4="84.17472" pt_clust_5="14000.00000" pt_clust_6="43.77344"></scales>
<clustering>
<clus scale="   43.773">  1  6  2 -1</clus>
<clus scale="   84.175">  1  4  2 -1</clus>
<clus scale="  122.544">  2  3  1 -1</clus>
<clus scale="   43.773">  1  3  2 -1</clus>
</clustering>
</event>
<event>
 6    0  0.6207838E+002  0.9093789E+02  0.7546771E-02  0.1300596E+00
         21   -1    0    0  505  501  0.00000000000E+00  0.00000000000E+00  0.27226873267E+03  0.27226873267E+03  0.00000000000E+00 0. -1.
         21   -1    0    0  503  502 -0.00000000000E+00 -0.00000000000E+00 -0.85249642435E+03  0.85249642435E+03  0.00000000000E+00 0. -1.
         21    1    1    2  503  504 -0.76409092992E+02  0.49678873509E+01  0.29688833993E+02  0.82124638571E+02  0.00000000000E+00 0. -1.
         21    1    1    2  504  501  0.18630460622E+02 -0.34525092226E+02  0.12458709125E+03  0.13061783708E+03  0.00000000000E+00 0. -1.
         21    1    1    2  505  506  0.12547107127E+03  0.43005007683E+02  0.36792599684E+02  0.13764489021E+03  0.00000000000E+00 0. -1.
         21    1    1    2  506  502 -0.67692438896E+02 -0.13447802807E+02 -0.77129621661E+03  0.77437779116E+03  0.00000000000E+00 0. -1.
<scales pt_clust_3="90.93789" pt_clust_4="39.23106" pt_clust_5="14000.00000" pt_clust_6="68.89347"></scales>
<clustering>
<clus scale="   39.231">  1  4  2 -1</clus>
<clus scale="   68.893">  2  6  1 -1</clus>
<clus scale="   90.938">  1  3  2 -1</clus>
<clus scale="   39.231">  1  3  2 -1</clus>
</clustering>
</event>
<event>
 6    0  0.6207838E+002  0.1136158E+03  0.7546771E-02  0.1254017E+00
         21   -1    0    0  505  501  0.00000000000E+00  0.00000000000E+00  0.12570572968E+04  0.12570572968E+04  0.00000000000E+00 0. -1.
         21   -1    0    0  501  502 -0.00000000000E+00 -0.00000000000E+00 -0.29394825642E+03  0.29394825642E+03  0.00000000000E+00 0.  1.
         21    1    1    2  503  504  0.73800547766E+02  0.11621912225E+02 -0.15704194603E+02  0.76342723442E+02  0.00000000000E+00 0.  1.
         21    1    1    2  504  502 -0.80612715245E+02 -0.12645350339E+02 -0.19382191455E+03  0.21029800119E+03  0.00000000000E+00 0.  1.
         21    1    1    2  505  506 -0.10222674895E+03  0.84388922742E+01  0.11476883383E+04  0.11522630103E+04  0.00000000000E+00 0. -1.
         21    1    1    2  506  503  0.10903891643E+03 -0.74154541609E+01  0.24946811183E+02  0.11210181821E+03  0.00000000000E+00 0. -1.
<scales pt_clust_3="36.77104" pt_clust_4="81.59850" pt_clust_5="104.54953" pt_clust_6="36.77104"></scales>
<clustering>
<clus scale="   36.771">  3  6 -1 -1</clus>
<clus scale="   81.598">  2  4  1 -1</clus>
<clus scale="  104.550">  1  5  2 -1</clus>
<clus scale="  104.550">  1  3  2 -1</clus>
</clustering>
</event>
<event>
 6    0  0.6207838E+002  0.1047718E+03  0.7546771E-02  0.1270570E+00
         21   -1    0    0  506  501  0.00000000000E+00  0.00000000000E+00  0.29739800178E+03  0.29739800178E+03  0.00000000000E+00 0. -1.
         21   -1    0    0  504  502 -0.00000000000E+00 -0.00000000000E+00 -0.57959630248E+03  0.57959630248E+03  0.00000000000E+00 0.  1.
         21    1    1    2  503  505  0.69694231306E+02 -0.97465774004E+02 -0.30637482430E+02  0.12367505128E+03  0.00000000000E+00 0. -1.
         21    1    1    2  504  501 -0.57856436528E+02  0.91787329773E+02 -0.26366639265E+03  0.28511795413E+03  0.00000000000E+00 0.  1.
         21    1    1    2  505  502 -0.37294264221E+02 -0.48507921777E+02 -0.22007695279E+03  0.22842448592E+03  0.00000000000E+00 0.  1.
         21    1    1    2  506  503  0.25456469442E+02  0.54186366007E+02  0.23218252717E+03  0.23977681294E+03  0.00000000000E+00 0. -1.
<scales pt_clust_3="14000.00000" pt_clust_4="104.77183" pt_clust_5="57.22025" pt_clust_6="59.86814"></scales>
<clustering>
<clus scale="   59.868">  1  6  2 -1</clus>
<clus scale="   57.220">  2  5  1 -1</clus>
<clus scale="  104.772">  2  4  1 -1</clus>
<clus scale="   59.868">  1  3  2 -1</clus>
</clustering>
</event>
<event>
 6    0  0.6207838E+002  0.1926778E+03  0.7546771E-02  0.1156068E+00
         21   -1    0    0  505  501  0.00000000000E+00  0.00000000000E+00  0.10839921086E+04  0.10839921086E+04  0.00000000000E+00 0.  1.
         21   -1    0    0  504  502 -0.00000000000E+00 -0.00000000000E+00 -0.28995033770E+03  0.28995033770E+03  0.00000000000E+00 0.  1.
         21    1    1    2  503  506 -0.49245865789E+02 -0.24074961998E+02  0.39213909024E+03  0.39595179654E+03  0.00000000000E+00 0.  1.
         21    1    1    2  504  501 -0.47918823303E+02  0.67009379108E+02 -0.14895560861E+03  0.17021822420E+03  0.00000000000E+00 0.  1.
         21    1    1    2  505  503 -0.40277735410E+02 -0.12994668297E+03  0.61725784017E+03  0.63207252561E+03  0.00000000000E+00 0.  1.
         21    1    1    2  506  502  0.13744242450E+03  0.87012265861E+02 -0.66399550939E+02  0.17569989991E+03  0.00000000000E+00 0.  1.
<scales pt_clust_3="50.04032" pt_clust_4="82.38004" pt_clust_5="50.04032" pt_clust_6="175.81246"></scales>
<clustering>
<clus scale="   50.040">  3  5 -1 -1</clus>
<clus scale="   82.380">  2  4  1 -1</clus>
<clus scale="  175.812">  2  6  1 -1</clus>
<clus scale="  192.678">  1  3  2 -1</clus>
</clustering>
</event>
<event>
 6    0  0.6207838E+002  0.9827033E+02  0.7546771E-02  0.1283976E+00
         21   -1    0    0  503  501  0.00000000000E+00  0.00000000000E+00  0.23131105275E+02  0.23131105275E+02  0.00000000000E+00 0. -1.
         21   -1    0    0  505  502 -0.00000000000E+00 -0.00000000000E+00 -0.10152867926E+04  0.10152867926E+04  0.00000000000E+00 0. -1.
         21    1    1    2  503  504 -0.49705569661E+02 -0.46410151529E+02 -0.10973163970E+03  0.12909523063E+03  0.00000000000E+00 0. -1.
         21    1    1    2  504  506 -0.13928134198E+02  0.43420599226E+02 -0.15000589305E+03  0.15678363852E+03  0.00000000000E+00 0. -1.
         21    1    1    2  505  501  0.94408550952E+02 -0.34473313239E+02 -0.64314163757E+03  0.65094742475E+03  0.00000000000E+00 0. -1.
         21    1    1    2  506  502 -0.30774847092E+02  0.37462865542E+02 -0.89276517024E+02  0.10159160398E+03  0.00000000000E+00 0. -1.
<scales pt_clust_3="68.00401" pt_clust_4="30.06742" pt_clust_5="93.25157" pt_clust_6="30.06742"></scales>
<clustering>
<clus scale="   30.067">  4  6 -1 -1</clus>
<clus scale="   68.004">  1  3  2 -1</clus>
<clus scale="   93.252">  2  5  1 -1</clus>
<clus scale="   68.004">  1  3  2 -1</clus>
</clustering>
</event>
<event>
 6    0  0.6207838E+002  0.1483501E+03  0.7546771E-02  0.1202515E+00
         21   -1    0    0  503  501  0.00000000000E+00  0.00000000000E+00  0.21868674290E+03  0.21868674290E+03  0.00000000000E+00 0.  1.
         21   -1    0    0  504  502 -0.00000000000E+00 -0.00000000000E+00 -0.17015944979E+04  0.17015944979E+04  0.00000000000E+00 0.  1.
         21    1    1    2  503  505  0.11240690938E+03 -0.12274320810E+03 -0.60878886094E+03  0.63113000690E+03  0.00000000000E+00 0.  1.
         21    1    1    2  504  506 -0.19211645170E+02  0.17142245954E+03 -0.60613516052E+03  0.63020201504E+03  0.00000000000E+00 0.  1.
         21    1    1    2  505  502 -0.97640618341E+02  0.51663599974E+02 -0.44332327957E+03  0.45687892064E+03  0.00000000000E+00 0.  1.
         21    1    1    2  506  501  0.44453541307E+01 -0.10034285141E+03  0.17533954605E+03  0.20207029819E+03  0.00000000000E+00 0.  1.
<scales pt_clust_3="148.35006" pt_clust_4="14000.00000" pt_clust_5="100.88744" pt_clust_6="100.44127"></scales>
<clustering>
<clus scale="  100.441">  1  6  2 -1</clus>
<clus scale="  100.887">  2  5  1 -1</clus>
<clus scale="  148.350">  2  3  1 -1</clus>
<clus scale="  100.441">  1  3  2 -1</clus>
</clustering>
</event>
<event>
 6    0  0.6207838E+002  0.1650386E+03  0.7546771E-02  0.1183123E+00
         21   -1    0    0  503  501  0.00000000000E+00  0.00000000000E+00  0.12954156298E+03  0.12954156298E+03  0.00000000000E+00 0.  1.
         21   -1    0    0  504  502 -0.00000000000E+00 -0.00000000000E+00 -0.19333346894E+04  0.19333346894E+04  0.00000000000E+00 0.  1.
         21    1    1    2  503  506  0.22718109323E+03 -0.28766221636E+02 -0.66749325967E+02  0.23852508704E+03  0.00000000000E+00 0.  1.
         21    1    1    2  504  501 -0.12250219554E+03  0.13751609949E+02 -0.61590753303E+02  0.13780172561E+03  0.00000000000E+00 0.  1.
         21    1    1    2  505  502 -0.25675964436E+02  0.33696744227E+02 -0.13650105551E+04  0.13656678005E+04  0.00000000000E+00 0.  1.
         21    1    1    2  506  505 -0.79002933255E+02 -0.18682132541E+02 -0.31044249206E+03  0.32088163926E+03  0.00000000000E+00 0.  1.
<scales pt_clust_3="165.03857" pt_clust_4="14000.00000" pt_clust_5="42.36420" pt_clust_6="93.27230"></scales>
<clustering>
<clus scale="   42.364">  2  5  1 -1</clus>
<clus scale="   93.272">  2  6  1 -1</clus>
<clus scale="  165.039">  2  3  1 -1</clus>
<clus scale="  165.039">  1  3  2 -1</clus>
</clustering>
</event>
<event>
 6    0  0.6207838E+002  0.1152884E+03  0.7546771E-02  0.1251078E+00
         21   -1    0    0  506  501  0.00000000000E+00  0.00000000000E+00  0.36397101778E+03  0.36397101778E+03  0.00000000000E+00 0.  1.
         21   -1    0    0  504  502 -0.00000000000E+00 -0.00000000000E+00 -0.49125355132E+03  0.49125355132E+03  0.00000000000E+00 0. -1.
         21    1    1    2  503  502  0.57486050494E+02  0.82996335012E+02 -0.43315553711E+02  0.10986025132E+03  0.00000000000E+00 0. -1.
         21    1    1    2  504  505  0.45867245568E+02  0.88839668495E+01 -0.39078523673E+03  0.39356807585E+03  0.00000000000E+00 0. -1.
         21    1    1    2  505  501 -0.95934214793E+02 -0.18790487656E+02  0.15725022794E+03  0.18515963432E+03  0.00000000000E+00 0.  1.
         21    1    1    2  506  503 -0.74190812686E+01 -0.73089814206E+02  0.14956802896E+03  0.16663660761E+03  0.00000000000E+00 0.  1.
<scales pt_clust_3="14000.00000" pt_clust_4="46.71969" pt_clust_5="115.28843" pt_clust_6="72.40767"></scales>
<clustering>
<clus scale="   46.720">  2  4  1 -1</clus>
<clus scale="   72.408">  1  6  2 -1</clus>
<clus scale="  115.288">  1  5  2 -1</clus>
<clus scale="   72.408">  1  3  2 -1</clus>
</clustering>
</event>
<event>
 6    0  0.6207838E+002  0.2004220E+03  0.7546771E-02  0.1149383E+00
         21   -1    0    0  506  501  0.00000000000E+00  0.00000000000E+00  0.18459767104E+03  0.18459767104E+03  0.00000000000E+00 0.  1.
         21   -1    0    0  503  502 -0.00000000000E+00 -0.00000000000E+00 -0.13297900903E+04  0.13297900903E+04  0.00000000000E+00 0. -1.
         21    1    1    2  503  501 -0.10847694493E+03  0.42981773130E+02 -0.10801158253E+04  0.10863999615E+04  0.00000000000E+00 0. -1.
         21    1    1    2  504  505  0.37163677914E+02  0.26328345224E+00 -0.65296455125E+01  0.37733864695E+02  0.00000000000E+00 0.  1.
         21    1    1    2  505  502 -0.85320966140E+02 -0.52108064068E+02 -0.17041063698E+03  0.19757201928E+03  0.00000000000E+00 0. -1.
         21    1    1    2  506  504  0.15663423315E+03  0.88630074862E+01  0.11186368849E+03  0.19268191586E+03  0.00000000000E+00 0.  1.
<scales pt_clust_3="189.24515" pt_clust_4="32.12041" pt_clust_5="99.97458" pt_clust_6="32.12041"></scales>
<clustering>
<clus scale="   32.120">  4  6 -1 -1</clus>
<clus scale="   99.975">  2  5  1 -1</clus>
<clus scale="  189.245">  2  3  1 -1</clus>
<clus scale="  200.422">  1  3  2 -1</clus>
</clustering>
</event>
<event>
 6    0  0.6207838E+002  0.3348563E+03  0.7546771E-02  0.1069008E+00
         21   -1    0    0  506  501  0.00000000000E+00  0.00000000000E+00  0.16252844186E+03  0.16252844186E+03  0.00000000000E+00 0. -1.
         21   -1    0    0  503  502 -0.00000000000E+00 -0.00000000000E+00 -0.12144170210E+04  0.12144170210E+04  0.00000000000E+00 0. -1.
         21    1    1    2  503  505  0.11040371737E+02 -0.17782187470E+03 -0.36166022047E+03  0.40316327214E+03  0.00000000000E+00 0. -1.
         21    1    1    2  504  501 -0.29668905359E+02  0.12655448310E+02  0.66957981477E+02  0.74322107079E+02  0.00000000000E+00 0. -1.
         21    1    1    2  505  504  0.49109297713E+02 -0.15558801826E+03 -0.26453832912E+03  0.31080521573E+03  0.00000000000E+00 0. -1.
         21    1    1    2  506  502 -0.30480764092E+02  0.32075444466E+03 -0.49264801106E+03  0.58865486794E+03  0.00000000000E+00 0. -1.
<scales pt_clust_3="50.68820" pt_clust_4="32.25530" pt_clust_5="50.68820" pt_clust_6="330.57907"></scales>
<clustering>
<clus scale="   32.255">  1  4  2 -1</clus>
<clus scale="   50.688">  3  5 -1 -1</clus>
<clus scale="  330.579">  1  6  2 -1</clus>
<clus scale="   32.255">  1  3  2 -1</clus>
</clustering>
</event>
<event>
 6    0  0.6207838E+002  0.9200056E+02  0.7546771E-02  0.1298078E+00
         21   -1    0    0  504  501  0.00000000000E+00  0.00000000000E+00  0.23057250390E+03  0.23057250390E+03  0.00000000000E+00 0. -1.
         21   -1    0    0  506  502 -0.00000000000E+00 -0.00000000000E+00 -0.18445365540E+03  0.18445365540E+03  0.00000000000E+00 0. -1.
         21    1    1    2  503  501  0.70307426046E+02 -0.61164470961E+02  0.16487149459E+03  0.18938541758E+03  0.00000000000E+00 0. -1.
         21    1    1    2  504  502 -0.50662696731E+02 -0.19361944084E+02 -0.10613959558E+02  0.55265268083E+02  0.00000000000E+00 0.  1.
         21    1    1    2  505  503 -0.49866187003E+02  0.64542483674E+02 -0.10904749857E+03  0.13617534927E+03  0.00000000000E+00 0. -1.
         21    1    1    2  506  505  0.30221457687E+02  0.15983931371E+02  0.90881204228E+00  0.34200124359E+02  0.00000000000E+00 0.  1.
<scales pt_clust_3="14000.00000" pt_clust_4="47.58195" pt_clust_5="92.00056" pt_clust_6="34.18805"></scales>
<clustering>
<clus scale="   34.188">  2  6  1 -1</clus>
<clus scale="   47.582">  2  4  1 -1</clus>
<clus scale="   92.001">  2  5  1 -1</clus>
<clus scale="   92.001">  1  3  2 -1</clus>
</clustering>
</event>
<event>
 6    0  0.6207838E+002  0.1611408E+03  0.7546771E-02  0.1187415E+00
         21   -1    0    0  503  501  0.00000000000E+00  0.00000000000E+00  0.16115851950E+04  0.16115851950E+04  0.00000000000E+00 0.  1.
         21   -1    0    0  504  502 -0.00000000000E+00 -0.00000000000E+00 -0.28945751047E+03  0.28945751047E+03  0.00000000000E+00 0. -1.
         21    1    1    2  503  505  0.85341261634E+02 -0.12167880144E+03  0.12724186765E+04  0.12810691433E+04  0.00000000000E+00 0.  1.
         21    1    1    2  504  506 -0.27491798774E+02 -0.41741523958E+02 -0.20089376926E+03  0.20701801939E+03  0.00000000000E+00 0. -1.
         21    1    1    2  505  502 -0.89877599228E+02  0.15276319621E+03  0.18266828739E+02  0.17818039732E+03  0.00000000000E+00 0.  1.
         21    1    1    2  506  501  0.32028136368E+02  0.10657129189E+02  0.23233594860E+03  0.23477514548E+03  0.00000000000E+00 0.  1.
<scales pt_clust_3="161.14080" pt_clust_4="49.92263" pt_clust_5="14000.00000" pt_clust_6="33.75464"></scales>
<clustering>
<clus scale="   33.755">  1  6  2 -1</clus>
<clus scale="   49.923">  2  4  1 -1</clus>
<clus scale="  161.141">  1  3  2 -1</clus>
<clus scale="   33.755">  1  3  2 -1</clus>
</clustering>
</event>
<event>
 6    0  0.6207838E+002  0.1197140E+03  0.7546771E-02  0.1243570E+00
         21   -1    0    0  504  501  0.00000000000E+00  0.00000000000E+00  0.13174858183E+04  0.13174858183E+04  0.00000000000E+00 0. -1.
         21   -1    0    0  505  502 -0.00000000000E+00 -0.00000000000E+00 -0.20002751756E+03  0.20002751756E+03  0.00000000000E+00 0.  1.
         21    1    1    2  503  501  0.64359726438E+02  0.62956927745E+02 -0.41197916421E+02  0.99010188646E+02  0.00000000000E+00 0.  1.
         21    1    1    2  504  506 -0.79741280453E+02 -0.90989754607E+02  0.12248610756E+04  0.12308218643E+04  0.00000000000E+00 0. -1.
         21    1    1    2  505  503  0.29952122275E+02 -0.11366808976E+02 -0.11726472756E+03  0.12156212529E+03  0.00000000000E+00 0.  1.
         21    1    1    2  506  502 -0.14570568260E+02  0.39399635838E+02  0.51059869206E+02  0.66119157639E+02  0.00000000000E+00 0.  1.
<scales pt_clust_3="119.71397" pt_clust_4="14000.00000" pt_clust_5="32.03645" pt_clust_6="40.10485"></scales>
<clustering>
<clus scale="   32.036">  2  5  1 -1</clus>
<clus scale="   40.105">  2  6  1 -1</clus>
<clus scale="  119.714">  2  3  1 -1</clus>
<clus scale="  119.714">  1  3  2 -1</clus>
</clustering>
</event>
<event>
 6    0  0.6207838E+002  0.1175496E+03  0.7546771E-02  0.1247195E+00
         21   -1    0    0  505  501  0.00000000000E+00  0.00000000000E+00  0.29181887341E+03  0.29181887341E+03  0.00000000000E+00 0.  1.
         21   -1    0    0  503  502 -0.00000000000E+00 -0.00000000000E+00 -0.16803794399E+03  0.16803794399E+03  0.00000000000E+00 0.  1.
         21    1    1    2  503  506 -0.38441412563E+02 -0.60944412649E+02 -0.70916234866E+02  0.10109933729E+03  0.00000000000E+00 0.  1.
         21    1    1    2  504  501  0.32421787513E+02 -0.16108237185E+02  0.57192324139E+02  0.67687587867E+02  0.00000000000E+00 0.  1.
         21    1    1    2  505  502 -0.30548424029E+02  0.15236919695E+03  0.13726748565E+03  0.20734498066E+03  0.00000000000E+00 0.  1.
         21    1    1    2  506  504  0.36568049079E+02 -0.75316547115E+02  0.23735449327E+00  0.83724911585E+02  0.00000000000E+00 0.  1.
<scales pt_clust_3="71.85273" pt_clust_4="36.20287" pt_clust_5="117.54960" pt_clust_6="14000.00000"></scales>
<clustering>
<clus scale="   36.203">  1  4  2 -1</clus>
<clus scale="   71.853">  2  3  1 -1</clus>
<clus scale="  117.550">  1  5  2 -1</clus>
<clus scale="   36.203">  1  3  2 -1</clus>
</clustering>
</event>
<event>
 6    0  0.6207838E+002  0.1162087E+03  0.7546771E-02  0.1249486E+00
         21   -1    0    0  504  501  0.00000000000E+00  0.00000000000E+00  0.13600712758E+04  0.13600712758E+04  0.00000000000E+00 0. -1.
         21   -1    0    0  503  502 -0.00000000000E+00 -0.00000000000E+00 -0.42305292689E+02  0.42305292689E+02  0.00000000000E+00 0. -1.
         21    1    1    2  503  506  0.72818829015E+02 -0.56406945499E+02  0.13193826946E+03  0.16091001307E+03  0.00000000000E+00 0. -1.
         21    1    1    2  504  502 -0.12842593761E+03 -0.13882540856E+01  0.29545760119E+03  0.32216508625E+03  0.00000000000E+00 0. -1.
         21    1    1    2  505  501 -0.52199849820E+02  0.79717156898E+01  0.64018051378E+03  0.64235462386E+03  0.00000000000E+00 0. -1.
         21    1    1    2  506  505  0.10780695842E+03  0.49823483894E+02  0.25018959867E+03  0.27694684529E+03  0.00000000000E+00 0. -1.
<scales pt_clust_3="82.87468" pt_clust_4="14000.00000" pt_clust_5="52.80504" pt_clust_6="116.20868"></scales>
<clustering>
<clus scale="   52.805">  1  5  2 -1</clus>
<clus scale="   82.875">  2  3  1 -1</clus>
<clus scale="  116.209">  1  6  2 -1</clus>
<clus scale="   52.805">  1  3  2 -1</clus>
</clustering>
</event>
<event>
 6    0  0.6207838E+002  0.9848176E+02  0.7546771E-02  0.1283521E+00
         21   -1    0    0  506  501  0.00000000000E+00  0.00000000000E+00  0.12271614536E+04  0.12271614536E+04  0.00000000000E+00 0. -1.
         21   -1    0    0  504  502 -0.00000000000E+00 -0.00000000000E+00 -0.91973708485E+02  0.91973708485E+02  0.00000000000E+00 0.  1.
         21    1    1    2  503  501 -0.58568730869E+01 -0.34290920483E+02  0.28210457454E+03  0.28424137835E+03  0.00000000000E+00 0. -1.
         21    1    1    2  504  503 -0.16921184538E+02 -0.30453074559E+02 -0.70174305183E+02  0.78346342251E+02  0.00000000000E+00 0.  1.
         21    1    1    2  505  502  0.11244412950E+03  0.25243970558E+02  0.23926016484E+03  0.26556800784E+03  0.00000000000E+00 0.  1.
         21    1    1    2  506  505 -0.89666071874E+02  0.39500024484E+02  0.68399731094E+03  0.69097943367E+03  0.00000000000E+00 0. -1.
<scales pt_clust_3="34.78750" pt_clust_4="34.98052" pt_clust_5="98.48176" pt_clust_6="14000.00000"></scales>
<clustering>
<clus scale="   34.788">  1  3  2 -1</clus>
<clus scale="   34.981">  2  4  1 -1</clus>
<clus scale="   98.482">  2  5  1 -1</clus>
<clus scale="   34.788">  1  3  2 -1</clus>
</clustering>
</event>
<event>
 6    0  0.6207838E+002  0.1213253E+03  0.7546771E-02  0.1240927E+00
         21   -1    0    0  503  501  0.00000000000E+00  0.00000000000E+00  0.94734507047E+02  0.94734507047E+02  0.00000000000E+00 0.  1.
         21   -1    0    0  504  502 -0.00000000000E+00 -0.00000000000E+00 -0.86318407749E+03  0.86318407749E+03  0.00000000000E+00 0.  1.
         21    1    1    2  503  505 -0.12229635824E+02 -0.31054154424E+02  0.44106414955E+02  0.55310942313E+02  0.00000000000E+00 0.  1.
         21    1    1    2  504  501  0.12082883848E+03  0.67303630601E+02 -0.72015594780E+03  0.73331710471E+03  0.00000000000E+00 0.  1.
         21    1    1    2  505  506 -0.63089292378E+02  0.22986063793E+02 -0.43052545412E+02  0.79763021557E+02  0.00000000000E+00 0.  1.
         21    1    1    2  506  502 -0.45509910277E+02 -0.59235539970E+02 -0.49347492180E+02  0.89527515957E+02  0.00000000000E+00 0.  1.
<scales pt_clust_3="33.37551" pt_clust_4="14000.00000" pt_clust_5="68.85361" pt_clust_6="121.32526"></scales>
<clustering>
<clus scale="   33.376">  1  3  2 -1</clus>
<clus scale="   68.854">  1  5  2 -1</clus>
<clus scale="  121.325">  1  6  2 -1</clus>
<clus scale="   33.376">  1  3  2 -1</clus>
</clustering>
</event>
<event>
 6    0  0.6207838E+002  0.1028433E+03  0.7546771E-02  0.1274428E+00
         21   -1    0    0  506  501  0.00000000000E+00  0.00000000000E+00  0.18525401252E+03  0.18525401252E+03  0.00000000000E+00 0. -1.
         21   -1    0    0  503  502 -0.00000000000E+00 -0.00000000000E+00 -0.51938077568E+03  0.51938077568E+03  0.00000000000E+00 0. -1.
         21    1    1    2  503  504  0.88803691172E+01 -0.81871980343E+02 -0.41766835466E+02  0.92338240539E+02  0.00000000000E+00 0.  1.
         21    1    1    2  504  501  0.30676424677E+02 -0.49795752849E+01 -0.42693353059E+01  0.31369833039E+02  0.00000000000E+00 0. -1.
         21    1    1    2  505  502 -0.11952116596E+02 -0.30051508912E+02 -0.40912714891E+03  0.41040342379E+03  0.00000000000E+00 0. -1.
         21    1    1    2  506  505 -0.27604677198E+02  0.11690306454E+03  0.12103655653E+03  0.17052329084E+03  0.00000000000E+00 0. -1.
<scales pt_clust_3="14000.00000" pt_clust_4="31.07795" pt_clust_5="32.31635" pt_clust_6="102.84332"></scales>
<clustering>
<clus scale="   31.078">  1  4  2 -1</clus>
<clus scale="   32.316">  2  5  1 -1</clus>
<clus scale="  102.843">  1  6  2 -1</clus>
<clus scale="   31.078">  1  3  2 -1</clus>
</clustering>
</event>
<event>
 6    0  0.6207838E+002  0.1191236E+03  0.7546771E-02  0.1244550E+00
         21   -1    0    0  506  501  0.00000000000E+00  0.00000000000E+00  0.85673586191E+03  0.85673586191E+03  0.00000000000E+00 0.  1.
         21   -1    0    0  504  502 -0.00000000000E+00 -0.00000000000E+00 -0.19656046921E+03  0.19656046921E+03  0.00000000000E+00 0. -1.
         21    1    1    2  503  501  0.60716849569E+02 -0.42070380596E+02  0.14746024887E+03  0.16492718922E+03  0.00000000000E+00 0.  1.
         21    1    1    2  504  503  0.16029849128E+02  0.12562520231E+03 -0.15899109263E+03  0.20326538085E+03  0.00000000000E+00 0. -1.
         21    1    1    2  505  502 -0.36287319504E+02 -0.51507447341E+02  0.18024949061E+03  0.19094414250E+03  0.00000000000E+00 0.  1.
         21    1    1    2  506  505 -0.40459379192E+02 -0.32047374369E+02  0.49145674585E+03  0.49415961855E+03  0.00000000000E+00 0.  1.
<scales pt_clust_3="70.68105" pt_clust_4="119.12362" pt_clust_5="14000.00000" pt_clust_6="51.61391"></scales>
<clustering>
<clus scale="   51.614">  1  6  2 -1</clus>
<clus scale="   70.681">  1  3  2 -1</clus>
<clus scale="  119.124">  2  4  1 -1</clus>
<clus scale="   51.614">  1  3  2 -1</clus>
</clustering>
</event>
<event>
 6    0  0.6207838E+002  0.9565881E+02  0.7546771E-02  0.1289699E+00
         21   -1    0    0  505  501  0.00000000000E+00  0.00000000000E+00  0.14511088068E+03  0.14511088068E+03  0.00000000000E+00 0.  1.
         21   -1    0    0  506  502 -0.00000000000E+00 -0.00000000000E+00 -0.38589041397E+03  0.38589041397E+03  0.00000000000E+00 0. -1.
         21    1    1    2  503  502  0.84887833910E+02  0.26143061129E+02 -0.12765402726E+03  0.15551512681E+03  0.00000000000E+00 0. -1.
         21    1    1    2  504  501 -0.10545420030E+03 -0.48233933986E+02  0.75596872469E+02  0.13842683221E+03  0.00000000000E+00 0.  1.
         21    1    1    2  505  503  0.29948417786E+02 -0.97526675265E+01  0.11929476551E+02  0.33679885132E+02  0.00000000000E+00 0.  1.
         21    1    1    2  506  504 -0.93820513997E+01  0.31843540383E+02 -0.20065185505E+03  0.20337945051E+03  0.00000000000E+00 0. -1.
<scales pt_clust_3="14000.00000" pt_clust_4="95.65881" pt_clust_5="31.49638" pt_clust_6="32.99947"></scales>
<clustering>
<clus scale="   31.496">  1  5  2 -1</clus>
<clus scale="   32.999">  2  6  1 -1</clus>
<clus scale="   95.659">  1  4  2 -1</clus>
<clus scale="   31.496">  1  3  2 -1</clus>
</clustering>
</event>
<event>
 6    0  0.6207838E+002  0.1420445E+03  0.7546771E-02  0.1210604E+00
         21   -1    0    0  505  501  0.00000000000E+00  0.00000000000E+00  0.24061456098E+03  0.24061456098E+03  0.00000000000E+00 0. -1.
         21   -1    0    0  501  502 -0.00000000000E+00 -0.00000000000E+00 -0.81560789596E+02  0.81560789596E+02  0.00000000000E+00 0. -1.
         21    1    1    2  503  504  0.84834138599E+02 -0.15401957380E+02  0.61893298657E+02  0.10613591184E+03  0.00000000000E+00 0. -1.
         21    1    1    2  504  502  0.46520539254E+02  0.16027668296E+02  0.12835990552E+02  0.50850854240E+02  0.00000000000E+00 0. -1.
         21    1    1    2  505  506 -0.44933422439E+02  0.20178758753E+02  0.12267636759E+02  0.50761103894E+02  0.00000000000E+00 0. -1.
         21    1    1    2  506  503 -0.86421255414E+02 -0.20804469669E+02  0.72056845412E+02  0.11442748060E+03  0.00000000000E+00 0. -1.
<scales pt_clust_3="138.05933" pt_clust_4="32.10299" pt_clust_5="40.24020" pt_clust_6="40.24020"></scales>
<clustering>
<clus scale="   32.103">  3  4 -1 -1</clus>
<clus scale="   40.240">  5  6 -1 -1</clus>
<clus scale="  138.059">  2  3  1 -1</clus>
<clus scale="  142.045">  1  3  2 -1</clus>
</clustering>
</event>
<event>
 6    0  0.6207838E+002  0.1053440E+03  0.7546771E-02  0.1269443E+00
         21   -1    0    0  506  501  0.00000000000E+00  0.00000000000E+00  0.82413371609E+03  0.82413371609E+03  0.00000000000E+00 0.  1.
         21   -1    0    0  503  502 -0.00000000000E+00 -0.00000000000E+00 -0.92544657029E+02  0.92544657029E+02  0.00000000000E+00 0.  1.
         21    1    1    2  503  505 -0.32395879707E+02 -0.24957940114E+02  0.19899967155E+02  0.45479671168E+02  0.00000000000E+00 0. -1.
         21    1    1    2  504  501  0.28296457779E+02 -0.54414077260E+02  0.65074919745E+03  0.65363300048E+03  0.00000000000E+00 0.  1.
         21    1    1    2  505  504 -0.39655804115E+02  0.10891186390E+03 -0.23227690083E+02  0.11821126209E+03  0.00000000000E+00 0.  1.
         21    1    1    2  506  502  0.43755226043E+02 -0.29539846525E+02  0.84167584532E+02  0.99354439381E+02  0.00000000000E+00 0. -1.
<scales pt_clust_3="40.89489" pt_clust_4="14000.00000" pt_clust_5="105.34397" pt_clust_6="51.69867"></scales>
<clustering>
<clus scale="   40.895">  2  3  1 -1</clus>
<clus scale="   51.699">  1  6  2 -1</clus>
<clus scale="  105.344">  2  5  1 -1</clus>
<clus scale="   51.699">  1  3  2 -1</clus>
</clustering>
</event>
<event>
 6    0  0.6207838E+002  0.7679520E+02  0.7546771E-02  0.1338400E+00
         21   -1    0    0  506  501  0.00000000000E+00  0.00000000000E+00  0.15864100650E+04  0.15864100650E+04  0.00000000000E+00 0.  1.
         21   -1    0    0  505  502 -0.00000000000E+00 -0.00000000000E+00 -0.20745640207E+02  0.20745640207E+02  0.00000000000E+00 0.  1.
         21    1    1    2  503  504  0.80363785566E+02 -0.76008202477E+01  0.48877577925E+03  0.49539668235E+03  0.00000000000E+00 0.  1.
         21    1    1    2  504  502  0.46037195653E+02 -0.27191947707E+02  0.49384089139E+02  0.72784707623E+02  0.00000000000E+00 0.  1.
         21    1    1    2  505  501 -0.86391782330E+02  0.45717837166E+02  0.47709508075E+03  0.48700449358E+03  0.00000000000E+00 0.  1.
         21    1    1    2  506  503 -0.40009198888E+02 -0.10925069211E+02  0.55040947569E+03  0.55196982170E+03  0.00000000000E+00 0.  1.
<scales pt_clust_3="76.79520" pt_clust_4="51.79290" pt_clust_5="14000.00000" pt_clust_6="41.47401"></scales>
<clustering>
<clus scale="   41.474">  1  6  2 -1</clus>
<clus scale="   51.793">  2  4  1 -1</clus>
<clus scale="   76.795">  1  3  2 -1</clus>
<clus scale="   41.474">  1  3  2 -1</clus>
</clustering>
</event>
<event>
 6    0  0.6207838E+002  0.7888097E+02  0.7546771E-02  0.1332257E+00
         21   -1    0    0  506  501  0.00000000000E+00  0.00000000000E+00  0.49621183527E+02  0.49621183527E+02  0.00000000000E+00 0. -1.
         21   -1    0    0  505  502 -0.00000000000E+00 -0.00000000000E+00 -0.76795029917E+03  0.76795029917E+03  0.00000000000E+00 0. -1.
         21    1    1    2  503  502  0.20423605614E+02  0.62492071495E+02 -0.34618461553E+03  0.35237220477E+03  0.00000000000E+00 0. -1.
         21    1    1    2  504  501  0.44831554515E+02  0.25592366014E+02 -0.33836871761E+02  0.61723345413E+02  0.00000000000E+00 0. -1.
         21    1    1    2  505  504 -0.51585974982E+02 -0.11560958306E+03 -0.34875110730E+03  0.37101755127E+03  0.00000000000E+00 0. -1.
         21    1    1    2  506  503 -0.13669185146E+02  0.27525145553E+02  0.10443478945E+02  0.32458381240E+02  0.00000000000E+00 0. -1.
<scales pt_clust_3="14000.00000" pt_clust_4="54.65276" pt_clust_5="78.88097" pt_clust_6="30.73240"></scales>
<clustering>
<clus scale="   30.732">  1  6  2 -1</clus>
<clus scale="   54.653">  1  4  2 -1</clus>
<clus scale="   78.881">  1  5  2 -1</clus>
<clus scale="   30.732">  1  3  2 -1</clus>
</clustering>
</event>
<event>
 6    0  0.6207838E+002  0.1527639E+03  0.7546771E-02  0.1197117E+00
         21   -1    0    0  505  501  0.00000000000E+00  0.00000000000E+00  0.24903056424E+03  0.24903056424E+03  0.00000000000E+00 0.  1.
         21   -1    0    0  503  502 -0.00000000000E+00 -0.00000000000E+00 -0.30243725512E+03  0.30243725512E+03  0.00000000000E+00 0.  1.
         21    1    1    2  503  506 -0.11458461528E+03  0.10398954741E+03  0.99223907098E+02  0.18381741966E+03  0.00000000000E+00 0.  1.
         21    1    1    2  504  502  0.12044777989E+03 -0.93515205911E+02 -0.21188854414E+03  0.26105462370E+03  0.00000000000E+00 0.  1.
         21    1    1    2  505  504  0.37180207531E+01  0.31006782664E+02 -0.27827425145E+01  0.31352637934E+02  0.00000000000E+00 0. -1.
         21    1    1    2  506  501 -0.95811853638E+01 -0.41481124160E+02  0.62040688675E+02  0.75243138065E+02  0.00000000000E+00 0.  1.
<scales pt_clust_3="152.76392" pt_clust_4="14000.00000" pt_clust_5="31.22890" pt_clust_6="33.50886"></scales>
<clustering>
<clus scale="   31.229">  1  5  2 -1</clus>
<clus scale="   33.509">  1  6  2 -1</clus>
<clus scale="  152.764">  1  3  2 -1</clus>
<clus scale="   31.229">  1  3  2 -1</clus>
</clustering>
</event>
<event>
 6    0  0.6207838E+002  0.9290822E+02  0.7546771E-02  0.1295958E+00
         21   -1    0    0  504  501  0.00000000000E+00  0.00000000000E+00  0.28389419337E+04  0.28389419337E+04  0.00000000000E+00 0. -1.
         21   -1    0    0  505  502 -0.00000000000E+00 -0.00000000000E+00 -0.21413594058E+03  0.21413594058E+03  0.00000000000E+00 0.  1.
         21    1    1    2  503  501 -0.51086656969E+02  0.27754549181E+02  0.27623703222E+04  0.27629820771E+04  0.00000000000E+00 0. -1.
         21    1    1    2  504  506 -0.59108493812E+02 -0.39433691718E+02 -0.22244707726E+02  0.74455739235E+02  0.00000000000E+00 0.  1.
         21    1    1    2  505  503  0.11367251806E+03  0.47327357710E+02 -0.35490709456E+02  0.12814410094E+03  0.00000000000E+00 0.  1.
         21    1    1    2  506  502 -0.34773672755E+01 -0.35648215173E+02 -0.79828911852E+02  0.87495957025E+02  0.00000000000E+00 0. -1.
<scales pt_clust_3="58.10648" pt_clust_4="14000.00000" pt_clust_5="92.90822" pt_clust_6="35.81742"></scales>
<clustering>
<clus scale="   35.817">  2  6  1 -1</clus>
<clus scale="   58.106">  1  3  2 -1</clus>
<clus scale="   92.908">  1  5  2 -1</clus>
<clus scale="   58.106">  1  3  2 -1</clus>
</clustering>
</event>
<event>
 6    0  0.6207838E+002  0.2771610E+03  0.7546771E-02  0.1097250E+00
         21   -1    0    0  504  501  0.00000000000E+00  0.00000000000E+00  0.26359408023E+03  0.26359408023E+03  0.00000000000E+00 0.  1.
         21   -1    0    0  503  502 -0.00000000000E+00 -0.00000000000E+00 -0.17898528016E+04  0.17898528016E+04  0.00000000000E+00 0.  1.
         21    1    1    2  503  506  0.40221104979E+02 -0.10958809001E+03  0.23308574512E+02  0.11904023019E+03  0.00000000000E+00 0.  1.
         21    1    1    2  504  502 -0.72576474002E+02  0.25934440710E+03 -0.16388853935E+04  0.16608648949E+04  0.00000000000E+00 0.  1.
         21    1    1    2  505  501  0.79651573285E+01 -0.48971380999E+02  0.14681628284E+03  0.15497309701E+03  0.00000000000E+00 0.  1.
         21    1    1    2  506  505  0.24390211694E+02 -0.10078493609E+03 -0.57498185215E+02  0.11856865974E+03  0.00000000000E+00 0. -1.
<scales pt_clust_3="73.75544" pt_clust_4="264.50065" pt_clust_5="49.61492" pt_clust_6="73.75544"></scales>
<clustering>
<clus scale="   49.615">  1  5  2 -1</clus>
<clus scale="   73.755">  3  6 -1 -1</clus>
<clus scale="  264.501">  2  4  1 -1</clus>
<clus scale="   49.615">  1  3  2 -1</clus>
</clustering>
</event>
<event>
 6    0  0.6207838E+002  0.9632936E+02  0.7546771E-02  0.1288210E+00
         21   -1    0    0  503  501  0.00000000000E+00  0.00000000000E+00  0.92897353756E+02  0.92897353756E+02  0.00000000000E+00 0.  1.
         21   -1    0    0  506  502 -0.00000000000E+00 -0.00000000000E+00 -0.39784522853E+03  0.39784522853E+03  0.00000000000E+00 0. -1.
         21    1    1    2  503  505 -0.73404697798E+02  0.27062189675E+02  0.43154514645E+02  0.89347209823E+02  0.00000000000E+00 0.  1.
         21    1    1    2  504  501  0.50893392729E+02 -0.75054470994E+01 -0.41183515223E+02  0.65898035523E+02  0.00000000000E+00 0.  1.
         21    1    1    2  505  502 -0.55510110212E+02 -0.11187434414E+02 -0.14152353925E+03  0.15243176567E+03  0.00000000000E+00 0.  1.
         21    1    1    2  506  504  0.78021415281E+02 -0.83693081609E+01 -0.16539533494E+03  0.18306557127E+03  0.00000000000E+00 0. -1.
<scales pt_clust_3="82.71835" pt_clust_4="39.97120" pt_clust_5="56.62624" pt_clust_6="39.97120"></scales>
<clustering>
<clus scale="   39.971">  4  6 -1 -1</clus>
<clus scale="   56.626">  2  5  1 -1</clus>
<clus scale="   82.718">  1  3  2 -1</clus>
<clus scale="   82.718">  1  3  2 -1</clus>
</clustering>
</event>
<event>
 6    0  0.6207838E+002  0.1128047E+03  0.7546771E-02  0.1255462E+00
         21   -1    0    0  503  501  0.00000000000E+00  0.00000000000E+00  0.73559710993E+03  0.73559710993E+03  0.00000000000E+00 0.  1.
         21   -1    0    0  505  502 -0.00000000000E+00 -0.00000000000E+00 -0.14855303480E+03  0.14855303480E+03  0.00000000000E+00 0.  1.
         21    1    1    2  503  506 -0.35931478426E+02  0.75846632127E+01  0.33614971016E+03  0.33814970930E+03  0.00000000000E+00 0. -1.
         21    1    1    2  504  502 -0.10474083406E+03 -0.46495071683E+02 -0.10299070234E+03  0.15407634075E+03  0.00000000000E+00 0.  1.
         21    1    1    2  505  501  0.86735719920E+02  0.28656382748E+02  0.30509010119E+03  0.31847173066E+03  0.00000000000E+00 0.  1.
         21    1    1    2  506  504  0.53936592570E+02  0.10254025722E+02  0.48794966124E+02  0.73452364024E+02  0.00000000000E+00 0. -1.
<scales pt_clust_3="36.72327" pt_clust_4="14000.00000" pt_clust_5="112.80472" pt_clust_6="49.75235"></scales>
<clustering>
<clus scale="   36.723">  1  3  2 -1</clus>
<clus scale="   49.752">  1  6  2 -1</clus>
<clus scale="  112.805">  1  5  2 -1</clus>
<clus scale="   36.723">  1  3  2 -1</clus>
</clustering>
</event>
<event>
 6    0  0.6207838E+002  0.1200627E+03  0.7546771E-02  0.1242994E+00
         21   -1    0    0  502  501  0.00000000000E+00  0.00000000000E+00  0.14320090439E+04  0.14320090439E+04  0.00000000000E+00 0. -1.
         21   -1    0    0  504  502 -0.00000000000E+00 -0.00000000000E+00 -0.25570811852E+02  0.25570811852E+02  0.00000000000E+00 0. -1.
         21    1    1    2  503  506 -0.84381800200E+02  0.22979659315E+02  0.37977284426E+03  0.38971241471E+03  0.00000000000E+00 0.  1.
         21    1    1    2  504  503  0.96933011040E+02 -0.37878576128E+02  0.14877091296E+03  0.18155875000E+03  0.00000000000E+00 0. -1.
         21    1    1    2  505  501  0.26628904340E+02  0.40220165779E+02  0.72135419941E+03  0.72296517295E+03  0.00000000000E+00 0. -1.
         21    1    1    2  506  505 -0.39180115180E+02 -0.25321248966E+02  0.15654027543E+03  0.16334351810E+03  0.00000000000E+00 0. -1.
<scales pt_clust_3="39.77644" pt_clust_4="106.99991" pt_clust_5="48.23650" pt_clust_6="39.77644"></scales>
<clustering>
<clus scale="   39.776">  3  6 -1 -1</clus>
<clus scale="   48.237">  1  5  2 -1</clus>
<clus scale="  107.000">  2  4  1 -1</clus>
<clus scale="   48.237">  1  3  2 -1</clus>
</clustering>
</event>
<event>
 6    0  0.6207838E+002  0.1365930E+03  0.7546771E-02  0.1217988E+00
         21   -1    0    0  504  501  0.00000000000E+00  0.00000000000E+00  0.14890029083E+03  0.14890029083E+03  0.00000000000E+00 0.  1.
         21   -1    0    0  506  502 -0.00000000000E+00 -0.00000000000E+00 -0.12169285657E+03  0.12169285657E+03  0.00000000000E+00 0.  1.
         21    1    1    2  503  502  0.36332449719E+02  0.70122339427E+01 -0.18994818394E+02  0.41593526579E+02  0.00000000000E+00 0. -1.
         21    1    1    2  504  503  0.85988289747E+02  0.18677916010E+02  0.39796279987E+02  0.96574294825E+02  0.00000000000E+00 0.  1.
         21    1    1    2  505  501 -0.64700456126E+02 -0.33278689657E+02  0.13086459113E+02  0.73924797059E+02  0.00000000000E+00 0.  1.
         21    1    1    2  506  505 -0.57620283341E+02  0.75885397036E+01 -0.66804864454E+01  0.58500528940E+02  0.00000000000E+00 0.  1.
<scales pt_clust_3="35.72677" pt_clust_4="35.72677" pt_clust_5="132.27029" pt_clust_6="38.68077"></scales>
<clustering>
<clus scale="   35.727">  3  4 -1 -1</clus>
<clus scale="   38.681">  5  6 -1 -1</clus>
<clus scale="  132.270">  2  5  1 -1</clus>
<clus scale="  136.593">  1  3  2 -1</clus>
</clustering>
</event>
<event>
 6    0  0.6207838E+002  0.1384587E+03  0.7546771E-02  0.1215418E+00
         21   -1    0    0  503  501  0.00000000000E+00  0.00000000000E+00  0.38310987565E+03  0.38310987565E+03  0.00000000000E+00 0.  1.
         21   -1    0    0  505  502 -0.00000000000E+00 -0.00000000000E+00 -0.36765434265E+03  0.36765434265E+03  0.00000000000E+00 0.  1.
         21    1    1    2  503  502 -0.19987269015E+02 -0.29948770894E+02  0.31509851051E+02  0.47846530846E+02  0.00000000000E+00 0.  1.
         21    1    1    2  504  501 -0.96777812256E+01 -0.35993780429E+02  0.27625450013E+03  0.27875752998E+03  0.00000000000E+00 0.  1.
         21    1    1    2  505  506 -0.11288824587E+02  0.15752786074E+03 -0.28212228409E+03  0.32331942046E+03  0.00000000000E+00 0.  1.
         21    1    1    2  506  504  0.40953874828E+02 -0.91585309414E+02 -0.10186534100E+02  0.10084073701E+03  0.00000000000E+00 0. -1.
<scales pt_clust_3="36.00583" pt_clust_4="65.50085" pt_clust_5="14000.00000" pt_clust_6="138.45868"></scales>
<clustering>
<clus scale="   36.006">  1  3  2 -1</clus>
<clus scale="   65.501">  1  4  2 -1</clus>
<clus scale="  138.459">  1  6  2 -1</clus>
<clus scale="   36.006">  1  3  2 -1</clus>
</clustering>
</event>
<event>
 6    0  0.6207838E+002  0.9709069E+02  0.7546771E-02  0.1286536E+00
         21   -1    0    0  505  501  0.00000000000E+00  0.00000000000E+00  0.31111401521E+03  0.31111401521E+03  0.00000000000E+00 0.  1.
         21   -1    0    0  504  502 -0.00000000000E+00 -0.00000000000E+00 -0.61290906684E+03  0.61290906684E+03  0.00000000000E+00 0.  1.
         21    1    1    2  503  501  0.12896609168E+02  0.38123441748E+02  0.26609160165E+03  0.26911792918E+03  0.00000000000E+00 0.  1.
         21    1    1    2  504  503  0.74699336535E+02 -0.12007127530E+03 -0.41895365914E+03  0.44217561052E+03  0.00000000000E+00 0.  1.
         21    1    1    2  505  506 -0.39770586805E+02  0.32664510493E+02 -0.31267143648E+01  0.51560121832E+02  0.00000000000E+00 0. -1.
         21    1    1    2  506  502 -0.47825358899E+02  0.49283323062E+02 -0.14580627978E+03  0.16116942051E+03  0.00000000000E+00 0. -1.
<scales pt_clust_3="40.24574" pt_clust_4="14000.00000" pt_clust_5="62.97386" pt_clust_6="97.09069"></scales>
<clustering>
<clus scale="   40.246">  1  3  2 -1</clus>
<clus scale="   62.974">  1  5  2 -1</clus>
<clus scale="   97.091">  2  6  1 -1</clus>
<clus scale="   40.246">  1  3  2 -1</clus>
</clustering>
</event>
<event>
 6    0  0.6207838E+002  0.1270673E+03  0.7546771E-02  0.1231873E+00
         21   -1    0    0  504  501  0.00000000000E+00  0.00000000000E+00  0.51841009637E+03  0.51841009637E+03  0.00000000000E+00 0. -1.
         21   -1    0    0  505  502 -0.00000000000E+00 -0.00000000000E+00 -0.61741994276E+03  0.61741994276E+03  0.00000000000E+00 0. -1.
         21    1    1    2  503  502  0.75409261722E+02 -0.21209603275E+03  0.68977771080E+02  0.23543410281E+03  0.00000000000E+00 0. -1.
         21    1    1    2  504  503  0.28732087202E+02  0.31326511732E+02  0.13827217048E+03  0.14465848161E+03  0.00000000000E+00 0.  1.
         21    1    1    2  505  506 -0.16397007971E+02  0.12150563021E+03 -0.51085772524E+03  0.52536472614E+03  0.00000000000E+00 0. -1.
         21    1    1    2  506  501 -0.87744340953E+02  0.59263890809E+02  0.20459793729E+03  0.23037272856E+03  0.00000000000E+00 0. -1.
<scales pt_clust_3="127.06728" pt_clust_4="42.50745" pt_clust_5="14000.00000" pt_clust_6="105.09962"></scales>
<clustering>
<clus scale="   42.507">  1  4  2 -1</clus>
<clus scale="  105.100">  1  6  2 -1</clus>
<clus scale="  127.067">  1  3  2 -1</clus>
<clus scale="   42.507">  1  3  2 -1</clus>
</clustering>
</event>
<event>
 6    0  0.6207838E+002  0.2258853E+03  0.7546771E-02  0.1129570E+00
         21   -1    0    0  506  501  0.00000000000E+00  0.00000000000E+00  0.20814124034E+03  0.20814124034E+03  0.00000000000E+00 0. -1.
         21   -1    0    0  503  502 -0.00000000000E+00 -0.00000000000E+00 -0.87518706357E+03  0.87518706357E+03  0.00000000000E+00 0. -1.
         21    1    1    2  503  505  0.89134496933E+02 -0.21815129481E+03 -0.71710950500E+03  0.75483838544E+03  0.00000000000E+00 0. -1.
         21    1    1    2  504  502  0.22676246265E+02  0.18360001116E+03  0.48292195427E+02  0.19119443607E+03  0.00000000000E+00 0. -1.
         21    1    1    2  505  501 -0.40089557286E+02  0.42471309994E+02 -0.20311519311E+02  0.61834800823E+02  0.00000000000E+00 0. -1.
         21    1    1    2  506  504 -0.71721185912E+02 -0.79200263449E+01  0.22083005659E+02  0.75460681582E+02  0.00000000000E+00 0. -1.
<scales pt_clust_3="225.88529" pt_clust_4="14000.00000" pt_clust_5="58.40364" pt_clust_6="82.21562"></scales>
<clustering>
<clus scale="   58.404">  1  5  2 -1</clus>
<clus scale="   82.216">  1  6  2 -1</clus>
<clus scale="  225.885">  2  3  1 -1</clus>
<clus scale="   58.404">  1  3  2 -1</clus>
</clustering>
</event>
<event>
 6    0  0.6207838E+002  0.1129388E+03  0.7546771E-02  0.1255222E+00
         21   -1    0    0  506  501  0.00000000000E+00  0.00000000000E+00  0.11418479045E+03  0.11418479045E+03  0.00000000000E+00 0. -1.
         21   -1    0    0  505  502 -0.00000000000E+00 -0.00000000000E+00 -0.19158576071E+03  0.19158576071E+03  0.00000000000E+00 0. -1.
         21    1    1    2  503  504 -0.67713312004E+02 -0.29194153109E+02 -0.87792778578E+01  0.74259456758E+02  0.00000000000E+00 0. -1.
         21    1    1    2  504  502  0.78597197628E+02  0.74103304648E+02 -0.34601513816E+02  0.11342876175E+03  0.00000000000E+00 0. -1.
         21    1    1    2  505  501  0.21526322568E+02 -0.44158072772E+02 -0.59276029642E+02  0.76986788766E+02  0.00000000000E+00 0. -1.
         21    1    1    2  506  503 -0.32410208192E+02 -0.75107876628E+00  0.25255851061E+02  0.41095543884E+02  0.00000000000E+00 0. -1.
<scales pt_clust_3="30.48526" pt_clust_4="103.15676" pt_clust_5="49.12553" pt_clust_6="30.48526"></scales>
<clustering>
<clus scale="   30.485">  3  6 -1 -1</clus>
<clus scale="   49.126">  2  5  1 -1</clus>
<clus scale="  103.157">  2  4  1 -1</clus>
<clus scale="  112.939">  1  3  2 -1</clus>
</clustering>
</event>
<event>
 6    0  0.6207838E+002  0.7470711E+02  0.7546771E-02  0.1344780E+00
         21   -1    0    0  506  501  0.00000000000E+00  0.00000000000E+00  0.76030358330E+02  0.76030358330E+02  0.00000000000E+00 0. -1.
         21   -1    0    0  503  502 -0.00000000000E+00 -0.00000000000E+00 -0.71984025102E+03  0.71984025102E+03  0.00000000000E+00 0. -1.
         21    1    1    2  503  505 -0.39523852951E+02  0.44602702428E+02 -0.46116032213E+03  0.46499503086E+03  0.00000000000E+00 0. -1.
         21    1    1    2  504  502  0.44648886203E+02 -0.78117715368E+02 -0.12947614515E+03  0.15767045587E+03  0.00000000000E+00 0. -1.
         21    1    1    2  505  501 -0.77151464522E+02  0.35756442985E+02 -0.54733763085E+02  0.10112693269E+03  0.00000000000E+00 0. -1.
         21    1    1    2  506  504  0.72026431270E+02 -0.22414300449E+01  0.15603376718E+01  0.72078189931E+02  0.00000000000E+00 0. -1.
<scales pt_clust_3="59.59477" pt_clust_4="57.76037" pt_clust_5="14000.00000" pt_clust_6="74.70711"></scales>
<clustering>
<clus scale="   59.595">  2  3  1 -1</clus>
<clus scale="   57.760">  2  4  1 -1</clus>
<clus scale="   74.707">  1  6  2 -1</clus>
<clus scale="   74.707">  1  3  2 -1</clus>
</clustering>
</event>
<event>
 6    0  0.6207838E+002  0.7166912E+02  0.7546771E-02  0.1354507E+00
         21   -1    0    0  503  501  0.00000000000E+00  0.00000000000E+00  0.38533703742E+04  0.38533703742E+04  0.00000000000E+00 0.  1.
         21   -1    0    0  506  502 -0.00000000000E+00 -0.00000000000E+00 -0.10890899762E+02  0.10890899762E+02  0.00000000000E+00 0.  1.
         21    1    1    2  503  505  0.23761370523E+02  0.64458040444E+02  0.21218718881E+04  0.21229836907E+04  0.00000000000E+00 0.  1.
         21    1    1    2  504  501 -0.59467763909E+02 -0.66401005024E+02  0.83773866494E+03  0.84246755377E+03  0.00000000000E+00 0.  1.
         21    1    1    2  505  502 -0.13468335790E+01  0.52798198261E+02  0.97173309384E+02  0.11059889582E+03  0.00000000000E+00 0.  1.
         21    1    1    2  506  504  0.37053226964E+02 -0.50855233681E+02  0.78569561209E+03  0.78821113369E+03  0.00000000000E+00 0.  1.
<scales pt_clust_3="71.66912" pt_clust_4="14000.00000" pt_clust_5="52.81537" pt_clust_6="50.64915"></scales>
<clustering>
<clus scale="   52.815">  2  5  1 -1</clus>
<clus scale="   50.649">  2  6  1 -1</clus>
<clus scale="   71.669">  1  3  2 -1</clus>
<clus scale="   71.669">  1  3  2 -1</clus>
</clustering>
</event>
<event>
 6    0  0.6207838E+002  0.7579721E+02  0.7546771E-02  0.1341420E+00
         21   -1    0    0  503  501  0.00000000000E+00  0.00000000000E+00  0.12155313507E+03  0.12155313507E+03  0.00000000000E+00 0. -1.
         21   -1    0    0  506  502 -0.00000000000E+00 -0.00000000000E+00 -0.20415044912E+03  0.20415044912E+03  0.00000000000E+00 0. -1.
         21    1    1    2  503  505  0.66152959986E+02 -0.47484472295E+02  0.14383460876E+02  0.82691433479E+02  0.00000000000E+00 0. -1.
         21    1    1    2  504  501 -0.92578240377E+01  0.32978012988E+02  0.21022077329E+02  0.40189356574E+02  0.00000000000E+00 0.  1.
         21    1    1    2  505  502 -0.57584999531E+02  0.75588156886E+02 -0.38416150351E+02  0.10249586450E+03  0.00000000000E+00 0. -1.
         21    1    1    2  506  504  0.68986358242E+00 -0.61081697580E+02 -0.79586701902E+02  0.10032692964E+03  0.00000000000E+00 0. -1.
<scales pt_clust_3="75.79721" pt_clust_4="34.25283" pt_clust_5="14000.00000" pt_clust_6="57.32261"></scales>
<clustering>
<clus scale="   34.253">  1  4  2 -1</clus>
<clus scale="   57.323">  2  6  1 -1</clus>
<clus scale="   75.797">  1  3  2 -1</clus>
<clus scale="   34.253">  1  3  2 -1</clus>
</clustering>
</event>
<event>
 6    0  0.6207838E+002  0.1151809E+03  0.7546771E-02  0.1251266E+00
         21   -1    0    0  503  501  0.00000000000E+00  0.00000000000E+00  0.10266895748E+03  0.10266895748E+03  0.00000000000E+00 0.  1.
         21   -1    0    0  504  502 -0.00000000000E+00 -0.00000000000E+00 -0.14143581656E+04  0.14143581656E+04  0.00000000000E+00 0.  1.
         21    1    1    2  503  505  0.13429430346E+03  0.52249606915E+02 -0.38263282011E+02  0.14909413172E+03  0.00000000000E+00 0.  1.
         21    1    1    2  504  501 -0.71291830890E+02 -0.44621536136E+02 -0.11647920529E+02  0.84907483129E+02  0.00000000000E+00 0.  1.
         21    1    1    2  505  506  0.12515239078E+02  0.36382540451E+02 -0.31716345977E+02  0.49862280944E+02  0.00000000000E+00 0.  1.
         21    1    1    2  506  502 -0.75517711647E+02 -0.44010611231E+02 -0.12300616596E+04  0.12331632273E+04  0.00000000000E+00 0.  1.
<scales pt_clust_3="37.53901" pt_clust_4="84.10474" pt_clust_5="37.53901" pt_clust_6="89.38034"></scales>
<clustering>
<clus scale="   37.539">  3  5 -1 -1</clus>
<clus scale="   84.105">  1  4  2 -1</clus>
<clus scale="   89.380">  2  6  1 -1</clus>
<clus scale="   84.105">  1  3  2 -1</clus>
</clustering>
</event>
<event>
 6    0  0.6207838E+002  0.1462914E+03  0.7546771E-02  0.1205106E+00
         21   -1    0    0  506  501  0.00000000000E+00  0.00000000000E+00  0.77105576376E+03  0.77105576376E+03  0.00000000000E+00 0.  1.
         21   -1    0    0  505  502 -0.00000000000E+00 -0.00000000000E+00 -0.35322433647E+03  0.35322433647E+03  0.00000000000E+00 0. -1.
         21    1    1    2  503  504  0.70840991609E+02  0.24210753751E+02 -0.22199243280E+02  0.78085934019E+02  0.00000000000E+00 0. -1.
         21    1    1    2  504  502 -0.95321332289E+01  0.53851821888E+02 -0.18269796342E+03  0.19070769812E+03  0.00000000000E+00 0. -1.
         21    1    1    2  505  501  0.70043367165E+02 -0.14506537594E+03 -0.48515467969E+02  0.16823729436E+03  0.00000000000E+00 0. -1.
         21    1    1    2  506  503 -0.13135222555E+03  0.67002800302E+02  0.67124410195E+03  0.68724917374E+03  0.00000000000E+00 0.  1.
<scales pt_clust_3="79.08424" pt_clust_4="54.68894" pt_clust_5="14000.00000" pt_clust_6="146.29143"></scales>
<clustering>
<clus scale="   54.689">  2  4  1 -1</clus>
<clus scale="   79.084">  2  3  1 -1</clus>
<clus scale="  146.291">  1  6  2 -1</clus>
<clus scale="  146.291">  1  3  2 -1</clus>
</clustering>
</event>
<event>
 6    0  0.6207838E+002  0.1584813E+03  0.7546771E-02  0.1190422E+00
         21   -1    0    0  506  501  0.00000000000E+00  0.00000000000E+00  0.69991112047E+03  0.69991112047E+03  0.00000000000E+00 0. -1.
         21   -1    0    0  505  502 -0.00000000000E+00 -0.00000000000E+00 -0.19781758031E+03  0.19781758031E+03  0.00000000000E+00 0.  1.
         21    1    1    2  503  504 -0.48115891828E+02 -0.46227707751E+02  0.47197973984E+03  0.47667285934E+03  0.00000000000E+00 0. -1.
         21    1    1    2  504  501 -0.14275862509E+02 -0.28498792721E+02  0.29574381919E+02  0.43481323609E+02  0.00000000000E+00 0.  1.
         21    1    1    2  505  503  0.17747818574E+03 -0.33569192157E+02  0.83615722948E+02  0.19904016228E+03  0.00000000000E+00 0. -1.
         21    1    1    2  506  502 -0.11508643140E+03  0.10829569263E+03 -0.83076304547E+02  0.17853435555E+03  0.00000000000E+00 0.  1.
<scales pt_clust_3="88.53127" pt_clust_4="31.87446" pt_clust_5="14000.00000" pt_clust_6="158.48125"></scales>
<clustering>
<clus scale="   31.874">  1  4  2 -1</clus>
<clus scale="   88.531">  1  3  2 -1</clus>
<clus scale="  158.481">  2  6  1 -1</clus>
<clus scale="   31.874">  1  3  2 -1</clus>
</clustering>
</event>
<event>
 6    0  0.6207838E+002  0.9137615E+02  0.7546771E-02  0.1299553E+00
         21   -1    0    0  504  501  0.00000000000E+00  0.00000000000E+00  0.29928272792E+03  0.29928272792E+03  0.00000000000E+00 0.  1.
         21   -1    0    0  506  502 -0.00000000000E+00 -0.00000000000E+00 -0.43701853910E+03  0.43701853910E+03  0.00000000000E+00 0.  1.
         21    1    1    2  503  501  0.82129638597E+02 -0.40462446693E+02  0.21481358326E+03  0.23351094767E+03  0.00000000000E+00 0.  1.
         21    1    1    2  504  505 -0.68317390300E+02  0.64126687052E+02 -0.29740355701E+02  0.98305577496E+02  0.00000000000E+00 0.  1.
         21    1    1    2  505  502  0.27112731225E+02  0.16117865186E+02 -0.34262087552E+03  0.34406968788E+03  0.00000000000E+00 0.  1.
         21    1    1    2  506  503 -0.40924979522E+02 -0.39782105545E+02  0.19811836791E+02  0.60415053981E+02  0.00000000000E+00 0.  1.
<scales pt_clust_3="91.37615" pt_clust_4="14000.00000" pt_clust_5="31.54181" pt_clust_6="50.45107"></scales>
<clustering>
<clus scale="   31.542">  2  5  1 -1</clus>
<clus scale="   50.451">  2  6  1 -1</clus>
<clus scale="   91.376">  1  3  2 -1</clus>
<clus scale="   91.376">  1  3  2 -1</clus>
</clustering>
</event>
<event>
 6    0  0.6207838E+002  0.1148700E+03  0.7546771E-02  0.1251808E+00
         21   -1    0    0  504  501  0.00000000000E+00  0.00000000000E+00  0.40444475558E+03  0.40444475558E+03  0.00000000000E+00 0.  1.
         21   -1    0    0  506  502 -0.00000000000E+00 -0.00000000000E+00 -0.55930422319E+02  0.55930422319E+02  0.00000000000E+00 0. -1.
         21    1    1    2  503  502  0.18266066752E+02  0.75252806869E+02  0.50121689282E+02  0.92243253806E+02  0.00000000000E+00 0. -1.
         21    1    1    2  504  505  0.18902612508E+02 -0.57905584422E+02  0.81244732185E+02  0.10154344870E+03  0.00000000000E+00 0.  1.
         21    1    1    2  505  503  0.43953769623E+02  0.16233607936E+02  0.20331128436E+02  0.51076596150E+02  0.00000000000E+00 0. -1.
         21    1    1    2  506  501 -0.81122448883E+02 -0.33580830383E+02  0.19681678336E+03  0.21551187924E+03  0.00000000000E+00 0.  1.
<scales pt_clust_3="44.92744" pt_clust_4="60.91277" pt_clust_5="44.92744" pt_clust_6="99.29351"></scales>
<clustering>
<clus scale="   44.927">  3  5 -1 -1</clus>
<clus scale="   60.913">  1  4  2 -1</clus>
<clus scale="   99.294">  1  6  2 -1</clus>
<clus scale="   60.913">  1  3  2 -1</clus>
</clustering>
</event>
<event>
 6    0  0.6207838E+002  0.1542349E+03  0.7546771E-02  0.1195364E+00
         21   -1    0    0  505  501  0.00000000000E+00  0.00000000000E+00  0.99028800565E+03  0.99028800565E+03  0.00000000000E+00 0. -1.
         21   -1    0    0  506  502 -0.00000000000E+00 -0.00000000000E+00 -0.72139074046E+02  0.72139074046E+02  0.00000000000E+00 0.  1.
         21    1    1    2  503  501  0.13709909055E+03 -0.13639967218E+02  0.26200134255E+03  0.29601843327E+03  0.00000000000E+00 0. -1.
         21    1    1    2  504  502 -0.15447148327E+03 -0.10291871859E+03  0.29855984504E+03  0.35155608777E+03  0.00000000000E+00 0.  1.
         21    1    1    2  505  504 -0.16655840915E+01 -0.40157187773E+02  0.14242171013E+03  0.14798417962E+03  0.00000000000E+00 0. -1.
         21    1    1    2  506  503  0.19037976810E+02  0.15671587358E+03  0.21516603388E+03  0.26686837903E+03  0.00000000000E+00 0.  1.
<scales pt_clust_3="139.17323" pt_clust_4="154.23490" pt_clust_5="40.19171" pt_clust_6="14000.00000"></scales>
<clustering>
<clus scale="   40.192">  1  5  2 -1</clus>
<clus scale="  139.173">  1  3  2 -1</clus>
<clus scale="  154.235">  1  4  2 -1</clus>
<clus scale="   40.192">  1  3  2 -1</clus>
</clustering>
</event>
<event>
 6    0  0.6207838E+002  0.2438969E+03  0.7546771E-02  0.1117224E+00
         21   -1    0    0  503  501  0.00000000000E+00  0.00000000000E+00  0.13027370434E+03  0.13027370434E+03  0.00000000000E+00 0.  1.
         21   -1    0    0  505  502 -0.00000000000E+00 -0.00000000000E+00 -0.10394870849E+04  0.10394870849E+04  0.00000000000E+00 0. -1.
         21    1    1    2  503  506 -0.47677136502E+01  0.11536424873E+03  0.69511942223E+01  0.11567177737E+03  0.00000000000E+00 0.  1.
         21    1    1    2  504  501 -0.62763100033E+02  0.41102894571E+02 -0.82409372318E+02  0.11144487119E+03  0.00000000000E+00 0. -1.
         21    1    1    2  505  504  0.42515864314E+02 -0.24411388805E+03 -0.81196030853E+03  0.84892798970E+03  0.00000000000E+00 0. -1.
         21    1    1    2  506  502  0.25014949369E+02  0.87646744744E+02 -0.21794893946E+02  0.93716151001E+02  0.00000000000E+00 0.  1.
<scales pt_clust_3="39.72976" pt_clust_4="75.02436" pt_clust_5="239.76268" pt_clust_6="39.72976"></scales>
<clustering>
<clus scale="   39.730">  3  6 -1 -1</clus>
<clus scale="   75.024">  1  4  2 -1</clus>
<clus scale="  239.763">  2  5  1 -1</clus>
<clus scale="   75.024">  1  3  2 -1</clus>
</clustering>
</event>
<event>
 6    0  0.6207838E+002  0.3450225E+03  0.7546771E-02  0.1064677E+00
         21   -1    0    0  506  501  0.00000000000E+00  0.00000000000E+00  0.23074750015E+04  0.23074750015E+04  0.00000000000E+00 0.  1.
         21   -1    0    0  504  502 -0.00000000000E+00 -0.00000000000E+00 -0.72910959878E+03  0.72910959878E+03  0.00000000000E+00 0. -1.
         21    1    1    2  503  505  0.12830979386E+03  0.20991427182E+03  0.13561801759E+04  0.13783149401E+04  0.00000000000E+00 0.  1.
         21    1    1    2  504  501 -0.25071727606E+03 -0.35957470316E+03  0.28221608787E+03  0.52134349513E+03  0.00000000000E+00 0.  1.
         21    1    1    2  505  502  0.46752768873E+02  0.10733546882E+03 -0.58919197506E+03  0.60071116831E+03  0.00000000000E+00 0. -1.
         21    1    1    2  506  503  0.75654713329E+02  0.42324962520E+02  0.52916111405E+03  0.53621499674E+03  0.00000000000E+00 0.  1.
<scales pt_clust_3="44.76457" pt_clust_4="336.68025" pt_clust_5="117.07572" pt_clust_6="44.76457"></scales>
<clustering>
<clus scale="   44.765">  3  6 -1 -1</clus>
<clus scale="  117.076">  2  5  1 -1</clus>
<clus scale="  336.680">  2  4  1 -1</clus>
<clus scale="  345.023">  1  3  2 -1</clus>
</clustering>
</event>
<event>
 6    0  0.6207838E+002  0.1583122E+03  0.7546771E-02  0.1190616E+00
         21   -1    0    0  504  501  0.00000000000E+00  0.00000000000E+00  0.10247945121E+04  0.10247945121E+04  0.00000000000E+00 0.  1.
         21   -1    0    0  503  502 -0.00000000000E+00 -0.00000000000E+00 -0.67330254577E+03  0.67330254577E+03  0.00000000000E+00 0. -1.
         21    1    1    2  503  501 -0.59409573382E+01 -0.52097239036E+02  0.20724002555E+02  0.56381748565E+02  0.00000000000E+00 0.  1.
         21    1    1    2  504  505 -0.10948340110E+03  0.92037201372E+02  0.62777555525E+03  0.64386303615E+03  0.00000000000E+00 0.  1.
         21    1    1    2  505  506  0.21322606709E+02 -0.16849478772E+03  0.31909822080E+03  0.36148142630E+03  0.00000000000E+00 0.  1.
         21    1    1    2  506  502  0.94101751725E+02  0.12855482538E+03 -0.61610581227E+03  0.63637084685E+03  0.00000000000E+00 0. -1.
<scales pt_clust_3="52.43489" pt_clust_4="127.50068" pt_clust_5="158.31220" pt_clust_6="14000.00000"></scales>
<clustering>
<clus scale="   52.435">  1  3  2 -1</clus>
<clus scale="  127.501">  1  4  2 -1</clus>
<clus scale="  158.312">  1  5  2 -1</clus>
<clus scale="   52.435">  1  3  2 -1</clus>
</clustering>
</event>
<event>
 6    0  0.6207838E+002  0.8261848E+02  0.7546771E-02  0.1321781E+00
         21   -1    0    0  504  501  0.00000000000E+00  0.00000000000E+00  0.87258248426E+02  0.87258248426E+02  0.00000000000E+00 0. -1.
         21   -1    0    0  503  502 -0.00000000000E+00 -0.00000000000E+00 -0.20133172252E+04  0.20133172252E+04  0.00000000000E+00 0. -1.
         21    1    1    2  503  501  0.78325975505E+02  0.35014623327E+02 -0.79287380022E+03  0.79750225414E+03  0.00000000000E+00 0. -1.
         21    1    1    2  504  505 -0.33907224371E+01  0.39702081237E+02  0.76386617269E+02  0.86154904393E+02  0.00000000000E+00 0. -1.
         21    1    1    2  505  506 -0.37640903195E+02 -0.86315077021E+02 -0.89058350897E+03  0.89554794208E+03  0.00000000000E+00 0. -1.
         21    1    1    2  506  502 -0.37294349873E+02  0.11598372458E+02 -0.31898828483E+03  0.32137037299E+03  0.00000000000E+00 0. -1.
<scales pt_clust_3="14000.00000" pt_clust_4="39.88924" pt_clust_5="82.61848" pt_clust_6="39.05625"></scales>
<clustering>
<clus scale="   39.056">  2  6  1 -1</clus>
<clus scale="   39.889">  1  4  2 -1</clus>
<clus scale="   82.618">  1  5  2 -1</clus>
<clus scale="   39.889">  1  3  2 -1</clus>
</clustering>
</event>
<event>
 6    0  0.6207838E+002  0.1364655E+03  0.7546771E-02  0.1218166E+00
         21   -1    0    0  504  501  0.00000000000E+00  0.00000000000E+00  0.20763920575E+03  0.20763920575E+03  0.00000000000E+00 0. -1.
         21   -1    0    0  505  502 -0.00000000000E+00 -0.00000000000E+00 -0.20139428470E+03  0.20139428470E+03  0.00000000000E+00 0. -1.
         21    1    1    2  503  501 -0.17970088735E+02 -0.42177944031E+02 -0.10906697739E+01  0.45859487703E+02  0.00000000000E+00 0. -1.
         21    1    1    2  504  506 -0.61700447359E+02 -0.29742803317E+01  0.95081380573E+02  0.11338545092E+03  0.00000000000E+00 0. -1.
         21    1    1    2  505  503 -0.15402135023E+02 -0.71739199789E+02 -0.63783581469E+02  0.97221827871E+02  0.00000000000E+00 0. -1.
         21    1    1    2  506  502  0.95072671117E+02  0.11689142415E+03 -0.23962208279E+02  0.15256672396E+03  0.00000000000E+00 0. -1.
<scales pt_clust_3="36.84592" pt_clust_4="61.77209" pt_clust_5="36.84592" pt_clust_6="128.25775"></scales>
<clustering>
<clus scale="   36.846">  3  5 -1 -1</clus>
<clus scale="   61.772">  1  4  2 -1</clus>
<clus scale="  128.258">  1  6  2 -1</clus>
<clus scale="   61.772">  1  3  2 -1</clus>
</clustering>
</event>
<event>
 6    0  0.6207838E+002  0.1153487E+03  0.7546771E-02  0.1250974E+00
         21   -1    0    0  502  501  0.00000000000E+00  0.00000000000E+00  0.12141846984E+04  0.12141846984E+04  0.00000000000E+00 0.  1.
         21   -1    0    0  506  502 -0.00000000000E+00 -0.00000000000E+00 -0.70220682787E+02  0.70220682787E+02  0.00000000000E+00 0.  1.
         21    1    1    2  503  501 -0.46373246231E+02  0.34068393298E+02  0.92676030381E+03  0.92854498766E+03  0.00000000000E+00 0.  1.
         21    1    1    2  504  503 -0.64830261572E+02 -0.57895076383E+02  0.21650053381E+03  0.23329655768E+03  0.00000000000E+00 0.  1.
         21    1    1    2  505  504  0.28799345649E+02  0.25071003793E+02  0.10419922858E+02  0.39579443318E+02  0.00000000000E+00 0.  1.
         21    1    1    2  506  505  0.82404162154E+02 -0.12443207078E+01 -0.97167448588E+01  0.82984392539E+02  0.00000000000E+00 0.  1.
<scales pt_clust_3="57.54245" pt_clust_4="105.91432" pt_clust_5="31.09903" pt_clust_6="31.09903"></scales>
<clustering>
<clus scale="   31.099">  5  6 -1 -1</clus>
<clus scale="   57.542">  1  3  2 -1</clus>
<clus scale="  105.914">  1  4  2 -1</clus>
<clus scale="   57.542">  1  3  2 -1</clus>
</clustering>
</event>
<event>
 6    0  0.6207838E+002  0.1248313E+03  0.7546771E-02  0.1235333E+00
         21   -1    0    0  504  501  0.00000000000E+00  0.00000000000E+00  0.11266584903E+04  0.11266584903E+04  0.00000000000E+00 0. -1.
         21   -1    0    0  503  502 -0.00000000000E+00 -0.00000000000E+00 -0.12284563630E+03  0.12284563630E+03  0.00000000000E+00 0. -1.
         21    1    1    2  503  505  0.11731556684E+03  0.50468824252E+02  0.33835848225E+02  0.13211702793E+03  0.00000000000E+00 0. -1.
         21    1    1    2  504  506 -0.64508241728E+02 -0.69995938818E+02  0.92721951615E+03  0.93209268629E+03  0.00000000000E+00 0. -1.
         21    1    1    2  505  501 -0.24292307313E+02 -0.23947544051E+02  0.10136400639E+03  0.10694981465E+03  0.00000000000E+00 0. -1.
         21    1    1    2  506  502 -0.28515017803E+02  0.43474658617E+02 -0.58606516786E+02  0.78344597720E+02  0.00000000000E+00 0.  1.
<scales pt_clust_3="124.83127" pt_clust_4="14000.00000" pt_clust_5="34.11160" pt_clust_6="51.92817"></scales>
<clustering>
<clus scale="   34.112">  1  5  2 -1</clus>
<clus scale="   51.928">  2  6  1 -1</clus>
<clus scale="  124.831">  2  3  1 -1</clus>
<clus scale="   34.112">  1  3  2 -1</clus>
</clustering>
</event>
<event>
 6    0  0.6207838E+002  0.9495770E+02  0.7546771E-02  0.1291271E+00
         21   -1    0    0  506  501  0.00000000000E+00  0.00000000000E+00  0.16744110897E+03  0.16744110897E+03  0.00000000000E+00 0. -1.
         21   -1    0    0  503  502 -0.00000000000E+00 -0.00000000000E+00 -0.17951341147E+03  0.17951341147E+03  0.00000000000E+00 0. -1.
         21    1    1    2  503  504 -0.87466006935E+02 -0.68534811446E+01 -0.47547982887E+02  0.99790196159E+02  0.00000000000E+00 0. -1.
         21    1    1    2  504  501 -0.44803166140E+02  0.30970781003E+02  0.32410126222E+02  0.63379249395E+02  0.00000000000E+00 0. -1.
         21    1    1    2  505  502  0.10392223722E+03  0.44123849827E+00 -0.52745748563E+02  0.11654243893E+03  0.00000000000E+00 0. -1.
         21    1    1    2  506  505  0.28346935850E+02 -0.24558538357E+02  0.55811302727E+02  0.67242635957E+02  0.00000000000E+00 0.  1.
<scales pt_clust_3="94.95770" pt_clust_4="37.65164" pt_clust_5="14000.00000" pt_clust_6="37.50561"></scales>
<clustering>
<clus scale="   37.506">  1  6  2 -1</clus>
<clus scale="   37.652">  1  4  2 -1</clus>
<clus scale="   94.958">  2  3  1 -1</clus>
<clus scale="   37.506">  1  3  2 -1</clus>
</clustering>
</event>
<event>
 6    0  0.6207838E+002  0.8235816E+02  0.7546771E-02  0.1322489E+00
         21   -1    0    0  505  501  0.00000000000E+00  0.00000000000E+00  0.17250631907E+03  0.17250631907E+03  0.00000000000E+00 0.  1.
         21   -1    0    0  506  502 -0.00000000000E+00 -0.00000000000E+00 -0.15076981747E+03  0.15076981747E+03  0.00000000000E+00 0.  1.
         21    1    1    2  503  501 -0.58062913418E+02  0.42730402522E+01  0.46289311330E+02  0.74379171352E+02  0.00000000000E+00 0.  1.
         21    1    1    2  504  503  0.50030202672E+02 -0.80267240440E+02  0.82838023145E+01  0.94944575664E+02  0.00000000000E+00 0.  1.
         21    1    1    2  505  502  0.53252167885E+02  0.85605484111E+02 -0.71606568573E+01  0.10107110023E+03  0.00000000000E+00 0.  1.
         21    1    1    2  506  504 -0.45219457139E+02 -0.96112839227E+01 -0.25675955186E+02  0.52881289293E+02  0.00000000000E+00 0.  1.
<scales pt_clust_3="63.83286" pt_clust_4="14000.00000" pt_clust_5="82.35816" pt_clust_6="46.22960"></scales>
<clustering>
<clus scale="   46.230">  2  6  1 -1</clus>
<clus scale="   63.833">  1  3  2 -1</clus>
<clus scale="   82.358">  2  5  1 -1</clus>
<clus scale="   63.833">  1  3  2 -1</clus>
</clustering>
</event>
<event>
 6    0  0.6207838E+002  0.9337568E+02  0.7546771E-02  0.1294877E+00
         21   -1    0    0  506  501  0.00000000000E+00  0.00000000000E+00  0.57223977708E+03  0.57223977708E+03  0.00000000000E+00 0. -1.
         21   -1    0    0  504  502 -0.00000000000E+00 -0.00000000000E+00 -0.41857919066E+03  0.41857919066E+03  0.00000000000E+00 0.  1.
         21    1    1    2  503  501  0.15414509159E+02 -0.52961622191E+02  0.25449834488E+03  0.26040727345E+03  0.00000000000E+00 0. -1.
         21    1    1    2  504  505 -0.35950289335E+02  0.70834149447E+02 -0.38988861495E+03  0.39789826853E+03  0.00000000000E+00 0.  1.
         21    1    1    2  505  503 -0.30145887568E+02 -0.64468670506E+02  0.23333325184E+03  0.24394546609E+03  0.00000000000E+00 0. -1.
         21    1    1    2  506  502  0.50681667744E+02  0.46596143251E+02  0.55717604655E+02  0.88567959667E+02  0.00000000000E+00 0. -1.
<scales pt_clust_3="42.99528" pt_clust_4="79.58571" pt_clust_5="42.99528" pt_clust_6="68.84644"></scales>
<clustering>
<clus scale="   42.995">  3  5 -1 -1</clus>
<clus scale="   68.846">  1  6  2 -1</clus>
<clus scale="   79.586">  2  4  1 -1</clus>
<clus scale="   68.846">  1  3  2 -1</clus>
</clustering>
</event>
<event>
 6    0  0.6207838E+002  0.1010594E+03  0.7546771E-02  0.1278084E+00
         21   -1    0    0  505  501  0.00000000000E+00  0.00000000000E+00  0.98996699401E+02  0.98996699401E+02  0.00000000000E+00 0.  1.
         21   -1    0    0  503  502 -0.00000000000E+00 -0.00000000000E+00 -0.30401439942E+03  0.30401439942E+03  0.00000000000E+00 0.  1.
         21    1    1    2  503  506 -0.22291680618E+01  0.44730452237E+02  0.71045660873E+01  0.45345974539E+02  0.00000000000E+00 0.  1.
         21    1    1    2  504  502  0.67088621720E+02 -0.70727383911E+02 -0.15516834780E+03  0.18324972622E+03  0.00000000000E+00 0.  1.
         21    1    1    2  505  504 -0.93524675951E+02 -0.31133821380E+02 -0.19987188469E+02  0.10057667497E+03  0.00000000000E+00 0.  1.
         21    1    1    2  506  501  0.28665222292E+02  0.57130753054E+02 -0.36966729838E+02  0.73838723096E+02  0.00000000000E+00 0.  1.
<scales pt_clust_3="39.60517" pt_clust_4="97.48459" pt_clust_5="89.29908" pt_clust_6="39.60517"></scales>
<clustering>
<clus scale="   39.605">  3  6 -1 -1</clus>
<clus scale="   97.485">  2  4  1 -1</clus>
<clus scale="   89.299">  1  5  2 -1</clus>
<clus scale="   89.299">  1  3  2 -1</clus>
</clustering>
</event>
<event>
 6    0  0.6207838E+002  0.5142214E+03  0.7546771E-02  0.1010132E+00
         21   -1    0    0  505  501  0.00000000000E+00  0.00000000000E+00  0.95819833173E+03  0.95819833173E+03  0.00000000000E+00 0. -1.
         21   -1    0    0  503  502 -0.00000000000E+00 -0.00000000000E+00 -0.11157636288E+04  0.11157636288E+04  0.00000000000E+00 0. -1.
         21    1    1    2  503  506  0.95959621805E+02 -0.62592777717E+02 -0.55581825487E+02  0.12733987657E+03  0.00000000000E+00 0.  1.
         21    1    1    2  504  502 -0.28401694551E+03 -0.41406565019E+03 -0.84993443101E+03  0.98716995752E+03  0.00000000000E+00 0. -1.
         21    1    1    2  505  504 -0.29506582271E+01 -0.37039397643E+02  0.69599560981E+01  0.37802967484E+02  0.00000000000E+00 0. -1.
         21    1    1    2  506  501  0.19100798193E+03  0.51369782555E+03  0.74099100335E+03  0.92164915894E+03  0.00000000000E+00 0. -1.
<scales pt_clust_3="115.25709" pt_clust_4="514.22142" pt_clust_5="37.15674" pt_clust_6="14000.00000"></scales>
<clustering>
<clus scale="   37.157">  1  5  2 -1</clus>
<clus scale="  115.257">  2  3  1 -1</clus>
<clus scale="  514.221">  2  4  1 -1</clus>
<clus scale="   37.157">  1  3  2 -1</clus>
</clustering>
</event>
<event>
 6    0  0.6207838E+002  0.1303720E+03  0.7546771E-02  0.1226905E+00
         21   -1    0    0  506  501  0.00000000000E+00  0.00000000000E+00  0.63355878918E+02  0.63355878918E+02  0.00000000000E+00 0.  1.
         21   -1    0    0  503  502 -0.00000000000E+00 -0.00000000000E+00 -0.78333410565E+03  0.78333410565E+03  0.00000000000E+00 0.  1.
         21    1    1    2  503  505 -0.42494929653E+02  0.12338486270E+03 -0.52035029316E+03  0.53646441726E+03  0.00000000000E+00 0.  1.
         21    1    1    2  504  502  0.82852637711E+02 -0.10698890286E+03 -0.17384584471E+03  0.22030334231E+03  0.00000000000E+00 0.  1.
         21    1    1    2  505  501 -0.39469069761E+02  0.23685954998E+02 -0.14846466803E+02  0.48365788617E+02  0.00000000000E+00 0. -1.
         21    1    1    2  506  504 -0.88863829695E+00 -0.40081914845E+02 -0.10935622066E+02  0.41556436393E+02  0.00000000000E+00 0.  1.
<scales pt_clust_3="130.37196" pt_clust_4="14000.00000" pt_clust_5="40.94563" pt_clust_6="40.09176"></scales>
<clustering>
<clus scale="   40.092">  1  6  2 -1</clus>
<clus scale="   40.946">  1  5  2 -1</clus>
<clus scale="  130.372">  2  3  1 -1</clus>
<clus scale="   40.092">  1  3  2 -1</clus>
</clustering>
</event>
<event>
 6    0  0.6207838E+002  0.1032845E+03  0.7546771E-02  0.1273537E+00
         21   -1    0    0  506  501  0.00000000000E+00  0.00000000000E+00  0.99725900379E+03  0.99725900379E+03  0.00000000000E+00 0. -1.
         21   -1    0    0  503  502 -0.00000000000E+00 -0.00000000000E+00 -0.11136008454E+03  0.11136008454E+03  0.00000000000E+00 0. -1.
         21    1    1    2  503  504  0.43501328226E+02 -0.23036525788E+01 -0.15112983652E+02  0.46109377002E+02  0.00000000000E+00 0. -1.
         21    1    1    2  504  501  0.85351799251E+02 -0.51077523548E+02  0.29367407572E+03  0.31006177739E+03  0.00000000000E+00 0. -1.
         21    1    1    2  505  502 -0.14161557851E+03  0.19047015167E+02 -0.11134696969E+01  0.14289506877E+03  0.00000000000E+00 0. -1.
         21    1    1    2  506  505  0.12762451034E+02  0.34334160959E+02  0.60845129687E+03  0.60955286517E+03  0.00000000000E+00 0. -1.
<scales pt_clust_3="44.02066" pt_clust_4="103.28445" pt_clust_5="14000.00000" pt_clust_6="36.62942"></scales>
<clustering>
<clus scale="   36.629">  1  6  2 -1</clus>
<clus scale="   44.021">  2  3  1 -1</clus>
<clus scale="  103.284">  1  4  2 -1</clus>
<clus scale="   36.629">  1  3  2 -1</clus>
</clustering>
</event>
<event>
 6    0  0.6207838E+002  0.1160289E+03  0.7546771E-02  0.1249796E+00
         21   -1    0    0  503  501  0.00000000000E+00  0.00000000000E+00  0.67265978219E+03  0.67265978219E+03  0.00000000000E+00 0.  1.
         21   -1    0    0  504  502 -0.00000000000E+00 -0.00000000000E+00 -0.36855850215E+02  0.36855850215E+02  0.00000000000E+00 0.  1.
         21    1    1    2  503  506 -0.49536819762E+02  0.32143701119E+02  0.29220656132E+03  0.29811371741E+03  0.00000000000E+00 0.  1.
         21    1    1    2  504  505  0.46207902068E+02 -0.92516491422E+02  0.77950859575E+02  0.12950215406E+03  0.00000000000E+00 0.  1.
         21    1    1    2  505  501  0.31590342639E+02  0.53195955340E+01  0.10355850758E+03  0.10840024140E+03  0.00000000000E+00 0.  1.
         21    1    1    2  506  502 -0.28261424945E+02  0.55053194769E+02  0.16208800350E+03  0.17349951952E+03  0.00000000000E+00 0.  1.
<scales pt_clust_3="43.78535" pt_clust_4="105.27616" pt_clust_5="32.03510" pt_clust_6="43.78535"></scales>
<clustering>
<clus scale="   32.035">  1  5  2 -1</clus>
<clus scale="   43.785">  3  6 -1 -1</clus>
<clus scale="  105.276">  2  4  1 -1</clus>
<clus scale="   32.035">  1  3  2 -1</clus>
</clustering>
</event>
<event>
 6    0  0.6207838E+002  0.9943038E+02  0.7546771E-02  0.1281498E+00
         21   -1    0    0  506  501  0.00000000000E+00  0.00000000000E+00  0.87793234094E+02  0.87793234094E+02  0.00000000000E+00 0.  1.
         21   -1    0    0  504  502 -0.00000000000E+00 -0.00000000000E+00 -0.19391672388E+04  0.19391672388E+04  0.00000000000E+00 0. -1.
         21    1    1    2  503  502 -0.70190450072E+02  0.65109791505E+01 -0.47610957465E+02  0.85064066453E+02  0.00000000000E+00 0.  1.
         21    1    1    2  504  505  0.10041592073E+03 -0.16118893777E+02 -0.17670810990E+04  0.17700053069E+04  0.00000000000E+00 0. -1.
         21    1    1    2  505  501  0.47572675422E+02 -0.36923350309E+02 -0.52473117900E+02  0.79874409838E+02  0.00000000000E+00 0.  1.
         21    1    1    2  506  503 -0.77798146077E+02  0.46531264936E+02  0.15791169670E+02  0.92016689731E+02  0.00000000000E+00 0.  1.
<scales pt_clust_3="14000.00000" pt_clust_4="99.43038" pt_clust_5="60.22037" pt_clust_6="47.45592"></scales>
<clustering>
<clus scale="   60.220">  1  5  2 -1</clus>
<clus scale="   47.456">  1  6  2 -1</clus>
<clus scale="   99.430">  2  4  1 -1</clus>
<clus scale="   60.220">  1  3  2 -1</clus>
</clustering>
</event>
<event>
 6    0  0.6207838E+002  0.1201857E+03  0.7546771E-02  0.1242791E+00
         21   -1    0    0  506  501  0.00000000000E+00  0.00000000000E+00  0.11503547554E+03  0.11503547554E+03  0.00000000000E+00 0. -1.
         21   -1    0    0  503  502 -0.00000000000E+00 -0.00000000000E+00 -0.22693073185E+03  0.22693073185E+03  0.00000000000E+00 0. -1.
         21    1    1    2  503  505  0.37787521183E+02 -0.53727497051E+01 -0.10293642078E+03  0.10978465247E+03  0.00000000000E+00 0. -1.
         21    1    1    2  504  501  0.12201091128E+02  0.53923320144E+02 -0.12939721649E+01  0.55301586271E+02  0.00000000000E+00 0. -1.
         21    1    1    2  505  504  0.47386004964E+02  0.21036511008E+02 -0.22040471261E+02  0.56336050938E+02  0.00000000000E+00 0. -1.
         21    1    1    2  506  502 -0.97374617275E+02 -0.69587081448E+02  0.14375607892E+02  0.12054391771E+03  0.00000000000E+00 0. -1.
<scales pt_clust_3="38.16757" pt_clust_4="49.86374" pt_clust_5="49.86374" pt_clust_6="108.14687"></scales>
<clustering>
<clus scale="   38.168">  2  3  1 -1</clus>
<clus scale="   49.864">  4  5 -1 -1</clus>
<clus scale="  108.147">  1  6  2 -1</clus>
<clus scale="  108.147">  1  3  2 -1</clus>
</clustering>
</event>
<event>
 6    0  0.6207838E+002  0.6706910E+02  0.7546771E-02  0.1370353E+00
         21   -1    0    0  506  501  0.00000000000E+00  0.00000000000E+00  0.12298042009E+03  0.12298042009E+03  0.00000000000E+00 0.  1.
         21   -1    0    0  504  502 -0.00000000000E+00 -0.00000000000E+00 -0.21203810349E+03  0.21203810349E+03  0.00000000000E+00 0.  1.
         21    1    1    2  503  505 -0.52496534813E+02 -0.59484591220E+02 -0.42981684933E+02  0.90231524422E+02  0.00000000000E+00 0. -1.
         21    1    1    2  504  503  0.73920256615E+02 -0.39297144363E+02 -0.87115083998E+02  0.12082014631E+03  0.00000000000E+00 0.  1.
         21    1    1    2  505  501 -0.88874436796E+01  0.68867512479E+02  0.55072041409E+02  0.88626467126E+02  0.00000000000E+00 0.  1.
         21    1    1    2  506  502 -0.12536278123E+02  0.29914223104E+02 -0.14032955876E+02  0.35340385732E+02  0.00000000000E+00 0.  1.
<scales pt_clust_3="67.06910" pt_clust_4="70.70535" pt_clust_5="14000.00000" pt_clust_6="32.43484"></scales>
<clustering>
<clus scale="   32.435">  2  6  1 -1</clus>
<clus scale="   70.705">  2  4  1 -1</clus>
<clus scale="   67.069">  2  3  1 -1</clus>
<clus scale="   67.069">  1  3  2 -1</clus>
</clustering>
</event>
<event>
 6    0  0.6207838E+002  0.1168902E+03  0.7546771E-02  0.1248317E+00
         21   -1    0    0  504  501  0.00000000000E+00  0.00000000000E+00  0.56218818494E+03  0.56218818494E+03  0.00000000000E+00 0. -1.
         21   -1    0    0  503  502 -0.00000000000E+00 -0.00000000000E+00 -0.58734574617E+02  0.58734574617E+02  0.00000000000E+00 0. -1.
         21    1    1    2  503  506  0.14214780368E+01 -0.64810063842E+02  0.21019194569E+03  0.21996140345E+03  0.00000000000E+00 0. -1.
         21    1    1    2  504  505 -0.26687165666E+02  0.78118926127E+02  0.14352273925E+03  0.16557037209E+03  0.00000000000E+00 0. -1.
         21    1    1    2  505  502 -0.15148932561E+02  0.52649612231E+02 -0.12018664698E+02  0.56088502627E+02  0.00000000000E+00 0. -1.
         21    1    1    2  506  501  0.40414620190E+02 -0.65958474516E+02  0.16175759008E+03  0.17930248139E+03  0.00000000000E+00 0. -1.
<scales pt_clust_3="43.07925" pt_clust_4="106.99909" pt_clust_5="54.78569" pt_clust_6="43.07925"></scales>
<clustering>
<clus scale="   43.079">  3  6 -1 -1</clus>
<clus scale="   54.786">  2  5  1 -1</clus>
<clus scale="  106.999">  1  4  2 -1</clus>
<clus scale="  106.999">  1  3  2 -1</clus>
</clustering>
</event>
<event>
 6    0  0.6207838E+002  0.1363107E+03  0.7546771E-02  0.1218381E+00
         21   -1    0    0  503  501  0.00000000000E+00  0.00000000000E+00  0.29219566918E+03  0.29219566918E+03  0.00000000000E+00 0. -1.
         21   -1    0    0  505  502 -0.00000000000E+00 -0.00000000000E+00 -0.53672248684E+03  0.53672248684E+03  0.00000000000E+00 0.  1.
         21    1    1    2  503  506 -0.14643811622E+02 -0.73717806879E+02  0.17664440494E+03  0.19196875284E+03  0.00000000000E+00 0. -1.
         21    1    1    2  504  502  0.58790267842E+02  0.85255912825E+02 -0.41147609578E+02  0.11143604461E+03  0.00000000000E+00 0.  1.
         21    1    1    2  505  501 -0.20019343109E+02  0.42638523345E+02 -0.43920865377E+03  0.44172735858E+03  0.00000000000E+00 0.  1.
         21    1    1    2  506  504 -0.24127113111E+02 -0.54176629291E+02  0.59185040745E+02  0.83786000002E+02  0.00000000000E+00 0.  1.
<scales pt_clust_3="44.98878" pt_clust_4="126.55281" pt_clust_5="47.10433" pt_clust_6="44.98878"></scales>
<clustering>
<clus scale="   44.989">  3  6 -1 -1</clus>
<clus scale="   47.104">  2  5  1 -1</clus>
<clus scale="  126.553">  2  4  1 -1</clus>
<clus scale="  136.311">  1  3  2 -1</clus>
</clustering>
</event>
<event>
 6    0  0.6207838E+002  0.1372689E+03  0.7546771E-02  0.1217052E+00
         21   -1    0    0  503  501  0.00000000000E+00  0.00000000000E+00  0.28574214373E+03  0.28574214373E+03  0.00000000000E+00 0.  1.
         21   -1    0    0  506  502 -0.00000000000E+00 -0.00000000000E+00 -0.25117513689E+03  0.25117513689E+03  0.00000000000E+00 0. -1.
         21    1    1    2  503  505  0.44781929825E+01  0.43867039896E+02  0.40544711398E+02  0.59901961771E+02  0.00000000000E+00 0. -1.
         21    1    1    2  504  501  0.19842318978E+02 -0.70941837278E+02  0.10681018140E+03  0.12974928420E+03  0.00000000000E+00 0.  1.
         21    1    1    2  505  502 -0.76349923074E+02  0.10221280526E+03 -0.18916027215E+03  0.22816304887E+03  0.00000000000E+00 0. -1.
         21    1    1    2  506  504  0.52029411113E+02 -0.75138007878E+02  0.76372386191E+02  0.11910298578E+03  0.00000000000E+00 0.  1.
<scales pt_clust_3="44.09503" pt_clust_4="38.78935" pt_clust_5="130.29201" pt_clust_6="38.78935"></scales>
<clustering>
<clus scale="   38.789">  4  6 -1 -1</clus>
<clus scale="   44.095">  1  3  2 -1</clus>
<clus scale="  130.292">  2  5  1 -1</clus>
<clus scale="   44.095">  1  3  2 -1</clus>
</clustering>
</event>
<event>
 6    0  0.6207838E+002  0.2771194E+03  0.7546771E-02  0.1097273E+00
         21   -1    0    0  504  501  0.00000000000E+00  0.00000000000E+00  0.82375870383E+02  0.82375870383E+02  0.00000000000E+00 0.  1.
         21   -1    0    0  501  502 -0.00000000000E+00 -0.00000000000E+00 -0.18229417691E+04  0.18229417691E+04  0.00000000000E+00 0.  1.
         21    1    1    2  503  502  0.35941094685E+02 -0.42230362600E+01 -0.33991008069E+03  0.34183103907E+03  0.00000000000E+00 0. -1.
         21    1    1    2  504  506 -0.14961039521E+03  0.20351363294E+03 -0.15638523908E+03  0.29708149075E+03  0.00000000000E+00 0.  1.
         21    1    1    2  505  503  0.84484479712E+02 -0.93668807300E+02 -0.67365676608E+03  0.68536480159E+03  0.00000000000E+00 0.  1.
         21    1    1    2  506  505  0.29184820813E+02 -0.10562178938E+03 -0.57061381288E+03  0.58104030807E+03  0.00000000000E+00 0.  1.
<scales pt_clust_3="32.70534" pt_clust_4="252.58874" pt_clust_5="70.45979" pt_clust_6="70.45979"></scales>
<clustering>
<clus scale="   32.705">  3  5 -1 -1</clus>
<clus scale="   70.460">  3  6 -1 -1</clus>
<clus scale="  252.589">  1  4  2 -1</clus>
<clus scale="  252.589">  1  3  2 -1</clus>
</clustering>
</event>
<event>
 6    0  0.6207838E+002  0.1870897E+03  0.7546771E-02  0.1161113E+00
         21   -1    0    0  504  501  0.00000000000E+00  0.00000000000E+00  0.41805228937E+04  0.41805228937E+04  0.00000000000E+00 0. -1.
         21   -1    0    0  505  502 -0.00000000000E+00 -0.00000000000E+00 -0.23844885755E+03  0.23844885755E+03  0.00000000000E+00 0.  1.
         21    1    1    2  503  501  0.39958360239E+02 -0.64539120983E+02  0.38859783525E+04  0.38867196612E+04  0.00000000000E+00 0. -1.
         21    1    1    2  504  502 -0.50755699441E+02 -0.11521756730E+03  0.23551623554E+03  0.26705640986E+03  0.00000000000E+00 0. -1.
         21    1    1    2  505  506 -0.29755428177E+02  0.11477519211E+03 -0.11352520549E+03  0.16415450805E+03  0.00000000000E+00 0.  1.
         21    1    1    2  506  503  0.40552767379E+02  0.64981496179E+02 -0.65895346405E+02  0.10104117213E+03  0.00000000000E+00 0.  1.
<scales pt_clust_3="75.90763" pt_clust_4="171.15666" pt_clust_5="60.72400" pt_clust_6="60.72400"></scales>
<clustering>
<clus scale="   60.724">  5  6 -1 -1</clus>
<clus scale="   75.908">  1  3  2 -1</clus>
<clus scale="  171.157">  1  4  2 -1</clus>
<clus scale="   75.908">  1  3  2 -1</clus>
</clustering>
</event>
<event>
 6    0  0.6207838E+002  0.1653386E+03  0.7546771E-02  0.1182798E+00
         21   -1    0    0  505  501  0.00000000000E+00  0.00000000000E+00  0.32454143928E+03  0.32454143928E+03  0.00000000000E+00 0. -1.
         21   -1    0    0  506  502 -0.00000000000E+00 -0.00000000000E+00 -0.34893160977E+03  0.34893160977E+03  0.00000000000E+00 0. -1.
         21    1    1    2  503  502  0.10519209055E+00  0.30949524967E+02 -0.12501690971E+03  0.12879096193E+03  0.00000000000E+00 0. -1.
         21    1    1    2  504  503 -0.16580165578E+03 -0.65556757195E+02 -0.10741937166E+03  0.20815090410E+03  0.00000000000E+00 0. -1.
         21    1    1    2  505  504  0.15299800092E+03 -0.54647097190E+02  0.17918321476E+03  0.24187045700E+03  0.00000000000E+00 0. -1.
         21    1    1    2  506  501  0.12698462769E+02  0.89254329418E+02  0.28862896123E+02  0.94660726012E+02  0.00000000000E+00 0. -1.
<scales pt_clust_3="30.94970" pt_clust_4="165.33863" pt_clust_5="14000.00000" pt_clust_6="94.69764"></scales>
<clustering>
<clus scale="   30.950">  2  3  1 -1</clus>
<clus scale="   94.698">  1  6  2 -1</clus>
<clus scale="  165.339">  2  4  1 -1</clus>
<clus scale="   94.698">  1  3  2 -1</clus>
</clustering>
</event>
<event>
 6    0  0.6207838E+002  0.6904567E+02  0.7546771E-02  0.1363369E+00
         21   -1    0    0  505  501  0.00000000000E+00  0.00000000000E+00  0.75589694782E+02  0.75589694782E+02  0.00000000000E+00 0.  1.
         21   -1    0    0  506  502 -0.00000000000E+00 -0.00000000000E+00 -0.67554445651E+03  0.67554445651E+03  0.00000000000E+00 0.  1.
         21    1    1    2  503  502 -0.51965079707E+01  0.64572537491E+02 -0.36050349245E+03  0.36627774210E+03  0.00000000000E+00 0.  1.
         21    1    1    2  504  503  0.63674308751E+02 -0.92051143576E+02 -0.13302725579E+03  0.17385074464E+03  0.00000000000E+00 0.  1.
         21    1    1    2  505  504  0.88074178751E+01  0.65082847398E+02  0.14826379612E+02  0.67328813799E+02  0.00000000000E+00 0.  1.
         21    1    1    2  506  501 -0.67285218656E+02 -0.37604241314E+02 -0.12125039310E+03  0.14367685075E+03  0.00000000000E+00 0. -1.
<scales pt_clust_3="64.78130" pt_clust_4="14000.00000" pt_clust_5="69.04567" pt_clust_6="70.23536"></scales>
<clustering>
<clus scale="   64.781">  2  3  1 -1</clus>
<clus scale="   70.235">  2  6  1 -1</clus>
<clus scale="   69.046">  1  5  2 -1</clus>
<clus scale="   69.046">  1  3  2 -1</clus>
</clustering>
</event>
<event>
 6    0  0.6207838E+002  0.1501766E+03  0.7546771E-02  0.1200256E+00
         21   -1    0    0  504  501  0.00000000000E+00  0.00000000000E+00  0.85207972526E+03  0.85207972526E+03  0.00000000000E+00 0.  1.
         21   -1    0    0  503  502 -0.00000000000E+00 -0.00000000000E+00 -0.25078892010E+03  0.25078892010E+03  0.00000000000E+00 0.  1.
         21    1    1    2  503  501  0.35688304905E+02 -0.12141681929E+02  0.32111717452E+01  0.37833677736E+02  0.00000000000E+00 0. -1.
         21    1    1    2  504  506 -0.79178115192E+02 -0.13560595549E+03  0.76661020652E+03  0.78252754445E+03  0.00000000000E+00 0.  1.
         21    1    1    2  505  502  0.30243332172E+02  0.38745423319E+02 -0.16551823167E+03  0.17266195870E+03  0.00000000000E+00 0.  1.
         21    1    1    2  506  505  0.13246478115E+02  0.10900221410E+03 -0.30123414363E+01  0.10984546446E+03  0.00000000000E+00 0.  1.
<scales pt_clust_3="37.69716" pt_clust_4="14000.00000" pt_clust_5="63.58600" pt_clust_6="150.17657"></scales>
<clustering>
<clus scale="   37.697">  2  3  1 -1</clus>
<clus scale="   63.586">  2  5  1 -1</clus>
<clus scale="  150.177">  2  6  1 -1</clus>
<clus scale="  150.177">  1  3  2 -1</clus>
</clustering>
</event>
<event>
 6    0  0.6207838E+002  0.6670902E+02  0.7546771E-02  0.1371656E+00
         21   -1    0    0  505  501  0.00000000000E+00  0.00000000000E+00  0.20622183354E+03  0.20622183354E+03  0.00000000000E+00 0. -1.
         21   -1    0    0  504  502 -0.00000000000E+00 -0.00000000000E+00 -0.11737609509E+03  0.11737609509E+03  0.00000000000E+00 0.  1.
         21    1    1    2  503  502  0.46690614453E+02 -0.29984324286E+02 -0.32691662549E+02  0.64403555655E+02  0.00000000000E+00 0. -1.
         21    1    1    2  504  501 -0.87352047728E+02  0.89329614222E+02  0.29923823668E+02  0.12847410417E+03  0.00000000000E+00 0.  1.
         21    1    1    2  505  506  0.26965780570E+02 -0.15500913755E+02  0.76143917617E+02  0.82251612987E+02  0.00000000000E+00 0. -1.
         21    1    1    2  506  503  0.13695652706E+02 -0.43844376181E+02  0.15469659712E+02  0.48468655824E+02  0.00000000000E+00 0. -1.
<scales pt_clust_3="14000.00000" pt_clust_4="66.70902" pt_clust_5="31.10356" pt_clust_6="51.95354"></scales>
<clustering>
<clus scale="   31.104">  1  5  2 -1</clus>
<clus scale="   51.954">  1  6  2 -1</clus>
<clus scale="   66.709">  1  4  2 -1</clus>
<clus scale="   31.104">  1  3  2 -1</clus>
</clustering>
</event>
<event>
 6    0  0.6207838E+002  0.7527026E+02  0.7546771E-02  0.1343036E+00
         21   -1    0    0  506  501  0.00000000000E+00  0.00000000000E+00  0.67209231513E+02  0.67209231513E+02  0.00000000000E+00 0. -1.
         21   -1    0    0  504  502 -0.00000000000E+00 -0.00000000000E+00 -0.10054954093E+04  0.10054954093E+04  0.00000000000E+00 0. -1.
         21    1    1    2  503  502 -0.20178702462E+02  0.73639599335E+02 -0.70980534589E+03  0.71390027293E+03  0.00000000000E+00 0. -1.
         21    1    1    2  504  501 -0.30639963449E+02 -0.75915677855E+02 -0.91949633803E+02  0.12311268278E+03  0.00000000000E+00 0. -1.
         21    1    1    2  505  503  0.57057114665E+02 -0.32971539394E+02 -0.17267502642E+03  0.18482235117E+03  0.00000000000E+00 0. -1.
         21    1    1    2  506  505 -0.62384487547E+01  0.35247617915E+02  0.36143828314E+02  0.50869333952E+02  0.00000000000E+00 0. -1.
<scales pt_clust_3="14000.00000" pt_clust_4="75.27026" pt_clust_5="60.40491" pt_clust_6="35.79543"></scales>
<clustering>
<clus scale="   35.795">  1  6  2 -1</clus>
<clus scale="   60.405">  1  5  2 -1</clus>
<clus scale="   75.270">  1  4  2 -1</clus>
<clus scale="   35.795">  1  3  2 -1</clus>
</clustering>
</event>
<event>
 6    0  0.6207838E+002  0.1459619E+03  0.7546771E-02  0.1205525E+00
         21   -1    0    0  504  501  0.00000000000E+00  0.00000000000E+00  0.33506770959E+03  0.33506770959E+03  0.00000000000E+00 0. -1.
         21   -1    0    0  505  502 -0.00000000000E+00 -0.00000000000E+00 -0.44808307639E+03  0.44808307639E+03  0.00000000000E+00 0.  1.
         21    1    1    2  503  506  0.37847979379E+02 -0.28196803924E+01  0.61324625002E+02  0.72118858645E+02  0.00000000000E+00 0. -1.
         21    1    1    2  504  502 -0.13566184196E+03  0.63627638906E+02 -0.37101004596E+02  0.15436675918E+03  0.00000000000E+00 0.  1.
         21    1    1    2  505  503  0.31555731627E+02  0.22076976591E+02 -0.33234540759E+03  0.33456931575E+03  0.00000000000E+00 0.  1.
         21    1    1    2  506  501  0.66258130955E+02 -0.82884935105E+02  0.19510642038E+03  0.22209585241E+03  0.00000000000E+00 0. -1.
<scales pt_clust_3="30.62371" pt_clust_4="136.68517" pt_clust_5="38.51178" pt_clust_6="30.62371"></scales>
<clustering>
<clus scale="   30.624">  3  6 -1 -1</clus>
<clus scale="   38.512">  2  5  1 -1</clus>
<clus scale="  136.685">  2  4  1 -1</clus>
<clus scale="  145.962">  1  3  2 -1</clus>
</clustering>
</event>
<event>
 6    0  0.6207838E+002  0.1398778E+03  0.7546771E-02  0.1213494E+00
         21   -1    0    0  505  501  0.00000000000E+00  0.00000000000E+00  0.64155630375E+02  0.64155630375E+02  0.00000000000E+00 0. -1.
         21   -1    0    0  506  502 -0.00000000000E+00 -0.00000000000E+00 -0.19994237261E+04  0.19994237261E+04  0.00000000000E+00 0. -1.
         21    1    1    2  503  504 -0.52141613205E+02  0.46941464738E+02 -0.65842776972E+02  0.96216008122E+02  0.00000000000E+00 0. -1.
         21    1    1    2  504  501 -0.14798251510E+02  0.50524839088E+02 -0.72283224965E+02  0.89423778850E+02  0.00000000000E+00 0. -1.
         21    1    1    2  505  502  0.87946698022E+02  0.41064618774E+02 -0.24949636095E+02  0.10021680971E+03  0.00000000000E+00 0. -1.
         21    1    1    2  506  503 -0.21006833307E+02 -0.13853092260E+03 -0.17721924577E+04  0.17777227598E+04  0.00000000000E+00 0. -1.
<scales pt_clust_3="32.44381" pt_clust_4="32.44381" pt_clust_5="97.06145" pt_clust_6="134.77047"></scales>
<clustering>
<clus scale="   32.444">  3  4 -1 -1</clus>
<clus scale="   97.061">  1  5  2 -1</clus>
<clus scale="  134.770">  2  6  1 -1</clus>
<clus scale="   97.061">  1  3  2 -1</clus>
</clustering>
</event>
<event>
 6    0  0.6207838E+002  0.1033744E+03  0.7546771E-02  0.1273356E+00
         21   -1    0    0  503  501  0.00000000000E+00  0.00000000000E+00  0.75920433633E+02  0.75920433633E+02  0.00000000000E+00 0. -1.
         21   -1    0    0  505  502 -0.00000000000E+00 -0.00000000000E+00 -0.39467921238E+03  0.39467921238E+03  0.00000000000E+00 0.  1.
         21    1    1    2  503  506  0.65309539239E+02  0.65143450764E+02  0.18143604144E+01  0.92262110299E+02  0.00000000000E+00 0. -1.
         21    1    1    2  504  502 -0.32014967258E+02 -0.52545879923E+02 -0.12792191667E+03  0.14195085202E+03  0.00000000000E+00 0.  1.
         21    1    1    2  505  501 -0.26700839475E+02  0.59167829422E+02 -0.91781360246E+02  0.11241701364E+03  0.00000000000E+00 0. -1.
         21    1    1    2  506  504 -0.65937325058E+01 -0.71765400263E+02 -0.10086986225E+03  0.12396967006E+03  0.00000000000E+00 0.  1.
<scales pt_clust_3="96.24001" pt_clust_4="34.86976" pt_clust_5="64.91353" pt_clust_6="34.86976"></scales>
<clustering>
<clus scale="   34.870">  4  6 -1 -1</clus>
<clus scale="   64.914">  2  5  1 -1</clus>
<clus scale="   96.240">  1  3  2 -1</clus>
<clus scale="   96.240">  1  3  2 -1</clus>
</clustering>
</event>
<event>
 6    0  0.6207838E+002  0.8353526E+02  0.7546771E-02  0.1319308E+00
         21   -1    0    0  506  501  0.00000000000E+00  0.00000000000E+00  0.40855410619E+03  0.40855410619E+03  0.00000000000E+00 0.  1.
         21   -1    0    0  505  502 -0.00000000000E+00 -0.00000000000E+00 -0.86626488591E+02  0.86626488591E+02  0.00000000000E+00 0. -1.
         21    1    1    2  503  502 -0.38917657079E+02  0.48584119679E+01 -0.36508628876E+02  0.53582349536E+02  0.00000000000E+00 0. -1.
         21    1    1    2  504  501  0.60012067133E+02  0.79082258685E+02  0.14082080768E+03  0.17229611637E+03  0.00000000000E+00 0.  1.
         21    1    1    2  505  504  0.49281502539E+02 -0.49858748897E+02  0.55858280080E+02  0.89636537124E+02  0.00000000000E+00 0.  1.
         21    1    1    2  506  503 -0.70375912593E+02 -0.34081921755E+02  0.16175715872E+03  0.17966559176E+03  0.00000000000E+00 0.  1.
<scales pt_clust_3="39.21974" pt_clust_4="14000.00000" pt_clust_5="58.42542" pt_clust_6="83.53526"></scales>
<clustering>
<clus scale="   39.220">  2  3  1 -1</clus>
<clus scale="   58.425">  2  5  1 -1</clus>
<clus scale="   83.535">  1  6  2 -1</clus>
<clus scale="   83.535">  1  3  2 -1</clus>
</clustering>
</event>
<event>
 6    0  0.6207838E+002  0.1195310E+03  0.7546771E-02  0.1243873E+00
         21   -1    0    0  503  501  0.00000000000E+00  0.00000000000E+00  0.12039663408E+03  0.12039663408E+03  0.00000000000E+00 0.  1.
         21   -1    0    0  506  502 -0.00000000000E+00 -0.00000000000E+00 -0.19756193462E+04  0.19756193462E+04  0.00000000000E+00 0. -1.
         21    1    1    2  503  502  0.11153175813E+03 -0.46048602982E+02 -0.18963837545E+04  0.19002187114E+04  0.00000000000E+00 0. -1.
         21    1    1    2  504  501 -0.28213919723E+02 -0.15860983046E+02  0.41664704212E+02  0.52759298957E+02  0.00000000000E+00 0.  1.
         21    1    1    2  505  504 -0.27753826629E+02 -0.23655829503E+02 -0.16038484263E+02  0.39838500718E+02  0.00000000000E+00 0.  1.
         21    1    1    2  506  505 -0.55564011773E+02  0.85565415531E+02  0.15534822403E+02  0.10319946922E+03  0.00000000000E+00 0.  1.
<scales pt_clust_3="14000.00000" pt_clust_4="32.36659" pt_clust_5="41.64420" pt_clust_6="119.53100"></scales>
<clustering>
<clus scale="   32.367">  1  4  2 -1</clus>
<clus scale="   41.644">  1  5  2 -1</clus>
<clus scale="  119.531">  1  6  2 -1</clus>
<clus scale="   32.367">  1  3  2 -1</clus>
</clustering>
</event>
<event>
 6    0  0.6207838E+002  0.1416009E+03  0.7546771E-02  0.1211191E+00
         21   -1    0    0  504  501  0.00000000000E+00  0.00000000000E+00  0.76854527712E+03  0.76854527712E+03  0.00000000000E+00 0. -1.
         21   -1    0    0  506  502 -0.00000000000E+00 -0.00000000000E+00 -0.11624329024E+03  0.11624329024E+03  0.00000000000E+00 0.  1.
         21    1    1    2  503  502 -0.11456404754E+02  0.64155991419E+02  0.10079024166E+03  0.12002463605E+03  0.00000000000E+00 0.  1.
         21    1    1    2  504  503 -0.16417349653E+02  0.61019179420E+02  0.16460616244E+03  0.17631806017E+03  0.00000000000E+00 0.  1.
         21    1    1    2  505  501 -0.19067396523E+02 -0.14804718048E+03  0.46842677335E+03  0.49163520547E+03  0.00000000000E+00 0. -1.
         21    1    1    2  506  505  0.46941150930E+02  0.22872009643E+02 -0.81521190578E+02  0.96810665678E+02  0.00000000000E+00 0.  1.
<scales pt_clust_3="30.15711" pt_clust_4="30.15711" pt_clust_5="138.24919" pt_clust_6="52.21686"></scales>
<clustering>
<clus scale="   30.157">  3  4 -1 -1</clus>
<clus scale="   52.217">  2  6  1 -1</clus>
<clus scale="  138.249">  1  5  2 -1</clus>
<clus scale="  138.249">  1  3  2 -1</clus>
</clustering>
</event>
<event>
 6    0  0.6207838E+002  0.1194205E+03  0.7546771E-02  0.1244056E+00
         21   -1    0    0  505  501  0.00000000000E+00  0.00000000000E+00  0.68103695001E+03  0.68103695001E+03  0.00000000000E+00 0. -1.
         21   -1    0    0  506  502 -0.00000000000E+00 -0.00000000000E+00 -0.47444822804E+02  0.47444822804E+02  0.00000000000E+00 0. -1.
         21    1    1    2  503  504  0.85587215437E+01  0.42464628047E+02  0.59790288720E+02  0.73833427219E+02  0.00000000000E+00 0. -1.
         21    1    1    2  504  502 -0.59093064295E+02  0.78930088361E+02  0.12668822876E+03  0.16053615295E+03  0.00000000000E+00 0. -1.
         21    1    1    2  505  503  0.97214065050E+02 -0.44444722123E+02  0.32695215708E+03  0.34398200649E+03  0.00000000000E+00 0. -1.
         21    1    1    2  506  501 -0.46679722299E+02 -0.76949994285E+02  0.12016145264E+03  0.15013018616E+03  0.00000000000E+00 0. -1.
<scales pt_clust_3="35.47484" pt_clust_4="35.47484" pt_clust_5="106.75580" pt_clust_6="90.00166"></scales>
<clustering>
<clus scale="   35.475">  3  4 -1 -1</clus>
<clus scale="   90.002">  2  6  1 -1</clus>
<clus scale="  106.756">  1  5  2 -1</clus>
<clus scale="  106.756">  1  3  2 -1</clus>
</clustering>
</event>
<event>
 6    0  0.6207838E+002  0.8324138E+02  0.7546771E-02  0.1320097E+00
         21   -1    0    0  505  501  0.00000000000E+00  0.00000000000E+00  0.29494890938E+03  0.29494890938E+03  0.00000000000E+00 0.  1.
         21   -1    0    0  504  502 -0.00000000000E+00 -0.00000000000E+00 -0.24513419206E+03  0.24513419206E+03  0.00000000000E+00 0.  1.
         21    1    1    2  503  502  0.37888812730E+02  0.68187607630E+01 -0.66748416823E+01  0.39071871467E+02  0.00000000000E+00 0. -1.
         21    1    1    2  504  506 -0.12072871323E+03 -0.43172173509E+02 -0.18503420190E+03  0.22511533630E+03  0.00000000000E+00 0.  1.
         21    1    1    2  505  503  0.31446377858E+02  0.52269376281E+02  0.56276735532E+02  0.82994176539E+02  0.00000000000E+00 0.  1.
         21    1    1    2  506  501  0.51393522644E+02 -0.15915963535E+02  0.18524702537E+03  0.19290171713E+03  0.00000000000E+00 0.  1.
<scales pt_clust_3="38.49750" pt_clust_4="83.24138" pt_clust_5="14000.00000" pt_clust_6="54.39096"></scales>
<clustering>
<clus scale="   38.498">  2  3  1 -1</clus>
<clus scale="   54.391">  1  6  2 -1</clus>
<clus scale="   83.241">  2  4  1 -1</clus>
<clus scale="   54.391">  1  3  2 -1</clus>
</clustering>
</event>
<event>
 6    0  0.6207838E+002  0.1399205E+03  0.7546771E-02  0.1213436E+00
         21   -1    0    0  506  501  0.00000000000E+00  0.00000000000E+00  0.97218223007E+03  0.97218223007E+03  0.00000000000E+00 0.  1.
         21   -1    0    0  505  502 -0.00000000000E+00 -0.00000000000E+00 -0.26248884134E+03  0.26248884134E+03  0.00000000000E+00 0.  1.
         21    1    1    2  503  501  0.12334596949E+03  0.69231430606E+02  0.90525959509E+03  0.91624350130E+03  0.00000000000E+00 0.  1.
         21    1    1    2  504  503 -0.43623764705E+02 -0.92357821500E+02 -0.18986302012E+03  0.21559444902E+03  0.00000000000E+00 0.  1.
         21    1    1    2  505  504 -0.36795281188E+02  0.41183069245E+02 -0.97780683583E+01  0.56085189943E+02  0.00000000000E+00 0.  1.
         21    1    1    2  506  502 -0.42926923593E+02 -0.18056678351E+02  0.40748821235E+01  0.46747931147E+02  0.00000000000E+00 0. -1.
<scales pt_clust_3="139.92050" pt_clust_4="14000.00000" pt_clust_5="57.60795" pt_clust_6="46.56999"></scales>
<clustering>
<clus scale="   46.570">  2  6  1 -1</clus>
<clus scale="   57.608">  2  5  1 -1</clus>
<clus scale="  139.920">  1  3  2 -1</clus>
<clus scale="  139.920">  1  3  2 -1</clus>
</clustering>
</event>
<event>
 6    0  0.6207838E+002  0.1083580E+03  0.7546771E-02  0.1263641E+00
         21   -1    0    0  502  501  0.00000000000E+00  0.00000000000E+00  0.12942163259E+04  0.12942163259E+04  0.00000000000E+00 0.  1.
         21   -1    0    0  504  502 -0.00000000000E+00 -0.00000000000E+00 -0.67625227884E+02  0.67625227884E+02  0.00000000000E+00 0.  1.
         21    1    1    2  503  505 -0.88133654583E+02 -0.22200826244E+02  0.46186663463E+02  0.10194913260E+03  0.00000000000E+00 0.  1.
         21    1    1    2  504  503  0.51386991036E+02  0.38102277411E+02  0.83431143406E+02  0.10513401962E+03  0.00000000000E+00 0.  1.
         21    1    1    2  505  506 -0.18268763326E+02  0.81172781387E+02  0.40729255837E+02  0.92637143914E+02  0.00000000000E+00 0.  1.
         21    1    1    2  506  501  0.55015426873E+02 -0.97074232554E+02  0.10562440353E+04  0.10621212576E+04  0.00000000000E+00 0.  1.
<scales pt_clust_3="62.99454" pt_clust_4="63.97192" pt_clust_5="14000.00000" pt_clust_6="108.35800"></scales>
<clustering>
<clus scale="   63.972">  2  4  1 -1</clus>
<clus scale="   62.995">  2  3  1 -1</clus>
<clus scale="  108.358">  1  6  2 -1</clus>
<clus scale="  108.358">  1  3  2 -1</clus>
</clustering>
</event>
<event>
 6    0  0.6207838E+002  0.2479648E+03  0.7546771E-02  0.1114598E+00
         21   -1    0    0  502  501  0.00000000000E+00  0.00000000000E+00  0.43083395464E+02  0.43083395464E+02  0.00000000000E+00 0. -1.
         21   -1    0    0  504  502 -0.00000000000E+00 -0.00000000000E+00 -0.22411612452E+04  0.22411612452E+04  0.00000000000E+00 0. -1.
         21    1    1    2  503  506  0.96147253076E+01  0.71257753746E+02 -0.23542945885E+03  0.24616486449E+03  0.00000000000E+00 0. -1.
         21    1    1    2  504  503  0.29219242318E+02  0.18453820527E+03 -0.13304100399E+04  0.13434652908E+04  0.00000000000E+00 0. -1.
         21    1    1    2  505  501  0.20705912106E+02 -0.71058419435E+02 -0.78712088821E+02  0.10804455884E+03  0.00000000000E+00 0. -1.
         21    1    1    2  506  505 -0.59539879731E+02 -0.18473753958E+03 -0.55352626215E+03  0.58656992652E+03  0.00000000000E+00 0. -1.
<scales pt_clust_3="55.93924" pt_clust_4="55.93924" pt_clust_5="74.01374" pt_clust_6="230.98810"></scales>
<clustering>
<clus scale="   55.939">  3  4 -1 -1</clus>
<clus scale="   74.014">  1  5  2 -1</clus>
<clus scale="  230.988">  1  6  2 -1</clus>
<clus scale="   74.014">  1  3  2 -1</clus>
</clustering>
</event>
<event>
 6    0  0.6207838E+002  0.9918454E+02  0.7546771E-02  0.1282020E+00
         21   -1    0    0  503  501  0.00000000000E+00  0.00000000000E+00  0.72584271262E+03  0.72584271262E+03  0.00000000000E+00 0.  1.
         21   -1    0    0  504  502 -0.00000000000E+00 -0.00000000000E+00 -0.71751612304E+02  0.71751612304E+02  0.00000000000E+00 0.  1.
         21    1    1    2  503  506 -0.21113487326E+02 -0.23019988476E+02  0.33718474479E+03  0.33862848571E+03  0.00000000000E+00 0.  1.
         21    1    1    2  504  501  0.74215595170E+02  0.30357749573E+02  0.10103841957E+03  0.12898957227E+03  0.00000000000E+00 0. -1.
         21    1    1    2  505  502  0.60266778514E+02 -0.70392935333E+02  0.19609783198E+02  0.94719552017E+02  0.00000000000E+00 0.  1.
         21    1    1    2  506  505 -0.11336888636E+03  0.63055174236E+02  0.19625815276E+03  0.23525671492E+03  0.00000000000E+00 0.  1.
<scales pt_clust_3="31.23618" pt_clust_4="71.91526" pt_clust_5="14000.00000" pt_clust_6="99.18454"></scales>
<clustering>
<clus scale="   31.236">  1  3  2 -1</clus>
<clus scale="   71.915">  1  4  2 -1</clus>
<clus scale="   99.185">  1  6  2 -1</clus>
<clus scale="   31.236">  1  3  2 -1</clus>
</clustering>
</event>
<event>
 6    0  0.6207838E+002  0.9548129E+02  0.7546771E-02  0.1290096E+00
         21   -1    0    0  504  501  0.00000000000E+00  0.00000000000E+00  0.65504684792E+03  0.65504684792E+03  0.00000000000E+00 0.  1.
         21   -1    0    0  505  502 -0.00000000000E+00 -0.00000000000E+00 -0.12058382543E+03  0.12058382543E+03  0.00000000000E+00 0.  1.
         21    1    1    2  503  506 -0.58523016510E+02  0.67152180032E+02 -0.67065166216E+02  0.11149930611E+03  0.00000000000E+00 0.  1.
         21    1    1    2  504  503  0.22771999103E+02 -0.62072809439E+02  0.50356465445E+03  0.50788675787E+03  0.00000000000E+00 0.  1.
         21    1    1    2  505  501  0.77055274525E+02 -0.15890735322E+02  0.69047449483E+02  0.10467846522E+03  0.00000000000E+00 0.  1.
         21    1    1    2  506  502 -0.41304257118E+02  0.10811364729E+02  0.28916084772E+02  0.51566144145E+02  0.00000000000E+00 0.  1.
<scales pt_clust_3="95.48129" pt_clust_4="65.63959" pt_clust_5="14000.00000" pt_clust_6="42.69575"></scales>
<clustering>
<clus scale="   42.696">  2  6  1 -1</clus>
<clus scale="   65.640">  1  4  2 -1</clus>
<clus scale="   95.481">  2  3  1 -1</clus>
<clus scale="   65.640">  1  3  2 -1</clus>
</clustering>
</event>
<event>
 6    0  0.6207838E+002  0.1425816E+03  0.7546771E-02  0.1209897E+00
         21   -1    0    0  505  501  0.00000000000E+00  0.00000000000E+00  0.51518640370E+03  0.51518640370E+03  0.00000000000E+00 0. -1.
         21   -1    0    0  506  502 -0.00000000000E+00 -0.00000000000E+00 -0.10759370580E+03  0.10759370580E+03  0.00000000000E+00 0.  1.
         21    1    1    2  503  501 -0.73037464539E+02  0.10617122106E+02  0.95592688245E+01  0.74421597191E+02  0.00000000000E+00 0.  1.
         21    1    1    2  504  502 -0.17828143128E+02 -0.27173185901E+02 -0.26856351048E+02  0.42160269342E+02  0.00000000000E+00 0.  1.
         21    1    1    2  505  504  0.12802644410E+03 -0.36035346829E+02  0.42119692217E+03  0.44169691402E+03  0.00000000000E+00 0. -1.
         21    1    1    2  506  503 -0.37160836434E+02  0.52591410624E+02  0.36928579594E+01  0.64501328946E+02  0.00000000000E+00 0.  1.
<scales pt_clust_3="47.33042" pt_clust_4="32.49961" pt_clust_5="131.69863" pt_clust_6="47.33042"></scales>
<clustering>
<clus scale="   32.500">  2  4  1 -1</clus>
<clus scale="   47.330">  3  6 -1 -1</clus>
<clus scale="  131.699">  1  5  2 -1</clus>
<clus scale="  131.699">  1  3  2 -1</clus>
</clustering>
</event>
<event>
 6    0  0.6207838E+002  0.9525661E+02  0.7546771E-02  0.1290599E+00
         21   -1    0    0  504  501  0.00000000000E+00  0.00000000000E+00  0.77234959659E+03  0.77234959659E+03  0.00000000000E+00 0. -1.
         21   -1    0    0  506  502 -0.00000000000E+00 -0.00000000000E+00 -0.32694907118E+03  0.32694907118E+03  0.00000000000E+00 0.  1.
         21    1    1    2  503  501  0.11701635241E+02  0.30687160817E+02  0.71503190076E+03  0.71578575651E+03  0.00000000000E+00 0. -1.
         21    1    1    2  504  505 -0.50463628656E+02 -0.24092063585E+02 -0.10794831324E+02  0.56952030063E+02  0.00000000000E+00 0.  1.
         21    1    1    2  505  502 -0.61997873804E+02  0.53276861193E+02 -0.11286525218E+03  0.13935826293E+03  0.00000000000E+00 0.  1.
         21    1    1    2  506  503  0.10075986722E+03 -0.59871958424E+02 -0.14597129184E+03  0.18720261828E+03  0.00000000000E+00 0.  1.
<scales pt_clust_3="32.84250" pt_clust_4="47.18282" pt_clust_5="95.25661" pt_clust_6="14000.00000"></scales>
<clustering>
<clus scale="   32.843">  1  3  2 -1</clus>
<clus scale="   47.183">  1  4  2 -1</clus>
<clus scale="   95.257">  2  5  1 -1</clus>
<clus scale="   32.843">  1  3  2 -1</clus>
</clustering>
</event>
<event>
 6    0  0.6207838E+002  0.1013373E+03  0.7546771E-02  0.1277509E+00
         21   -1    0    0  503  501  0.00000000000E+00  0.00000000000E+00  0.11403235145E+04  0.11403235145E+04  0.00000000000E+00 0.  1.
         21   -1    0    0  505  502 -0.00000000000E+00 -0.00000000000E+00 -0.63037378330E+02  0.63037378330E+02  0.00000000000E+00 0. -1.
         21    1    1    2  503  502  0.58698577794E+01  0.56665286656E+02  0.19746299483E+03  0.20551653041E+03  0.00000000000E+00 0.  1.
         21    1    1    2  504  506  0.54559632293E+02 -0.10727538106E+03  0.43186406475E+03  0.44832056754E+03  0.00000000000E+00 0.  1.
         21    1    1    2  505  504 -0.52999637163E+02  0.83932184341E+02 -0.99832476457E+00  0.99270185655E+02  0.00000000000E+00 0. -1.
         21    1    1    2  506  501 -0.74298529098E+01 -0.33322089933E+02  0.44895740133E+03  0.45025360921E+03  0.00000000000E+00 0.  1.
<scales pt_clust_3="47.09066" pt_clust_4="101.33735" pt_clust_5="14000.00000" pt_clust_6="34.14036"></scales>
<clustering>
<clus scale="   34.140">  1  6  2 -1</clus>
<clus scale="   47.091">  1  3  2 -1</clus>
<clus scale="  101.337">  1  4  2 -1</clus>
<clus scale="   34.140">  1  3  2 -1</clus>
</clustering>
</event>
<event>
 6    0  0.6207838E+002  0.1136372E+03  0.7546771E-02  0.1253979E+00
         21   -1    0    0  506  501  0.00000000000E+00  0.00000000000E+00  0.22740654466E+04  0.22740654466E+04  0.00000000000E+00 0.  1.
         21   -1    0    0  504  502 -0.00000000000E+00 -0.00000000000E+00 -0.39377690927E+03  0.39377690927E+03  0.00000000000E+00 0.  1.
         21    1    1    2  503  501 -0.68109093918E+02  0.32210967301E+02 -0.68366615968E+02  0.10173686288E+03  0.00000000000E+00 0.  1.
         21    1    1    2  504  503 -0.56541358654E+02  0.19327970598E+02 -0.27953429014E+03  0.28584946221E+03  0.00000000000E+00 0.  1.
         21    1    1    2  505  502  0.11919536932E+02 -0.32417603553E+02 -0.12439689066E+02  0.36711336735E+02  0.00000000000E+00 0. -1.
         21    1    1    2  506  505  0.11273091564E+03 -0.19121334346E+02  0.22406291325E+04  0.22435446941E+04  0.00000000000E+00 0.  1.
<scales pt_clust_3="113.63716" pt_clust_4="47.73195" pt_clust_5="34.53949" pt_clust_6="14000.00000"></scales>
<clustering>
<clus scale="   34.539">  2  5  1 -1</clus>
<clus scale="   47.732">  2  4  1 -1</clus>
<clus scale="  113.637">  2  3  1 -1</clus>
<clus scale="  113.637">  1  3  2 -1</clus>
</clustering>
</event>
<event>
 6    0  0.6721574E+002  0.1212612E+03  0.7546771E-02  0.1241031E+00
         21   -1    0    0  505  501  0.00000000000E+00  0.00000000000E+00  0.63650648994E+03  0.63650648994E+03  0.00000000000E+00 0.  1.
         21   -1    0    0  503  502 -0.00000000000E+00 -0.00000000000E+00 -0.31899020598E+03  0.31899020598E+03  0.00000000000E+00 0.  1.
         21    1    1    2  503  506  0.80756898066E+02  0.92949174769E+02 -0.27886782277E+03  0.30484174297E+03  0.00000000000E+00 0.  1.
         21    1    1    2  504  502 -0.80764524079E+02 -0.59136873152E+02  0.14787884067E+03  0.17857275726E+03  0.00000000000E+00 0.  1.
         21    1    1    2  505  504 -0.13364671408E+02 -0.71427562121E+02  0.41077253061E+03  0.41715055194E+03  0.00000000000E+00 0.  1.
         21    1    1    2  506  501  0.13372297422E+02  0.37615260503E+02  0.37732735449E+02  0.54931643754E+02  0.00000000000E+00 0. -1.
<scales pt_clust_3="121.26117" pt_clust_4="14000.00000" pt_clust_5="45.21931" pt_clust_6="39.92150"></scales>
<clustering>
<clus scale="   39.921">  1  6  2 -1</clus>
<clus scale="   45.219">  1  5  2 -1</clus>
<clus scale="  121.261">  2  3  1 -1</clus>
<clus scale="   39.921">  1  3  2 -1</clus>
</clustering>
</event>
<event>
 6    0  0.6207838E+002  0.6313621E+02  0.7546771E-02  0.1385123E+00
         21   -1    0    0  506  501  0.00000000000E+00  0.00000000000E+00  0.66057044734E+03  0.66057044734E+03  0.00000000000E+00 0. -1.
         21   -1    0    0  505  502 -0.00000000000E+00 -0.00000000000E+00 -0.62881583623E+02  0.62881583623E+02  0.00000000000E+00 0. -1.
         21    1    1    2  503  502 -0.55747389198E+02  0.12288455236E+02  0.95684559694E+02  0.11141953374E+03  0.00000000000E+00 0. -1.
         21    1    1    2  504  501  0.88422012707E+02  0.25263496260E+02  0.16064182489E+02  0.93352849627E+02  0.00000000000E+00 0. -1.
         21    1    1    2  505  504  0.28473218980E+02 -0.29436523044E+02  0.14842265584E+02  0.43560600727E+02  0.00000000000E+00 0.  1.
         21    1    1    2  506  503 -0.61147842489E+02 -0.81154284517E+01  0.47109785594E+03  0.47511904687E+03  0.00000000000E+00 0. -1.
<scales pt_clust_3="51.68010" pt_clust_4="14000.00000" pt_clust_5="40.95404" pt_clust_6="63.13621"></scales>
<clustering>
<clus scale="   40.954">  2  5  1 -1</clus>
<clus scale="   51.680">  2  3  1 -1</clus>
<clus scale="   63.136">  1  6  2 -1</clus>
<clus scale="   63.136">  1  3  2 -1</clus>
</clustering>
</event>
<event>
 6    0  0.6207838E+002  0.9517014E+02  0.7546771E-02  0.1290793E+00
         21   -1    0    0  504  501  0.00000000000E+00  0.00000000000E+00  0.87708040281E+03  0.87708040281E+03  0.00000000000E+00 0.  1.
         21   -1    0    0  505  502 -0.00000000000E+00 -0.00000000000E+00 -0.10079509211E+03  0.10079509211E+03  0.00000000000E+00 0.  1.
         21    1    1    2  503  506 -0.52256458362E+02 -0.36649045649E+02  0.15302967451E+02  0.65635895669E+02  0.00000000000E+00 0.  1.
         21    1    1    2  504  502 -0.10681148535E+02 -0.31038584201E+02  0.63456050696E+03  0.63540893733E+03  0.00000000000E+00 0.  1.
         21    1    1    2  505  503 -0.59865407937E+02  0.23288909652E+02 -0.31804752565E+02  0.71678327729E+02  0.00000000000E+00 0.  1.
         21    1    1    2  506  501  0.12280301483E+03  0.44398720197E+02  0.15822658885E+03  0.20515233419E+03  0.00000000000E+00 0.  1.
<scales pt_clust_3="95.17014" pt_clust_4="32.82500" pt_clust_5="64.18573" pt_clust_6="14000.00000"></scales>
<clustering>
<clus scale="   32.825">  1  4  2 -1</clus>
<clus scale="   64.186">  2  5  1 -1</clus>
<clus scale="   95.170">  2  3  1 -1</clus>
<clus scale="   32.825">  1  3  2 -1</clus>
</clustering>
</event>
<event>
 6    0  0.6207838E+002  0.1047019E+03  0.7546771E-02  0.1270708E+00
         21   -1    0    0  506  501  0.00000000000E+00  0.00000000000E+00  0.97830702660E+02  0.97830702660E+02  0.00000000000E+00 0.  1.
         21   -1    0    0  503  502 -0.00000000000E+00 -0.00000000000E+00 -0.33986567005E+03  0.33986567005E+03  0.00000000000E+00 0.  1.
         21    1    1    2  503  505  0.60399500978E+02 -0.14463368744E+02 -0.13989526943E+03  0.15306199778E+03  0.00000000000E+00 0.  1.
         21    1    1    2  504  502  0.14327729507E+02 -0.91411490412E+02 -0.83545131908E+02  0.12466408255E+03  0.00000000000E+00 0.  1.
         21    1    1    2  505  501  0.17535760046E+02  0.31416860889E+02 -0.20471145655E+02  0.41395529142E+02  0.00000000000E+00 0. -1.
         21    1    1    2  506  504 -0.92262990531E+02  0.74457998267E+02  0.18765796038E+01  0.11857476325E+03  0.00000000000E+00 0.  1.
<scales pt_clust_3="62.89497" pt_clust_4="104.70188" pt_clust_5="35.97947" pt_clust_6="14000.00000"></scales>
<clustering>
<clus scale="   35.979">  1  5  2 -1</clus>
<clus scale="   62.895">  2  3  1 -1</clus>
<clus scale="  104.702">  2  4  1 -1</clus>
<clus scale="   35.979">  1  3  2 -1</clus>
</clustering>
</event>
<event>
 6    0  0.6207838E+002  0.1383197E+03  0.7546771E-02  0.1215608E+00
         21   -1    0    0  503  501  0.00000000000E+00  0.00000000000E+00  0.22923130569E+04  0.22923130569E+04  0.00000000000E+00 0. -1.
         21   -1    0    0  504  502 -0.00000000000E+00 -0.00000000000E+00 -0.39910184395E+03  0.39910184395E+03  0.00000000000E+00 0. -1.
         21    1    1    2  503  506  0.22275227512E+02  0.60750616396E+02  0.62215219153E+03  0.62550793167E+03  0.00000000000E+00 0. -1.
         21    1    1    2  504  501  0.58969092490E+02 -0.18198932509E+03  0.14373125309E+04  0.14499878550E+04  0.00000000000E+00 0. -1.
         21    1    1    2  505  502 -0.16928929606E+02  0.40530125171E+02 -0.37790439347E+03  0.38044843318E+03  0.00000000000E+00 0. -1.
         21    1    1    2  506  505 -0.64315390396E+02  0.80708583520E+02  0.21165088405E+03  0.23547068101E+03  0.00000000000E+00 0. -1.
<scales pt_clust_3="67.46607" pt_clust_4="14000.00000" pt_clust_5="43.92357" pt_clust_6="138.31966"></scales>
<clustering>
<clus scale="   43.924">  2  5  1 -1</clus>
<clus scale="   67.466">  1  3  2 -1</clus>
<clus scale="  138.320">  2  6  1 -1</clus>
<clus scale="   67.466">  1  3  2 -1</clus>
</clustering>
</event>
<event>
 6    0  0.6207838E+002  0.1610805E+03  0.7546771E-02  0.1187482E+00
         21   -1    0    0  506  501  0.00000000000E+00  0.00000000000E+00  0.47474031605E+03  0.47474031605E+03  0.00000000000E+00 0.  1.
         21   -1    0    0  504  502 -0.00000000000E+00 -0.00000000000E+00 -0.23649196686E+03  0.23649196686E+03  0.00000000000E+00 0.  1.
         21    1    1    2  503  502 -0.37683945505E+02 -0.28722858027E+02 -0.72682559938E+02  0.86763107604E+02  0.00000000000E+00 0. -1.
         21    1    1    2  504  505  0.10128988949E+03  0.81311647074E+02  0.78669844161E+02  0.15185575407E+03  0.00000000000E+00 0. -1.
         21    1    1    2  505  501 -0.15403761414E+02  0.54435716959E+02  0.32069702886E+03  0.32564874860E+03  0.00000000000E+00 0.  1.
         21    1    1    2  506  503 -0.48202182575E+02 -0.10702450601E+03 -0.88435963892E+02  0.14696467263E+03  0.00000000000E+00 0.  1.
<scales pt_clust_3="34.01191" pt_clust_4="151.92495" pt_clust_5="56.57317" pt_clust_6="34.01191"></scales>
<clustering>
<clus scale="   34.012">  3  6 -1 -1</clus>
<clus scale="   56.573">  1  5  2 -1</clus>
<clus scale="  151.925">  1  4  2 -1</clus>
<clus scale="   56.573">  1  3  2 -1</clus>
</clustering>
</event>
<event>
 6    0  0.6207838E+002  0.1167566E+03  0.7546771E-02  0.1248546E+00
         21   -1    0    0  506  501  0.00000000000E+00  0.00000000000E+00  0.11530094290E+03  0.11530094290E+03  0.00000000000E+00 0. -1.
         21   -1    0    0  503  502 -0.00000000000E+00 -0.00000000000E+00 -0.34587199234E+04  0.34587199234E+04  0.00000000000E+00 0. -1.
         21    1    1    2  503  505 -0.28831855305E+02 -0.95515991702E+01 -0.13694830932E+04  0.13698198610E+04  0.00000000000E+00 0. -1.
         21    1    1    2  504  501  0.10108654859E+03  0.18351395160E+02 -0.11295540856E+04  0.11342167766E+04  0.00000000000E+00 0. -1.
         21    1    1    2  505  504  0.43224658280E+02 -0.29431497600E+02 -0.92574563040E+03  0.92722141710E+03  0.00000000000E+00 0. -1.
         21    1    1    2  506  502 -0.11547935157E+03  0.20631701610E+02  0.81363828738E+02  0.14276281160E+03  0.00000000000E+00 0. -1.
<scales pt_clust_3="30.37283" pt_clust_4="14000.00000" pt_clust_5="45.38694" pt_clust_6="116.75657"></scales>
<clustering>
<clus scale="   30.373">  2  3  1 -1</clus>
<clus scale="   45.387">  2  5  1 -1</clus>
<clus scale="  116.757">  1  6  2 -1</clus>
<clus scale="  116.757">  1  3  2 -1</clus>
</clustering>
</event>
<event>
 6    0  0.6207838E+002  0.1820310E+03  0.7546771E-02  0.1165852E+00
         21   -1    0    0  505  501  0.00000000000E+00  0.00000000000E+00  0.10841093093E+03  0.10841093093E+03  0.00000000000E+00 0. -1.
         21   -1    0    0  506  502 -0.00000000000E+00 -0.00000000000E+00 -0.14630699457E+04  0.14630699457E+04  0.00000000000E+00 0.  1.
         21    1    1    2  503  501 -0.73203434851E+02 -0.28751686061E+02 -0.24201103356E+02  0.82286667991E+02  0.00000000000E+00 0. -1.
         21    1    1    2  504  502  0.17117722870E+03  0.62541973951E+02 -0.13233661487E+04  0.13358559450E+04  0.00000000000E+00 0.  1.
         21    1    1    2  505  504 -0.49156391136E+02  0.13699318495E+02  0.44650777207E+02  0.67806445283E+02  0.00000000000E+00 0. -1.
         21    1    1    2  506  503 -0.48817402714E+02 -0.47489606386E+02 -0.51742539895E+02  0.85531818390E+02  0.00000000000E+00 0. -1.
<scales pt_clust_3="38.29831" pt_clust_4="177.31755" pt_clust_5="51.02962" pt_clust_6="38.29831"></scales>
<clustering>
<clus scale="   38.298">  3  6 -1 -1</clus>
<clus scale="   51.030">  1  5  2 -1</clus>
<clus scale="  177.318">  2  4  1 -1</clus>
<clus scale="   51.030">  1  3  2 -1</clus>
</clustering>
</event>
<event>
 6    0  0.6207838E+002  0.2153011E+03  0.7546771E-02  0.1137436E+00
         21   -1    0    0  503  501  0.00000000000E+00  0.00000000000E+00  0.24585748230E+04  0.24585748230E+04  0.00000000000E+00 0. -1.
         21   -1    0    0  506  502 -0.00000000000E+00 -0.00000000000E+00 -0.66201446901E+02  0.66201446901E+02  0.00000000000E+00 0. -1.
         21    1    1    2  503  502 -0.92602384305E+01 -0.18414500080E+03  0.11488524021E+04  0.11635535979E+04  0.00000000000E+00 0. -1.
         21    1    1    2  504  501 -0.46518293209E+02 -0.11038033066E+02  0.10972800753E+04  0.10983211522E+04  0.00000000000E+00 0. -1.
         21    1    1    2  505  504  0.22774089191E+01  0.66279445247E+02  0.91451472597E+02  0.11296691238E+03  0.00000000000E+00 0. -1.
         21    1    1    2  506  505  0.53501122721E+02  0.12890358862E+03  0.54789426131E+02  0.14993460744E+03  0.00000000000E+00 0. -1.
<scales pt_clust_3="199.57805" pt_clust_4="47.80993" pt_clust_5="55.73009" pt_clust_6="55.73009"></scales>
<clustering>
<clus scale="   47.810">  1  4  2 -1</clus>
<clus scale="   55.730">  5  6 -1 -1</clus>
<clus scale="  199.578">  1  3  2 -1</clus>
<clus scale="   47.810">  1  3  2 -1</clus>
</clustering>
</event>
<event>
 6    0  0.6207838E+002  0.9346111E+02  0.7546771E-02  0.1294680E+00
         21   -1    0    0  503  501  0.00000000000E+00  0.00000000000E+00  0.13415479587E+03  0.13415479587E+03  0.00000000000E+00 0.  1.
         21   -1    0    0  505  502 -0.00000000000E+00 -0.00000000000E+00 -0.61513874004E+03  0.61513874004E+03  0.00000000000E+00 0.  1.
         21    1    1    2  503  504  0.41380150130E+01  0.74923158318E+02  0.10364213500E+01  0.75044500063E+02  0.00000000000E+00 0.  1.
         21    1    1    2  504  502 -0.25950108959E+00  0.76250886328E+02 -0.82467882360E+02  0.11231748140E+03  0.00000000000E+00 0.  1.
         21    1    1    2  505  506  0.18391904033E+02 -0.39170872280E+02 -0.43898994884E+03  0.44111766520E+03  0.00000000000E+00 0.  1.
         21    1    1    2  506  501 -0.22270417956E+02 -0.11200317237E+03  0.39437465684E+02  0.12081388925E+03  0.00000000000E+00 0.  1.
<scales pt_clust_3="93.46111" pt_clust_4="55.36698" pt_clust_5="43.27377" pt_clust_6="14000.00000"></scales>
<clustering>
<clus scale="   43.274">  2  5  1 -1</clus>
<clus scale="   55.367">  2  4  1 -1</clus>
<clus scale="   93.461">  1  3  2 -1</clus>
<clus scale="   93.461">  1  3  2 -1</clus>
</clustering>
</event>
<event>
 6    0  0.6207838E+002  0.1372915E+03  0.7546771E-02  0.1217021E+00
         21   -1    0    0  503  501  0.00000000000E+00  0.00000000000E+00  0.84202979441E+02  0.84202979441E+02  0.00000000000E+00 0.  1.
         21   -1    0    0  506  502 -0.00000000000E+00 -0.00000000000E+00 -0.13341050741E+04  0.13341050741E+04  0.00000000000E+00 0. -1.
         21    1    1    2  503  505 -0.45693309207E+02 -0.13048687710E+03 -0.26670790229E+01  0.13828165790E+03  0.00000000000E+00 0.  1.
         21    1    1    2  504  502  0.61048953595E+02  0.37035870223E+02 -0.66495377808E+03  0.66877661248E+03  0.00000000000E+00 0. -1.
         21    1    1    2  505  504  0.22516161688E+02  0.61673812079E+02 -0.54598615382E+03  0.54991955484E+03  0.00000000000E+00 0. -1.
         21    1    1    2  506  501 -0.37871806077E+02  0.31777194796E+02 -0.36295083785E+02  0.61330228367E+02  0.00000000000E+00 0. -1.
<scales pt_clust_3="129.34778" pt_clust_4="44.13114" pt_clust_5="44.13114" pt_clust_6="49.43747"></scales>
<clustering>
<clus scale="   44.131">  4  5 -1 -1</clus>
<clus scale="   49.437">  1  6  2 -1</clus>
<clus scale="  129.348">  1  3  2 -1</clus>
<clus scale="   49.437">  1  3  2 -1</clus>
</clustering>
</event>
<event>
 6    0  0.6207838E+002  0.1978855E+03  0.7546771E-02  0.1151535E+00
         21   -1    0    0  505  501  0.00000000000E+00  0.00000000000E+00  0.27382529449E+03  0.27382529449E+03  0.00000000000E+00 0. -1.
         21   -1    0    0  501  502 -0.00000000000E+00 -0.00000000000E+00 -0.25467352900E+04  0.25467352900E+04  0.00000000000E+00 0. -1.
         21    1    1    2  503  506  0.73921106140E+02 -0.34871220604E+02 -0.95216144978E+02  0.12548484460E+03  0.00000000000E+00 0. -1.
         21    1    1    2  504  503 -0.69947743771E+02  0.21472588811E+03 -0.10972193580E+03  0.25107528169E+03  0.00000000000E+00 0. -1.
         21    1    1    2  505  504 -0.38896530888E+02 -0.19238680575E+03  0.13658860360E+03  0.23912772691E+03  0.00000000000E+00 0. -1.
         21    1    1    2  506  502  0.34923168519E+02  0.12532138249E+02 -0.22045605183E+04  0.22048727313E+04  0.00000000000E+00 0. -1.
<scales pt_clust_3="90.59524" pt_clust_4="197.88545" pt_clust_5="14000.00000" pt_clust_6="37.10367"></scales>
<clustering>
<clus scale="   37.104">  2  6  1 -1</clus>
<clus scale="   90.595">  2  3  1 -1</clus>
<clus scale="  197.885">  2  4  1 -1</clus>
<clus scale="  197.885">  1  3  2 -1</clus>
</clustering>
</event>
<event>
 6    0  0.6207838E+002  0.6950014E+02  0.7546771E-02  0.1361801E+00
         21   -1    0    0  504  501  0.00000000000E+00  0.00000000000E+00  0.34931837736E+03  0.34931837736E+03  0.00000000000E+00 0.  1.
         21   -1    0    0  503  502 -0.00000000000E+00 -0.00000000000E+00 -0.31189884609E+03  0.31189884609E+03  0.00000000000E+00 0. -1.
         21    1    1    2  503  505  0.50017117665E+02 -0.42431237455E+02 -0.11204990468E+03  0.12983567734E+03  0.00000000000E+00 0. -1.
         21    1    1    2  504  502 -0.42069962118E+02  0.84990409822E+02 -0.10379239830E+03  0.14059201051E+03  0.00000000000E+00 0. -1.
         21    1    1    2  505  506  0.15484392086E+02 -0.69630641360E+02 -0.48919465615E+02  0.86494547404E+02  0.00000000000E+00 0. -1.
         21    1    1    2  506  501 -0.23431547634E+02  0.27071468993E+02  0.30218129986E+03  0.30429498820E+03  0.00000000000E+00 0.  1.
<scales pt_clust_3="58.77204" pt_clust_4="14000.00000" pt_clust_5="69.50014" pt_clust_6="35.80366"></scales>
<clustering>
<clus scale="   35.804">  1  6  2 -1</clus>
<clus scale="   58.772">  2  3  1 -1</clus>
<clus scale="   69.500">  1  5  2 -1</clus>
<clus scale="   35.804">  1  3  2 -1</clus>
</clustering>
</event>
<event>
 6    0  0.6207838E+002  0.8202363E+02  0.7546771E-02  0.1323405E+00
         21   -1    0    0  503  501  0.00000000000E+00  0.00000000000E+00  0.29623354444E+02  0.29623354444E+02  0.00000000000E+00 0.  1.
         21   -1    0    0  505  502 -0.00000000000E+00 -0.00000000000E+00 -0.14031998349E+04  0.14031998349E+04  0.00000000000E+00 0.  1.
         21    1    1    2  503  504 -0.80885025083E+02 -0.67600325213E+02 -0.18138609280E+03  0.20979300731E+03  0.00000000000E+00 0.  1.
         21    1    1    2  504  502  0.89071110651E+01  0.12048184728E+03 -0.78524279295E+03  0.79448187898E+03  0.00000000000E+00 0.  1.
         21    1    1    2  505  506  0.20363572033E+02 -0.70862232724E+02 -0.29352507149E+03  0.30264351750E+03  0.00000000000E+00 0.  1.
         21    1    1    2  506  501  0.51614341985E+02  0.17980710656E+02 -0.11342252324E+03  0.12590478558E+03  0.00000000000E+00 0.  1.
<scales pt_clust_3="82.02363" pt_clust_4="14000.00000" pt_clust_5="73.91012" pt_clust_6="54.65662"></scales>
<clustering>
<clus scale="   54.657">  1  6  2 -1</clus>
<clus scale="   73.910">  2  5  1 -1</clus>
<clus scale="   82.024">  1  3  2 -1</clus>
<clus scale="   54.657">  1  3  2 -1</clus>
</clustering>
</event>
<event>
 6    0  0.6207838E+002  0.1341738E+03  0.7546771E-02  0.1221391E+00
         21   -1    0    0  505  501  0.00000000000E+00  0.00000000000E+00  0.20946841073E+03  0.20946841073E+03  0.00000000000E+00 0.  1.
         21   -1    0    0  504  502 -0.00000000000E+00 -0.00000000000E+00 -0.19781892192E+03  0.19781892192E+03  0.00000000000E+00 0.  1.
         21    1    1    2  503  501  0.75082400269E+00  0.35647250952E+02  0.90055418555E+01  0.36774855829E+02  0.00000000000E+00 0. -1.
         21    1    1    2  504  503  0.52166794333E+02  0.81982222793E+02  0.14314501107E+03  0.17301142586E+03  0.00000000000E+00 0.  1.
         21    1    1    2  505  506 -0.44006789000E+02 -0.58427286199E+02 -0.48601853244E+02  0.87820757167E+02  0.00000000000E+00 0.  1.
         21    1    1    2  506  502 -0.89108293358E+01 -0.59202187546E+02 -0.91899210869E+02  0.10968029380E+03  0.00000000000E+00 0.  1.
<scales pt_clust_3="35.65516" pt_clust_4="123.98981" pt_clust_5="46.70115" pt_clust_6="46.70115"></scales>
<clustering>
<clus scale="   35.655">  1  3  2 -1</clus>
<clus scale="   46.701">  5  6 -1 -1</clus>
<clus scale="  123.990">  1  4  2 -1</clus>
<clus scale="   35.655">  1  3  2 -1</clus>
</clustering>
</event>
<event>
 6    0  0.6207838E+002  0.2183656E+03  0.7546771E-02  0.1135107E+00
         21   -1    0    0  506  501  0.00000000000E+00  0.00000000000E+00  0.35578736438E+03  0.35578736438E+03  0.00000000000E+00 0. -1.
         21   -1    0    0  505  502 -0.00000000000E+00 -0.00000000000E+00 -0.44833222612E+03  0.44833222612E+03  0.00000000000E+00 0.  1.
         21    1    1    2  503  501  0.83275467423E+02  0.16055225514E+03  0.10632630916E+03  0.20980255986E+03  0.00000000000E+00 0. -1.
         21    1    1    2  504  503 -0.12540456161E+03 -0.16338209034E+03  0.72767075943E+02  0.21843776884E+03  0.00000000000E+00 0. -1.
         21    1    1    2  505  504 -0.26175304603E+01 -0.56449871325E+02  0.30866025369E+02  0.64390612363E+02  0.00000000000E+00 0.  1.
         21    1    1    2  506  502  0.44746624643E+02  0.59279706518E+02 -0.30250427221E+03  0.31148864943E+03  0.00000000000E+00 0.  1.
<scales pt_clust_3="207.71910" pt_clust_4="35.27964" pt_clust_5="35.27964" pt_clust_6="74.27209"></scales>
<clustering>
<clus scale="   35.280">  4  5 -1 -1</clus>
<clus scale="   74.272">  2  6  1 -1</clus>
<clus scale="  207.719">  1  3  2 -1</clus>
<clus scale="  207.719">  1  3  2 -1</clus>
</clustering>
</event>
<event>
 6    0  0.6207838E+002  0.6232887E+02  0.7546771E-02  0.1388311E+00
         21   -1    0    0  505  501  0.00000000000E+00  0.00000000000E+00  0.94565568586E+02  0.94565568586E+02  0.00000000000E+00 0. -1.
         21   -1    0    0  504  502 -0.00000000000E+00 -0.00000000000E+00 -0.46831575893E+03  0.46831575893E+03  0.00000000000E+00 0. -1.
         21    1    1    2  503  502 -0.74272210696E+02  0.11891399818E+01 -0.21489996751E+03  0.22737583726E+03  0.00000000000E+00 0. -1.
         21    1    1    2  504  506  0.39319332737E+02  0.44986876002E+02 -0.18333981508E+03  0.19282976102E+03  0.00000000000E+00 0. -1.
         21    1    1    2  505  503 -0.25779295400E+00  0.41281284603E+02  0.25252967129E+02  0.48393421706E+02  0.00000000000E+00 0. -1.
         21    1    1    2  506  501  0.35210670913E+02 -0.87457300587E+02 -0.76337488119E+00  0.94282307530E+02  0.00000000000E+00 0. -1.
<scales pt_clust_3="62.22197" pt_clust_4="62.32887" pt_clust_5="41.28209" pt_clust_6="14000.00000"></scales>
<clustering>
<clus scale="   41.282">  1  5  2 -1</clus>
<clus scale="   62.329">  2  4  1 -1</clus>
<clus scale="   62.222">  2  3  1 -1</clus>
<clus scale="   41.282">  1  3  2 -1</clus>
</clustering>
</event>
<event>
 6    0  0.6207838E+002  0.1501168E+03  0.7546771E-02  0.1200330E+00
         21   -1    0    0  505  501  0.00000000000E+00  0.00000000000E+00  0.12453477296E+03  0.12453477296E+03  0.00000000000E+00 0. -1.
         21   -1    0    0  503  502 -0.00000000000E+00 -0.00000000000E+00 -0.53413531087E+03  0.53413531087E+03  0.00000000000E+00 0. -1.
         21    1    1    2  503  506 -0.42663771282E+02  0.14366890753E+02 -0.54968108835E+02  0.71049967761E+02  0.00000000000E+00 0.  1.
         21    1    1    2  504  501 -0.38340148531E+01  0.96190451566E+02  0.59575002158E+02  0.11320990913E+03  0.00000000000E+00 0. -1.
         21    1    1    2  505  502  0.59493538300E+02 -0.14854122593E+03 -0.40164414930E+03  0.43234476933E+03  0.00000000000E+00 0. -1.
         21    1    1    2  506  504 -0.12995752164E+02  0.37983883613E+02 -0.12563281933E+02  0.42065437613E+02  0.00000000000E+00 0. -1.
<scales pt_clust_3="45.01783" pt_clust_4="38.82351" pt_clust_5="137.55261" pt_clust_6="38.82351"></scales>
<clustering>
<clus scale="   38.824">  4  6 -1 -1</clus>
<clus scale="   45.018">  2  3  1 -1</clus>
<clus scale="  137.553">  2  5  1 -1</clus>
<clus scale="  150.117">  1  3  2 -1</clus>
</clustering>
</event>
<event>
 6    0  0.6207838E+002  0.1661221E+03  0.7546771E-02  0.1181953E+00
         21   -1    0    0  506  501  0.00000000000E+00  0.00000000000E+00  0.22342399078E+03  0.22342399078E+03  0.00000000000E+00 0.  1.
         21   -1    0    0  504  502 -0.00000000000E+00 -0.00000000000E+00 -0.72668786182E+03  0.72668786182E+03  0.00000000000E+00 0. -1.
         21    1    1    2  503  505 -0.38859431940E+02 -0.32150119285E+02 -0.22066724939E+03  0.22635750611E+03  0.00000000000E+00 0. -1.
         21    1    1    2  504  501 -0.87158574855E+01  0.32531283299E+02 -0.69406276112E+02  0.77145847124E+02  0.00000000000E+00 0. -1.
         21    1    1    2  505  502 -0.11118159926E+03 -0.56547177078E+01 -0.39196060819E+03  0.40746342439E+03  0.00000000000E+00 0. -1.
         21    1    1    2  506  503  0.15875688869E+03  0.52735536936E+01  0.17877026265E+03  0.23914507497E+03  0.00000000000E+00 0.  1.
<scales pt_clust_3="33.48252" pt_clust_4="33.67864" pt_clust_5="33.48252" pt_clust_6="158.49915"></scales>
<clustering>
<clus scale="   33.483">  3  5 -1 -1</clus>
<clus scale="   33.679">  2  4  1 -1</clus>
<clus scale="  158.499">  1  6  2 -1</clus>
<clus scale="  158.499">  1  3  2 -1</clus>
</clustering>
</event>
<event>
 6    0  0.6207838E+002  0.8754611E+02  0.7546771E-02  0.1308905E+00
         21   -1    0    0  504  501  0.00000000000E+00  0.00000000000E+00  0.51679981122E+03  0.51679981122E+03  0.00000000000E+00 0. -1.
         21   -1    0    0  503  502 -0.00000000000E+00 -0.00000000000E+00 -0.10901803171E+03  0.10901803171E+03  0.00000000000E+00 0. -1.
         21    1    1    2  503  505  0.39326907635E+02 -0.10721122429E+03 -0.19875648782E+02  0.11591330248E+03  0.00000000000E+00 0. -1.
         21    1    1    2  504  506  0.31323412865E+02  0.23353247471E+02 -0.23825471558E+01  0.39143414413E+02  0.00000000000E+00 0. -1.
         21    1    1    2  505  501 -0.75274444235E+02  0.44359501295E+02  0.42100980951E+03  0.42998054260E+03  0.00000000000E+00 0. -1.
         21    1    1    2  506  502  0.46241237356E+01  0.39498475522E+02  0.90301659401E+01  0.40780583441E+02  0.00000000000E+00 0.  1.
<scales pt_clust_3="87.54611" pt_clust_4="32.89044" pt_clust_5="14000.00000" pt_clust_6="79.64706"></scales>
<clustering>
<clus scale="   32.890">  4  6 -1 -1</clus>
<clus scale="   79.647">  2  4  1 -1</clus>
<clus scale="   87.546">  2  3  1 -1</clus>
<clus scale="   87.546">  1  3  2 -1</clus>
</clustering>
</event>
<event>
 6    0  0.6207838E+002  0.1693130E+03  0.7546771E-02  0.1178566E+00
         21   -1    0    0  504  501  0.00000000000E+00  0.00000000000E+00  0.62622818879E+03  0.62622818879E+03  0.00000000000E+00 0. -1.
         21   -1    0    0  503  502 -0.00000000000E+00 -0.00000000000E+00 -0.58510861357E+02  0.58510861357E+02  0.00000000000E+00 0. -1.
         21    1    1    2  503  505 -0.14270925761E+02 -0.32303439103E+02  0.47042671436E+02  0.58823332410E+02  0.00000000000E+00 0.  1.
         21    1    1    2  504  506  0.83480015818E+02 -0.74659821379E+02  0.19686335584E+03  0.22649102155E+03  0.00000000000E+00 0. -1.
         21    1    1    2  505  501 -0.11974997321E+03  0.11815162807E+03  0.17901986334E+03  0.24565824792E+03  0.00000000000E+00 0. -1.
         21    1    1    2  506  502  0.50540883152E+02 -0.11188367587E+02  0.14479143682E+03  0.15376644827E+03  0.00000000000E+00 0.  1.
<scales pt_clust_3="35.31532" pt_clust_4="34.23813" pt_clust_5="161.64976" pt_clust_6="34.23813"></scales>
<clustering>
<clus scale="   34.238">  4  6 -1 -1</clus>
<clus scale="   35.315">  2  3  1 -1</clus>
<clus scale="  161.650">  2  5  1 -1</clus>
<clus scale="  169.313">  1  3  2 -1</clus>
</clustering>
</event>
<event>
 6    0  0.6207838E+002  0.1038363E+03  0.7546771E-02  0.1272430E+00
         21   -1    0    0  506  501  0.00000000000E+00  0.00000000000E+00  0.58951412652E+02  0.58951412652E+02  0.00000000000E+00 0.  1.
         21   -1    0    0  504  502 -0.00000000000E+00 -0.00000000000E+00 -0.42627072076E+03  0.42627072076E+03  0.00000000000E+00 0. -1.
         21    1    1    2  503  501 -0.16178882984E+02 -0.25974000101E+02 -0.86118217172E+01  0.31789438642E+02  0.00000000000E+00 0.  1.
         21    1    1    2  504  505 -0.15709712530E+02  0.91379290447E+02 -0.11848861188E+03  0.15045438158E+03  0.00000000000E+00 0.  1.
         21    1    1    2  505  503 -0.23608732567E+02  0.36365870900E+02 -0.89313318444E+01  0.44267567228E+02  0.00000000000E+00 0.  1.
         21    1    1    2  506  502  0.55497328081E+02 -0.10177116125E+03 -0.23128754267E+03  0.25871074597E+03  0.00000000000E+00 0. -1.
<scales pt_clust_3="30.60073" pt_clust_4="103.83628" pt_clust_5="39.87995" pt_clust_6="14000.00000"></scales>
<clustering>
<clus scale="   30.601">  1  3  2 -1</clus>
<clus scale="   39.880">  1  5  2 -1</clus>
<clus scale="  103.836">  1  4  2 -1</clus>
<clus scale="   30.601">  1  3  2 -1</clus>
</clustering>
</event>
<event>
 6    0  0.6207838E+002  0.6238255E+02  0.7546771E-02  0.1388097E+00
         21   -1    0    0  503  501  0.00000000000E+00  0.00000000000E+00  0.77809482045E+03  0.77809482045E+03  0.00000000000E+00 0. -1.
         21   -1    0    0  504  502 -0.00000000000E+00 -0.00000000000E+00 -0.47273426107E+02  0.47273426107E+02  0.00000000000E+00 0.  1.
         21    1    1    2  503  505  0.52631831844E+02 -0.25433263399E+02  0.90911007293E+02  0.10808224580E+03  0.00000000000E+00 0.  1.
         21    1    1    2  504  501 -0.99801041568E+01  0.32994628266E+02  0.24359367448E+03  0.24602058089E+03  0.00000000000E+00 0. -1.
         21    1    1    2  505  506 -0.91612421757E+02 -0.41861127339E+02  0.39890973511E+03  0.41142941870E+03  0.00000000000E+00 0. -1.
         21    1    1    2  506  502  0.48960694069E+02  0.34299762473E+02 -0.25930225478E+01  0.59836001165E+02  0.00000000000E+00 0.  1.
<scales pt_clust_3="54.30647" pt_clust_4="34.47097" pt_clust_5="14000.00000" pt_clust_6="62.38255"></scales>
<clustering>
<clus scale="   34.471">  1  4  2 -1</clus>
<clus scale="   54.306">  1  3  2 -1</clus>
<clus scale="   62.383">  2  6  1 -1</clus>
<clus scale="   34.471">  1  3  2 -1</clus>
</clustering>
</event>
<event>
 6    0  0.6207838E+002  0.8958552E+02  0.7546771E-02  0.1303859E+00
         21   -1    0    0  505  501  0.00000000000E+00  0.00000000000E+00  0.13203275338E+04  0.13203275338E+04  0.00000000000E+00 0. -1.
         21   -1    0    0  506  502 -0.00000000000E+00 -0.00000000000E+00 -0.89529490202E+02  0.89529490202E+02  0.00000000000E+00 0. -1.
         21    1    1    2  503  501  0.33829651251E+02 -0.51443977858E+01  0.11858516637E+04  0.11863452610E+04  0.00000000000E+00 0. -1.
         21    1    1    2  504  503 -0.38141290195E+02 -0.51594207380E+01  0.49022301425E+01  0.38799606963E+02  0.00000000000E+00 0.  1.
         21    1    1    2  505  502  0.34396232497E+02  0.89298883017E+02  0.24255016914E+02  0.98720297627E+02  0.00000000000E+00 0. -1.
         21    1    1    2  506  504 -0.30084593553E+02 -0.78995064493E+02  0.15789132812E+02  0.85991858327E+02  0.00000000000E+00 0. -1.
<scales pt_clust_3="34.21856" pt_clust_4="33.18064" pt_clust_5="14000.00000" pt_clust_6="89.58552"></scales>
<clustering>
<clus scale="   34.219">  1  3  2 -1</clus>
<clus scale="   33.181">  1  4  2 -1</clus>
<clus scale="   89.586">  2  6  1 -1</clus>
<clus scale="   34.219">  1  3  2 -1</clus>
</clustering>
</event>
<event>
 6    0  0.6207838E+002  0.1086937E+03  0.7546771E-02  0.1263008E+00
         21   -1    0    0  506  501  0.00000000000E+00  0.00000000000E+00  0.27567437934E+03  0.27567437934E+03  0.00000000000E+00 0.  1.
         21   -1    0    0  504  502 -0.00000000000E+00 -0.00000000000E+00 -0.18301203359E+03  0.18301203359E+03  0.00000000000E+00 0.  1.
         21    1    1    2  503  502  0.29888025815E+02  0.88079494715E+02 -0.83185875972E+02  0.12478454006E+03  0.00000000000E+00 0.  1.
         21    1    1    2  504  501 -0.80699089267E+02  0.29844711084E+02  0.17554062623E+03  0.19549312327E+03  0.00000000000E+00 0.  1.
         21    1    1    2  505  503  0.13598014930E+00 -0.61622428643E+02  0.85504370865E+01  0.62212958271E+02  0.00000000000E+00 0.  1.
         21    1    1    2  506  505  0.50675083302E+02 -0.56301777156E+02 -0.82428415971E+01  0.76195791328E+02  0.00000000000E+00 0.  1.
<scales pt_clust_3="95.63116" pt_clust_4="86.04098" pt_clust_5="46.59692" pt_clust_6="46.59692"></scales>
<clustering>
<clus scale="   46.597">  5  6 -1 -1</clus>
<clus scale="   86.041">  1  4  2 -1</clus>
<clus scale="   95.631">  2  3  1 -1</clus>
<clus scale="   86.041">  1  3  2 -1</clus>
</clustering>
</event>
<event>
 6    0  0.6207838E+002  0.2104009E+03  0.7546771E-02  0.1141249E+00
         21   -1    0    0  502  501  0.00000000000E+00  0.00000000000E+00  0.68944672334E+03  0.68944672334E+03  0.00000000000E+00 0.  1.
         21   -1    0    0  506  502 -0.00000000000E+00 -0.00000000000E+00 -0.16141174112E+03  0.16141174112E+03  0.00000000000E+00 0.  1.
         21    1    1    2  503  501  0.17453983561E+03  0.89951987353E+02  0.50555007634E+03  0.54234342803E+03  0.00000000000E+00 0.  1.
         21    1    1    2  504  503 -0.14238887679E+03 -0.50218216193E+02  0.79606023719E+02  0.17068561885E+03  0.00000000000E+00 0.  1.
         21    1    1    2  505  504 -0.69033512732E+02 -0.19489795642E+02 -0.65283716413E+01  0.72028450285E+02  0.00000000000E+00 0. -1.
         21    1    1    2  506  505  0.36882553908E+02 -0.20243975517E+02 -0.50592746206E+02  0.65800967289E+02  0.00000000000E+00 0.  1.
<scales pt_clust_3="200.64248" pt_clust_4="42.03214" pt_clust_5="42.03214" pt_clust_6="42.07305"></scales>
<clustering>
<clus scale="   42.073">  2  6  1 -1</clus>
<clus scale="   42.032">  4  5 -1 -1</clus>
<clus scale="  200.642">  1  3  2 -1</clus>
<clus scale="  200.642">  1  3  2 -1</clus>
</clustering>
</event>
<event>
 6    0  0.6207838E+002  0.1254499E+03  0.7546771E-02  0.1234368E+00
         21   -1    0    0  502  501  0.00000000000E+00  0.00000000000E+00  0.94506932420E+02  0.94506932420E+02  0.00000000000E+00 0.  1.
         21   -1    0    0  503  502 -0.00000000000E+00 -0.00000000000E+00 -0.16354571641E+04  0.16354571641E+04  0.00000000000E+00 0. -1.
         21    1    1    2  503  504 -0.36605663599E+02 -0.10681979584E+03 -0.12151410949E+04  0.12203763042E+04  0.00000000000E+00 0. -1.
         21    1    1    2  504  506 -0.13149165212E+02  0.46314968023E+02 -0.21548128590E+03  0.22079438711E+03  0.00000000000E+00 0. -1.
         21    1    1    2  505  501  0.68658379830E+02 -0.25686922574E+02  0.61464232803E+02  0.95664220199E+02  0.00000000000E+00 0.  1.
         21    1    1    2  506  505 -0.18903551019E+02  0.86191750391E+02 -0.17179208369E+03  0.19312918499E+03  0.00000000000E+00 0. -1.
<scales pt_clust_3="113.89042" pt_clust_4="38.85268" pt_clust_5="73.30615" pt_clust_6="38.85268"></scales>
<clustering>
<clus scale="   38.853">  4  6 -1 -1</clus>
<clus scale="   73.306">  1  5  2 -1</clus>
<clus scale="  113.890">  2  3  1 -1</clus>
<clus scale="   73.306">  1  3  2 -1</clus>
</clustering>
</event>
<event>
 6    0  0.6207838E+002  0.1097888E+03  0.7546771E-02  0.1260961E+00
         21   -1    0    0  503  501  0.00000000000E+00  0.00000000000E+00  0.12324499666E+03  0.12324499666E+03  0.00000000000E+00 0. -1.
         21   -1    0    0  505  502 -0.00000000000E+00 -0.00000000000E+00 -0.71302344825E+03  0.71302344825E+03  0.00000000000E+00 0. -1.
         21    1    1    2  503  506 -0.29251535076E+02 -0.10257389610E+03 -0.11368057799E+03  0.15588563204E+03  0.00000000000E+00 0. -1.
         21    1    1    2  504  501 -0.78736992330E+02  0.76576983766E+02  0.41000440926E+02  0.11723730021E+03  0.00000000000E+00 0. -1.
         21    1    1    2  505  504  0.94142760552E+02  0.99456170981E+02 -0.24189546993E+03  0.27797087560E+03  0.00000000000E+00 0. -1.
         21    1    1    2  506  502  0.13845766854E+02 -0.73459258646E+02 -0.27520284461E+03  0.28517463706E+03  0.00000000000E+00 0. -1.
<scales pt_clust_3="14000.00000" pt_clust_4="104.51826" pt_clust_5="109.78880" pt_clust_6="74.75271"></scales>
<clustering>
<clus scale="   74.753">  2  6  1 -1</clus>
<clus scale="  104.518">  1  4  2 -1</clus>
<clus scale="  109.789">  2  5  1 -1</clus>
<clus scale="  104.518">  1  3  2 -1</clus>
</clustering>
</event>
<event>
 6    0  0.6207838E+002  0.1104798E+03  0.7546771E-02  0.1259684E+00
         21   -1    0    0  504  501  0.00000000000E+00  0.00000000000E+00  0.79773666307E+03  0.79773666307E+03  0.00000000000E+00 0.  1.
         21   -1    0    0  501  502 -0.00000000000E+00 -0.00000000000E+00 -0.62597807723E+02  0.62597807723E+02  0.00000000000E+00 0.  1.
         21    1    1    2  503  505 -0.54342631269E+02 -0.50236429522E+02  0.63429409782E+02  0.97468510042E+02  0.00000000000E+00 0.  1.
         21    1    1    2  504  503  0.60255125379E+02  0.63713910357E+02  0.55932759282E+03  0.56616031174E+03  0.00000000000E+00 0.  1.
         21    1    1    2  505  506 -0.16351334633E+02 -0.79579386312E+02  0.21857483829E+02  0.84130817597E+02  0.00000000000E+00 0.  1.
         21    1    1    2  506  502  0.10438840524E+02  0.66101905478E+02  0.90524368923E+02  0.11257483141E+03  0.00000000000E+00 0.  1.
<scales pt_clust_3="59.25653" pt_clust_4="91.38443" pt_clust_5="59.25653" pt_clust_6="66.92108"></scales>
<clustering>
<clus scale="   59.257">  3  5 -1 -1</clus>
<clus scale="   66.921">  2  6  1 -1</clus>
<clus scale="   91.384">  1  4  2 -1</clus>
<clus scale="   91.384">  1  3  2 -1</clus>
</clustering>
</event>
<event>
 6    0  0.6207838E+002  0.3648400E+03  0.7546771E-02  0.1056684E+00
         21   -1    0    0  506  501  0.00000000000E+00  0.00000000000E+00  0.24833474429E+04  0.24833474429E+04  0.00000000000E+00 0.  1.
         21   -1    0    0  504  502 -0.00000000000E+00 -0.00000000000E+00 -0.16222210998E+03  0.16222210998E+03  0.00000000000E+00 0.  1.
         21    1    1    2  503  502  0.29895727303E+03  0.25063688828E+03  0.56598909916E+03  0.68741396642E+03  0.00000000000E+00 0.  1.
         21    1    1    2  504  505 -0.24482108964E+03 -0.25230343809E+03  0.25757901106E+03  0.43582259893E+03  0.00000000000E+00 0.  1.
         21    1    1    2  505  501  0.19034496348E+02 -0.81168642211E+02  0.16184821010E+03  0.18205906636E+03  0.00000000000E+00 0.  1.
         21    1    1    2  506  503 -0.73170679736E+02  0.82835192017E+02  0.13357090126E+04  0.13402739212E+04  0.00000000000E+00 0.  1.
<scales pt_clust_3="364.84003" pt_clust_4="14000.00000" pt_clust_5="83.37062" pt_clust_6="71.75005"></scales>
<clustering>
<clus scale="   83.371">  1  5  2 -1</clus>
<clus scale="   71.750">  1  6  2 -1</clus>
<clus scale="  364.840">  1  3  2 -1</clus>
<clus scale="   83.371">  1  3  2 -1</clus>
</clustering>
</event>
<event>
 6    0  0.6207838E+002  0.1633739E+03  0.7546771E-02  0.1184939E+00
         21   -1    0    0  506  501  0.00000000000E+00  0.00000000000E+00  0.75093539869E+03  0.75093539869E+03  0.00000000000E+00 0.  1.
         21   -1    0    0  505  502 -0.00000000000E+00 -0.00000000000E+00 -0.36474280711E+03  0.36474280711E+03  0.00000000000E+00 0.  1.
         21    1    1    2  503  502  0.35103502760E+02  0.12577593212E+03 -0.24640957401E+02  0.13288723711E+03  0.00000000000E+00 0.  1.
         21    1    1    2  504  501 -0.28881123133E+02 -0.32449870376E+02  0.40504380818E+03  0.40736666518E+03  0.00000000000E+00 0.  1.
         21    1    1    2  505  504  0.18366740931E+02  0.52239020302E+02 -0.26299777637E+03  0.26876399087E+03  0.00000000000E+00 0.  1.
         21    1    1    2  506  503 -0.24589120557E+02 -0.14556508204E+03  0.26878751717E+03  0.30666031263E+03  0.00000000000E+00 0.  1.
<scales pt_clust_3="163.37394" pt_clust_4="43.44092" pt_clust_5="55.03778" pt_clust_6="14000.00000"></scales>
<clustering>
<clus scale="   43.441">  1  4  2 -1</clus>
<clus scale="   55.038">  2  5  1 -1</clus>
<clus scale="  163.374">  2  3  1 -1</clus>
<clus scale="   43.441">  1  3  2 -1</clus>
</clustering>
</event>
<event>
 6    0  0.6207838E+002  0.7737824E+02  0.7546771E-02  0.1336661E+00
         21   -1    0    0  505  501  0.00000000000E+00  0.00000000000E+00  0.66852405619E+03  0.66852405619E+03  0.00000000000E+00 0. -1.
         21   -1    0    0  503  502 -0.00000000000E+00 -0.00000000000E+00 -0.56202920014E+02  0.56202920014E+02  0.00000000000E+00 0. -1.
         21    1    1    2  503  506  0.50071787969E+02 -0.12185311046E+03  0.25985522637E+03  0.29134190078E+03  0.00000000000E+00 0. -1.
         21    1    1    2  504  502 -0.68309015833E+01  0.68254274083E+02  0.23789254792E+02  0.72603276721E+02  0.00000000000E+00 0. -1.
         21    1    1    2  505  504  0.39333498382E+02  0.47169307205E+02  0.97662927822E+02  0.11536947217E+03  0.00000000000E+00 0. -1.
         21    1    1    2  506  501 -0.82574384768E+02  0.64295291679E+01  0.23101372719E+03  0.24541232654E+03  0.00000000000E+00 0. -1.
<scales pt_clust_3="77.37824" pt_clust_4="14000.00000" pt_clust_5="61.41716" pt_clust_6="71.00208"></scales>
<clustering>
<clus scale="   61.417">  1  5  2 -1</clus>
<clus scale="   71.002">  1  6  2 -1</clus>
<clus scale="   77.378">  1  3  2 -1</clus>
<clus scale="   61.417">  1  3  2 -1</clus>
</clustering>
</event>
<event>
 6    0  0.6207838E+002  0.4192079E+03  0.7546771E-02  0.1037324E+00
         21   -1    0    0  505  501  0.00000000000E+00  0.00000000000E+00  0.14690061303E+03  0.14690061303E+03  0.00000000000E+00 0. -1.
         21   -1    0    0  503  502 -0.00000000000E+00 -0.00000000000E+00 -0.23080650197E+04  0.23080650197E+04  0.00000000000E+00 0. -1.
         21    1    1    2  503  504  0.41773535177E+02 -0.56711148869E+01 -0.32438188924E+03  0.32710976728E+03  0.00000000000E+00 0. -1.
         21    1    1    2  504  501 -0.30080553024E+03 -0.32527839466E+03 -0.38447665068E+03  0.58661085566E+03  0.00000000000E+00 0. -1.
         21    1    1    2  505  506  0.30543360385E+03  0.20316430179E+03 -0.11976882619E+04  0.12526063199E+04  0.00000000000E+00 0. -1.
         21    1    1    2  506  502 -0.46401608783E+02  0.12778520776E+03 -0.25461760479E+03  0.28863868987E+03  0.00000000000E+00 0.  1.
<scales pt_clust_3="42.15673" pt_clust_4="419.20793" pt_clust_5="14000.00000" pt_clust_6="133.36314"></scales>
<clustering>
<clus scale="   42.157">  2  3  1 -1</clus>
<clus scale="  133.363">  2  6  1 -1</clus>
<clus scale="  419.208">  1  4  2 -1</clus>
<clus scale="  419.208">  1  3  2 -1</clus>
</clustering>
</event>
<event>
 6    0  0.6207838E+002  0.8784764E+02  0.7546771E-02  0.1308149E+00
         21   -1    0    0  503  501  0.00000000000E+00  0.00000000000E+00  0.59030092975E+03  0.59030092975E+03  0.00000000000E+00 0. -1.
         21   -1    0    0  505  502 -0.00000000000E+00 -0.00000000000E+00 -0.66610811295E+03  0.66610811295E+03  0.00000000000E+00 0. -1.
         21    1    1    2  503  504  0.59739109134E+02 -0.27788280321E+02 -0.14320700772E+03  0.15763627991E+03  0.00000000000E+00 0. -1.
         21    1    1    2  504  502  0.63218120651E+02  0.63971963755E+01 -0.14108824736E+03  0.15473638371E+03  0.00000000000E+00 0. -1.
         21    1    1    2  505  506 -0.55270335114E+02 -0.22273308680E+02 -0.36251500965E+03  0.36737997012E+03  0.00000000000E+00 0. -1.
         21    1    1    2  506  501 -0.67686894671E+02  0.43664392625E+02  0.57100308153E+03  0.57665640897E+03  0.00000000000E+00 0. -1.
<scales pt_clust_3="33.68896" pt_clust_4="33.68896" pt_clust_5="59.58951" pt_clust_6="80.87260"></scales>
<clustering>
<clus scale="   33.689">  3  4 -1 -1</clus>
<clus scale="   59.590">  2  5  1 -1</clus>
<clus scale="   80.873">  1  6  2 -1</clus>
<clus scale="   80.873">  1  3  2 -1</clus>
</clustering>
</event>
<event>
 6    0  0.6207838E+002  0.8725049E+02  0.7546771E-02  0.1309650E+00
         21   -1    0    0  505  501  0.00000000000E+00  0.00000000000E+00  0.19581372345E+04  0.19581372345E+04  0.00000000000E+00 0. -1.
         21   -1    0    0  506  502 -0.00000000000E+00 -0.00000000000E+00 -0.33042234971E+02  0.33042234971E+02  0.00000000000E+00 0. -1.
         21    1    1    2  503  504 -0.27545234256E+02  0.83448319666E+02  0.33344822316E+03  0.34483340835E+03  0.00000000000E+00 0. -1.
         21    1    1    2  504  501 -0.41607671220E+01 -0.88147652717E+02  0.14008885307E+04  0.14036652009E+04  0.00000000000E+00 0. -1.
         21    1    1    2  505  502  0.81888639496E+02 -0.16478804451E+02  0.15906323124E+03  0.17966193756E+03  0.00000000000E+00 0. -1.
         21    1    1    2  506  503 -0.50182638117E+02  0.21178137502E+02  0.31695014391E+02  0.63018922664E+02  0.00000000000E+00 0. -1.
<scales pt_clust_3="87.25049" pt_clust_4="14000.00000" pt_clust_5="52.29877" pt_clust_6="54.46844"></scales>
<clustering>
<clus scale="   54.468">  2  6  1 -1</clus>
<clus scale="   52.299">  2  5  1 -1</clus>
<clus scale="   87.250">  2  3  1 -1</clus>
<clus scale="   87.250">  1  3  2 -1</clus>
</clustering>
</event>
<event>
 6    0  0.6207838E+002  0.8139072E+02  0.7546771E-02  0.1325150E+00
         21   -1    0    0  504  501  0.00000000000E+00  0.00000000000E+00  0.18345000007E+03  0.18345000007E+03  0.00000000000E+00 0.  1.
         21   -1    0    0  506  502 -0.00000000000E+00 -0.00000000000E+00 -0.11940437109E+03  0.11940437109E+03  0.00000000000E+00 0.  1.
         21    1    1    2  503  501 -0.34438575598E+02  0.17748541070E+02  0.30378259380E+02  0.49232761879E+02  0.00000000000E+00 0.  1.
         21    1    1    2  504  505  0.17247956344E+01 -0.62662298811E+02  0.16125939072E+02  0.64726999955E+02  0.00000000000E+00 0.  1.
         21    1    1    2  505  502  0.75028057455E+02 -0.30858601668E+02  0.51063204837E+02  0.95858821142E+02  0.00000000000E+00 0.  1.
         21    1    1    2  506  503 -0.42314277492E+02  0.75772359409E+02 -0.33521774314E+02  0.93035788185E+02  0.00000000000E+00 0.  1.
<scales pt_clust_3="38.74308" pt_clust_4="58.21504" pt_clust_5="14000.00000" pt_clust_6="81.39072"></scales>
<clustering>
<clus scale="   38.743">  1  3  2 -1</clus>
<clus scale="   58.215">  1  4  2 -1</clus>
<clus scale="   81.391">  2  6  1 -1</clus>
<clus scale="   38.743">  1  3  2 -1</clus>
</clustering>
</event>
<event>
 6    0  0.6207838E+002  0.1636280E+03  0.7546771E-02  0.1184661E+00
         21   -1    0    0  504  501  0.00000000000E+00  0.00000000000E+00  0.31602053188E+03  0.31602053188E+03  0.00000000000E+00 0.  1.
         21   -1    0    0  506  502 -0.00000000000E+00 -0.00000000000E+00 -0.61200732582E+03  0.61200732582E+03  0.00000000000E+00 0. -1.
         21    1    1    2  503  502  0.50472212451E+02 -0.25170409328E+02 -0.40364550483E+03  0.40756678877E+03  0.00000000000E+00 0. -1.
         21    1    1    2  504  503 -0.10370832844E+03  0.13206780739E+03  0.24437626689E+03  0.29650814990E+03  0.00000000000E+00 0.  1.
         21    1    1    2  505  501  0.89264373511E+02 -0.10549045472E+03 -0.12415630047E+03  0.18577177224E+03  0.00000000000E+00 0. -1.
         21    1    1    2  506  505 -0.36028257522E+02 -0.14069433412E+01 -0.12561255529E+02  0.38181146789E+02  0.00000000000E+00 0.  1.
<scales pt_clust_3="36.56333" pt_clust_4="14000.00000" pt_clust_5="163.62802" pt_clust_6="36.05572"></scales>
<clustering>
<clus scale="   36.056">  2  6  1 -1</clus>
<clus scale="   36.563">  2  3  1 -1</clus>
<clus scale="  163.628">  2  5  1 -1</clus>
<clus scale="  163.628">  1  3  2 -1</clus>
</clustering>
</event>
<event>
 6    0  0.6207838E+002  0.1195931E+03  0.7546771E-02  0.1243770E+00
         21   -1    0    0  505  501  0.00000000000E+00  0.00000000000E+00  0.96299944842E+03  0.96299944842E+03  0.00000000000E+00 0.  1.
         21   -1    0    0  503  502 -0.00000000000E+00 -0.00000000000E+00 -0.38332989676E+02  0.38332989676E+02  0.00000000000E+00 0.  1.
         21    1    1    2  503  504  0.16626105352E+02  0.10717633283E+03  0.10768515223E+03  0.15283744865E+03  0.00000000000E+00 0.  1.
         21    1    1    2  504  506 -0.32078717251E+02 -0.66913148812E+02  0.13305896160E+03  0.15235189807E+03  0.00000000000E+00 0.  1.
         21    1    1    2  505  502  0.61885382790E+02 -0.30405981105E+02  0.54479567859E+03  0.54914174464E+03  0.00000000000E+00 0.  1.
         21    1    1    2  506  501 -0.46432770891E+02 -0.98572029123E+01  0.13912666632E+03  0.14700134674E+03  0.00000000000E+00 0.  1.
<scales pt_clust_3="104.08124" pt_clust_4="47.11090" pt_clust_5="68.95161" pt_clust_6="47.11090"></scales>
<clustering>
<clus scale="   47.111">  4  6 -1 -1</clus>
<clus scale="   68.952">  1  5  2 -1</clus>
<clus scale="  104.081">  2  3  1 -1</clus>
<clus scale="   68.952">  1  3  2 -1</clus>
</clustering>
</event>
<event>
 6    0  0.6207838E+002  0.1291477E+03  0.7546771E-02  0.1228726E+00
         21   -1    0    0  505  501  0.00000000000E+00  0.00000000000E+00  0.46862938775E+03  0.46862938775E+03  0.00000000000E+00 0. -1.
         21   -1    0    0  504  502 -0.00000000000E+00 -0.00000000000E+00 -0.18357487812E+03  0.18357487812E+03  0.00000000000E+00 0. -1.
         21    1    1    2  503  502  0.45862866154E+02  0.15026832120E+02  0.42377635542E+02  0.64226724730E+02  0.00000000000E+00 0. -1.
         21    1    1    2  504  506 -0.12405377383E+03  0.51480284378E+02 -0.13667405364E+03  0.19162295118E+03  0.00000000000E+00 0. -1.
         21    1    1    2  505  503  0.35975173724E+02 -0.73359943892E+01  0.75822207469E+02  0.84243914223E+02  0.00000000000E+00 0. -1.
         21    1    1    2  506  501  0.42215733949E+02 -0.59171122109E+02  0.30352872027E+03  0.31211067574E+03  0.00000000000E+00 0. -1.
<scales pt_clust_3="31.63760" pt_clust_4="123.94923" pt_clust_5="31.63760" pt_clust_6="72.68693"></scales>
<clustering>
<clus scale="   31.638">  3  5 -1 -1</clus>
<clus scale="   72.687">  1  6  2 -1</clus>
<clus scale="  123.949">  2  4  1 -1</clus>
<clus scale="   72.687">  1  3  2 -1</clus>
</clustering>
</event>
<event>
 6    0  0.6207838E+002  0.1286297E+03  0.7546771E-02  0.1229503E+00
         21   -1    0    0  504  501  0.00000000000E+00  0.00000000000E+00  0.82651731606E+03  0.82651731606E+03  0.00000000000E+00 0. -1.
         21   -1    0    0  505  502 -0.00000000000E+00 -0.00000000000E+00 -0.16796276185E+03  0.16796276185E+03  0.00000000000E+00 0. -1.
         21    1    1    2  503  502  0.58965478655E+02 -0.27522801010E+02 -0.11185246217E+03  0.12940403990E+03  0.00000000000E+00 0. -1.
         21    1    1    2  504  503  0.20318854221E+01 -0.46757867753E+02  0.11657573395E+03  0.12561977750E+03  0.00000000000E+00 0.  1.
         21    1    1    2  505  506  0.67494944007E+02 -0.41491842121E+02  0.18984091277E+02  0.81471075546E+02  0.00000000000E+00 0. -1.
         21    1    1    2  506  501 -0.12849230808E+03  0.11577251088E+03  0.63484719115E+03  0.65798518496E+03  0.00000000000E+00 0. -1.
<scales pt_clust_3="65.34349" pt_clust_4="46.80200" pt_clust_5="14000.00000" pt_clust_6="128.62965"></scales>
<clustering>
<clus scale="   46.802">  1  4  2 -1</clus>
<clus scale="   65.343">  2  3  1 -1</clus>
<clus scale="  128.630">  1  6  2 -1</clus>
<clus scale="   46.802">  1  3  2 -1</clus>
</clustering>
</event>
<event>
 6    0  0.6207838E+002  0.1270986E+03  0.7546771E-02  0.1231825E+00
         21   -1    0    0  504  501  0.00000000000E+00  0.00000000000E+00  0.56304938888E+03  0.56304938888E+03  0.00000000000E+00 0.  1.
         21   -1    0    0  506  502 -0.00000000000E+00 -0.00000000000E+00 -0.80375222268E+02  0.80375222268E+02  0.00000000000E+00 0. -1.
         21    1    1    2  503  502  0.30221190340E+02  0.61437582032E+02  0.32445320992E+00  0.68468986420E+02  0.00000000000E+00 0. -1.
         21    1    1    2  504  505 -0.11683874300E+03 -0.33131863952E+02  0.42851909380E+03  0.44539603279E+03  0.00000000000E+00 0.  1.
         21    1    1    2  505  503  0.57903735596E+02  0.87278401249E+01  0.49216441287E+00  0.58559884008E+02  0.00000000000E+00 0. -1.
         21    1    1    2  506  501  0.28713817065E+02 -0.37033558205E+02  0.53338455184E+02  0.70999707923E+02  0.00000000000E+00 0.  1.
<scales pt_clust_3="55.48517" pt_clust_4="112.72790" pt_clust_5="55.48517" pt_clust_6="46.86115"></scales>
<clustering>
<clus scale="   46.861">  1  6  2 -1</clus>
<clus scale="   55.485">  3  5 -1 -1</clus>
<clus scale="  112.728">  1  4  2 -1</clus>
<clus scale="   46.861">  1  3  2 -1</clus>
</clustering>
</event>
<event>
 6    0  0.6207838E+002  0.1022902E+03  0.7546771E-02  0.1275552E+00
         21   -1    0    0  505  501  0.00000000000E+00  0.00000000000E+00  0.13884545208E+03  0.13884545208E+03  0.00000000000E+00 0.  1.
         21   -1    0    0  503  502 -0.00000000000E+00 -0.00000000000E+00 -0.35724577624E+03  0.35724577624E+03  0.00000000000E+00 0. -1.
         21    1    1    2  503  501 -0.39372898559E+02 -0.15682666639E+02 -0.99776719532E+02  0.10840463521E+03  0.00000000000E+00 0. -1.
         21    1    1    2  504  502 -0.49646876080E+02  0.71878943693E+02 -0.19492393345E+03  0.21360415418E+03  0.00000000000E+00 0. -1.
         21    1    1    2  505  506 -0.25338010915E+02 -0.19805899749E+02  0.54680909114E+00  0.32165003687E+02  0.00000000000E+00 0. -1.
         21    1    1    2  506  504  0.11435778555E+03 -0.36390377305E+02  0.75753519725E+02  0.14191743525E+03  0.00000000000E+00 0.  1.
<scales pt_clust_3="43.46957" pt_clust_4="102.29020" pt_clust_5="32.16036" pt_clust_6="14000.00000"></scales>
<clustering>
<clus scale="   32.160">  1  5  2 -1</clus>
<clus scale="   43.470">  2  3  1 -1</clus>
<clus scale="  102.290">  2  4  1 -1</clus>
<clus scale="   32.160">  1  3  2 -1</clus>
</clustering>
</event>
<event>
 6    0  0.6207838E+002  0.1226382E+03  0.7546771E-02  0.1238807E+00
         21   -1    0    0  506  501  0.00000000000E+00  0.00000000000E+00  0.92242026924E+03  0.92242026924E+03  0.00000000000E+00 0.  1.
         21   -1    0    0  503  502 -0.00000000000E+00 -0.00000000000E+00 -0.27700487020E+03  0.27700487020E+03  0.00000000000E+00 0. -1.
         21    1    1    2  503  504 -0.84742633268E+02  0.36709118966E+02 -0.14189817816E+03  0.16930435988E+03  0.00000000000E+00 0. -1.
         21    1    1    2  504  501 -0.38850506229E+02  0.51493607845E+01 -0.19789998694E+02  0.43903551099E+02  0.00000000000E+00 0.  1.
         21    1    1    2  505  502  0.70947564587E+02 -0.70136390469E+02 -0.60423207180E+02  0.11663461817E+03  0.00000000000E+00 0. -1.
         21    1    1    2  506  505  0.52645574910E+02  0.28277910718E+02  0.86752678307E+03  0.86958261030E+03  0.00000000000E+00 0.  1.
<scales pt_clust_3="31.15398" pt_clust_4="31.15398" pt_clust_5="112.92909" pt_clust_6="59.75949"></scales>
<clustering>
<clus scale="   31.154">  3  4 -1 -1</clus>
<clus scale="   59.759">  1  6  2 -1</clus>
<clus scale="  112.929">  1  5  2 -1</clus>
<clus scale="   59.759">  1  3  2 -1</clus>
</clustering>
</event>
<event>
 6    0  0.6207838E+002  0.9950549E+02  0.7546771E-02  0.1281339E+00
         21   -1    0    0  503  501  0.00000000000E+00  0.00000000000E+00  0.42014460701E+03  0.42014460701E+03  0.00000000000E+00 0. -1.
         21   -1    0    0  504  502 -0.00000000000E+00 -0.00000000000E+00 -0.66131295683E+03  0.66131295683E+03  0.00000000000E+00 0. -1.
         21    1    1    2  503  505  0.15341156251E+02 -0.30122078371E+02  0.34686467615E+03  0.34850795434E+03  0.00000000000E+00 0. -1.
         21    1    1    2  504  501 -0.58411564574E+01  0.56892615853E+02 -0.81984176260E+02  0.99961462596E+02  0.00000000000E+00 0. -1.
         21    1    1    2  505  506 -0.76011661995E+02 -0.98147923534E+02 -0.68329556607E+01  0.12432810196E+03  0.00000000000E+00 0.  1.
         21    1    1    2  506  502  0.66511662201E+02  0.71377386052E+02 -0.49921589405E+03  0.50866004494E+03  0.00000000000E+00 0. -1.
<scales pt_clust_3="33.80371" pt_clust_4="53.30157" pt_clust_5="14000.00000" pt_clust_6="99.50549"></scales>
<clustering>
<clus scale="   33.804">  1  3  2 -1</clus>
<clus scale="   53.302">  1  4  2 -1</clus>
<clus scale="   99.505">  2  6  1 -1</clus>
<clus scale="   33.804">  1  3  2 -1</clus>
</clustering>
</event>
<event>
 6    0  0.6207838E+002  0.3741839E+03  0.7546771E-02  0.1053105E+00
         21   -1    0    0  503  501  0.00000000000E+00  0.00000000000E+00  0.34645932077E+03  0.34645932077E+03  0.00000000000E+00 0. -1.
         21   -1    0    0  506  502 -0.00000000000E+00 -0.00000000000E+00 -0.15537892591E+04  0.15537892591E+04  0.00000000000E+00 0.  1.
         21    1    1    2  503  504  0.33378066465E+02  0.27990931333E+01  0.10959190756E+03  0.11459631952E+03  0.00000000000E+00 0. -1.
         21    1    1    2  504  502 -0.39466705097E+02  0.50821248243E+00  0.44532334709E+00  0.39472489205E+02  0.00000000000E+00 0.  1.
         21    1    1    2  505  501  0.87836708254E+02 -0.36788499949E+03 -0.14297169658E+01  0.37822837580E+03  0.00000000000E+00 0. -1.
         21    1    1    2  506  505 -0.81748069622E+02  0.36457769388E+03 -0.13159374523E+04  0.13679513953E+04  0.00000000000E+00 0.  1.
<scales pt_clust_3="33.49523" pt_clust_4="36.63179" pt_clust_5="374.18393" pt_clust_6="14000.00000"></scales>
<clustering>
<clus scale="   33.495">  1  3  2 -1</clus>
<clus scale="   36.632">  1  4  2 -1</clus>
<clus scale="  374.184">  1  5  2 -1</clus>
<clus scale="   33.495">  1  3  2 -1</clus>
</clustering>
</event>
<event>
 6    0  0.6207838E+002  0.1185950E+03  0.7546771E-02  0.1245433E+00
         21   -1    0    0  505  501  0.00000000000E+00  0.00000000000E+00  0.35507632873E+03  0.35507632873E+03  0.00000000000E+00 0.  1.
         21   -1    0    0  506  502 -0.00000000000E+00 -0.00000000000E+00 -0.15456458034E+03  0.15456458034E+03  0.00000000000E+00 0. -1.
         21    1    1    2  503  502  0.12535956102E+03 -0.30152919457E+02 -0.88011075240E+02  0.15610947267E+03  0.00000000000E+00 0. -1.
         21    1    1    2  504  501 -0.21020208257E+02 -0.26367611779E+02  0.17158603692E+03  0.17486814510E+03  0.00000000000E+00 0.  1.
         21    1    1    2  505  503 -0.67572062571E+02  0.56831017899E+02  0.11032344513E+03  0.14130467360E+03  0.00000000000E+00 0.  1.
         21    1    1    2  506  504 -0.36767290192E+02 -0.31048666249E+00  0.66133415802E+01  0.37358617705E+02  0.00000000000E+00 0. -1.
<scales pt_clust_3="14000.00000" pt_clust_4="33.72091" pt_clust_5="118.59502" pt_clust_6="39.46405"></scales>
<clustering>
<clus scale="   33.721">  1  4  2 -1</clus>
<clus scale="   39.464">  1  6  2 -1</clus>
<clus scale="  118.595">  1  5  2 -1</clus>
<clus scale="   33.721">  1  3  2 -1</clus>
</clustering>
</event>
<event>
 6    0  0.6207838E+002  0.8973971E+02  0.7546771E-02  0.1303483E+00
         21   -1    0    0  505  501  0.00000000000E+00  0.00000000000E+00  0.12534670888E+03  0.12534670888E+03  0.00000000000E+00 0. -1.
         21   -1    0    0  506  502 -0.00000000000E+00 -0.00000000000E+00 -0.60275289554E+03  0.60275289554E+03  0.00000000000E+00 0. -1.
         21    1    1    2  503  502  0.30685425049E+02 -0.16200499045E+02 -0.39862979474E+03  0.40013718239E+03  0.00000000000E+00 0. -1.
         21    1    1    2  504  503  0.37200928084E+02  0.43429785109E+02 -0.91925699436E+02  0.10826074774E+03  0.00000000000E+00 0. -1.
         21    1    1    2  505  504 -0.10760845885E+03 -0.89836318276E+02 -0.13695830979E+02  0.14084644221E+03  0.00000000000E+00 0. -1.
         21    1    1    2  506  501  0.39722105716E+02  0.62607032213E+02  0.26845138486E+02  0.78855232073E+02  0.00000000000E+00 0. -1.
<scales pt_clust_3="34.69944" pt_clust_4="63.18866" pt_clust_5="14000.00000" pt_clust_6="89.73971"></scales>
<clustering>
<clus scale="   34.699">  2  3  1 -1</clus>
<clus scale="   63.189">  2  4  1 -1</clus>
<clus scale="   89.740">  1  6  2 -1</clus>
<clus scale="   89.740">  1  3  2 -1</clus>
</clustering>
</event>
<event>
 6    0  0.6207838E+002  0.1497401E+03  0.7546771E-02  0.1200793E+00
         21   -1    0    0  504  501  0.00000000000E+00  0.00000000000E+00  0.18303415220E+04  0.18303415220E+04  0.00000000000E+00 0. -1.
         21   -1    0    0  506  502 -0.00000000000E+00 -0.00000000000E+00 -0.30721370703E+02  0.30721370703E+02  0.00000000000E+00 0. -1.
         21    1    1    2  503  502  0.11449382092E+02  0.56032218943E+02  0.32929470287E+02  0.65992786904E+02  0.00000000000E+00 0. -1.
         21    1    1    2  504  503 -0.15250261147E+03 -0.18707943760E+02  0.62410225635E+03  0.64273685133E+03  0.00000000000E+00 0. -1.
         21    1    1    2  505  501  0.75380105268E+02 -0.14622561870E+02  0.47882221450E+03  0.48493988564E+03  0.00000000000E+00 0. -1.
         21    1    1    2  506  505  0.65673124114E+02 -0.22701713313E+02  0.66376621017E+03  0.66739336885E+03  0.00000000000E+00 0.  1.
<scales pt_clust_3="57.19002" pt_clust_4="146.10815" pt_clust_5="31.18277" pt_clust_6="31.18277"></scales>
<clustering>
<clus scale="   31.183">  5  6 -1 -1</clus>
<clus scale="   57.190">  2  3  1 -1</clus>
<clus scale="  146.108">  2  4  1 -1</clus>
<clus scale="  149.740">  1  3  2 -1</clus>
</clustering>
</event>
<event>
 6    0  0.6207838E+002  0.9626714E+02  0.7546771E-02  0.1288347E+00
         21   -1    0    0  503  501  0.00000000000E+00  0.00000000000E+00  0.19913152249E+03  0.19913152249E+03  0.00000000000E+00 0. -1.
         21   -1    0    0  506  502 -0.00000000000E+00 -0.00000000000E+00 -0.29117235829E+03  0.29117235829E+03  0.00000000000E+00 0.  1.
         21    1    1    2  503  504  0.63117476762E+01  0.30852744333E+02  0.64248527416E+02  0.71551402968E+02  0.00000000000E+00 0. -1.
         21    1    1    2  504  502 -0.33806521708E+02  0.92563343625E+02 -0.22697509813E+03  0.24744403138E+03  0.00000000000E+00 0.  1.
         21    1    1    2  505  501  0.20503323412E+02 -0.47891673715E+02 -0.17532593652E+02  0.54967176772E+02  0.00000000000E+00 0.  1.
         21    1    1    2  506  505  0.69914506196E+01 -0.75524414243E+02  0.88218328570E+02  0.11634126965E+03  0.00000000000E+00 0. -1.
<scales pt_clust_3="31.49174" pt_clust_4="96.26714" pt_clust_5="48.47265" pt_clust_6="14000.00000"></scales>
<clustering>
<clus scale="   31.492">  1  3  2 -1</clus>
<clus scale="   48.473">  1  5  2 -1</clus>
<clus scale="   96.267">  2  4  1 -1</clus>
<clus scale="   31.492">  1  3  2 -1</clus>
</clustering>
</event>
<event>
 6    0  0.6207838E+002  0.8137880E+02  0.7546771E-02  0.1325184E+00
         21   -1    0    0  503  501  0.00000000000E+00  0.00000000000E+00  0.99096200944E+03  0.99096200944E+03  0.00000000000E+00 0. -1.
         21   -1    0    0  504  502 -0.00000000000E+00 -0.00000000000E+00 -0.13900588369E+03  0.13900588369E+03  0.00000000000E+00 0. -1.
         21    1    1    2  503  505 -0.44686478885E+02  0.53470566163E+02  0.83168879772E+03  0.83460304282E+03  0.00000000000E+00 0. -1.
         21    1    1    2  504  506  0.74004817006E+02  0.35069134625E+02 -0.97956208422E+02  0.12767919138E+03  0.00000000000E+00 0. -1.
         21    1    1    2  505  502  0.29951005306E+01 -0.81480539353E+02  0.61906607253E+02  0.10237420057E+03  0.00000000000E+00 0. -1.
         21    1    1    2  506  501 -0.32313438651E+02 -0.70591614360E+01  0.56316929202E+02  0.65311458355E+02  0.00000000000E+00 0.  1.
<scales pt_clust_3="79.09880" pt_clust_4="81.37880" pt_clust_5="14000.00000" pt_clust_6="33.07552"></scales>
<clustering>
<clus scale="   33.076">  1  6  2 -1</clus>
<clus scale="   81.379">  2  4  1 -1</clus>
<clus scale="   79.099">  1  3  2 -1</clus>
<clus scale="   33.076">  1  3  2 -1</clus>
</clustering>
</event>
<event>
 6    0  0.6207838E+002  0.1435335E+03  0.7546771E-02  0.1208652E+00
         21   -1    0    0  503  501  0.00000000000E+00  0.00000000000E+00  0.37561018994E+03  0.37561018994E+03  0.00000000000E+00 0.  1.
         21   -1    0    0  501  502 -0.00000000000E+00 -0.00000000000E+00 -0.82312496133E+03  0.82312496133E+03  0.00000000000E+00 0.  1.
         21    1    1    2  503  504  0.53252504303E+02  0.12929927157E+03  0.34909390471E+03  0.37605941704E+03  0.00000000000E+00 0.  1.
         21    1    1    2  504  505 -0.33626057365E+02 -0.70185272899E+02 -0.24262694968E+03  0.25480290614E+03  0.00000000000E+00 0.  1.
         21    1    1    2  505  506 -0.50608212449E+02 -0.42321856246E+02 -0.17118488549E+03  0.18345734029E+03  0.00000000000E+00 0.  1.
         21    1    1    2  506  502  0.30981765511E+02 -0.16792142425E+02 -0.38279684093E+03  0.38441548781E+03  0.00000000000E+00 0.  1.
<scales pt_clust_3="139.72585" pt_clust_4="30.23711" pt_clust_5="30.23711" pt_clust_6="35.23983"></scales>
<clustering>
<clus scale="   30.237">  4  5 -1 -1</clus>
<clus scale="   35.240">  2  6  1 -1</clus>
<clus scale="  139.726">  1  3  2 -1</clus>
<clus scale="  139.726">  1  3  2 -1</clus>
</clustering>
</event>
<event>
 6    0  0.6207838E+002  0.8577481E+02  0.7546771E-02  0.1313419E+00
         21   -1    0    0  504  501  0.00000000000E+00  0.00000000000E+00  0.11957041211E+03  0.11957041211E+03  0.00000000000E+00 0.  1.
         21   -1    0    0  505  502 -0.00000000000E+00 -0.00000000000E+00 -0.83978871429E+03  0.83978871429E+03  0.00000000000E+00 0.  1.
         21    1    1    2  503  506 -0.28211086471E+02  0.64555040164E+02 -0.29023241550E+03  0.29866046545E+03  0.00000000000E+00 0.  1.
         21    1    1    2  504  503 -0.19618745966E+02 -0.85367669688E+02  0.83600221619E+02  0.12108481026E+03  0.00000000000E+00 0.  1.
         21    1    1    2  505  501  0.75437296119E+02 -0.35212134260E+00 -0.10360564628E+03  0.12816021058E+03  0.00000000000E+00 0.  1.
         21    1    1    2  506  502 -0.27607463683E+02  0.21164750866E+02 -0.40998046202E+03  0.41145364012E+03  0.00000000000E+00 0.  1.
<scales pt_clust_3="14000.00000" pt_clust_4="85.77481" pt_clust_5="68.19241" pt_clust_6="34.78676"></scales>
<clustering>
<clus scale="   34.787">  2  6  1 -1</clus>
<clus scale="   68.192">  2  5  1 -1</clus>
<clus scale="   85.775">  1  4  2 -1</clus>
<clus scale="   85.775">  1  3  2 -1</clus>
</clustering>
</event>
<event>
 6    0  0.6207838E+002  0.9504271E+02  0.7546771E-02  0.1291080E+00
         21   -1    0    0  504  501  0.00000000000E+00  0.00000000000E+00  0.29653663818E+02  0.29653663818E+02  0.00000000000E+00 0.  1.
         21   -1    0    0  506  502 -0.00000000000E+00 -0.00000000000E+00 -0.63591249132E+03  0.63591249132E+03  0.00000000000E+00 0.  1.
         21    1    1    2  503  502 -0.59014269926E+01 -0.62489296665E+02 -0.23138412640E+03  0.23974643478E+03  0.00000000000E+00 0.  1.
         21    1    1    2  504  503 -0.56933985395E+02 -0.33219950194E+02 -0.76850617569E+02  0.10124752444E+03  0.00000000000E+00 0.  1.
         21    1    1    2  505  501  0.57514460401E+02  0.36452695150E+02 -0.13898994564E+03  0.15477376111E+03  0.00000000000E+00 0.  1.
         21    1    1    2  506  505  0.53209519865E+01  0.59256551708E+02 -0.15903413790E+03  0.16979843482E+03  0.00000000000E+00 0.  1.
<scales pt_clust_3="62.76734" pt_clust_4="74.91936" pt_clust_5="54.66556" pt_clust_6="54.66556"></scales>
<clustering>
<clus scale="   54.666">  5  6 -1 -1</clus>
<clus scale="   62.767">  2  3  1 -1</clus>
<clus scale="   74.919">  1  4  2 -1</clus>
<clus scale="   74.919">  1  3  2 -1</clus>
</clustering>
</event>
<event>
 6    0  0.6207838E+002  0.8743034E+02  0.7546771E-02  0.1309197E+00
         21   -1    0    0  503  501  0.00000000000E+00  0.00000000000E+00  0.71576572724E+03  0.71576572724E+03  0.00000000000E+00 0. -1.
         21   -1    0    0  504  502 -0.00000000000E+00 -0.00000000000E+00 -0.17880874478E+03  0.17880874478E+03  0.00000000000E+00 0. -1.
         21    1    1    2  503  505 -0.31689920924E+02  0.55632037540E+01  0.39351016856E+03  0.39482331882E+03  0.00000000000E+00 0. -1.
         21    1    1    2  504  501 -0.37462744889E+02  0.32471034765E+02  0.24260008870E+03  0.24761386954E+03  0.00000000000E+00 0. -1.
         21    1    1    2  505  506 -0.22817487069E+02 -0.69794619349E+02  0.39011883868E+02  0.83149586223E+02  0.00000000000E+00 0. -1.
         21    1    1    2  506  502  0.91970152882E+02  0.31760380830E+02 -0.13816515867E+03  0.16898769743E+03  0.00000000000E+00 0. -1.
<scales pt_clust_3="32.17453" pt_clust_4="71.72265" pt_clust_5="87.43034" pt_clust_6="14000.00000"></scales>
<clustering>
<clus scale="   32.175">  1  3  2 -1</clus>
<clus scale="   71.723">  1  4  2 -1</clus>
<clus scale="   87.430">  1  5  2 -1</clus>
<clus scale="   32.175">  1  3  2 -1</clus>
</clustering>
</event>
<event>
 6    0  0.6207838E+002  0.8488880E+02  0.7546771E-02  0.1315724E+00
         21   -1    0    0  503  501  0.00000000000E+00  0.00000000000E+00  0.11125661728E+04  0.11125661728E+04  0.00000000000E+00 0. -1.
         21   -1    0    0  505  502 -0.00000000000E+00 -0.00000000000E+00 -0.84411077857E+02  0.84411077857E+02  0.00000000000E+00 0. -1.
         21    1    1    2  503  506 -0.80523185257E+02 -0.21439154902E+02  0.53605383513E+02  0.99081571790E+02  0.00000000000E+00 0.  1.
         21    1    1    2  504  501  0.71273783444E+02  0.46933453579E+02  0.98371310304E+03  0.98740780347E+03  0.00000000000E+00 0. -1.
         21    1    1    2  505  504 -0.19438305837E+02 -0.57029557732E+02 -0.24694107307E+02  0.65115413878E+02  0.00000000000E+00 0. -1.
         21    1    1    2  506  502  0.28687707649E+02  0.31535259055E+02  0.15530715699E+02  0.45372461515E+02  0.00000000000E+00 0.  1.
<scales pt_clust_3="14000.00000" pt_clust_4="84.88880" pt_clust_5="36.66244" pt_clust_6="42.63164"></scales>
<clustering>
<clus scale="   42.632">  2  6  1 -1</clus>
<clus scale="   36.662">  2  5  1 -1</clus>
<clus scale="   84.889">  1  4  2 -1</clus>
<clus scale="   84.889">  1  3  2 -1</clus>
</clustering>
</event>
<event>
 6    0  0.6207838E+002  0.1328895E+03  0.7546771E-02  0.1223230E+00
         21   -1    0    0  504  501  0.00000000000E+00  0.00000000000E+00  0.16524620773E+03  0.16524620773E+03  0.00000000000E+00 0. -1.
         21   -1    0    0  506  502 -0.00000000000E+00 -0.00000000000E+00 -0.26031210310E+03  0.26031210310E+03  0.00000000000E+00 0. -1.
         21    1    1    2  503  502 -0.76964006138E+02  0.12986089098E+03 -0.13578237470E+03  0.20303734269E+03  0.00000000000E+00 0. -1.
         21    1    1    2  504  503  0.88938995994E+02 -0.21821622780E+02  0.55557657354E+02  0.10711200456E+03  0.00000000000E+00 0. -1.
         21    1    1    2  505  501  0.11532786393E+02 -0.57979483963E+02 -0.63302276345E+01  0.59453322065E+02  0.00000000000E+00 0. -1.
         21    1    1    2  506  505 -0.23507776249E+02 -0.50059784234E+02 -0.85109503916E+01  0.55955641523E+02  0.00000000000E+00 0.  1.
<scales pt_clust_3="127.97085" pt_clust_4="91.57690" pt_clust_5="34.64639" pt_clust_6="34.64639"></scales>
<clustering>
<clus scale="   34.646">  5  6 -1 -1</clus>
<clus scale="   91.577">  1  4  2 -1</clus>
<clus scale="  127.971">  2  3  1 -1</clus>
<clus scale="   91.577">  1  3  2 -1</clus>
</clustering>
</event>
<event>
 6    0  0.6207838E+002  0.1163799E+03  0.7546771E-02  0.1249191E+00
         21   -1    0    0  504  501  0.00000000000E+00  0.00000000000E+00  0.23649033923E+03  0.23649033923E+03  0.00000000000E+00 0.  1.
         21   -1    0    0  506  502 -0.00000000000E+00 -0.00000000000E+00 -0.10963033926E+03  0.10963033926E+03  0.00000000000E+00 0.  1.
         21    1    1    2  503  501  0.12765956661E+02 -0.58052945074E+02  0.10948366161E+03  0.12457843409E+03  0.00000000000E+00 0.  1.
         21    1    1    2  504  502 -0.34525776943E+02  0.56850399398E+02  0.62678489400E+01  0.66807807295E+02  0.00000000000E+00 0.  1.
         21    1    1    2  505  503 -0.17319326646E+02 -0.60533995221E+02  0.41703806051E+02  0.75521725960E+02  0.00000000000E+00 0.  1.
         21    1    1    2  506  505  0.39079146927E+02  0.61736540897E+02 -0.30595316633E+02  0.79212711141E+02  0.00000000000E+00 0.  1.
<scales pt_clust_3="54.08737" pt_clust_4="66.51314" pt_clust_5="54.08737" pt_clust_6="102.20303"></scales>
<clustering>
<clus scale="   54.087">  3  5 -1 -1</clus>
<clus scale="   66.513">  2  4  1 -1</clus>
<clus scale="  102.203">  2  6  1 -1</clus>
<clus scale="  116.380">  1  3  2 -1</clus>
</clustering>
</event>
<event>
 6    0  0.6207838E+002  0.9657993E+02  0.7546771E-02  0.1287657E+00
         21   -1    0    0  506  501  0.00000000000E+00  0.00000000000E+00  0.89250359164E+03  0.89250359164E+03  0.00000000000E+00 0. -1.
         21   -1    0    0  505  502 -0.00000000000E+00 -0.00000000000E+00 -0.36218608654E+02  0.36218608654E+02  0.00000000000E+00 0. -1.
         21    1    1    2  503  502  0.38644999457E+02 -0.10631093202E+02  0.84172275113E+02  0.93227828589E+02  0.00000000000E+00 0. -1.
         21    1    1    2  504  501  0.32919663243E+02  0.79319381249E+02  0.38466156063E+03  0.39413168446E+03  0.00000000000E+00 0. -1.
         21    1    1    2  505  504 -0.27003725260E+02  0.39102682758E+02  0.13146228205E+02  0.49305621310E+02  0.00000000000E+00 0. -1.
         21    1    1    2  506  503 -0.44560937440E+02 -0.10779097081E+03  0.37430491903E+03  0.39205706593E+03  0.00000000000E+00 0. -1.
<scales pt_clust_3="40.08062" pt_clust_4="14000.00000" pt_clust_5="33.40737" pt_clust_6="96.57993"></scales>
<clustering>
<clus scale="   40.081">  2  3  1 -1</clus>
<clus scale="   33.407">  2  5  1 -1</clus>
<clus scale="   96.580">  2  6  1 -1</clus>
<clus scale="   96.580">  1  3  2 -1</clus>
</clustering>
</event>
<event>
 6    0  0.6207838E+002  0.2044724E+03  0.7546771E-02  0.1146020E+00
         21   -1    0    0  503  501  0.00000000000E+00  0.00000000000E+00  0.15414490404E+04  0.15414490404E+04  0.00000000000E+00 0.  1.
         21   -1    0    0  504  502 -0.00000000000E+00 -0.00000000000E+00 -0.34542917509E+03  0.34542917509E+03  0.00000000000E+00 0.  1.
         21    1    1    2  503  505 -0.26306080394E+03 -0.82430307854E+02 -0.28424368094E+02  0.27713478115E+03  0.00000000000E+00 0.  1.
         21    1    1    2  504  506 -0.36588298208E+02  0.70590502260E+02 -0.62041923013E+01  0.79750953456E+02  0.00000000000E+00 0.  1.
         21    1    1    2  505  502  0.98109259670E+02  0.10158876990E+02 -0.12512147351E+03  0.15932361014E+03  0.00000000000E+00 0.  1.
         21    1    1    2  506  501  0.20153984248E+03  0.16809286046E+01  0.13557698992E+04  0.13706688708E+04  0.00000000000E+00 0.  1.
<scales pt_clust_3="204.47237" pt_clust_4="79.50926" pt_clust_5="91.78761" pt_clust_6="14000.00000"></scales>
<clustering>
<clus scale="   79.509">  2  4  1 -1</clus>
<clus scale="   91.788">  2  5  1 -1</clus>
<clus scale="  204.472">  2  3  1 -1</clus>
<clus scale="  204.472">  1  3  2 -1</clus>
</clustering>
</event>
<event>
 6    0  0.6207838E+002  0.8562254E+02  0.7546771E-02  0.1313813E+00
         21   -1    0    0  506  501  0.00000000000E+00  0.00000000000E+00  0.92996135462E+03  0.92996135462E+03  0.00000000000E+00 0. -1.
         21   -1    0    0  503  502 -0.00000000000E+00 -0.00000000000E+00 -0.24037862110E+02  0.24037862110E+02  0.00000000000E+00 0. -1.
         21    1    1    2  503  505 -0.30863578239E+02 -0.13724032077E+02  0.77767033272E+02  0.84785735723E+02  0.00000000000E+00 0. -1.
         21    1    1    2  504  502  0.43970505401E+02  0.34518875379E+02  0.61052950179E+02  0.82779350252E+02  0.00000000000E+00 0. -1.
         21    1    1    2  505  501 -0.70473776599E+02  0.46747150529E+02  0.38854186029E+03  0.39763881408E+03  0.00000000000E+00 0. -1.
         21    1    1    2  506  504  0.57366849437E+02 -0.67541993831E+02  0.37856164878E+03  0.38879531668E+03  0.00000000000E+00 0. -1.
<scales pt_clust_3="33.77735" pt_clust_4="38.81734" pt_clust_5="85.62254" pt_clust_6="14000.00000"></scales>
<clustering>
<clus scale="   33.777">  2  3  1 -1</clus>
<clus scale="   38.817">  2  4  1 -1</clus>
<clus scale="   85.623">  1  5  2 -1</clus>
<clus scale="   85.623">  1  3  2 -1</clus>
</clustering>
</event>
<event>
 6    0  0.6207838E+002  0.8685889E+02  0.7546771E-02  0.1310642E+00
         21   -1    0    0  504  501  0.00000000000E+00  0.00000000000E+00  0.24389459409E+03  0.24389459409E+03  0.00000000000E+00 0. -1.
         21   -1    0    0  505  502 -0.00000000000E+00 -0.00000000000E+00 -0.11414839329E+03  0.11414839329E+03  0.00000000000E+00 0. -1.
         21    1    1    2  503  506 -0.37782711386E+02 -0.52068174751E+02  0.18439605024E+01  0.64358591438E+02  0.00000000000E+00 0. -1.
         21    1    1    2  504  502  0.27744020322E+02  0.57207965259E+02  0.12228563426E+03  0.13782691427E+03  0.00000000000E+00 0. -1.
         21    1    1    2  505  503  0.33697344145E+02  0.54920312632E+02 -0.40875633918E+02  0.76305761186E+02  0.00000000000E+00 0. -1.
         21    1    1    2  506  501 -0.23658653081E+02 -0.60060103140E+02  0.46492239961E+02  0.79551720481E+02  0.00000000000E+00 0. -1.
<scales pt_clust_3="44.93441" pt_clust_4="63.58052" pt_clust_5="74.28640" pt_clust_6="44.93441"></scales>
<clustering>
<clus scale="   44.934">  3  6 -1 -1</clus>
<clus scale="   63.581">  1  4  2 -1</clus>
<clus scale="   74.286">  2  5  1 -1</clus>
<clus scale="   63.581">  1  3  2 -1</clus>
</clustering>
</event>
<event>
 6    0  0.6207838E+002  0.2061962E+03  0.7546771E-02  0.1144614E+00
         21   -1    0    0  503  501  0.00000000000E+00  0.00000000000E+00  0.31788079064E+03  0.31788079064E+03  0.00000000000E+00 0.  1.
         21   -1    0    0  506  502 -0.00000000000E+00 -0.00000000000E+00 -0.59255050669E+03  0.59255050669E+03  0.00000000000E+00 0.  1.
         21    1    1    2  503  502 -0.41396929263E+02 -0.90364406894E+02 -0.56457840851E+02  0.11431062759E+03  0.00000000000E+00 0.  1.
         21    1    1    2  504  505  0.28867014658E+00 -0.34210347000E+02 -0.15033299142E+03  0.15417665025E+03  0.00000000000E+00 0.  1.
         21    1    1    2  505  501 -0.48254193223E+02  0.19663605217E+03  0.23962505025E+03  0.31371064515E+03  0.00000000000E+00 0.  1.
         21    1    1    2  506  504  0.89362452339E+02 -0.72061298273E+02 -0.30750393403E+03  0.32823337435E+03  0.00000000000E+00 0.  1.
<scales pt_clust_3="99.39533" pt_clust_4="33.53585" pt_clust_5="196.83260" pt_clust_6="33.53585"></scales>
<clustering>
<clus scale="   33.536">  4  6 -1 -1</clus>
<clus scale="   99.395">  2  3  1 -1</clus>
<clus scale="  196.833">  1  5  2 -1</clus>
<clus scale="  196.833">  1  3  2 -1</clus>
</clustering>
</event>
<event>
 6    0  0.6207838E+002  0.1381229E+03  0.7546771E-02  0.1215877E+00
         21   -1    0    0  504  501  0.00000000000E+00  0.00000000000E+00  0.68850571181E+02  0.68850571181E+02  0.00000000000E+00 0. -1.
         21   -1    0    0  503  502 -0.00000000000E+00 -0.00000000000E+00 -0.94083736561E+03  0.94083736561E+03  0.00000000000E+00 0. -1.
         21    1    1    2  503  506 -0.34702668510E+02 -0.24924718461E+02 -0.79626907130E+02  0.90365707717E+02  0.00000000000E+00 0. -1.
         21    1    1    2  504  505  0.13713062069E+03 -0.17406040945E+02 -0.15357542865E+03  0.20662330381E+03  0.00000000000E+00 0. -1.
         21    1    1    2  505  502  0.23466199406E+02 -0.22866473968E+02 -0.53741393029E+03  0.53841180394E+03  0.00000000000E+00 0. -1.
         21    1    1    2  506  501 -0.12589415158E+03  0.65197233373E+02 -0.10137052836E+03  0.17428712133E+03  0.00000000000E+00 0. -1.
<scales pt_clust_3="42.07347" pt_clust_4="14000.00000" pt_clust_5="32.76489" pt_clust_6="138.12294"></scales>
<clustering>
<clus scale="   32.765">  2  5  1 -1</clus>
<clus scale="   42.073">  2  3  1 -1</clus>
<clus scale="  138.123">  1  6  2 -1</clus>
<clus scale="  138.123">  1  3  2 -1</clus>
</clustering>
</event>
<event>
 6    0  0.6207838E+002  0.1158285E+03  0.7546771E-02  0.1250142E+00
         21   -1    0    0  504  501  0.00000000000E+00  0.00000000000E+00  0.34422916398E+03  0.34422916398E+03  0.00000000000E+00 0.  1.
         21   -1    0    0  506  502 -0.00000000000E+00 -0.00000000000E+00 -0.14106537352E+04  0.14106537352E+04  0.00000000000E+00 0. -1.
         21    1    1    2  503  505 -0.11044759059E+03  0.80355526256E+02  0.14073272827E+03  0.19611573541E+03  0.00000000000E+00 0.  1.
         21    1    1    2  504  502  0.36169032757E+02 -0.76258399343E+01 -0.11858888608E+04  0.11864648088E+04  0.00000000000E+00 0. -1.
         21    1    1    2  505  501  0.11734016323E+03  0.32289127506E+02  0.13332287104E+03  0.18051672943E+03  0.00000000000E+00 0.  1.
         21    1    1    2  506  503 -0.43061605390E+02 -0.10501881383E+03 -0.15459130970E+03  0.19178562551E+03  0.00000000000E+00 0.  1.
<scales pt_clust_3="14000.00000" pt_clust_4="36.96420" pt_clust_5="115.82852" pt_clust_6="111.93319"></scales>
<clustering>
<clus scale="   36.964">  2  4  1 -1</clus>
<clus scale="  111.933">  2  6  1 -1</clus>
<clus scale="  115.829">  1  5  2 -1</clus>
<clus scale="  115.829">  1  3  2 -1</clus>
</clustering>
</event>
<event>
 6    0  0.6207838E+002  0.7374669E+02  0.7546771E-02  0.1347797E+00
         21   -1    0    0  506  501  0.00000000000E+00  0.00000000000E+00  0.12698676304E+03  0.12698676304E+03  0.00000000000E+00 0. -1.
         21   -1    0    0  505  502 -0.00000000000E+00 -0.00000000000E+00 -0.24643004048E+03  0.24643004048E+03  0.00000000000E+00 0. -1.
         21    1    1    2  503  501 -0.35085898520E+00  0.81274759517E+02 -0.69712105324E+02  0.10707701558E+03  0.00000000000E+00 0. -1.
         21    1    1    2  504  502 -0.71880722990E+02 -0.95663546041E+01 -0.84433973942E+02  0.11129891928E+03  0.00000000000E+00 0. -1.
         21    1    1    2  505  503  0.55657450510E+02 -0.10093163655E+01 -0.25009811635E+02  0.61026725251E+02  0.00000000000E+00 0. -1.
         21    1    1    2  506  504  0.16574131465E+02 -0.70699088548E+02  0.59712613452E+02  0.94014143407E+02  0.00000000000E+00 0. -1.
<scales pt_clust_3="73.74669" pt_clust_4="46.20910" pt_clust_5="55.66660" pt_clust_6="14000.00000"></scales>
<clustering>
<clus scale="   55.667">  2  5  1 -1</clus>
<clus scale="   46.209">  2  4  1 -1</clus>
<clus scale="   73.747">  2  3  1 -1</clus>
<clus scale="   73.747">  1  3  2 -1</clus>
</clustering>
</event>
<event>
 6    0  0.6207838E+002  0.1764021E+03  0.7546771E-02  0.1171331E+00
         21   -1    0    0  505  501  0.00000000000E+00  0.00000000000E+00  0.58932972166E+03  0.58932972166E+03  0.00000000000E+00 0.  1.
         21   -1    0    0  504  502 -0.00000000000E+00 -0.00000000000E+00 -0.56780896317E+03  0.56780896317E+03  0.00000000000E+00 0.  1.
         21    1    1    2  503  502  0.14819292967E+03  0.99598923185E+02 -0.50665992457E+03  0.53720142318E+03  0.00000000000E+00 0.  1.
         21    1    1    2  504  506 -0.79859662516E+02 -0.13444726117E+03  0.21903164200E+03  0.26912542045E+03  0.00000000000E+00 0.  1.
         21    1    1    2  505  503  0.27985111165E+02 -0.12463491731E+02  0.88088836136E+01  0.31876347086E+02  0.00000000000E+00 0. -1.
         21    1    1    2  506  501 -0.96318378321E+02  0.47311829718E+02  0.30034015744E+03  0.31893549411E+03  0.00000000000E+00 0. -1.
<scales pt_clust_3="176.40211" pt_clust_4="14000.00000" pt_clust_5="30.63503" pt_clust_6="90.65358"></scales>
<clustering>
<clus scale="   30.635">  1  5  2 -1</clus>
<clus scale="   90.654">  1  6  2 -1</clus>
<clus scale="  176.402">  2  3  1 -1</clus>
<clus scale="   30.635">  1  3  2 -1</clus>
</clustering>
</event>
<event>
 6    0  0.6207838E+002  0.9463616E+02  0.7546771E-02  0.1291998E+00
         21   -1    0    0  503  501  0.00000000000E+00  0.00000000000E+00  0.29015531252E+03  0.29015531252E+03  0.00000000000E+00 0. -1.
         21   -1    0    0  501  502 -0.00000000000E+00 -0.00000000000E+00 -0.18973592904E+03  0.18973592904E+03  0.00000000000E+00 0.  1.
         21    1    1    2  503  505  0.28265429985E+02  0.30092142358E+02  0.75557201668E+02  0.86100884361E+02  0.00000000000E+00 0.  1.
         21    1    1    2  504  502 -0.73977634996E+02  0.15528218165E+02 -0.34575932866E+02  0.83122266406E+02  0.00000000000E+00 0.  1.
         21    1    1    2  505  506 -0.56476976362E+02  0.26173370497E+02  0.14599907353E+03  0.15871491314E+03  0.00000000000E+00 0. -1.
         21    1    1    2  506  504  0.10218918137E+03 -0.71793731020E+02 -0.86560958852E+02  0.15195317766E+03  0.00000000000E+00 0.  1.
<scales pt_clust_3="41.28525" pt_clust_4="94.63616" pt_clust_5="60.00322" pt_clust_6="14000.00000"></scales>
<clustering>
<clus scale="   41.285">  1  3  2 -1</clus>
<clus scale="   60.003">  1  5  2 -1</clus>
<clus scale="   94.636">  2  4  1 -1</clus>
<clus scale="   41.285">  1  3  2 -1</clus>
</clustering>
</event>
<event>
 6    0  0.6207838E+002  0.1535685E+03  0.7546771E-02  0.1196155E+00
         21   -1    0    0  502  501  0.00000000000E+00  0.00000000000E+00  0.19635001119E+04  0.19635001119E+04  0.00000000000E+00 0. -1.
         21   -1    0    0  505  502 -0.00000000000E+00 -0.00000000000E+00 -0.46509368398E+03  0.46509368398E+03  0.00000000000E+00 0.  1.
         21    1    1    2  503  506 -0.10151304850E+03 -0.30884047297E+01 -0.58068222303E+02  0.11698869903E+03  0.00000000000E+00 0.  1.
         21    1    1    2  504  501 -0.47742598465E+02 -0.12963148220E+02  0.17323368053E+04  0.17330430480E+04  0.00000000000E+00 0. -1.
         21    1    1    2  505  503 -0.62102940688E+02  0.32230266431E+02 -0.31652124071E+03  0.32416239932E+03  0.00000000000E+00 0.  1.
         21    1    1    2  506  504  0.21135858766E+03 -0.16178713482E+02  0.14065908561E+03  0.25439964959E+03  0.00000000000E+00 0.  1.
<scales pt_clust_3="14000.00000" pt_clust_4="49.47119" pt_clust_5="70.57309" pt_clust_6="153.56845"></scales>
<clustering>
<clus scale="   49.471">  1  4  2 -1</clus>
<clus scale="   70.573">  2  5  1 -1</clus>
<clus scale="  153.568">  1  6  2 -1</clus>
<clus scale="   49.471">  1  3  2 -1</clus>
</clustering>
</event>
<event>
 6    0  0.6207838E+002  0.1227890E+03  0.7546771E-02  0.1238566E+00
         21   -1    0    0  506  501  0.00000000000E+00  0.00000000000E+00  0.90367046535E+02  0.90367046535E+02  0.00000000000E+00 0.  1.
         21   -1    0    0  505  502 -0.00000000000E+00 -0.00000000000E+00 -0.36177459643E+03  0.36177459643E+03  0.00000000000E+00 0.  1.
         21    1    1    2  503  501  0.29165682561E+01  0.11339831838E+03  0.23833294071E+02  0.11591251394E+03  0.00000000000E+00 0.  1.
         21    1    1    2  504  502  0.24645847741E+02 -0.37922570646E+02 -0.13520868939E+03  0.14257253895E+03  0.00000000000E+00 0.  1.
         21    1    1    2  505  503 -0.37547252896E+02 -0.64870697217E+01 -0.71038542940E+02  0.80612361686E+02  0.00000000000E+00 0.  1.
         21    1    1    2  506  504  0.99848368981E+01 -0.68988678009E+02 -0.88993611634E+02  0.11304422839E+03  0.00000000000E+00 0.  1.
<scales pt_clust_3="112.39742" pt_clust_4="37.73327" pt_clust_5="38.10352" pt_clust_6="37.73327"></scales>
<clustering>
<clus scale="   38.104">  2  5  1 -1</clus>
<clus scale="   37.733">  4  6 -1 -1</clus>
<clus scale="  112.397">  1  3  2 -1</clus>
<clus scale="  112.397">  1  3  2 -1</clus>
</clustering>
</event>
<event>
 6    0  0.6207838E+002  0.1702615E+03  0.7546771E-02  0.1177575E+00
         21   -1    0    0  506  501  0.00000000000E+00  0.00000000000E+00  0.78954973604E+02  0.78954973604E+02  0.00000000000E+00 0.  1.
         21   -1    0    0  504  502 -0.00000000000E+00 -0.00000000000E+00 -0.47381397547E+03  0.47381397547E+03  0.00000000000E+00 0.  1.
         21    1    1    2  503  501  0.43787235727E+02 -0.31317952713E+01 -0.87041044885E+01  0.44753676823E+02  0.00000000000E+00 0.  1.
         21    1    1    2  504  505 -0.60753513813E+02 -0.81473756268E+02 -0.11710803932E+03  0.15505887680E+03  0.00000000000E+00 0.  1.
         21    1    1    2  505  503  0.13309562969E+02 -0.70066089178E+02 -0.62077478353E+02  0.94551650635E+02  0.00000000000E+00 0.  1.
         21    1    1    2  506  502  0.36567151166E+01  0.15467164072E+03 -0.20696937971E+03  0.25840474482E+03  0.00000000000E+00 0.  1.
<scales pt_clust_3="43.89909" pt_clust_4="62.80366" pt_clust_5="62.80366" pt_clust_6="154.93956"></scales>
<clustering>
<clus scale="   43.899">  1  3  2 -1</clus>
<clus scale="   62.804">  4  5 -1 -1</clus>
<clus scale="  154.940">  2  6  1 -1</clus>
<clus scale="   43.899">  1  3  2 -1</clus>
</clustering>
</event>
<event>
 6    0  0.6207838E+002  0.1051099E+03  0.7546771E-02  0.1269903E+00
         21   -1    0    0  506  501  0.00000000000E+00  0.00000000000E+00  0.30221223057E+03  0.30221223057E+03  0.00000000000E+00 0.  1.
         21   -1    0    0  504  502 -0.00000000000E+00 -0.00000000000E+00 -0.27995951741E+03  0.27995951741E+03  0.00000000000E+00 0. -1.
         21    1    1    2  503  502  0.46817749525E+02 -0.96051986964E+02 -0.23175510181E+03  0.25520249428E+03  0.00000000000E+00 0. -1.
         21    1    1    2  504  501  0.19500445978E+02  0.34921521507E+02  0.19700826309E+02  0.44585901527E+02  0.00000000000E+00 0.  1.
         21    1    1    2  505  503 -0.79088453440E+01  0.79824281187E+02  0.19141919126E+03  0.20754703680E+03  0.00000000000E+00 0.  1.
         21    1    1    2  506  505 -0.58409350159E+02 -0.18693815729E+02  0.42887797406E+02  0.74836315375E+02  0.00000000000E+00 0. -1.
<scales pt_clust_3="14000.00000" pt_clust_4="39.99725" pt_clust_5="105.10990" pt_clust_6="55.28148"></scales>
<clustering>
<clus scale="   39.997">  1  4  2 -1</clus>
<clus scale="   55.281">  1  6  2 -1</clus>
<clus scale="  105.110">  1  5  2 -1</clus>
<clus scale="   39.997">  1  3  2 -1</clus>
</clustering>
</event>
<event>
 6    0  0.6207838E+002  0.9300011E+02  0.7546771E-02  0.1295745E+00
         21   -1    0    0  506  501  0.00000000000E+00  0.00000000000E+00  0.11308727508E+04  0.11308727508E+04  0.00000000000E+00 0. -1.
         21   -1    0    0  503  502 -0.00000000000E+00 -0.00000000000E+00 -0.34703813460E+02  0.34703813460E+02  0.00000000000E+00 0. -1.
         21    1    1    2  503  501  0.97690716771E+02 -0.70096922682E+02  0.19837963785E+03  0.23197313514E+03  0.00000000000E+00 0. -1.
         21    1    1    2  504  505 -0.72582925495E+02  0.10524031495E+02  0.22987198666E+03  0.24128855456E+03  0.00000000000E+00 0. -1.
         21    1    1    2  505  502  0.10490488644E+02  0.56702716793E+02  0.59528673544E+02  0.82878896093E+02  0.00000000000E+00 0. -1.
         21    1    1    2  506  504 -0.35598279920E+02  0.28701743942E+01  0.60838863929E+03  0.60943597847E+03  0.00000000000E+00 0. -1.
<scales pt_clust_3="93.00011" pt_clust_4="14000.00000" pt_clust_5="57.37159" pt_clust_6="35.71380"></scales>
<clustering>
<clus scale="   35.714">  1  6  2 -1</clus>
<clus scale="   57.372">  2  5  1 -1</clus>
<clus scale="   93.000">  2  3  1 -1</clus>
<clus scale="   35.714">  1  3  2 -1</clus>
</clustering>
</event>
<event>
 6    0  0.6207838E+002  0.7221171E+02  0.7546771E-02  0.1352730E+00
         21   -1    0    0  504  501  0.00000000000E+00  0.00000000000E+00  0.30752640708E+02  0.30752640708E+02  0.00000000000E+00 0.  1.
         21   -1    0    0  505  502 -0.00000000000E+00 -0.00000000000E+00 -0.12488849885E+04  0.12488849885E+04  0.00000000000E+00 0.  1.
         21    1    1    2  503  501 -0.72044047652E+02 -0.42306865194E+02 -0.10513356396E+03  0.13428805574E+03  0.00000000000E+00 0.  1.
         21    1    1    2  504  502  0.47200397330E+02 -0.52253231947E+02 -0.91349383079E+02  0.11533857787E+03  0.00000000000E+00 0.  1.
         21    1    1    2  505  506  0.94400478215E+01  0.36225009950E+02 -0.78158086727E+03  0.78247684818E+03  0.00000000000E+00 0.  1.
         21    1    1    2  506  503  0.15403602501E+02  0.58335087191E+02 -0.24006853353E+03  0.24753414746E+03  0.00000000000E+00 0.  1.
<scales pt_clust_3="72.21171" pt_clust_4="66.22834" pt_clust_5="37.43482" pt_clust_6="14000.00000"></scales>
<clustering>
<clus scale="   37.435">  2  5  1 -1</clus>
<clus scale="   66.228">  1  4  2 -1</clus>
<clus scale="   72.212">  1  3  2 -1</clus>
<clus scale="   66.228">  1  3  2 -1</clus>
</clustering>
</event>
<event>
 6    0  0.6207838E+002  0.9625068E+02  0.7546771E-02  0.1288384E+00
         21   -1    0    0  505  501  0.00000000000E+00  0.00000000000E+00  0.40711515562E+03  0.40711515562E+03  0.00000000000E+00 0. -1.
         21   -1    0    0  503  502 -0.00000000000E+00 -0.00000000000E+00 -0.14244189651E+04  0.14244189651E+04  0.00000000000E+00 0. -1.
         21    1    1    2  503  504  0.32738064656E+02  0.16445340775E+02 -0.12998302683E+04  0.13003464755E+04  0.00000000000E+00 0. -1.
         21    1    1    2  504  501 -0.49154841595E+02  0.80688150449E+02  0.24730827638E+03  0.26474168474E+03  0.00000000000E+00 0. -1.
         21    1    1    2  505  506 -0.88275806326E+01 -0.11566327160E+03  0.12549361849E+03  0.17089343715E+03  0.00000000000E+00 0. -1.
         21    1    1    2  506  502  0.25244357572E+02  0.18529780377E+02 -0.90275436039E+02  0.95552523263E+02  0.00000000000E+00 0. -1.
<scales pt_clust_3="66.97844" pt_clust_4="96.25068" pt_clust_5="14000.00000" pt_clust_6="31.31502"></scales>
<clustering>
<clus scale="   31.315">  2  6  1 -1</clus>
<clus scale="   66.978">  2  3  1 -1</clus>
<clus scale="   96.251">  1  4  2 -1</clus>
<clus scale="   96.251">  1  3  2 -1</clus>
</clustering>
</event>
<event>
 6    0  0.6207838E+002  0.2742214E+03  0.7546771E-02  0.1098888E+00
         21   -1    0    0  505  501  0.00000000000E+00  0.00000000000E+00  0.10738726626E+04  0.10738726626E+04  0.00000000000E+00 0.  1.
         21   -1    0    0  503  502 -0.00000000000E+00 -0.00000000000E+00 -0.35281225271E+03  0.35281225271E+03  0.00000000000E+00 0.  1.
         21    1    1    2  503  504 -0.12601915275E+03 -0.21930085824E+03 -0.14543478476E+03  0.29176183764E+03  0.00000000000E+00 0.  1.
         21    1    1    2  504  501 -0.43013621252E+02 -0.37405956472E+02  0.81767433616E+02  0.99675926847E+02  0.00000000000E+00 0.  1.
         21    1    1    2  505  506 -0.43737666081E+02 -0.17353438528E+02  0.66729786606E+03  0.66895483204E+03  0.00000000000E+00 0.  1.
         21    1    1    2  506  502  0.21277044009E+03  0.27406025324E+03  0.11742989498E+03  0.36629231880E+03  0.00000000000E+00 0.  1.
<scales pt_clust_3="274.22139" pt_clust_4="67.01970" pt_clust_5="47.05449" pt_clust_6="14000.00000"></scales>
<clustering>
<clus scale="   47.054">  1  5  2 -1</clus>
<clus scale="   67.020">  1  4  2 -1</clus>
<clus scale="  274.221">  2  3  1 -1</clus>
<clus scale="   47.054">  1  3  2 -1</clus>
</clustering>
</event>
<event>
 6    0  0.6207838E+002  0.7165198E+02  0.7546771E-02  0.1354564E+00
         21   -1    0    0  503  501  0.00000000000E+00  0.00000000000E+00  0.10802814477E+03  0.10802814477E+03  0.00000000000E+00 0.  1.
         21   -1    0    0  504  502 -0.00000000000E+00 -0.00000000000E+00 -0.18842027876E+04  0.18842027876E+04  0.00000000000E+00 0. -1.
         21    1    1    2  503  505 -0.70095236660E+02 -0.19213523384E+02  0.88813729174E+02  0.11476227679E+03  0.00000000000E+00 0.  1.
         21    1    1    2  504  506  0.45791892138E+02 -0.17376877199E+02 -0.87318626479E+03  0.87455880663E+03  0.00000000000E+00 0. -1.
         21    1    1    2  505  502 -0.30082940624E+02  0.74214254287E+02 -0.63515394542E+03  0.64018221877E+03  0.00000000000E+00 0.  1.
         21    1    1    2  506  501  0.54386285145E+02 -0.37623853704E+02 -0.35664816183E+03  0.36272763021E+03  0.00000000000E+00 0. -1.
<scales pt_clust_3="14000.00000" pt_clust_4="48.97809" pt_clust_5="63.25790" pt_clust_6="71.65198"></scales>
<clustering>
<clus scale="   48.978">  2  4  1 -1</clus>
<clus scale="   63.258">  2  5  1 -1</clus>
<clus scale="   71.652">  2  6  1 -1</clus>
<clus scale="   71.652">  1  3  2 -1</clus>
</clustering>
</event>
<event>
 6    0  0.6207838E+002  0.9594710E+02  0.7546771E-02  0.1289057E+00
         21   -1    0    0  506  501  0.00000000000E+00  0.00000000000E+00  0.53774767598E+03  0.53774767598E+03  0.00000000000E+00 0. -1.
         21   -1    0    0  505  502 -0.00000000000E+00 -0.00000000000E+00 -0.24801672325E+03  0.24801672325E+03  0.00000000000E+00 0.  1.
         21    1    1    2  503  502  0.79215704533E+02  0.89493437383E+02  0.19130123176E+02  0.12103786512E+03  0.00000000000E+00 0. -1.
         21    1    1    2  504  501 -0.86186242670E+02 -0.14908246589E+02  0.17591709102E+02  0.89217669052E+02  0.00000000000E+00 0. -1.
         21    1    1    2  505  504 -0.86294793584E+01 -0.34965990104E+02 -0.15812555280E+03  0.16217514861E+03  0.00000000000E+00 0.  1.
         21    1    1    2  506  503  0.15600017496E+02 -0.39619200690E+02  0.41113467325E+03  0.41333371646E+03  0.00000000000E+00 0. -1.
<scales pt_clust_3="14000.00000" pt_clust_4="95.94710" pt_clust_5="36.01511" pt_clust_6="42.94818"></scales>
<clustering>
<clus scale="   36.015">  2  5  1 -1</clus>
<clus scale="   42.948">  1  6  2 -1</clus>
<clus scale="   95.947">  1  4  2 -1</clus>
<clus scale="   42.948">  1  3  2 -1</clus>
</clustering>
</event>
<event>
 6    0  0.6207838E+002  0.1506060E+03  0.7546771E-02  0.1199730E+00
         21   -1    0    0  506  501  0.00000000000E+00  0.00000000000E+00  0.27534305324E+03  0.27534305324E+03  0.00000000000E+00 0.  1.
         21   -1    0    0  504  502 -0.00000000000E+00 -0.00000000000E+00 -0.28314295365E+03  0.28314295365E+03  0.00000000000E+00 0.  1.
         21    1    1    2  503  502  0.37707864206E+02 -0.48695930369E+02 -0.99465302629E+02  0.11698941441E+03  0.00000000000E+00 0.  1.
         21    1    1    2  504  501 -0.38614125265E+02 -0.16290154420E+02  0.19052301767E+03  0.19507803583E+03  0.00000000000E+00 0.  1.
         21    1    1    2  505  503  0.50349206122E+02 -0.66743244704E+02 -0.50317734166E+02  0.97578571635E+02  0.00000000000E+00 0.  1.
         21    1    1    2  506  505 -0.49442945064E+02  0.13172932949E+03 -0.48539881283E+02  0.14883998502E+03  0.00000000000E+00 0.  1.
<scales pt_clust_3="43.32164" pt_clust_4="41.90966" pt_clust_5="43.32164" pt_clust_6="141.97875"></scales>
<clustering>
<clus scale="   41.910">  1  4  2 -1</clus>
<clus scale="   43.322">  3  5 -1 -1</clus>
<clus scale="  141.979">  1  6  2 -1</clus>
<clus scale="   41.910">  1  3  2 -1</clus>
</clustering>
</event>
<event>
 6    0  0.6207838E+002  0.1193417E+03  0.7546771E-02  0.1244187E+00
         21   -1    0    0  505  501  0.00000000000E+00  0.00000000000E+00  0.26416212229E+03  0.26416212229E+03  0.00000000000E+00 0.  1.
         21   -1    0    0  503  502 -0.00000000000E+00 -0.00000000000E+00 -0.76839602457E+03  0.76839602457E+03  0.00000000000E+00 0.  1.
         21    1    1    2  503  506  0.35136003280E+02 -0.38175930436E+02 -0.46789016864E+02  0.69865245224E+02  0.00000000000E+00 0. -1.
         21    1    1    2  504  502  0.10305698596E+03  0.38249628729E+02 -0.53888002373E+03  0.54997768721E+03  0.00000000000E+00 0.  1.
         21    1    1    2  505  504 -0.93282298667E+02 -0.75108290936E+02  0.21905863418E+03  0.24965882284E+03  0.00000000000E+00 0.  1.
         21    1    1    2  506  501 -0.44910690574E+02  0.75034592643E+02 -0.13762349588E+03  0.16305639159E+03  0.00000000000E+00 0.  1.
<scales pt_clust_3="51.88391" pt_clust_4="14000.00000" pt_clust_5="119.34165" pt_clust_6="76.72451"></scales>
<clustering>
<clus scale="   51.884">  2  3  1 -1</clus>
<clus scale="   76.725">  2  6  1 -1</clus>
<clus scale="  119.342">  1  5  2 -1</clus>
<clus scale="  119.342">  1  3  2 -1</clus>
</clustering>
</event>
<event>
 6    0  0.6207838E+002  0.1021414E+03  0.7546771E-02  0.1275856E+00
         21   -1    0    0  504  501  0.00000000000E+00  0.00000000000E+00  0.40552640681E+03  0.40552640681E+03  0.00000000000E+00 0. -1.
         21   -1    0    0  505  502 -0.00000000000E+00 -0.00000000000E+00 -0.44979907813E+03  0.44979907813E+03  0.00000000000E+00 0. -1.
         21    1    1    2  503  506 -0.79062957702E+02  0.13915024360E+02 -0.86488529050E+02  0.11800357978E+03  0.00000000000E+00 0. -1.
         21    1    1    2  504  503  0.14936924448E+03  0.62659146265E+02  0.26228870911E+03  0.30827375291E+03  0.00000000000E+00 0. -1.
         21    1    1    2  505  501 -0.55138298659E+02 -0.17664414561E+02  0.93311266844E+02  0.10981464402E+03  0.00000000000E+00 0. -1.
         21    1    1    2  506  502 -0.15167988123E+02 -0.58909756064E+02 -0.31338411822E+03  0.31923350823E+03  0.00000000000E+00 0. -1.
<scales pt_clust_3="14000.00000" pt_clust_4="102.14137" pt_clust_5="57.89874" pt_clust_6="61.12984"></scales>
<clustering>
<clus scale="   57.899">  1  5  2 -1</clus>
<clus scale="   61.130">  2  6  1 -1</clus>
<clus scale="  102.141">  1  4  2 -1</clus>
<clus scale="   57.899">  1  3  2 -1</clus>
</clustering>
</event>
<event>
 6    0  0.6207838E+002  0.1028278E+03  0.7546771E-02  0.1274459E+00
         21   -1    0    0  503  501  0.00000000000E+00  0.00000000000E+00  0.19070847303E+04  0.19070847303E+04  0.00000000000E+00 0.  1.
         21   -1    0    0  505  502 -0.00000000000E+00 -0.00000000000E+00 -0.18596628646E+03  0.18596628646E+03  0.00000000000E+00 0. -1.
         21    1    1    2  503  502  0.15861004277E+02 -0.32500159941E+02  0.10000465016E+04  0.10007001734E+04  0.00000000000E+00 0.  1.
         21    1    1    2  504  501 -0.59055455850E+02  0.34135529722E+02  0.60860283797E+03  0.61241341889E+03  0.00000000000E+00 0.  1.
         21    1    1    2  505  506  0.10111187588E+03  0.28132769975E+02 -0.16465798978E+03  0.19526217706E+03  0.00000000000E+00 0. -1.
         21    1    1    2  506  504 -0.57917424312E+02 -0.29768139756E+02  0.27712709408E+03  0.28467524735E+03  0.00000000000E+00 0.  1.
<scales pt_clust_3="36.16396" pt_clust_4="49.90342" pt_clust_5="14000.00000" pt_clust_6="102.82777"></scales>
<clustering>
<clus scale="   36.164">  1  3  2 -1</clus>
<clus scale="   49.903">  1  4  2 -1</clus>
<clus scale="  102.828">  1  6  2 -1</clus>
<clus scale="   36.164">  1  3  2 -1</clus>
</clustering>
</event>
<event>
 6    0  0.6207838E+002  0.7909223E+02  0.7546771E-02  0.1331647E+00
         21   -1    0    0  503  501  0.00000000000E+00  0.00000000000E+00  0.63281274765E+03  0.63281274765E+03  0.00000000000E+00 0.  1.
         21   -1    0    0  504  502 -0.00000000000E+00 -0.00000000000E+00 -0.18507643550E+03  0.18507643550E+03  0.00000000000E+00 0. -1.
         21    1    1    2  503  502  0.58670644199E+01 -0.68039074359E+02  0.13578970583E+03  0.15199533642E+03  0.00000000000E+00 0. -1.
         21    1    1    2  504  506  0.74941436686E+02  0.29599378699E+02 -0.15907369697E+03  0.17831652537E+03  0.00000000000E+00 0. -1.
         21    1    1    2  505  501 -0.40904336538E+02 -0.14277174597E+02  0.79732480115E+02  0.90742883177E+02  0.00000000000E+00 0.  1.
         21    1    1    2  506  505 -0.39904164568E+02  0.52716870257E+02  0.39128782318E+03  0.39683443818E+03  0.00000000000E+00 0.  1.
<scales pt_clust_3="71.95664" pt_clust_4="14000.00000" pt_clust_5="43.32439" pt_clust_6="79.09223"></scales>
<clustering>
<clus scale="   43.324">  1  5  2 -1</clus>
<clus scale="   71.957">  1  3  2 -1</clus>
<clus scale="   79.092">  1  6  2 -1</clus>
<clus scale="   43.324">  1  3  2 -1</clus>
</clustering>
</event>
<event>
 6    0  0.6207838E+002  0.1146401E+03  0.7546771E-02  0.1252211E+00
         21   -1    0    0  505  501  0.00000000000E+00  0.00000000000E+00  0.12662814001E+03  0.12662814001E+03  0.00000000000E+00 0. -1.
         21   -1    0    0  503  502 -0.00000000000E+00 -0.00000000000E+00 -0.49124736265E+03  0.49124736265E+03  0.00000000000E+00 0. -1.
         21    1    1    2  503  501  0.45650345522E+02  0.19406641927E+02  0.44401955967E+01  0.49802481204E+02  0.00000000000E+00 0. -1.
         21    1    1    2  504  506 -0.45422274933E+02 -0.51826976926E+02  0.30103520261E+01  0.68980292959E+02  0.00000000000E+00 0. -1.
         21    1    1    2  505  504 -0.18811678457E+02 -0.70274714897E+02  0.33657838420E+02  0.80157750014E+02  0.00000000000E+00 0. -1.
         21    1    1    2  506  502  0.18583607867E+02  0.10269504990E+03 -0.40572760868E+03  0.41893497848E+03  0.00000000000E+00 0. -1.
<scales pt_clust_3="49.60415" pt_clust_4="42.00707" pt_clust_5="42.00707" pt_clust_6="106.20538"></scales>
<clustering>
<clus scale="   42.007">  4  5 -1 -1</clus>
<clus scale="   49.604">  1  3  2 -1</clus>
<clus scale="  106.205">  2  6  1 -1</clus>
<clus scale="   49.604">  1  3  2 -1</clus>
</clustering>
</event>
<event>
 6    0  0.6207838E+002  0.1297348E+03  0.7546771E-02  0.1227850E+00
         21   -1    0    0  504  501  0.00000000000E+00  0.00000000000E+00  0.18026428024E+03  0.18026428024E+03  0.00000000000E+00 0. -1.
         21   -1    0    0  506  502 -0.00000000000E+00 -0.00000000000E+00 -0.33822843465E+03  0.33822843465E+03  0.00000000000E+00 0. -1.
         21    1    1    2  503  505 -0.14880207435E+02  0.70310875331E+02 -0.57953736060E+01  0.72101498724E+02  0.00000000000E+00 0. -1.
         21    1    1    2  504  502 -0.39159984517E+02 -0.17553622419E+02 -0.21448481661E+03  0.21873584664E+03  0.00000000000E+00 0. -1.
         21    1    1    2  505  501  0.40261334636E+02 -0.11483809919E+03  0.96635772965E+02  0.15539381168E+03  0.00000000000E+00 0. -1.
         21    1    1    2  506  503  0.13778857316E+02  0.62080846279E+02 -0.34319737157E+02  0.72261557845E+02  0.00000000000E+00 0. -1.
<scales pt_clust_3="38.81495" pt_clust_4="42.91426" pt_clust_5="122.99765" pt_clust_6="38.81495"></scales>
<clustering>
<clus scale="   38.815">  3  6 -1 -1</clus>
<clus scale="   42.914">  2  4  1 -1</clus>
<clus scale="  122.998">  1  5  2 -1</clus>
<clus scale="  122.998">  1  3  2 -1</clus>
</clustering>
</event>
<event>
 6    0  0.6207838E+002  0.1126400E+03  0.7546771E-02  0.1255758E+00
         21   -1    0    0  505  501  0.00000000000E+00  0.00000000000E+00  0.11609707157E+03  0.11609707157E+03  0.00000000000E+00 0.  1.
         21   -1    0    0  504  502 -0.00000000000E+00 -0.00000000000E+00 -0.20469971916E+03  0.20469971916E+03  0.00000000000E+00 0.  1.
         21    1    1    2  503  506 -0.58625814433E+02 -0.78311979688E+01  0.43061878033E+00  0.59148112498E+02  0.00000000000E+00 0.  1.
         21    1    1    2  504  503 -0.57372273883E+01  0.31070737089E+02 -0.95641903811E+02  0.10072576754E+03  0.00000000000E+00 0.  1.
         21    1    1    2  505  502  0.10144562679E+03  0.20297210702E+02  0.74927787692E+01  0.10372720806E+03  0.00000000000E+00 0.  1.
         21    1    1    2  506  501 -0.37082584973E+02 -0.43536749823E+02 -0.88414133045E+00  0.57195702630E+02  0.00000000000E+00 0.  1.
<scales pt_clust_3="38.79879" pt_clust_4="31.59599" pt_clust_5="104.64632" pt_clust_6="38.79879"></scales>
<clustering>
<clus scale="   31.596">  2  4  1 -1</clus>
<clus scale="   38.799">  3  6 -1 -1</clus>
<clus scale="  104.646">  1  5  2 -1</clus>
<clus scale="  104.646">  1  3  2 -1</clus>
</clustering>
</event>
<event>
 6    0  0.6207838E+002  0.1791969E+03  0.7546771E-02  0.1168583E+00
         21   -1    0    0  506  501  0.00000000000E+00  0.00000000000E+00  0.23569343326E+03  0.23569343326E+03  0.00000000000E+00 0. -1.
         21   -1    0    0  501  502 -0.00000000000E+00 -0.00000000000E+00 -0.37070971898E+03  0.37070971898E+03  0.00000000000E+00 0.  1.
         21    1    1    2  503  502 -0.91639271189E+02  0.12930082396E+03 -0.31487680281E+03  0.35251079423E+03  0.00000000000E+00 0.  1.
         21    1    1    2  504  505  0.50683118322E+02 -0.50427381222E+02  0.10292041045E+03  0.12531683904E+03  0.00000000000E+00 0. -1.
         21    1    1    2  505  503  0.36155244607E+02 -0.32115908361E+02  0.14627717655E+02  0.50523295679E+02  0.00000000000E+00 0.  1.
         21    1    1    2  506  504  0.48009082595E+01 -0.46757534381E+02  0.62312388983E+02  0.78052223301E+02  0.00000000000E+00 0. -1.
<scales pt_clust_3="158.48173" pt_clust_4="47.01784" pt_clust_5="47.01784" pt_clust_6="31.75376"></scales>
<clustering>
<clus scale="   31.754">  4  6 -1 -1</clus>
<clus scale="   47.018">  4  5 -1 -1</clus>
<clus scale="  158.482">  2  3  1 -1</clus>
<clus scale="  179.197">  1  3  2 -1</clus>
</clustering>
</event>
<event>
 6    0  0.6207838E+002  0.2490120E+03  0.7546771E-02  0.1113931E+00
         21   -1    0    0  506  501  0.00000000000E+00  0.00000000000E+00  0.13715754256E+04  0.13715754256E+04  0.00000000000E+00 0.  1.
         21   -1    0    0  504  502 -0.00000000000E+00 -0.00000000000E+00 -0.52255332071E+03  0.52255332071E+03  0.00000000000E+00 0.  1.
         21    1    1    2  503  501 -0.14372988479E+03  0.17204347891E+03  0.68070702099E+03  0.71667237065E+03  0.00000000000E+00 0.  1.
         21    1    1    2  504  505 -0.52546237921E+02 -0.45777072842E+02 -0.43279225718E+03  0.43836718101E+03  0.00000000000E+00 0.  1.
         21    1    1    2  505  503 -0.75245609767E+02  0.37569459261E+02  0.36846437204E+02  0.91820618562E+02  0.00000000000E+00 0.  1.
         21    1    1    2  506  502  0.27152173247E+03 -0.16383586533E+03  0.56426090389E+03  0.64726857612E+03  0.00000000000E+00 0.  1.
<scales pt_clust_3="249.01199" pt_clust_4="69.68965" pt_clust_5="94.71299" pt_clust_6="14000.00000"></scales>
<clustering>
<clus scale="   69.690">  2  4  1 -1</clus>
<clus scale="   94.713">  2  5  1 -1</clus>
<clus scale="  249.012">  1  3  2 -1</clus>
<clus scale="  249.012">  1  3  2 -1</clus>
</clustering>
</event>
<event>
 6    0  0.6207838E+002  0.7138312E+02  0.7546771E-02  0.1355452E+00
         21   -1    0    0  503  501  0.00000000000E+00  0.00000000000E+00  0.30772157553E+03  0.30772157553E+03  0.00000000000E+00 0. -1.
         21   -1    0    0  505  502 -0.00000000000E+00 -0.00000000000E+00 -0.36098638471E+03  0.36098638471E+03  0.00000000000E+00 0. -1.
         21    1    1    2  503  504  0.38481473785E+02 -0.50491767192E+00  0.10040919606E+03  0.10753178795E+03  0.00000000000E+00 0. -1.
         21    1    1    2  504  502  0.41770164529E+02 -0.84045652461E+02  0.95803256878E+02  0.13411443759E+03  0.00000000000E+00 0. -1.
         21    1    1    2  505  506 -0.34664349763E+01  0.70789130211E+02 -0.31642437309E+03  0.32426455405E+03  0.00000000000E+00 0. -1.
         21    1    1    2  506  501 -0.76785203337E+02  0.13761439922E+02  0.66947110978E+02  0.10279718065E+03  0.00000000000E+00 0. -1.
<scales pt_clust_3="38.48479" pt_clust_4="71.38312" pt_clust_5="14000.00000" pt_clust_6="62.24871"></scales>
<clustering>
<clus scale="   38.485">  1  3  2 -1</clus>
<clus scale="   62.249">  1  6  2 -1</clus>
<clus scale="   71.383">  1  4  2 -1</clus>
<clus scale="   38.485">  1  3  2 -1</clus>
</clustering>
</event>
<event>
 6    0  0.6207838E+002  0.1375029E+03  0.7546771E-02  0.1216729E+00
         21   -1    0    0  504  501  0.00000000000E+00  0.00000000000E+00  0.65343578801E+03  0.65343578801E+03  0.00000000000E+00 0.  1.
         21   -1    0    0  506  502 -0.00000000000E+00 -0.00000000000E+00 -0.20138317472E+03  0.20138317472E+03  0.00000000000E+00 0.  1.
         21    1    1    2  503  502 -0.36992026524E+02 -0.97871653315E+02 -0.55601894786E+01  0.10477684027E+03  0.00000000000E+00 0. -1.
         21    1    1    2  504  503 -0.26881228263E+02  0.16422041126E+02  0.12837752208E+03  0.13218574826E+03  0.00000000000E+00 0. -1.
         21    1    1    2  505  501  0.15320759948E+03 -0.54881718927E+02  0.40621302297E+03  0.43759980764E+03  0.00000000000E+00 0.  1.
         21    1    1    2  506  505 -0.89334344696E+02  0.13633133112E+03 -0.76977742282E+02  0.18025656657E+03  0.00000000000E+00 0.  1.
<scales pt_clust_3="104.11514" pt_clust_4="31.50054" pt_clust_5="137.50288" pt_clust_6="14000.00000"></scales>
<clustering>
<clus scale="   31.501">  1  4  2 -1</clus>
<clus scale="  104.115">  2  3  1 -1</clus>
<clus scale="  137.503">  1  5  2 -1</clus>
<clus scale="   31.501">  1  3  2 -1</clus>
</clustering>
</event>
<event>
 6    0  0.6207838E+002  0.2118905E+03  0.7546771E-02  0.1140078E+00
         21   -1    0    0  504  501  0.00000000000E+00  0.00000000000E+00  0.13052312869E+04  0.13052312869E+04  0.00000000000E+00 0.  1.
         21   -1    0    0  505  502 -0.00000000000E+00 -0.00000000000E+00 -0.42304505812E+02  0.42304505812E+02  0.00000000000E+00 0.  1.
         21    1    1    2  503  506  0.21653712767E+02  0.74469720918E+02  0.40329949019E+03  0.41068856984E+03  0.00000000000E+00 0.  1.
         21    1    1    2  504  503 -0.14320335425E+02  0.36590309276E+02  0.35950813708E+03  0.36164903341E+03  0.00000000000E+00 0.  1.
         21    1    1    2  505  501 -0.25456982616E+02 -0.18808161584E+03  0.25672469389E+03  0.31926528254E+03  0.00000000000E+00 0.  1.
         21    1    1    2  506  502  0.18123605274E+02  0.77021585646E+02  0.24339445996E+03  0.25593290695E+03  0.00000000000E+00 0.  1.
<scales pt_clust_3="62.66359" pt_clust_4="33.70168" pt_clust_5="189.79661" pt_clust_6="62.66359"></scales>
<clustering>
<clus scale="   33.702">  3  4 -1 -1</clus>
<clus scale="   62.664">  3  6 -1 -1</clus>
<clus scale="  189.797">  2  5  1 -1</clus>
<clus scale="  211.891">  1  3  2 -1</clus>
</clustering>
</event>
<event>
 6    0  0.6207838E+002  0.7733053E+02  0.7546771E-02  0.1336802E+00
         21   -1    0    0  506  501  0.00000000000E+00  0.00000000000E+00  0.22204576124E+03  0.22204576124E+03  0.00000000000E+00 0. -1.
         21   -1    0    0  505  502 -0.00000000000E+00 -0.00000000000E+00 -0.42590529235E+03  0.42590529235E+03  0.00000000000E+00 0. -1.
         21    1    1    2  503  502 -0.20977277841E+02  0.21593516292E+02 -0.49960959162E+02  0.58330297204E+02  0.00000000000E+00 0. -1.
         21    1    1    2  504  501  0.77174724778E+02 -0.26149522936E+01  0.18893640147E+03  0.20410717753E+03  0.00000000000E+00 0. -1.
         21    1    1    2  505  504  0.27281676187E+02  0.41267703062E+02 -0.34146172125E+02  0.60110516903E+02  0.00000000000E+00 0.  1.
         21    1    1    2  506  503 -0.83479123123E+02 -0.60246267060E+02 -0.30868880129E+03  0.32540306196E+03  0.00000000000E+00 0. -1.
<scales pt_clust_3="30.10525" pt_clust_4="77.33053" pt_clust_5="50.42532" pt_clust_6="14000.00000"></scales>
<clustering>
<clus scale="   30.105">  2  3  1 -1</clus>
<clus scale="   50.425">  2  5  1 -1</clus>
<clus scale="   77.331">  1  4  2 -1</clus>
<clus scale="   77.331">  1  3  2 -1</clus>
</clustering>
</event>
<event>
 6    0  0.6207838E+002  0.8295310E+02  0.7546771E-02  0.1320874E+00
         21   -1    0    0  505  501  0.00000000000E+00  0.00000000000E+00  0.15780136574E+04  0.15780136574E+04  0.00000000000E+00 0. -1.
         21   -1    0    0  504  502 -0.00000000000E+00 -0.00000000000E+00 -0.11640476804E+04  0.11640476804E+04  0.00000000000E+00 0. -1.
         21    1    1    2  503  501  0.10698060533E+03 -0.91763538311E+02  0.12339157285E+04  0.12419393793E+04  0.00000000000E+00 0. -1.
         21    1    1    2  504  503 -0.62910662737E+02  0.53962289017E+02 -0.11549887261E+04  0.11579588238E+04  0.00000000000E+00 0. -1.
         21    1    1    2  505  506 -0.64648007203E+01  0.30455293884E+02  0.14749281074E+03  0.15074298589E+03  0.00000000000E+00 0.  1.
         21    1    1    2  506  502 -0.37605141874E+02  0.73459554096E+01  0.18754616389E+03  0.19142014874E+03  0.00000000000E+00 0.  1.
<scales pt_clust_3="82.95310" pt_clust_4="14000.00000" pt_clust_5="31.13388" pt_clust_6="40.11193"></scales>
<clustering>
<clus scale="   31.134">  1  5  2 -1</clus>
<clus scale="   40.112">  1  6  2 -1</clus>
<clus scale="   82.953">  1  3  2 -1</clus>
<clus scale="   31.134">  1  3  2 -1</clus>
</clustering>
</event>
<event>
 6    0  0.6207838E+002  0.8537253E+02  0.7546771E-02  0.1314461E+00
         21   -1    0    0  504  501  0.00000000000E+00  0.00000000000E+00  0.21573346449E+04  0.21573346449E+04  0.00000000000E+00 0.  1.
         21   -1    0    0  503  502 -0.00000000000E+00 -0.00000000000E+00 -0.20606426084E+02  0.20606426084E+02  0.00000000000E+00 0.  1.
         21    1    1    2  503  501 -0.11730595201E+03  0.16711865923E+02  0.96973637353E+03  0.97694862044E+03  0.00000000000E+00 0.  1.
         21    1    1    2  504  505  0.19206582368E+02 -0.28186746049E+02  0.19978757375E+03  0.20267821808E+03  0.00000000000E+00 0.  1.
         21    1    1    2  505  506  0.59003345276E+02 -0.98388136862E+01  0.94789321336E+03  0.94977878526E+03  0.00000000000E+00 0. -1.
         21    1    1    2  506  502  0.39096024368E+02  0.21313693813E+02  0.19311058156E+02  0.48535447174E+02  0.00000000000E+00 0.  1.
<scales pt_clust_3="85.37253" pt_clust_4="34.10844" pt_clust_5="14000.00000" pt_clust_6="44.59069"></scales>
<clustering>
<clus scale="   34.108">  1  4  2 -1</clus>
<clus scale="   44.591">  2  6  1 -1</clus>
<clus scale="   85.373">  2  3  1 -1</clus>
<clus scale="   34.108">  1  3  2 -1</clus>
</clustering>
</event>
<event>
 6    0  0.6207838E+002  0.1611604E+03  0.7546771E-02  0.1187393E+00
         21   -1    0    0  504  501  0.00000000000E+00  0.00000000000E+00  0.32465728772E+03  0.32465728772E+03  0.00000000000E+00 0. -1.
         21   -1    0    0  503  502 -0.00000000000E+00 -0.00000000000E+00 -0.20742156954E+03  0.20742156954E+03  0.00000000000E+00 0. -1.
         21    1    1    2  503  501 -0.23539984083E+02  0.19978294702E+02 -0.57910322475E+01  0.31413359647E+02  0.00000000000E+00 0.  1.
         21    1    1    2  504  506 -0.82144446340E+02 -0.14761668530E+03  0.23255107947E+03  0.28743416709E+03  0.00000000000E+00 0. -1.
         21    1    1    2  505  502  0.46882490848E+01  0.33563239597E+02 -0.55465865872E+02  0.64999484680E+02  0.00000000000E+00 0. -1.
         21    1    1    2  506  505  0.10099618134E+03  0.94075151006E+02 -0.54058463170E+02  0.14823184584E+03  0.00000000000E+00 0. -1.
<scales pt_clust_3="30.87496" pt_clust_4="14000.00000" pt_clust_5="40.03575" pt_clust_6="161.16044"></scales>
<clustering>
<clus scale="   30.875">  2  3  1 -1</clus>
<clus scale="   40.036">  2  5  1 -1</clus>
<clus scale="  161.160">  2  6  1 -1</clus>
<clus scale="  161.160">  1  3  2 -1</clus>
</clustering>
</event>
<event>
 6    0  0.6207838E+002  0.1434256E+03  0.7546771E-02  0.1208793E+00
         21   -1    0    0  503  501  0.00000000000E+00  0.00000000000E+00  0.34864766624E+03  0.34864766624E+03  0.00000000000E+00 0.  1.
         21   -1    0    0  506  502 -0.00000000000E+00 -0.00000000000E+00 -0.16992090281E+03  0.16992090281E+03  0.00000000000E+00 0. -1.
         21    1    1    2  503  505  0.14037694311E+02 -0.12180657848E+03  0.20817446142E+03  0.24159988786E+03  0.00000000000E+00 0.  1.
         21    1    1    2  504  501 -0.13533856923E+02  0.11623158868E+03  0.61677948061E+02  0.13227666751E+03  0.00000000000E+00 0. -1.
         21    1    1    2  505  502  0.24646451783E+01 -0.45556941744E+02 -0.80279742560E+02  0.92338217886E+02  0.00000000000E+00 0. -1.
         21    1    1    2  506  504 -0.29684825663E+01  0.51131931546E+02 -0.10845903495E+02  0.52353795803E+02  0.00000000000E+00 0. -1.
<scales pt_clust_3="131.71661" pt_clust_4="37.55134" pt_clust_5="45.62356" pt_clust_6="37.55134"></scales>
<clustering>
<clus scale="   37.551">  4  6 -1 -1</clus>
<clus scale="   45.624">  2  5  1 -1</clus>
<clus scale="  131.717">  1  3  2 -1</clus>
<clus scale="  131.717">  1  3  2 -1</clus>
</clustering>
</event>
<event>
 6    0  0.6207838E+002  0.7897093E+02  0.7546771E-02  0.1331997E+00
         21   -1    0    0  505  501  0.00000000000E+00  0.00000000000E+00  0.22253959197E+03  0.22253959197E+03  0.00000000000E+00 0.  1.
         21   -1    0    0  504  502 -0.00000000000E+00 -0.00000000000E+00 -0.17903406009E+03  0.17903406009E+03  0.00000000000E+00 0.  1.
         21    1    1    2  503  506 -0.21451466721E+02 -0.94361073513E+02 -0.10819455618E+02  0.97371650078E+02  0.00000000000E+00 0.  1.
         21    1    1    2  504  501  0.63762400426E+01  0.87186944824E+02  0.12810085843E+02  0.88353370531E+02  0.00000000000E+00 0.  1.
         21    1    1    2  505  503  0.38387655810E+02 -0.58599800372E+02  0.10183831280E+03  0.12360659641E+03  0.00000000000E+00 0.  1.
         21    1    1    2  506  502 -0.23312429132E+02  0.65773929061E+02 -0.60323411149E+02  0.92242035043E+02  0.00000000000E+00 0.  1.
<scales pt_clust_3="78.97093" pt_clust_4="14000.00000" pt_clust_5="62.89707" pt_clust_6="69.78309"></scales>
<clustering>
<clus scale="   69.783">  2  6  1 -1</clus>
<clus scale="   62.897">  1  5  2 -1</clus>
<clus scale="   78.971">  2  3  1 -1</clus>
<clus scale="   62.897">  1  3  2 -1</clus>
</clustering>
</event>
<event>
 6    0  0.6207838E+002  0.1184267E+03  0.7546771E-02  0.1245715E+00
         21   -1    0    0  504  501  0.00000000000E+00  0.00000000000E+00  0.71144872180E+03  0.71144872180E+03  0.00000000000E+00 0.  1.
         21   -1    0    0  505  502 -0.00000000000E+00 -0.00000000000E+00 -0.31062951073E+03  0.31062951073E+03  0.00000000000E+00 0.  1.
         21    1    1    2  503  506 -0.60546182704E+02  0.12697534153E+02 -0.68986450394E+02  0.92661739416E+02  0.00000000000E+00 0.  1.
         21    1    1    2  504  502  0.27909726144E+02  0.32555911218E+02  0.66536666501E+03  0.66674705780E+03  0.00000000000E+00 0.  1.
         21    1    1    2  505  503 -0.39174728893E+02  0.40862221856E+02 -0.10190920099E+03  0.11657557980E+03  0.00000000000E+00 0.  1.
         21    1    1    2  506  501  0.71811185453E+02 -0.86115667227E+02 -0.93651802559E+02  0.14609385552E+03  0.00000000000E+00 0.  1.
<scales pt_clust_3="40.15369" pt_clust_4="42.88170" pt_clust_5="40.15369" pt_clust_6="110.73780"></scales>
<clustering>
<clus scale="   40.154">  3  5 -1 -1</clus>
<clus scale="   42.882">  1  4  2 -1</clus>
<clus scale="  110.738">  1  6  2 -1</clus>
<clus scale="   42.882">  1  3  2 -1</clus>
</clustering>
</event>
<event>
 6    0  0.6207838E+002  0.1473173E+03  0.7546771E-02  0.1203809E+00
         21   -1    0    0  506  501  0.00000000000E+00  0.00000000000E+00  0.10898393685E+04  0.10898393685E+04  0.00000000000E+00 0. -1.
         21   -1    0    0  504  502 -0.00000000000E+00 -0.00000000000E+00 -0.68528533403E+02  0.68528533403E+02  0.00000000000E+00 0. -1.
         21    1    1    2  503  501  0.14073255395E+03 -0.56761097559E+02  0.45679695789E+03  0.48134284525E+03  0.00000000000E+00 0. -1.
         21    1    1    2  504  505 -0.27062107590E+02  0.16581704171E+02  0.15137411618E+02  0.35163216731E+02  0.00000000000E+00 0. -1.
         21    1    1    2  505  503 -0.15486892033E+03 -0.63862302777E+02  0.48420747614E+03  0.51236672037E+03  0.00000000000E+00 0. -1.
         21    1    1    2  506  502  0.41198473972E+02  0.10404169617E+03  0.65168989441E+02  0.12949511953E+03  0.00000000000E+00 0. -1.
<scales pt_clust_3="14000.00000" pt_clust_4="31.73816" pt_clust_5="147.31732" pt_clust_6="116.17737"></scales>
<clustering>
<clus scale="   31.738">  2  4  1 -1</clus>
<clus scale="  116.177">  2  6  1 -1</clus>
<clus scale="  147.317">  2  5  1 -1</clus>
<clus scale="  147.317">  1  3  2 -1</clus>
</clustering>
</event>
<event>
 6    0  0.6207838E+002  0.2508545E+03  0.7546771E-02  0.1112766E+00
         21   -1    0    0  503  501  0.00000000000E+00  0.00000000000E+00  0.84442477625E+03  0.84442477625E+03  0.00000000000E+00 0.  1.
         21   -1    0    0  505  502 -0.00000000000E+00 -0.00000000000E+00 -0.84659929408E+03  0.84659929408E+03  0.00000000000E+00 0.  1.
         21    1    1    2  503  506 -0.14040683856E+02 -0.41815126514E+02  0.61892053327E+03  0.62049034812E+03  0.00000000000E+00 0.  1.
         21    1    1    2  504  501  0.56397873465E+01 -0.21770276773E+03  0.11597904383E+03  0.24673354228E+03  0.00000000000E+00 0. -1.
         21    1    1    2  505  504 -0.77364279355E+02  0.12362545899E+02 -0.62333040813E+02  0.10011729240E+03  0.00000000000E+00 0.  1.
         21    1    1    2  506  502  0.85765175864E+02  0.24715534834E+03 -0.67474105410E+03  0.72368288753E+03  0.00000000000E+00 0.  1.
<scales pt_clust_3="44.10947" pt_clust_4="250.85447" pt_clust_5="79.04137" pt_clust_6="14000.00000"></scales>
<clustering>
<clus scale="   44.109">  1  3  2 -1</clus>
<clus scale="   79.041">  2  5  1 -1</clus>
<clus scale="  250.854">  1  4  2 -1</clus>
<clus scale="   44.109">  1  3  2 -1</clus>
</clustering>
</event>
<event>
 6    0  0.6207838E+002  0.1695107E+03  0.7546771E-02  0.1178359E+00
         21   -1    0    0  506  501  0.00000000000E+00  0.00000000000E+00  0.11091345987E+04  0.11091345987E+04  0.00000000000E+00 0.  1.
         21   -1    0    0  503  502 -0.00000000000E+00 -0.00000000000E+00 -0.96043739011E+02  0.96043739011E+02  0.00000000000E+00 0. -1.
         21    1    1    2  503  504 -0.48127979581E+02 -0.14867619872E+03  0.96409070237E+01  0.15656903133E+03  0.00000000000E+00 0. -1.
         21    1    1    2  504  501 -0.39918272569E+02 -0.60639955294E+02  0.25017589240E+03  0.26049692858E+03  0.00000000000E+00 0.  1.
         21    1    1    2  505  502  0.60165812452E+02  0.11754885164E+03  0.50435186710E+03  0.52135253270E+03  0.00000000000E+00 0.  1.
         21    1    1    2  506  505  0.27880439698E+02  0.91767302367E+02  0.24892219313E+03  0.26675984505E+03  0.00000000000E+00 0.  1.
<scales pt_clust_3="163.09491" pt_clust_4="72.59940" pt_clust_5="39.36828" pt_clust_6="39.36828"></scales>
<clustering>
<clus scale="   39.368">  5  6 -1 -1</clus>
<clus scale="   72.599">  1  4  2 -1</clus>
<clus scale="  163.095">  2  3  1 -1</clus>
<clus scale="   72.599">  1  3  2 -1</clus>
</clustering>
</event>
<event>
 6    0  0.6207838E+002  0.1059960E+03  0.7546771E-02  0.1268170E+00
         21   -1    0    0  505  501  0.00000000000E+00  0.00000000000E+00  0.52040847430E+03  0.52040847430E+03  0.00000000000E+00 0.  1.
         21   -1    0    0  503  502 -0.00000000000E+00 -0.00000000000E+00 -0.65943404614E+02  0.65943404614E+02  0.00000000000E+00 0.  1.
         21    1    1    2  503  504 -0.47262559348E+02 -0.39877578458E+02  0.12787808451E+02  0.63146645396E+02  0.00000000000E+00 0.  1.
         21    1    1    2  504  501 -0.85947783490E+02 -0.30635082067E+02  0.21349316423E+03  0.23217420381E+03  0.00000000000E+00 0.  1.
         21    1    1    2  505  506  0.13532953890E+03  0.35792655455E+02  0.20829382051E+03  0.25096118016E+03  0.00000000000E+00 0.  1.
         21    1    1    2  506  502 -0.21191960647E+01  0.34720005070E+02  0.19890276492E+02  0.40069849551E+02  0.00000000000E+00 0.  1.
<scales pt_clust_3="53.96145" pt_clust_4="14000.00000" pt_clust_5="105.99599" pt_clust_6="34.78462"></scales>
<clustering>
<clus scale="   34.785">  2  6  1 -1</clus>
<clus scale="   53.961">  2  3  1 -1</clus>
<clus scale="  105.996">  2  5  1 -1</clus>
<clus scale="  105.996">  1  3  2 -1</clus>
</clustering>
</event>
<event>
 6    0  0.6207838E+002  0.1357691E+03  0.7546771E-02  0.1219138E+00
         21   -1    0    0  506  501  0.00000000000E+00  0.00000000000E+00  0.10599773177E+03  0.10599773177E+03  0.00000000000E+00 0.  1.
         21   -1    0    0  504  502 -0.00000000000E+00 -0.00000000000E+00 -0.49619853041E+03  0.49619853041E+03  0.00000000000E+00 0.  1.
         21    1    1    2  503  505  0.48104639376E+02 -0.56529313788E+02  0.16672079686E+02  0.76076132183E+02  0.00000000000E+00 0.  1.
         21    1    1    2  504  503  0.49956702292E+02 -0.48647903468E+02 -0.16270797133E+02  0.71603278243E+02  0.00000000000E+00 0.  1.
         21    1    1    2  505  501  0.16831791574E+02  0.42878588586E+02 -0.37878060075E+01  0.46219368679E+02  0.00000000000E+00 0. -1.
         21    1    1    2  506  502 -0.11489313324E+03  0.62298628671E+02 -0.38681427518E+03  0.40829748308E+03  0.00000000000E+00 0.  1.
<scales pt_clust_3="32.59250" pt_clust_4="32.59250" pt_clust_5="46.06390" pt_clust_6="131.53885"></scales>
<clustering>
<clus scale="   32.592">  3  4 -1 -1</clus>
<clus scale="   46.064">  1  5  2 -1</clus>
<clus scale="  131.539">  2  6  1 -1</clus>
<clus scale="   46.064">  1  3  2 -1</clus>
</clustering>
</event>
<event>
 6    0  0.6207838E+002  0.1466191E+03  0.7546771E-02  0.1204690E+00
         21   -1    0    0  505  501  0.00000000000E+00  0.00000000000E+00  0.60701727944E+02  0.60701727944E+02  0.00000000000E+00 0. -1.
         21   -1    0    0  506  502 -0.00000000000E+00 -0.00000000000E+00 -0.10656813296E+04  0.10656813296E+04  0.00000000000E+00 0.  1.
         21    1    1    2  503  504 -0.99649324247E+02  0.21747230900E+02 -0.31646398778E+03  0.33249418858E+03  0.00000000000E+00 0.  1.
         21    1    1    2  504  501 -0.42954135673E+02  0.46422163003E+02 -0.81796492200E+02  0.10339604018E+03  0.00000000000E+00 0. -1.
         21    1    1    2  505  502  0.63942921707E+02 -0.10064392711E+03 -0.53369624149E+02  0.13063772075E+03  0.00000000000E+00 0. -1.
         21    1    1    2  506  503  0.78660538213E+02  0.32474533209E+02 -0.55334949757E+03  0.55985510807E+03  0.00000000000E+00 0.  1.
<scales pt_clust_3="63.02660" pt_clust_4="63.02660" pt_clust_5="122.84586" pt_clust_6="85.10039"></scales>
<clustering>
<clus scale="   63.027">  3  4 -1 -1</clus>
<clus scale="   85.100">  2  6  1 -1</clus>
<clus scale="  122.846">  1  5  2 -1</clus>
<clus scale="  122.846">  1  3  2 -1</clus>
</clustering>
</event>
<event>
 6    0  0.6207838E+002  0.1326014E+03  0.7546771E-02  0.1223646E+00
         21   -1    0    0  505  501  0.00000000000E+00  0.00000000000E+00  0.20824272858E+04  0.20824272858E+04  0.00000000000E+00 0. -1.
         21   -1    0    0  503  502 -0.00000000000E+00 -0.00000000000E+00 -0.25913695797E+02  0.25913695797E+02  0.00000000000E+00 0.  1.
         21    1    1    2  503  501  0.13061449722E+02 -0.37976665394E+02  0.10954170799E+04  0.10961530037E+04  0.00000000000E+00 0. -1.
         21    1    1    2  504  506  0.41332759404E+01  0.98531663376E+02  0.37975619213E+03  0.39235231377E+03  0.00000000000E+00 0.  1.
         21    1    1    2  505  504 -0.91877701255E+01  0.54841773505E+02  0.40591346052E+03  0.40970449433E+03  0.00000000000E+00 0.  1.
         21    1    1    2  506  502 -0.80069555364E+01 -0.11539677149E+03  0.17542685745E+03  0.21013116980E+03  0.00000000000E+00 0.  1.
<scales pt_clust_3="40.16004" pt_clust_4="37.31424" pt_clust_5="37.31424" pt_clust_6="122.93807"></scales>
<clustering>
<clus scale="   37.314">  4  5 -1 -1</clus>
<clus scale="   40.160">  1  3  2 -1</clus>
<clus scale="  122.938">  2  6  1 -1</clus>
<clus scale="   40.160">  1  3  2 -1</clus>
</clustering>
</event>
<event>
 6    0  0.6207838E+002  0.1627835E+03  0.7546771E-02  0.1185590E+00
         21   -1    0    0  506  501  0.00000000000E+00  0.00000000000E+00  0.88174319189E+03  0.88174319189E+03  0.00000000000E+00 0.  1.
         21   -1    0    0  505  502 -0.00000000000E+00 -0.00000000000E+00 -0.14964379587E+03  0.14964379587E+03  0.00000000000E+00 0.  1.
         21    1    1    2  503  501 -0.10001804048E+03  0.39479657138E+02  0.22470270476E+03  0.24910551435E+03  0.00000000000E+00 0.  1.
         21    1    1    2  504  502  0.14110660936E+03 -0.65956615011E+02 -0.77682238183E+02  0.17405711821E+03  0.00000000000E+00 0.  1.
         21    1    1    2  505  503 -0.82898903426E+02 -0.55406269319E+00  0.15963696359E+03  0.17987911307E+03  0.00000000000E+00 0. -1.
         21    1    1    2  506  504  0.41810334543E+02  0.27031020566E+02  0.42544196585E+03  0.42834524213E+03  0.00000000000E+00 0. -1.
<scales pt_clust_3="32.10610" pt_clust_4="158.62364" pt_clust_5="32.10610" pt_clust_6="49.78735"></scales>
<clustering>
<clus scale="   32.106">  3  5 -1 -1</clus>
<clus scale="   49.787">  1  6  2 -1</clus>
<clus scale="  158.624">  2  4  1 -1</clus>
<clus scale="   49.787">  1  3  2 -1</clus>
</clustering>
</event>
<event>
 6    0  0.6207838E+002  0.1529949E+03  0.7546771E-02  0.1196840E+00
         21   -1    0    0  506  501  0.00000000000E+00  0.00000000000E+00  0.24524998722E+03  0.24524998722E+03  0.00000000000E+00 0.  1.
         21   -1    0    0  503  502 -0.00000000000E+00 -0.00000000000E+00 -0.34908077270E+03  0.34908077270E+03  0.00000000000E+00 0.  1.
         21    1    1    2  503  505  0.28653363089E+02 -0.17548595682E+02 -0.69231219547E+02  0.76954078428E+02  0.00000000000E+00 0.  1.
         21    1    1    2  504  502 -0.15615412077E+03 -0.54993221566E+02 -0.12292206127E+03  0.20619941076E+03  0.00000000000E+00 0.  1.
         21    1    1    2  505  501  0.10563697730E+03  0.10958787353E+03 -0.54763952649E+02  0.16176453106E+03  0.00000000000E+00 0.  1.
         21    1    1    2  506  504  0.21863780374E+02 -0.37046056283E+02  0.14308644799E+03  0.14941273967E+03  0.00000000000E+00 0.  1.
<scales pt_clust_3="33.60013" pt_clust_4="152.99491" pt_clust_5="14000.00000" pt_clust_6="43.35719"></scales>
<clustering>
<clus scale="   33.600">  2  3  1 -1</clus>
<clus scale="   43.357">  1  6  2 -1</clus>
<clus scale="  152.995">  2  4  1 -1</clus>
<clus scale="   43.357">  1  3  2 -1</clus>
</clustering>
</event>
<event>
 6    0  0.6207838E+002  0.1154892E+03  0.7546771E-02  0.1250730E+00
         21   -1    0    0  503  501  0.00000000000E+00  0.00000000000E+00  0.34497228961E+03  0.34497228961E+03  0.00000000000E+00 0.  1.
         21   -1    0    0  505  502 -0.00000000000E+00 -0.00000000000E+00 -0.39201647527E+03  0.39201647527E+03  0.00000000000E+00 0. -1.
         21    1    1    2  503  504  0.24627751176E+02 -0.30338750148E+02  0.26608807412E+03  0.26894205524E+03  0.00000000000E+00 0.  1.
         21    1    1    2  504  506  0.44435606513E+02 -0.84569655577E+02  0.22208435439E+02  0.98080397507E+02  0.00000000000E+00 0.  1.
         21    1    1    2  505  501 -0.38852205168E+02  0.95177845658E+02 -0.15460426660E+03  0.18566312343E+03  0.00000000000E+00 0. -1.
         21    1    1    2  506  502 -0.30211152520E+02  0.19730560066E+02 -0.18073642862E+03  0.18430318870E+03  0.00000000000E+00 0. -1.
<scales pt_clust_3="38.84245" pt_clust_4="14000.00000" pt_clust_5="115.48924" pt_clust_6="36.08336"></scales>
<clustering>
<clus scale="   36.083">  2  6  1 -1</clus>
<clus scale="   38.842">  1  3  2 -1</clus>
<clus scale="  115.489">  2  5  1 -1</clus>
<clus scale="   38.842">  1  3  2 -1</clus>
</clustering>
</event>
<event>
 6    0  0.6207838E+002  0.1636031E+03  0.7546771E-02  0.1184688E+00
         21   -1    0    0  504  501  0.00000000000E+00  0.00000000000E+00  0.71517696119E+03  0.71517696119E+03  0.00000000000E+00 0. -1.
         21   -1    0    0  506  502 -0.00000000000E+00 -0.00000000000E+00 -0.97084241017E+03  0.97084241017E+03  0.00000000000E+00 0.  1.
         21    1    1    2  503  501 -0.57910054452E+02 -0.62582920880E+01  0.56815272857E+03  0.57113068873E+03  0.00000000000E+00 0. -1.
         21    1    1    2  504  502  0.25717495581E+01 -0.48823084691E+02 -0.17625306871E+03  0.18290831508E+03  0.00000000000E+00 0. -1.
         21    1    1    2  505  503 -0.90661547419E+02 -0.71611760752E+02  0.10430941028E+03  0.15565414717E+03  0.00000000000E+00 0. -1.
         21    1    1    2  506  505  0.14599985231E+03  0.12669313753E+03 -0.75187451911E+03  0.77632622039E+03  0.00000000000E+00 0.  1.
<scales pt_clust_3="58.25237" pt_clust_4="48.89077" pt_clust_5="14000.00000" pt_clust_6="163.60313"></scales>
<clustering>
<clus scale="   48.891">  2  4  1 -1</clus>
<clus scale="   58.252">  1  3  2 -1</clus>
<clus scale="  163.603">  2  6  1 -1</clus>
<clus scale="   58.252">  1  3  2 -1</clus>
</clustering>
</event>
<event>
 6    0  0.6207838E+002  0.7588981E+02  0.7546771E-02  0.1341138E+00
         21   -1    0    0  504  501  0.00000000000E+00  0.00000000000E+00  0.42978195091E+02  0.42978195091E+02  0.00000000000E+00 0. -1.
         21   -1    0    0  503  502 -0.00000000000E+00 -0.00000000000E+00 -0.92684891963E+03  0.92684891963E+03  0.00000000000E+00 0. -1.
         21    1    1    2  503  506  0.44747129919E+02  0.56548337395E+02 -0.25827638378E+03  0.26815426627E+03  0.00000000000E+00 0. -1.
         21    1    1    2  504  505 -0.85483002568E+01 -0.71280851540E+02 -0.20022086231E+02  0.74531316711E+02  0.00000000000E+00 0. -1.
         21    1    1    2  505  502 -0.78826470770E+02  0.15602797279E+02 -0.55591004060E+03  0.56168766500E+03  0.00000000000E+00 0. -1.
         21    1    1    2  506  501  0.42627641107E+02 -0.87028313345E+00 -0.49662213930E+02  0.65453866742E+02  0.00000000000E+00 0.  1.
<scales pt_clust_3="75.88981" pt_clust_4="70.71133" pt_clust_5="14000.00000" pt_clust_6="42.63652"></scales>
<clustering>
<clus scale="   42.637">  1  6  2 -1</clus>
<clus scale="   75.890">  2  3  1 -1</clus>
<clus scale="   70.711">  1  4  2 -1</clus>
<clus scale="   42.637">  1  3  2 -1</clus>
</clustering>
</event>
<event>
 6    0  0.6207838E+002  0.6852277E+02  0.7546771E-02  0.1365190E+00
         21   -1    0    0  504  501  0.00000000000E+00  0.00000000000E+00  0.14955357685E+04  0.14955357685E+04  0.00000000000E+00 0. -1.
         21   -1    0    0  506  502 -0.00000000000E+00 -0.00000000000E+00 -0.19417528690E+03  0.19417528690E+03  0.00000000000E+00 0. -1.
         21    1    1    2  503  501 -0.31913394989E+01 -0.41144979178E+02  0.12810129605E+04  0.12816775331E+04  0.00000000000E+00 0. -1.
         21    1    1    2  504  502  0.51299204199E+02  0.81181756310E+02  0.64717071755E+02  0.11580321794E+03  0.00000000000E+00 0. -1.
         21    1    1    2  505  503 -0.63585550165E+02  0.68740340370E+01  0.11159885887E+03  0.12862612423E+03  0.00000000000E+00 0. -1.
         21    1    1    2  506  505  0.15477685466E+02 -0.46910811169E+02 -0.15596840957E+03  0.16360418006E+03  0.00000000000E+00 0. -1.
<scales pt_clust_3="41.26856" pt_clust_4="68.52277" pt_clust_5="14000.00000" pt_clust_6="50.07766"></scales>
<clustering>
<clus scale="   41.269">  1  3  2 -1</clus>
<clus scale="   50.078">  2  6  1 -1</clus>
<clus scale="   68.523">  2  4  1 -1</clus>
<clus scale="   41.269">  1  3  2 -1</clus>
</clustering>
</event>
<event>
 6    0  0.6207838E+002  0.6401049E+02  0.7546771E-02  0.1381733E+00
         21   -1    0    0  504  501  0.00000000000E+00  0.00000000000E+00  0.85221060159E+03  0.85221060159E+03  0.00000000000E+00 0.  1.
         21   -1    0    0  503  502 -0.00000000000E+00 -0.00000000000E+00 -0.29670510897E+02  0.29670510897E+02  0.00000000000E+00 0.  1.
         21    1    1    2  503  506  0.30631447644E+02 -0.50308557146E+02  0.36408381001E+02  0.69244542847E+02  0.00000000000E+00 0.  1.
         21    1    1    2  504  502 -0.10076734433E+03  0.59900749538E+02  0.42743573042E+03  0.44321942774E+03  0.00000000000E+00 0.  1.
         21    1    1    2  505  501  0.35710873343E+02  0.21583056012E+02  0.18166149772E+03  0.18639204526E+03  0.00000000000E+00 0.  1.
         21    1    1    2  506  505  0.34425023348E+02 -0.31175248404E+02  0.17703448154E+03  0.18302509664E+03  0.00000000000E+00 0.  1.
<scales pt_clust_3="14000.00000" pt_clust_4="64.01049" pt_clust_5="41.72643" pt_clust_6="50.82561"></scales>
<clustering>
<clus scale="   41.726">  1  5  2 -1</clus>
<clus scale="   50.826">  1  6  2 -1</clus>
<clus scale="   64.010">  1  4  2 -1</clus>
<clus scale="   41.726">  1  3  2 -1</clus>
</clustering>
</event>
<event>
 6    0  0.6207838E+002  0.8794232E+02  0.7546771E-02  0.1307913E+00
         21   -1    0    0  506  501  0.00000000000E+00  0.00000000000E+00  0.28615151360E+04  0.28615151360E+04  0.00000000000E+00 0.  1.
         21   -1    0    0  503  502 -0.00000000000E+00 -0.00000000000E+00 -0.26300928042E+03  0.26300928042E+03  0.00000000000E+00 0.  1.
         21    1    1    2  503  504  0.27253412324E+01 -0.39563568422E+02 -0.24419444022E+03  0.24739367022E+03  0.00000000000E+00 0.  1.
         21    1    1    2  504  501 -0.81577994795E+02 -0.43445565272E+02  0.11632904969E+04  0.11669564116E+04  0.00000000000E+00 0.  1.
         21    1    1    2  505  502  0.85838835257E+02  0.39068347283E+02  0.13256756983E+03  0.16269235375E+03  0.00000000000E+00 0.  1.
         21    1    1    2  506  505 -0.69861816946E+01  0.43940786412E+02  0.15468422291E+04  0.15474819809E+04  0.00000000000E+00 0.  1.
<scales pt_clust_3="39.65733" pt_clust_4="87.94232" pt_clust_5="14000.00000" pt_clust_6="43.75878"></scales>
<clustering>
<clus scale="   39.657">  2  3  1 -1</clus>
<clus scale="   43.759">  1  6  2 -1</clus>
<clus scale="   87.942">  1  4  2 -1</clus>
<clus scale="   43.759">  1  3  2 -1</clus>
</clustering>
</event>
<event>
 6    0  0.6207838E+002  0.2427468E+03  0.7546771E-02  0.1117976E+00
         21   -1    0    0  506  501  0.00000000000E+00  0.00000000000E+00  0.18836763443E+03  0.18836763443E+03  0.00000000000E+00 0. -1.
         21   -1    0    0  504  502 -0.00000000000E+00 -0.00000000000E+00 -0.77984824885E+03  0.77984824885E+03  0.00000000000E+00 0. -1.
         21    1    1    2  503  501 -0.12608157330E+03  0.17405907534E+03  0.16370788979E+02  0.21554843438E+03  0.00000000000E+00 0. -1.
         21    1    1    2  504  503 -0.81429265740E+02 -0.57186900480E+02 -0.41707447277E+03  0.42877987679E+03  0.00000000000E+00 0. -1.
         21    1    1    2  505  502  0.12928605822E+03 -0.10267879437E+03 -0.17900770139E+03  0.24351915083E+03  0.00000000000E+00 0. -1.
         21    1    1    2  506  505  0.78224780814E+02 -0.14193380486E+02 -0.11769229239E+02  0.80368421286E+02  0.00000000000E+00 0.  1.
<scales pt_clust_3="217.11409" pt_clust_4="99.50410" pt_clust_5="75.34016" pt_clust_6="75.34016"></scales>
<clustering>
<clus scale="   75.340">  5  6 -1 -1</clus>
<clus scale="   99.504">  2  4  1 -1</clus>
<clus scale="  217.114">  1  3  2 -1</clus>
<clus scale="  217.114">  1  3  2 -1</clus>
</clustering>
</event>
<event>
 6    0  0.6207838E+002  0.7152045E+02  0.7546771E-02  0.1354998E+00
         21   -1    0    0  506  501  0.00000000000E+00  0.00000000000E+00  0.13239332343E+04  0.13239332343E+04  0.00000000000E+00 0. -1.
         21   -1    0    0  504  502 -0.00000000000E+00 -0.00000000000E+00 -0.73567019291E+02  0.73567019291E+02  0.00000000000E+00 0. -1.
         21    1    1    2  503  502 -0.56267704669E+02  0.40529263160E+01 -0.30662242500E+02  0.64207896053E+02  0.00000000000E+00 0. -1.
         21    1    1    2  504  505 -0.21486126258E+02 -0.36803689922E+02  0.27920528053E+02  0.50948219794E+02  0.00000000000E+00 0.  1.
         21    1    1    2  505  501  0.22789718282E+02  0.78311124435E+02  0.10963603518E+03  0.13664575983E+03  0.00000000000E+00 0. -1.
         21    1    1    2  506  503  0.54964112645E+02 -0.45560360828E+02  0.11434718943E+04  0.11456983779E+04  0.00000000000E+00 0. -1.
<scales pt_clust_3="14000.00000" pt_clust_4="42.61649" pt_clust_5="66.72598" pt_clust_6="71.52045"></scales>
<clustering>
<clus scale="   42.616">  2  4  1 -1</clus>
<clus scale="   71.520">  1  6  2 -1</clus>
<clus scale="   66.726">  1  5  2 -1</clus>
<clus scale="   71.520">  1  3  2 -1</clus>
</clustering>
</event>
<event>
 6    0  0.6207838E+002  0.3702791E+03  0.7546771E-02  0.1054586E+00
         21   -1    0    0  504  501  0.00000000000E+00  0.00000000000E+00  0.48505625905E+03  0.48505625905E+03  0.00000000000E+00 0.  1.
         21   -1    0    0  501  502 -0.00000000000E+00 -0.00000000000E+00 -0.60635495659E+03  0.60635495659E+03  0.00000000000E+00 0.  1.
         21    1    1    2  503  502  0.13901913576E+03 -0.33221517455E+03 -0.40243925907E+03  0.54004684940E+03  0.00000000000E+00 0.  1.
         21    1    1    2  504  505  0.10797465377E+02 -0.40334670268E+02  0.10050522563E+03  0.10883368625E+03  0.00000000000E+00 0.  1.
         21    1    1    2  505  506 -0.52087974966E+02  0.13088830985E+03  0.40510280837E+02  0.14658100029E+03  0.00000000000E+00 0.  1.
         21    1    1    2  506  503 -0.97728626167E+02  0.24166153497E+03  0.14012505506E+03  0.29594967969E+03  0.00000000000E+00 0.  1.
<scales pt_clust_3="367.61497" pt_clust_4="41.75489" pt_clust_5="32.59427" pt_clust_6="32.59427"></scales>
<clustering>
<clus scale="   32.594">  5  6 -1 -1</clus>
<clus scale="   41.755">  1  4  2 -1</clus>
<clus scale="  367.615">  2  3  1 -1</clus>
<clus scale="   41.755">  1  3  2 -1</clus>
</clustering>
</event>
<event>
 6    0  0.6207838E+002  0.7505863E+02  0.7546771E-02  0.1343690E+00
         21   -1    0    0  505  501  0.00000000000E+00  0.00000000000E+00  0.36147996411E+03  0.36147996411E+03  0.00000000000E+00 0.  1.
         21   -1    0    0  506  502 -0.00000000000E+00 -0.00000000000E+00 -0.13849773265E+03  0.13849773265E+03  0.00000000000E+00 0.  1.
         21    1    1    2  503  501 -0.16920446600E+02 -0.58508649474E+02  0.84736680584E+02  0.10435453326E+03  0.00000000000E+00 0.  1.
         21    1    1    2  504  502 -0.82356971754E+01  0.38523333101E+02 -0.83161613667E+02  0.92020258035E+02  0.00000000000E+00 0.  1.
         21    1    1    2  505  504  0.99271510440E+01  0.87282608529E+02  0.21741212141E+03  0.23448844879E+03  0.00000000000E+00 0.  1.
         21    1    1    2  506  503  0.15228992732E+02 -0.67297292156E+02  0.39950431251E+01  0.69114456670E+02  0.00000000000E+00 0.  1.
<scales pt_clust_3="75.05863" pt_clust_4="39.39383" pt_clust_5="14000.00000" pt_clust_6="43.80564"></scales>
<clustering>
<clus scale="   39.394">  2  4  1 -1</clus>
<clus scale="   43.806">  2  6  1 -1</clus>
<clus scale="   75.059">  2  3  1 -1</clus>
<clus scale="   75.059">  1  3  2 -1</clus>
</clustering>
</event>
<event>
 6    0  0.6207838E+002  0.1848393E+03  0.7546771E-02  0.1163200E+00
         21   -1    0    0  505  501  0.00000000000E+00  0.00000000000E+00  0.93759702494E+03  0.93759702494E+03  0.00000000000E+00 0.  1.
         21   -1    0    0  504  502 -0.00000000000E+00 -0.00000000000E+00 -0.11723725279E+03  0.11723725279E+03  0.00000000000E+00 0.  1.
         21    1    1    2  503  502 -0.74733922155E+02  0.56181246396E+02  0.80058761542E+01  0.93838081930E+02  0.00000000000E+00 0.  1.
         21    1    1    2  504  506  0.84680854083E+02  0.14535820148E+02  0.77883662148E+02  0.11596552050E+03  0.00000000000E+00 0. -1.
         21    1    1    2  505  503 -0.13375519930E+03  0.46160866480E+02  0.67687089831E+02  0.15685286437E+03  0.00000000000E+00 0.  1.
         21    1    1    2  506  501  0.12380826737E+03 -0.11687793302E+03  0.66678314402E+03  0.68817781092E+03  0.00000000000E+00 0.  1.
<scales pt_clust_3="45.80245" pt_clust_4="85.91936" pt_clust_5="45.80245" pt_clust_6="176.04162"></scales>
<clustering>
<clus scale="   45.802">  3  5 -1 -1</clus>
<clus scale="   85.919">  2  4  1 -1</clus>
<clus scale="  176.042">  1  6  2 -1</clus>
<clus scale="  176.042">  1  3  2 -1</clus>
</clustering>
</event>
<event>
 6    0  0.6207838E+002  0.1081511E+03  0.7546771E-02  0.1264033E+00
         21   -1    0    0  503  501  0.00000000000E+00  0.00000000000E+00  0.12636655553E+04  0.12636655553E+04  0.00000000000E+00 0.  1.
         21   -1    0    0  505  502 -0.00000000000E+00 -0.00000000000E+00 -0.27988655492E+03  0.27988655492E+03  0.00000000000E+00 0. -1.
         21    1    1    2  503  506 -0.34630949601E+02 -0.11263153439E+02  0.10925371007E+04  0.10931438505E+04  0.00000000000E+00 0.  1.
         21    1    1    2  504  501 -0.93525315422E+02  0.73941863462E+02  0.11088944395E+03  0.16282153598E+03  0.00000000000E+00 0. -1.
         21    1    1    2  505  504  0.65072523541E+02 -0.22655754857E+02 -0.19823705199E+03  0.20987054421E+03  0.00000000000E+00 0. -1.
         21    1    1    2  506  502  0.63083741483E+02 -0.40022955167E+02 -0.21410492352E+02  0.77716179541E+02  0.00000000000E+00 0. -1.
<scales pt_clust_3="36.41650" pt_clust_4="108.15109" pt_clust_5="67.92027" pt_clust_6="14000.00000"></scales>
<clustering>
<clus scale="   36.416">  1  3  2 -1</clus>
<clus scale="   67.920">  2  5  1 -1</clus>
<clus scale="  108.151">  1  4  2 -1</clus>
<clus scale="   36.416">  1  3  2 -1</clus>
</clustering>
</event>
<event>
 6    0  0.6207838E+002  0.1707728E+03  0.7546771E-02  0.1177044E+00
         21   -1    0    0  505  501  0.00000000000E+00  0.00000000000E+00  0.67450039854E+03  0.67450039854E+03  0.00000000000E+00 0. -1.
         21   -1    0    0  506  502 -0.00000000000E+00 -0.00000000000E+00 -0.58488903887E+03  0.58488903887E+03  0.00000000000E+00 0. -1.
         21    1    1    2  503  502  0.18697394814E+02  0.24163336861E+02 -0.11043648627E+03  0.11458480231E+03  0.00000000000E+00 0. -1.
         21    1    1    2  504  501 -0.25996697697E+02  0.18705331301E+02  0.62662009618E+03  0.62743801499E+03  0.00000000000E+00 0. -1.
         21    1    1    2  505  503  0.29752298146E+02  0.12231144179E+03 -0.17468744659E+03  0.21531602828E+03  0.00000000000E+00 0.  1.
         21    1    1    2  506  504 -0.22452995263E+02 -0.16518010995E+03 -0.25188480365E+03  0.30205059184E+03  0.00000000000E+00 0. -1.
<scales pt_clust_3="30.11557" pt_clust_4="32.02683" pt_clust_5="30.11557" pt_clust_6="159.45747"></scales>
<clustering>
<clus scale="   30.116">  3  5 -1 -1</clus>
<clus scale="   32.027">  1  4  2 -1</clus>
<clus scale="  159.457">  1  6  2 -1</clus>
<clus scale="   32.027">  1  3  2 -1</clus>
</clustering>
</event>
<event>
 6    0  0.6207838E+002  0.1047711E+03  0.7546771E-02  0.1270571E+00
         21   -1    0    0  506  501  0.00000000000E+00  0.00000000000E+00  0.20917891329E+03  0.20917891329E+03  0.00000000000E+00 0. -1.
         21   -1    0    0  505  502 -0.00000000000E+00 -0.00000000000E+00 -0.86210057792E+03  0.86210057792E+03  0.00000000000E+00 0. -1.
         21    1    1    2  503  502  0.81518767987E+01 -0.36597859538E+02 -0.58171549630E+03  0.58292261498E+03  0.00000000000E+00 0. -1.
         21    1    1    2  504  501 -0.65590510768E+02 -0.56208384896E+01  0.53157432031E+01  0.66045181913E+02  0.00000000000E+00 0. -1.
         21    1    1    2  505  504 -0.94116398384E+01  0.89579674425E+02  0.15358845727E+03  0.17805199027E+03  0.00000000000E+00 0. -1.
         21    1    1    2  506  503  0.66850273808E+02 -0.47360976397E+02 -0.23011036880E+03  0.24425970405E+03  0.00000000000E+00 0. -1.
<scales pt_clust_3="37.49475" pt_clust_4="65.41300" pt_clust_5="14000.00000" pt_clust_6="104.77107"></scales>
<clustering>
<clus scale="   37.495">  2  3  1 -1</clus>
<clus scale="   65.413">  1  4  2 -1</clus>
<clus scale="  104.771">  2  6  1 -1</clus>
<clus scale="   65.413">  1  3  2 -1</clus>
</clustering>
</event>
<event>
 6    0  0.6207838E+002  0.1427093E+03  0.7546771E-02  0.1209729E+00
         21   -1    0    0  504  501  0.00000000000E+00  0.00000000000E+00  0.44737799400E+03  0.44737799400E+03  0.00000000000E+00 0.  1.
         21   -1    0    0  503  502 -0.00000000000E+00 -0.00000000000E+00 -0.37875175764E+03  0.37875175764E+03  0.00000000000E+00 0. -1.
         21    1    1    2  503  505  0.34476641297E+02  0.90020361734E+01 -0.23372372879E+03  0.23642431527E+03  0.00000000000E+00 0. -1.
         21    1    1    2  504  502 -0.11760440630E+03  0.50294454880E+01 -0.72408385359E+02  0.13819937038E+03  0.00000000000E+00 0.  1.
         21    1    1    2  505  506 -0.59238084305E+02  0.20066442308E+02  0.16787445223E+02  0.64758250873E+02  0.00000000000E+00 0.  1.
         21    1    1    2  506  501  0.14236584931E+03 -0.34097923970E+02  0.35797090529E+03  0.38674781512E+03  0.00000000000E+00 0.  1.
<scales pt_clust_3="35.63251" pt_clust_4="142.70926" pt_clust_5="57.66818" pt_clust_6="14000.00000"></scales>
<clustering>
<clus scale="   35.633">  2  3  1 -1</clus>
<clus scale="   57.668">  2  5  1 -1</clus>
<clus scale="  142.709">  2  4  1 -1</clus>
<clus scale="  142.709">  1  3  2 -1</clus>
</clustering>
</event>
<event>
 6    0  0.6207838E+002  0.2072802E+03  0.7546771E-02  0.1143738E+00
         21   -1    0    0  503  501  0.00000000000E+00  0.00000000000E+00  0.71030213360E+03  0.71030213360E+03  0.00000000000E+00 0.  1.
         21   -1    0    0  505  502 -0.00000000000E+00 -0.00000000000E+00 -0.12463082393E+03  0.12463082393E+03  0.00000000000E+00 0.  1.
         21    1    1    2  503  506 -0.66651430524E+02  0.14269332265E+03  0.24969711482E+03  0.29521593227E+03  0.00000000000E+00 0.  1.
         21    1    1    2  504  501  0.12034677669E+03 -0.11835050948E+03  0.18869232659E+03  0.25316987156E+03  0.00000000000E+00 0.  1.
         21    1    1    2  505  504  0.31243720804E+01 -0.86280697284E+02 -0.29143024005E+02  0.91123192838E+02  0.00000000000E+00 0.  1.
         21    1    1    2  506  502 -0.56819718243E+02  0.61937884112E+02  0.17642489226E+03  0.19542396086E+03  0.00000000000E+00 0.  1.
<scales pt_clust_3="32.90266" pt_clust_4="202.32799" pt_clust_5="86.33725" pt_clust_6="32.90266"></scales>
<clustering>
<clus scale="   32.903">  3  6 -1 -1</clus>
<clus scale="   86.337">  2  5  1 -1</clus>
<clus scale="  202.328">  2  4  1 -1</clus>
<clus scale="  207.280">  1  3  2 -1</clus>
</clustering>
</event>
<event>
 6    0  0.6207838E+002  0.1495572E+03  0.7546771E-02  0.1201018E+00
         21   -1    0    0  504  501  0.00000000000E+00  0.00000000000E+00  0.38163349983E+03  0.38163349983E+03  0.00000000000E+00 0.  1.
         21   -1    0    0  503  502 -0.00000000000E+00 -0.00000000000E+00 -0.38350857093E+03  0.38350857093E+03  0.00000000000E+00 0.  1.
         21    1    1    2  503  501  0.31201392180E+02 -0.15847969538E+02  0.63150476696E+02  0.72198806911E+02  0.00000000000E+00 0.  1.
         21    1    1    2  504  506 -0.88988292529E+02  0.82618661815E+02  0.22436915746E+03  0.25512012524E+03  0.00000000000E+00 0.  1.
         21    1    1    2  505  502  0.64492958652E+02 -0.11682239015E+03 -0.34065968624E+03  0.36586313614E+03  0.00000000000E+00 0.  1.
         21    1    1    2  506  505 -0.67060583019E+01  0.50051697876E+02  0.51264980991E+02  0.71960002462E+02  0.00000000000E+00 0.  1.
<scales pt_clust_3="34.99550" pt_clust_4="45.57643" pt_clust_5="134.60664" pt_clust_6="45.57643"></scales>
<clustering>
<clus scale="   34.995">  1  3  2 -1</clus>
<clus scale="   45.576">  4  6 -1 -1</clus>
<clus scale="  134.607">  2  5  1 -1</clus>
<clus scale="   34.995">  1  3  2 -1</clus>
</clustering>
</event>
<event>
 6    0  0.6207838E+002  0.7873306E+02  0.7546771E-02  0.1332686E+00
         21   -1    0    0  505  501  0.00000000000E+00  0.00000000000E+00  0.58417369734E+02  0.58417369734E+02  0.00000000000E+00 0. -1.
         21   -1    0    0  503  502 -0.00000000000E+00 -0.00000000000E+00 -0.26957275063E+04  0.26957275063E+04  0.00000000000E+00 0. -1.
         21    1    1    2  503  501 -0.10276140017E+03 -0.20038398472E+02 -0.98248032387E+02  0.14357617715E+03  0.00000000000E+00 0. -1.
         21    1    1    2  504  506  0.56332023713E+02 -0.58323885316E+02 -0.81055015958E+02  0.11465115833E+03  0.00000000000E+00 0. -1.
         21    1    1    2  505  504  0.39818692803E+02  0.18586075582E+02 -0.73867254638E+01  0.44559333648E+02  0.00000000000E+00 0.  1.
         21    1    1    2  506  502  0.66106836521E+01  0.59776208206E+02 -0.24506203628E+04  0.24513582070E+04  0.00000000000E+00 0. -1.
<scales pt_clust_3="14000.00000" pt_clust_4="78.73306" pt_clust_5="43.94281" pt_clust_6="60.35328"></scales>
<clustering>
<clus scale="   43.943">  1  5  2 -1</clus>
<clus scale="   60.353">  2  6  1 -1</clus>
<clus scale="   78.733">  2  4  1 -1</clus>
<clus scale="   43.943">  1  3  2 -1</clus>
</clustering>
</event>
<event>
 6    0  0.6207838E+002  0.2060791E+03  0.7546771E-02  0.1144709E+00
         21   -1    0    0  505  501  0.00000000000E+00  0.00000000000E+00  0.39220780134E+03  0.39220780134E+03  0.00000000000E+00 0. -1.
         21   -1    0    0  504  502 -0.00000000000E+00 -0.00000000000E+00 -0.29601263586E+03  0.29601263586E+03  0.00000000000E+00 0.  1.
         21    1    1    2  503  501 -0.12112583836E+03 -0.13897772092E+03  0.15582181145E+03  0.24138498825E+03  0.00000000000E+00 0. -1.
         21    1    1    2  504  503 -0.92907724073E+02  0.11566815486E+03 -0.13362266433E+03  0.19966467806E+03  0.00000000000E+00 0.  1.
         21    1    1    2  505  506  0.13699702001E+03 -0.22060691169E+02  0.13922491394E+02  0.13945857217E+03  0.00000000000E+00 0.  1.
         21    1    1    2  506  502  0.77036542428E+02  0.45370257233E+02  0.60073526966E+02  0.10771219872E+03  0.00000000000E+00 0. -1.
<scales pt_clust_3="182.22048" pt_clust_4="148.36094" pt_clust_5="77.25905" pt_clust_6="77.25905"></scales>
<clustering>
<clus scale="   77.259">  5  6 -1 -1</clus>
<clus scale="  148.361">  2  4  1 -1</clus>
<clus scale="  182.220">  1  3  2 -1</clus>
<clus scale="  182.220">  1  3  2 -1</clus>
</clustering>
</event>
<event>
 6    0  0.6207838E+002  0.6849329E+02  0.7546771E-02  0.1365293E+00
         21   -1    0    0  503  501  0.00000000000E+00  0.00000000000E+00  0.13683131767E+02  0.13683131767E+02  0.00000000000E+00 0. -1.
         21   -1    0    0  506  502 -0.00000000000E+00 -0.00000000000E+00 -0.17353994788E+04  0.17353994788E+04  0.00000000000E+00 0. -1.
         21    1    1    2  503  505  0.10074669312E+02  0.48157626949E+02 -0.11437696048E+03  0.12451002001E+03  0.00000000000E+00 0. -1.
         21    1    1    2  504  502  0.35328636181E+02  0.46501932759E+02 -0.77729002985E+03  0.77948080977E+03  0.00000000000E+00 0. -1.
         21    1    1    2  505  504 -0.83591416043E+02 -0.77226578728E+02 -0.67169427106E+03  0.68126695433E+03  0.00000000000E+00 0. -1.
         21    1    1    2  506  501  0.38188110550E+02 -0.17432980979E+02 -0.15835508562E+03  0.16382482643E+03  0.00000000000E+00 0. -1.
<scales pt_clust_3="48.75568" pt_clust_4="14000.00000" pt_clust_5="68.49329" pt_clust_6="41.97905"></scales>
<clustering>
<clus scale="   41.979">  1  6  2 -1</clus>
<clus scale="   48.756">  1  3  2 -1</clus>
<clus scale="   68.493">  1  5  2 -1</clus>
<clus scale="   41.979">  1  3  2 -1</clus>
</clustering>
</event>
<event>
 6    0  0.6207838E+002  0.7697446E+02  0.7546771E-02  0.1337864E+00
         21   -1    0    0  504  501  0.00000000000E+00  0.00000000000E+00  0.60350282856E+03  0.60350282856E+03  0.00000000000E+00 0. -1.
         21   -1    0    0  506  502 -0.00000000000E+00 -0.00000000000E+00 -0.68237951867E+03  0.68237951867E+03  0.00000000000E+00 0.  1.
         21    1    1    2  503  505 -0.34813218295E+02  0.63444913270E+02 -0.22872970989E+02  0.75897233084E+02  0.00000000000E+00 0. -1.
         21    1    1    2  504  503 -0.17598416109E+02  0.74733838308E+02  0.56243611412E+03  0.56765238774E+03  0.00000000000E+00 0. -1.
         21    1    1    2  505  502  0.27383142713E+02 -0.20141746151E+02 -0.45336166070E+02  0.56664754450E+02  0.00000000000E+00 0.  1.
         21    1    1    2  506  501  0.25028491690E+02 -0.11803700543E+03 -0.57310366717E+03  0.58566797195E+03  0.00000000000E+00 0.  1.
<scales pt_clust_3="69.96606" pt_clust_4="14000.00000" pt_clust_5="33.99304" pt_clust_6="76.97446"></scales>
<clustering>
<clus scale="   33.993">  2  5  1 -1</clus>
<clus scale="   69.966">  2  3  1 -1</clus>
<clus scale="   76.974">  2  6  1 -1</clus>
<clus scale="   76.974">  1  3  2 -1</clus>
</clustering>
</event>
<event>
 6    0  0.6207838E+002  0.8913908E+02  0.7546771E-02  0.1304950E+00
         21   -1    0    0  504  501  0.00000000000E+00  0.00000000000E+00  0.53944476144E+02  0.53944476144E+02  0.00000000000E+00 0. -1.
         21   -1    0    0  503  502 -0.00000000000E+00 -0.00000000000E+00 -0.65113618714E+03  0.65113618714E+03  0.00000000000E+00 0. -1.
         21    1    1    2  503  501  0.19609042860E+02  0.11056158012E+03 -0.36232560257E+03  0.37932600733E+03  0.00000000000E+00 0. -1.
         21    1    1    2  504  506  0.13682639420E+02 -0.85685514208E+02 -0.10990551501E+02  0.87464359535E+02  0.00000000000E+00 0. -1.
         21    1    1    2  505  502 -0.31093982029E+02  0.19648881689E+02 -0.91820702299E+02  0.98913879920E+02  0.00000000000E+00 0. -1.
         21    1    1    2  506  505 -0.21977002509E+01 -0.44524947600E+02 -0.13205485462E+03  0.13937641649E+03  0.00000000000E+00 0. -1.
<scales pt_clust_3="89.13908" pt_clust_4="14000.00000" pt_clust_5="36.78198" pt_clust_6="40.91547"></scales>
<clustering>
<clus scale="   36.782">  2  5  1 -1</clus>
<clus scale="   40.915">  2  6  1 -1</clus>
<clus scale="   89.139">  2  3  1 -1</clus>
<clus scale="   89.139">  1  3  2 -1</clus>
</clustering>
</event>
<event>
 6    0  0.6207838E+002  0.6460909E+02  0.7546771E-02  0.1379448E+00
         21   -1    0    0  503  501  0.00000000000E+00  0.00000000000E+00  0.16309290333E+04  0.16309290333E+04  0.00000000000E+00 0.  1.
         21   -1    0    0  505  502 -0.00000000000E+00 -0.00000000000E+00 -0.73604082483E+02  0.73604082483E+02  0.00000000000E+00 0. -1.
         21    1    1    2  503  506 -0.21069307068E+01  0.81731363127E+02  0.69332345445E+03  0.69812740053E+03  0.00000000000E+00 0.  1.
         21    1    1    2  504  501  0.11670900935E+02 -0.41962851718E+02  0.19704090140E+03  0.20179744219E+03  0.00000000000E+00 0.  1.
         21    1    1    2  505  504 -0.71431064293E+02 -0.20990112001E+02  0.71823918994E+03  0.72208760944E+03  0.00000000000E+00 0.  1.
         21    1    1    2  506  502  0.61867094065E+02 -0.18778399408E+02 -0.51278595005E+02  0.82520663582E+02  0.00000000000E+00 0. -1.
<scales pt_clust_3="61.44060" pt_clust_4="43.55561" pt_clust_5="64.60909" pt_clust_6="14000.00000"></scales>
<clustering>
<clus scale="   43.556">  1  4  2 -1</clus>
<clus scale="   61.441">  1  3  2 -1</clus>
<clus scale="   64.609">  1  5  2 -1</clus>
<clus scale="   43.556">  1  3  2 -1</clus>
</clustering>
</event>
<event>
 6    0  0.6207838E+002  0.2734048E+03  0.7546771E-02  0.1099347E+00
         21   -1    0    0  504  501  0.00000000000E+00  0.00000000000E+00  0.64434797362E+03  0.64434797362E+03  0.00000000000E+00 0. -1.
         21   -1    0    0  503  502 -0.00000000000E+00 -0.00000000000E+00 -0.26066601079E+04  0.26066601079E+04  0.00000000000E+00 0.  1.
         21    1    1    2  503  506  0.42816025027E+02 -0.17429067674E+02 -0.46982950916E+02  0.65911926659E+02  0.00000000000E+00 0.  1.
         21    1    1    2  504  502 -0.11898440267E+03 -0.24751677444E+03 -0.24814056578E+04  0.24965568049E+04  0.00000000000E+00 0.  1.
         21    1    1    2  505  501 -0.33603872802E+02  0.45926077317E+02  0.37108721885E+03  0.37542529062E+03  0.00000000000E+00 0. -1.
         21    1    1    2  506  505  0.10977225045E+03  0.21901976480E+03  0.19498925559E+03  0.31311405931E+03  0.00000000000E+00 0. -1.
<scales pt_clust_3="46.22753" pt_clust_4="14000.00000" pt_clust_5="56.87370" pt_clust_6="273.40477"></scales>
<clustering>
<clus scale="   46.228">  2  3  1 -1</clus>
<clus scale="   56.874">  1  5  2 -1</clus>
<clus scale="  273.405">  1  6  2 -1</clus>
<clus scale="   56.874">  1  3  2 -1</clus>
</clustering>
</event>
<event>
 6    0  0.6207838E+002  0.2875160E+03  0.7546771E-02  0.1091653E+00
         21   -1    0    0  502  501  0.00000000000E+00  0.00000000000E+00  0.30507403699E+03  0.30507403699E+03  0.00000000000E+00 0.  1.
         21   -1    0    0  503  502 -0.00000000000E+00 -0.00000000000E+00 -0.12828026965E+04  0.12828026965E+04  0.00000000000E+00 0. -1.
         21    1    1    2  503  505  0.21383413622E+03  0.19654965402E+03 -0.11144051481E+04  0.11516317287E+04  0.00000000000E+00 0. -1.
         21    1    1    2  504  506 -0.10595511969E+03 -0.66936232366E+02 -0.31831607243E+02  0.12930660390E+03  0.00000000000E+00 0.  1.
         21    1    1    2  505  504 -0.11257631558E+03 -0.67123943582E+02  0.42558577996E+01  0.13113795391E+03  0.00000000000E+00 0.  1.
         21    1    1    2  506  501  0.46972990514E+01 -0.62489478069E+02  0.16425223802E+03  0.17580044705E+03  0.00000000000E+00 0.  1.
<scales pt_clust_3="285.17119" pt_clust_4="35.83300" pt_clust_5="35.83300" pt_clust_6="62.66578"></scales>
<clustering>
<clus scale="   35.833">  4  5 -1 -1</clus>
<clus scale="   62.666">  1  6  2 -1</clus>
<clus scale="  285.171">  2  3  1 -1</clus>
<clus scale="   62.666">  1  3  2 -1</clus>
</clustering>
</event>
<event>
 6    0  0.6207838E+002  0.8358462E+02  0.7546771E-02  0.1319176E+00
         21   -1    0    0  505  501  0.00000000000E+00  0.00000000000E+00  0.25127888663E+03  0.25127888663E+03  0.00000000000E+00 0. -1.
         21   -1    0    0  503  502 -0.00000000000E+00 -0.00000000000E+00 -0.65108136097E+03  0.65108136097E+03  0.00000000000E+00 0.  1.
         21    1    1    2  503  506 -0.38089796084E+02  0.72076954870E+02 -0.52935957660E+03  0.53560011326E+03  0.00000000000E+00 0.  1.
         21    1    1    2  504  501  0.12367907580E+02  0.27703761076E+02  0.19902333026E+03  0.20132250124E+03  0.00000000000E+00 0. -1.
         21    1    1    2  505  502  0.60913302332E+02 -0.92303530693E+02 -0.36003110061E+02  0.11630389552E+03  0.00000000000E+00 0. -1.
         21    1    1    2  506  504 -0.35191413828E+02 -0.74771852527E+01 -0.33463117948E+02  0.49133737587E+02  0.00000000000E+00 0. -1.
<scales pt_clust_3="14000.00000" pt_clust_4="30.33914" pt_clust_5="83.58462" pt_clust_6="33.45151"></scales>
<clustering>
<clus scale="   30.339">  1  4  2 -1</clus>
<clus scale="   33.452">  1  6  2 -1</clus>
<clus scale="   83.585">  1  5  2 -1</clus>
<clus scale="   30.339">  1  3  2 -1</clus>
</clustering>
</event>
<event>
 6    0  0.6207838E+002  0.1119850E+03  0.7546771E-02  0.1256937E+00
         21   -1    0    0  505  501  0.00000000000E+00  0.00000000000E+00  0.11331629293E+03  0.11331629293E+03  0.00000000000E+00 0.  1.
         21   -1    0    0  506  502 -0.00000000000E+00 -0.00000000000E+00 -0.80199171628E+03  0.80199171628E+03  0.00000000000E+00 0. -1.
         21    1    1    2  503  501  0.88525133376E+02 -0.54864015860E+02  0.77898323983E+02  0.13005732719E+03  0.00000000000E+00 0.  1.
         21    1    1    2  504  502 -0.39928802640E+02  0.45674168254E+02 -0.34961891100E+03  0.35484337652E+03  0.00000000000E+00 0. -1.
         21    1    1    2  505  504 -0.66756188720E+02  0.34690938984E+02 -0.28124412210E+03  0.29113245473E+03  0.00000000000E+00 0. -1.
         21    1    1    2  506  503  0.18159857983E+02 -0.25501091378E+02 -0.13571071423E+03  0.13927485078E+03  0.00000000000E+00 0. -1.
<scales pt_clust_3="105.28189" pt_clust_4="31.82743" pt_clust_5="31.82743" pt_clust_6="31.30633"></scales>
<clustering>
<clus scale="   31.306">  2  6  1 -1</clus>
<clus scale="   31.827">  4  5 -1 -1</clus>
<clus scale="  105.282">  1  3  2 -1</clus>
<clus scale="  105.282">  1  3  2 -1</clus>
</clustering>
</event>
<event>
 6    0  0.8660086E+002  0.1044071E+03  0.7546771E-02  0.1271292E+00
         21   -1    0    0  503  501  0.00000000000E+00  0.00000000000E+00  0.33445796091E+03  0.33445796091E+03  0.00000000000E+00 0. -1.
         21   -1    0    0  506  502 -0.00000000000E+00 -0.00000000000E+00 -0.11030412853E+04  0.11030412853E+04  0.00000000000E+00 0.  1.
         21    1    1    2  503  502 -0.34931107100E+02  0.33873028349E+02 -0.10276445491E+02  0.49730972489E+02  0.00000000000E+00 0. -1.
         21    1    1    2  504  505  0.56854757498E+02 -0.91273793132E+02  0.71009592142E+02  0.12886322570E+03  0.00000000000E+00 0.  1.
         21    1    1    2  505  501 -0.53931575425E+02  0.87832384848E+02  0.20193004369E+03  0.22671322237E+03  0.00000000000E+00 0. -1.
         21    1    1    2  506  504  0.32007925027E+02 -0.30431620066E+02 -0.10312465148E+04  0.10321918257E+04  0.00000000000E+00 0.  1.
<scales pt_clust_3="30.07959" pt_clust_4="104.40709" pt_clust_5="14000.00000" pt_clust_6="44.16549"></scales>
<clustering>
<clus scale="   44.165">  2  6  1 -1</clus>
<clus scale="   30.080">  2  3  1 -1</clus>
<clus scale="  104.407">  2  4  1 -1</clus>
<clus scale="  104.407">  1  3  2 -1</clus>
</clustering>
</event>
<event>
 6    0  0.6207838E+002  0.1128430E+03  0.7546771E-02  0.1255394E+00
         21   -1    0    0  505  501  0.00000000000E+00  0.00000000000E+00  0.16256587810E+04  0.16256587810E+04  0.00000000000E+00 0. -1.
         21   -1    0    0  503  502 -0.00000000000E+00 -0.00000000000E+00 -0.14359812917E+04  0.14359812917E+04  0.00000000000E+00 0. -1.
         21    1    1    2  503  506 -0.27573368727E+02 -0.28766226486E+02 -0.12121418244E+03  0.12759570711E+03  0.00000000000E+00 0. -1.
         21    1    1    2  504  502 -0.92709972644E+02  0.19932139971E+02 -0.46288391479E+03  0.47249756380E+03  0.00000000000E+00 0. -1.
         21    1    1    2  505  504 -0.11162358060E+02 -0.84661900935E+02  0.16088102276E+04  0.16110749778E+04  0.00000000000E+00 0. -1.
         21    1    1    2  506  501  0.13144569943E+03  0.93495987451E+02 -0.83503464110E+03  0.85047182399E+03  0.00000000000E+00 0. -1.
<scales pt_clust_3="39.84704" pt_clust_4="112.84298" pt_clust_5="85.42233" pt_clust_6="14000.00000"></scales>
<clustering>
<clus scale="   39.847">  2  3  1 -1</clus>
<clus scale="   85.422">  1  5  2 -1</clus>
<clus scale="  112.843">  1  4  2 -1</clus>
<clus scale="   85.422">  1  3  2 -1</clus>
</clustering>
</event>
<event>
 6    0  0.6207838E+002  0.1292591E+03  0.7546771E-02  0.1228559E+00
         21   -1    0    0  503  501  0.00000000000E+00  0.00000000000E+00  0.30492442778E+03  0.30492442778E+03  0.00000000000E+00 0.  1.
         21   -1    0    0  505  502 -0.00000000000E+00 -0.00000000000E+00 -0.80375094206E+03  0.80375094206E+03  0.00000000000E+00 0. -1.
         21    1    1    2  503  504 -0.27435052761E+02  0.36089869845E+02  0.21911462535E+03  0.22375517842E+03  0.00000000000E+00 0.  1.
         21    1    1    2  504  506  0.52798534606E+02  0.24281305186E+02 -0.22182810296E+03  0.22931413890E+03  0.00000000000E+00 0. -1.
         21    1    1    2  505  501 -0.70508244634E+02 -0.10279286442E+03  0.28072477899E+02  0.12777264790E+03  0.00000000000E+00 0. -1.
         21    1    1    2  506  502  0.45144762789E+02  0.42421689385E+02 -0.52418551458E+03  0.52783340462E+03  0.00000000000E+00 0. -1.
<scales pt_clust_3="45.33388" pt_clust_4="50.04957" pt_clust_5="118.38077" pt_clust_6="50.04957"></scales>
<clustering>
<clus scale="   45.334">  1  3  2 -1</clus>
<clus scale="   50.050">  4  6 -1 -1</clus>
<clus scale="  118.381">  1  5  2 -1</clus>
<clus scale="   45.334">  1  3  2 -1</clus>
</clustering>
</event>
<event>
 6    0  0.9271544E+002  0.1174887E+03  0.7546771E-02  0.1247298E+00
         21   -1    0    0  503  501  0.00000000000E+00  0.00000000000E+00  0.79649697786E+03  0.79649697786E+03  0.00000000000E+00 0. -1.
         21   -1    0    0  505  502 -0.00000000000E+00 -0.00000000000E+00 -0.47500873231E+03  0.47500873231E+03  0.00000000000E+00 0.  1.
         21    1    1    2  503  504  0.36313365312E+02 -0.18227363828E+02  0.67547556287E+02  0.78826199025E+02  0.00000000000E+00 0. -1.
         21    1    1    2  504  502 -0.37666359551E+02  0.70485423508E+02  0.14760634477E+03  0.16785285992E+03  0.00000000000E+00 0.  1.
         21    1    1    2  505  506  0.23871266668E+02 -0.11710053099E+03 -0.44932352388E+03  0.46494515896E+03  0.00000000000E+00 0.  1.
         21    1    1    2  506  501 -0.22518272428E+02  0.64842471310E+02  0.55565786838E+03  0.55988149226E+03  0.00000000000E+00 0. -1.
<scales pt_clust_3="40.63124" pt_clust_4="14000.00000" pt_clust_5="117.48868" pt_clust_6="51.08197"></scales>
<clustering>
<clus scale="   40.631">  1  3  2 -1</clus>
<clus scale="   51.082">  1  6  2 -1</clus>
<clus scale="  117.489">  2  5  1 -1</clus>
<clus scale="   40.631">  1  3  2 -1</clus>
</clustering>
</event>
<event>
 6    0  0.6207838E+002  0.1750006E+03  0.7546771E-02  0.1172731E+00
         21   -1    0    0  503  501  0.00000000000E+00  0.00000000000E+00  0.59608499378E+03  0.59608499378E+03  0.00000000000E+00 0. -1.
         21   -1    0    0  501  502 -0.00000000000E+00 -0.00000000000E+00 -0.24848666659E+04  0.24848666659E+04  0.00000000000E+00 0. -1.
         21    1    1    2  503  504 -0.24115544646E+02 -0.31324168919E+02  0.57764777638E+03  0.57899889171E+03  0.00000000000E+00 0. -1.
         21    1    1    2  504  505 -0.25148516664E+01 -0.45377645736E+02 -0.88968317923E+02  0.99904037984E+02  0.00000000000E+00 0. -1.
         21    1    1    2  505  506  0.56702300906E+02 -0.93361197041E+02 -0.33630140156E+03  0.35359595124E+03  0.00000000000E+00 0. -1.
         21    1    1    2  506  502 -0.30071904593E+02  0.17006301170E+03 -0.20411597290E+04  0.20484527787E+04  0.00000000000E+00 0. -1.
<scales pt_clust_3="39.53180" pt_clust_4="33.03641" pt_clust_5="33.03641" pt_clust_6="167.33815"></scales>
<clustering>
<clus scale="   33.036">  4  5 -1 -1</clus>
<clus scale="   39.532">  1  3  2 -1</clus>
<clus scale="  167.338">  2  6  1 -1</clus>
<clus scale="   39.532">  1  3  2 -1</clus>
</clustering>
</event>
<event>
 6    0  0.6207838E+002  0.1821467E+03  0.7546771E-02  0.1165742E+00
         21   -1    0    0  503  501  0.00000000000E+00  0.00000000000E+00  0.10101894033E+03  0.10101894033E+03  0.00000000000E+00 0. -1.
         21   -1    0    0  506  502 -0.00000000000E+00 -0.00000000000E+00 -0.11390535586E+04  0.11390535586E+04  0.00000000000E+00 0. -1.
         21    1    1    2  503  502 -0.70344691537E+02  0.27420703398E+00 -0.96115748092E+02  0.11910788323E+03  0.00000000000E+00 0.  1.
         21    1    1    2  504  505 -0.52407962831E+02  0.25009500406E+03 -0.48579047513E+03  0.54889570171E+03  0.00000000000E+00 0. -1.
         21    1    1    2  505  501  0.11316397517E+03 -0.10174220243E+03 -0.89978476316E+02  0.17678712406E+03  0.00000000000E+00 0. -1.
         21    1    1    2  506  504  0.95886791950E+01 -0.14862700867E+03 -0.36614991877E+03  0.39528178998E+03  0.00000000000E+00 0. -1.
<scales pt_clust_3="70.34523" pt_clust_4="182.14667" pt_clust_5="128.74242" pt_clust_6="14000.00000"></scales>
<clustering>
<clus scale="   70.345">  1  3  2 -1</clus>
<clus scale="  128.742">  1  5  2 -1</clus>
<clus scale="  182.147">  1  4  2 -1</clus>
<clus scale="   70.345">  1  3  2 -1</clus>
</clustering>
</event>
<event>
 6    0  0.6207838E+002  0.9284678E+02  0.7546771E-02  0.1296101E+00
         21   -1    0    0  504  501  0.00000000000E+00  0.00000000000E+00  0.13365893952E+02  0.13365893952E+02  0.00000000000E+00 0. -1.
         21   -1    0    0  506  502 -0.00000000000E+00 -0.00000000000E+00 -0.37452479307E+04  0.37452479307E+04  0.00000000000E+00 0. -1.
         21    1    1    2  503  505  0.58171934115E+02  0.24204401339E+01 -0.11998972251E+03  0.13336928416E+03  0.00000000000E+00 0. -1.
         21    1    1    2  504  502 -0.13397019136E+03  0.34974419148E+01 -0.86495322689E+03  0.87527385941E+03  0.00000000000E+00 0. -1.
         21    1    1    2  505  501  0.36968532020E+02 -0.82035167302E-01 -0.24959655639E+03  0.25231948012E+03  0.00000000000E+00 0. -1.
         21    1    1    2  506  503  0.38829725222E+02 -0.58358468813E+01 -0.24973425309E+04  0.24976512009E+04  0.00000000000E+00 0. -1.
<scales pt_clust_3="14000.00000" pt_clust_4="92.84678" pt_clust_5="36.96862" pt_clust_6="39.73605"></scales>
<clustering>
<clus scale="   36.969">  1  5  2 -1</clus>
<clus scale="   39.736">  2  6  1 -1</clus>
<clus scale="   92.847">  2  4  1 -1</clus>
<clus scale="   36.969">  1  3  2 -1</clus>
</clustering>
</event>
<event>
 6    0  0.6207838E+002  0.1127874E+03  0.7546771E-02  0.1255493E+00
         21   -1    0    0  505  501  0.00000000000E+00  0.00000000000E+00  0.14997867813E+03  0.14997867813E+03  0.00000000000E+00 0. -1.
         21   -1    0    0  506  502 -0.00000000000E+00 -0.00000000000E+00 -0.26582214805E+03  0.26582214805E+03  0.00000000000E+00 0. -1.
         21    1    1    2  503  504 -0.58761856301E+02 -0.88930012166E+02  0.75624397089E+02  0.13069258684E+03  0.00000000000E+00 0. -1.
         21    1    1    2  504  501 -0.31778224968E+02 -0.85704785020E+01 -0.95058643704E+01  0.34258869527E+02  0.00000000000E+00 0. -1.
         21    1    1    2  505  502  0.78440256604E+02  0.64051192067E+02 -0.47672878320E+02  0.11192914003E+03  0.00000000000E+00 0. -1.
         21    1    1    2  506  503  0.12099824665E+02  0.33449298601E+02 -0.13428912432E+03  0.13892022978E+03  0.00000000000E+00 0.  1.
<scales pt_clust_3="112.78737" pt_clust_4="32.91365" pt_clust_5="14000.00000" pt_clust_6="35.25590"></scales>
<clustering>
<clus scale="   32.914">  1  4  2 -1</clus>
<clus scale="   35.256">  2  6  1 -1</clus>
<clus scale="  112.787">  1  3  2 -1</clus>
<clus scale="   32.914">  1  3  2 -1</clus>
</clustering>
</event>
<event>
 6    0  0.6207838E+002  0.1322940E+03  0.7546771E-02  0.1224091E+00
         21   -1    0    0  506  501  0.00000000000E+00  0.00000000000E+00  0.11732234326E+03  0.11732234326E+03  0.00000000000E+00 0. -1.
         21   -1    0    0  505  502 -0.00000000000E+00 -0.00000000000E+00 -0.38589339125E+03  0.38589339125E+03  0.00000000000E+00 0. -1.
         21    1    1    2  503  502  0.64401289252E+02  0.41615737942E+02 -0.21925131426E+03  0.23227254359E+03  0.00000000000E+00 0. -1.
         21    1    1    2  504  501 -0.30672804597E+02 -0.44005153136E+02  0.11941685150E+02  0.54953419262E+02  0.00000000000E+00 0.  1.
         21    1    1    2  505  504 -0.12351495576E+02 -0.98127421966E+02 -0.54688468052E+02  0.11301495000E+03  0.00000000000E+00 0. -1.
         21    1    1    2  506  503 -0.21376989079E+02  0.10051683716E+03 -0.65729508275E+01  0.10297482167E+03  0.00000000000E+00 0. -1.
<scales pt_clust_3="76.67722" pt_clust_4="48.47905" pt_clust_5="48.47905" pt_clust_6="114.75359"></scales>
<clustering>
<clus scale="   48.479">  4  5 -1 -1</clus>
<clus scale="   76.677">  2  3  1 -1</clus>
<clus scale="  114.754">  1  6  2 -1</clus>
<clus scale="  114.754">  1  3  2 -1</clus>
</clustering>
</event>
<event>
 6    0  0.6207838E+002  0.1158253E+03  0.7546771E-02  0.1250147E+00
         21   -1    0    0  504  501  0.00000000000E+00  0.00000000000E+00  0.99317250425E+02  0.99317250425E+02  0.00000000000E+00 0. -1.
         21   -1    0    0  506  502 -0.00000000000E+00 -0.00000000000E+00 -0.76886880669E+03  0.76886880669E+03  0.00000000000E+00 0. -1.
         21    1    1    2  503  502  0.18040831358E+02 -0.26961203745E+02 -0.22859013259E+03  0.23088054665E+03  0.00000000000E+00 0. -1.
         21    1    1    2  504  505 -0.16201304714E+02  0.99593251976E+02  0.61033400415E+02  0.11792529025E+03  0.00000000000E+00 0. -1.
         21    1    1    2  505  503 -0.28953503361E+02 -0.92340732184E+02 -0.41541448956E+03  0.42653758839E+03  0.00000000000E+00 0. -1.
         21    1    1    2  506  501  0.27113976717E+02  0.19708683953E+02 -0.86580334533E+02  0.92842631827E+02  0.00000000000E+00 0.  1.
<scales pt_clust_3="32.26030" pt_clust_4="101.54258" pt_clust_5="32.26030" pt_clust_6="33.52014"></scales>
<clustering>
<clus scale="   32.260">  3  5 -1 -1</clus>
<clus scale="   33.520">  2  6  1 -1</clus>
<clus scale="  101.543">  1  4  2 -1</clus>
<clus scale="  101.543">  1  3  2 -1</clus>
</clustering>
</event>
<event>
 6    0  0.6207838E+002  0.1729099E+03  0.7546771E-02  0.1174847E+00
         21   -1    0    0  503  501  0.00000000000E+00  0.00000000000E+00  0.10490848835E+04  0.10490848835E+04  0.00000000000E+00 0. -1.
         21   -1    0    0  504  502 -0.00000000000E+00 -0.00000000000E+00 -0.31621098423E+03  0.31621098423E+03  0.00000000000E+00 0.  1.
         21    1    1    2  503  506 -0.11248047989E+03 -0.84479234411E+02  0.55242128003E+03  0.57005076093E+03  0.00000000000E+00 0. -1.
         21    1    1    2  504  501  0.33716162388E+02  0.62810552156E+01  0.13647385873E+03  0.14071725331E+03  0.00000000000E+00 0. -1.
         21    1    1    2  505  502  0.13898883723E+03  0.82848087594E+02 -0.28085185797E+03  0.32412878400E+03  0.00000000000E+00 0.  1.
         21    1    1    2  506  505 -0.60224519735E+02 -0.46499083990E+01  0.32483061852E+03  0.33039906954E+03  0.00000000000E+00 0.  1.
<scales pt_clust_3="36.98328" pt_clust_4="34.29623" pt_clust_5="162.57257" pt_clust_6="36.98328"></scales>
<clustering>
<clus scale="   34.296">  1  4  2 -1</clus>
<clus scale="   36.983">  3  6 -1 -1</clus>
<clus scale="  162.573">  2  5  1 -1</clus>
<clus scale="   34.296">  1  3  2 -1</clus>
</clustering>
</event>
<event>
 6    0  0.6207838E+002  0.2367294E+03  0.7546771E-02  0.1121991E+00
         21   -1    0    0  506  501  0.00000000000E+00  0.00000000000E+00  0.31869867539E+03  0.31869867539E+03  0.00000000000E+00 0. -1.
         21   -1    0    0  505  502 -0.00000000000E+00 -0.00000000000E+00 -0.50860509987E+03  0.50860509987E+03  0.00000000000E+00 0. -1.
         21    1    1    2  503  504 -0.25546067886E+03  0.10116231757E+03 -0.99552606914E+02  0.29224081591E+03  0.00000000000E+00 0. -1.
         21    1    1    2  504  502 -0.77301834903E+02  0.50795852715E+02 -0.65682342917E+02  0.11344585714E+03  0.00000000000E+00 0. -1.
         21    1    1    2  505  501  0.15195230713E+03 -0.69381944192E+02 -0.11548883631E+03  0.20307887417E+03  0.00000000000E+00 0. -1.
         21    1    1    2  506  503  0.18081020663E+03 -0.82576226095E+02  0.90817361660E+02  0.21853822804E+03  0.00000000000E+00 0. -1.
<scales pt_clust_3="34.11388" pt_clust_4="34.11388" pt_clust_5="167.04298" pt_clust_6="229.31177"></scales>
<clustering>
<clus scale="   34.114">  3  4 -1 -1</clus>
<clus scale="  167.043">  2  5  1 -1</clus>
<clus scale="  229.312">  1  6  2 -1</clus>
<clus scale="  229.312">  1  3  2 -1</clus>
</clustering>
</event>
<event>
 6    0  0.6207838E+002  0.1765012E+03  0.7546771E-02  0.1171233E+00
         21   -1    0    0  503  501  0.00000000000E+00  0.00000000000E+00  0.38928860530E+03  0.38928860530E+03  0.00000000000E+00 0. -1.
         21   -1    0    0  504  502 -0.00000000000E+00 -0.00000000000E+00 -0.25237644173E+04  0.25237644173E+04  0.00000000000E+00 0.  1.
         21    1    1    2  503  506 -0.21920711912E+02  0.61681149933E+02  0.37138265658E+03  0.37710762321E+03  0.00000000000E+00 0. -1.
         21    1    1    2  504  505  0.11589806417E+03 -0.58824896653E+02 -0.17547465752E+04  0.17595534300E+04  0.00000000000E+00 0.  1.
         21    1    1    2  505  501  0.15413045384E+02 -0.52472025712E+02 -0.43154179320E+03  0.43499332722E+03  0.00000000000E+00 0.  1.
         21    1    1    2  506  502 -0.10939039764E+03  0.49615772432E+02 -0.31957010022E+03  0.34139864224E+03  0.00000000000E+00 0.  1.
<scales pt_clust_3="65.46054" pt_clust_4="52.49441" pt_clust_5="52.49441" pt_clust_6="156.85555"></scales>
<clustering>
<clus scale="   52.494">  4  5 -1 -1</clus>
<clus scale="   65.461">  1  3  2 -1</clus>
<clus scale="  156.856">  1  6  2 -1</clus>
<clus scale="   65.461">  1  3  2 -1</clus>
</clustering>
</event>
<event>
 6    0  0.6207838E+002  0.1060528E+03  0.7546771E-02  0.1268059E+00
         21   -1    0    0  505  501  0.00000000000E+00  0.00000000000E+00  0.16984109364E+03  0.16984109364E+03  0.00000000000E+00 0. -1.
         21   -1    0    0  506  502 -0.00000000000E+00 -0.00000000000E+00 -0.36961517838E+03  0.36961517838E+03  0.00000000000E+00 0.  1.
         21    1    1    2  503  501 -0.57152741813E+02 -0.30022646625E+02 -0.71901312275E+02  0.96631226392E+02  0.00000000000E+00 0. -1.
         21    1    1    2  504  502  0.49938094887E+02  0.64149794901E+02 -0.19084060992E+03  0.20743468345E+03  0.00000000000E+00 0.  1.
         21    1    1    2  505  504  0.57108380375E+02  0.41099261761E+02  0.11230019415E+03  0.13252113051E+03  0.00000000000E+00 0. -1.
         21    1    1    2  506  503 -0.49893733449E+02 -0.75226410036E+02 -0.49332356699E+02  0.10286923166E+03  0.00000000000E+00 0. -1.
<scales pt_clust_3="42.84309" pt_clust_4="93.17014" pt_clust_5="70.35991" pt_clust_6="42.84309"></scales>
<clustering>
<clus scale="   42.843">  3  6 -1 -1</clus>
<clus scale="   70.360">  1  5  2 -1</clus>
<clus scale="   93.170">  2  4  1 -1</clus>
<clus scale="   70.360">  1  3  2 -1</clus>
</clustering>
</event>
<event>
 6    0  0.6207838E+002  0.7981088E+02  0.7546771E-02  0.1329589E+00
         21   -1    0    0  504  501  0.00000000000E+00  0.00000000000E+00  0.62522616928E+02  0.62522616928E+02  0.00000000000E+00 0.  1.
         21   -1    0    0  505  502 -0.00000000000E+00 -0.00000000000E+00 -0.49135543094E+03  0.49135543094E+03  0.00000000000E+00 0.  1.
         21    1    1    2  503  506  0.59286654444E+02 -0.30488763231E+02 -0.17670654216E+03  0.18886416844E+03  0.00000000000E+00 0.  1.
         21    1    1    2  504  503 -0.19037535674E+02  0.80751370703E+02  0.41200874676E+01  0.83067362759E+02  0.00000000000E+00 0.  1.
         21    1    1    2  505  501 -0.14415373801E+02 -0.73268915535E+02 -0.11966669431E+03  0.14105408435E+03  0.00000000000E+00 0.  1.
         21    1    1    2  506  502 -0.25833744969E+02  0.23006308063E+02 -0.13657966501E+03  0.14089243232E+03  0.00000000000E+00 0.  1.
<scales pt_clust_3="49.50730" pt_clust_4="79.81088" pt_clust_5="14000.00000" pt_clust_6="34.59296"></scales>
<clustering>
<clus scale="   34.593">  2  6  1 -1</clus>
<clus scale="   49.507">  2  3  1 -1</clus>
<clus scale="   79.811">  1  4  2 -1</clus>
<clus scale="   79.811">  1  3  2 -1</clus>
</clustering>
</event>
<event>
 6    0  0.6207838E+002  0.1422802E+03  0.7546771E-02  0.1210293E+00
         21   -1    0    0  506  501  0.00000000000E+00  0.00000000000E+00  0.42195018470E+03  0.42195018470E+03  0.00000000000E+00 0.  1.
         21   -1    0    0  503  502 -0.00000000000E+00 -0.00000000000E+00 -0.84025938409E+02  0.84025938409E+02  0.00000000000E+00 0.  1.
         21    1    1    2  503  504 -0.81118294926E+02 -0.75752851118E+02  0.10147941838E+03  0.15038864511E+03  0.00000000000E+00 0.  1.
         21    1    1    2  504  501 -0.48788842188E+02 -0.42728377310E+01  0.39095667347E+02  0.62666414208E+02  0.00000000000E+00 0.  1.
         21    1    1    2  505  502  0.31725368356E+02  0.19099244135E+01 -0.23084861103E+02  0.39281772118E+02  0.00000000000E+00 0.  1.
         21    1    1    2  506  505  0.98181768758E+02  0.78115764435E+02  0.22043402167E+03  0.25363929167E+03  0.00000000000E+00 0.  1.
<scales pt_clust_3="31.36799" pt_clust_4="31.36799" pt_clust_5="31.78281" pt_clust_6="133.76290"></scales>
<clustering>
<clus scale="   31.783">  2  5  1 -1</clus>
<clus scale="   31.368">  3  4 -1 -1</clus>
<clus scale="  133.763">  1  6  2 -1</clus>
<clus scale="  133.763">  1  3  2 -1</clus>
</clustering>
</event>
<event>
 6    0  0.6207838E+002  0.1280399E+03  0.7546771E-02  0.1230394E+00
         21   -1    0    0  506  501  0.00000000000E+00  0.00000000000E+00  0.14508601345E+03  0.14508601345E+03  0.00000000000E+00 0.  1.
         21   -1    0    0  503  502 -0.00000000000E+00 -0.00000000000E+00 -0.39122916142E+03  0.39122916142E+03  0.00000000000E+00 0.  1.
         21    1    1    2  503  501  0.48226757258E+02 -0.26310826623E+02 -0.56769323292E+02  0.78998960627E+02  0.00000000000E+00 0.  1.
         21    1    1    2  504  505 -0.21134146721E+02 -0.53914323429E+02 -0.10625218226E+03  0.12100798595E+03  0.00000000000E+00 0. -1.
         21    1    1    2  505  502 -0.11872139069E+02 -0.44898216857E+02 -0.17453216235E+03  0.18060529687E+03  0.00000000000E+00 0.  1.
         21    1    1    2  506  504 -0.15220471468E+02  0.12512336691E+03  0.91410519938E+02  0.15570293142E+03  0.00000000000E+00 0.  1.
<scales pt_clust_3="54.93705" pt_clust_4="32.00684" pt_clust_5="32.00684" pt_clust_6="122.95045"></scales>
<clustering>
<clus scale="   32.007">  4  5 -1 -1</clus>
<clus scale="   54.937">  2  3  1 -1</clus>
<clus scale="  122.950">  1  6  2 -1</clus>
<clus scale="  122.950">  1  3  2 -1</clus>
</clustering>
</event>
<event>
 6    0  0.6207838E+002  0.1585894E+03  0.7546771E-02  0.1190299E+00
         21   -1    0    0  506  501  0.00000000000E+00  0.00000000000E+00  0.11765081121E+03  0.11765081121E+03  0.00000000000E+00 0. -1.
         21   -1    0    0  505  502 -0.00000000000E+00 -0.00000000000E+00 -0.17743717712E+04  0.17743717712E+04  0.00000000000E+00 0.  1.
         21    1    1    2  503  502 -0.76809057283E+02  0.79490672250E+02 -0.75577578982E+03  0.76381636716E+03  0.00000000000E+00 0.  1.
         21    1    1    2  504  503 -0.13186100296E+01  0.60969533912E+02 -0.40260181674E+03  0.40719435855E+03  0.00000000000E+00 0.  1.
         21    1    1    2  505  501 -0.54143029040E+02 -0.75395915271E+02 -0.55528439019E+03  0.56298913455E+03  0.00000000000E+00 0.  1.
         21    1    1    2  506  504  0.13227069635E+03 -0.65064290890E+02  0.56941036728E+02  0.15802272218E+03  0.00000000000E+00 0. -1.
<scales pt_clust_3="44.53169" pt_clust_4="44.53169" pt_clust_5="92.82247" pt_clust_6="146.82014"></scales>
<clustering>
<clus scale="   44.532">  3  4 -1 -1</clus>
<clus scale="   92.822">  2  5  1 -1</clus>
<clus scale="  146.820">  1  6  2 -1</clus>
<clus scale="  146.820">  1  3  2 -1</clus>
</clustering>
</event>
<event>
 6    0  0.6207838E+002  0.1157044E+03  0.7546771E-02  0.1250356E+00
         21   -1    0    0  505  501  0.00000000000E+00  0.00000000000E+00  0.25851141459E+03  0.25851141459E+03  0.00000000000E+00 0. -1.
         21   -1    0    0  504  502 -0.00000000000E+00 -0.00000000000E+00 -0.24754762758E+03  0.24754762758E+03  0.00000000000E+00 0. -1.
         21    1    1    2  503  502 -0.96011212117E+02  0.16420524349E+01  0.47341458136E+02  0.10706102394E+03  0.00000000000E+00 0. -1.
         21    1    1    2  504  506  0.11961279631E+03 -0.17151656684E+02 -0.16759019228E+03  0.20661043758E+03  0.00000000000E+00 0. -1.
         21    1    1    2  505  503 -0.52234172358E+02  0.54387434379E+02  0.12171073654E+03  0.14317787947E+03  0.00000000000E+00 0. -1.
         21    1    1    2  506  501  0.28632588162E+02 -0.38877830129E+02  0.95017846061E+01  0.49209701189E+02  0.00000000000E+00 0. -1.
<scales pt_clust_3="115.70441" pt_clust_4="14000.00000" pt_clust_5="47.87663" pt_clust_6="48.28365"></scales>
<clustering>
<clus scale="   48.284">  1  6  2 -1</clus>
<clus scale="   47.877">  1  5  2 -1</clus>
<clus scale="  115.704">  1  3  2 -1</clus>
<clus scale="   48.284">  1  3  2 -1</clus>
</clustering>
</event>
<event>
 6    0  0.6207838E+002  0.1097714E+03  0.7546771E-02  0.1260994E+00
         21   -1    0    0  506  501  0.00000000000E+00  0.00000000000E+00  0.81588522382E+02  0.81588522382E+02  0.00000000000E+00 0. -1.
         21   -1    0    0  503  502 -0.00000000000E+00 -0.00000000000E+00 -0.27251353205E+03  0.27251353205E+03  0.00000000000E+00 0. -1.
         21    1    1    2  503  504  0.22871661985E+02  0.24929334833E+02 -0.10705696000E+03  0.11227545298E+03  0.00000000000E+00 0. -1.
         21    1    1    2  504  505 -0.30468552623E+02  0.61198768016E+01 -0.24942683865E+02  0.39848752420E+02  0.00000000000E+00 0.  1.
         21    1    1    2  505  501 -0.68912802754E+02 -0.71817511080E+02 -0.58163103942E+02  0.11528085679E+03  0.00000000000E+00 0. -1.
         21    1    1    2  506  502  0.76509693392E+02  0.40768299445E+02 -0.76226186689E+00  0.86696992253E+02  0.00000000000E+00 0. -1.
<scales pt_clust_3="33.83171" pt_clust_4="30.43041" pt_clust_5="30.43041" pt_clust_6="95.30982"></scales>
<clustering>
<clus scale="   30.430">  4  5 -1 -1</clus>
<clus scale="   33.832">  2  3  1 -1</clus>
<clus scale="   95.310">  1  6  2 -1</clus>
<clus scale="   95.310">  1  3  2 -1</clus>
</clustering>
</event>
<event>
 6    0  0.6207838E+002  0.8737690E+02  0.7546771E-02  0.1309331E+00
         21   -1    0    0  506  501  0.00000000000E+00  0.00000000000E+00  0.32193008908E+03  0.32193008908E+03  0.00000000000E+00 0. -1.
         21   -1    0    0  504  502 -0.00000000000E+00 -0.00000000000E+00 -0.83729989597E+02  0.83729989597E+02  0.00000000000E+00 0. -1.
         21    1    1    2  503  502  0.50660997259E+02 -0.52174896555E+02  0.65822554060E+02  0.98088557420E+02  0.00000000000E+00 0. -1.
         21    1    1    2  504  505  0.39748475135E+02 -0.23882726298E+02 -0.27250755972E+02  0.53785960920E+02  0.00000000000E+00 0. -1.
         21    1    1    2  505  501 -0.10620358097E+03  0.34732473195E+02  0.13162039408E+03  0.17265420193E+03  0.00000000000E+00 0. -1.
         21    1    1    2  506  503  0.15794108576E+02  0.41325149658E+02  0.68007907317E+02  0.81131358411E+02  0.00000000000E+00 0.  1.
<scales pt_clust_3="87.37690" pt_clust_4="46.01552" pt_clust_5="14000.00000" pt_clust_6="44.24050"></scales>
<clustering>
<clus scale="   44.241">  1  6  2 -1</clus>
<clus scale="   46.016">  2  4  1 -1</clus>
<clus scale="   87.377">  1  3  2 -1</clus>
<clus scale="   44.241">  1  3  2 -1</clus>
</clustering>
</event>
<event>
 6    0  0.6207838E+002  0.1303352E+03  0.7546771E-02  0.1226959E+00
         21   -1    0    0  506  501  0.00000000000E+00  0.00000000000E+00  0.46055139131E+02  0.46055139131E+02  0.00000000000E+00 0. -1.
         21   -1    0    0  503  502 -0.00000000000E+00 -0.00000000000E+00 -0.13259957557E+04  0.13259957557E+04  0.00000000000E+00 0. -1.
         21    1    1    2  503  505 -0.63098703451E+02  0.14785584640E+02 -0.33909319472E+03  0.34523072661E+03  0.00000000000E+00 0.  1.
         21    1    1    2  504  501  0.36571235997E+02  0.63245045504E+02 -0.11578609844E+03  0.13690804094E+03  0.00000000000E+00 0. -1.
         21    1    1    2  505  504 -0.70028520305E+02 -0.96821669118E+02 -0.76581340344E+03  0.77507973664E+03  0.00000000000E+00 0. -1.
         21    1    1    2  506  502  0.96555987758E+02  0.18791038973E+02 -0.59247919966E+02  0.11483239063E+03  0.00000000000E+00 0. -1.
<scales pt_clust_3="64.80787" pt_clust_4="71.09250" pt_clust_5="130.33522" pt_clust_6="14000.00000"></scales>
<clustering>
<clus scale="   64.808">  2  3  1 -1</clus>
<clus scale="   71.092">  1  4  2 -1</clus>
<clus scale="  130.335">  2  5  1 -1</clus>
<clus scale="   71.092">  1  3  2 -1</clus>
</clustering>
</event>
<event>
 6    0  0.6207838E+002  0.1183771E+03  0.7546771E-02  0.1245799E+00
         21   -1    0    0  503  501  0.00000000000E+00  0.00000000000E+00  0.15681905666E+04  0.15681905666E+04  0.00000000000E+00 0. -1.
         21   -1    0    0  504  502 -0.00000000000E+00 -0.00000000000E+00 -0.88495390915E+02  0.88495390915E+02  0.00000000000E+00 0. -1.
         21    1    1    2  503  506 -0.11623383791E+03 -0.13829563445E+03  0.87228516277E+03  0.89079593217E+03  0.00000000000E+00 0. -1.
         21    1    1    2  504  505  0.59063702501E+02  0.89869807970E+02  0.14011038306E+03  0.17662395868E+03  0.00000000000E+00 0. -1.
         21    1    1    2  505  501  0.10062801458E+03  0.25901397744E+02  0.51232669785E+03  0.52275761597E+03  0.00000000000E+00 0.  1.
         21    1    1    2  506  502 -0.43457879172E+02  0.22524428731E+02 -0.45027068041E+02  0.66508450653E+02  0.00000000000E+00 0.  1.
<scales pt_clust_3="14000.00000" pt_clust_4="118.37708" pt_clust_5="98.23384" pt_clust_6="48.94831"></scales>
<clustering>
<clus scale="   48.948">  2  6  1 -1</clus>
<clus scale="   98.234">  1  5  2 -1</clus>
<clus scale="  118.377">  2  4  1 -1</clus>
<clus scale="   98.234">  1  3  2 -1</clus>
</clustering>
</event>
<event>
 6    0  0.6207838E+002  0.1089002E+03  0.7546771E-02  0.1262620E+00
         21   -1    0    0  505  501  0.00000000000E+00  0.00000000000E+00  0.18518716413E+04  0.18518716413E+04  0.00000000000E+00 0.  1.
         21   -1    0    0  504  502 -0.00000000000E+00 -0.00000000000E+00 -0.24258790796E+02  0.24258790796E+02  0.00000000000E+00 0.  1.
         21    1    1    2  503  501 -0.12723738240E+03  0.17563120108E+02  0.31820689860E+03  0.34315221839E+03  0.00000000000E+00 0.  1.
         21    1    1    2  504  503  0.12811505298E+02  0.29580142859E+02  0.73072032799E+02  0.79866397797E+02  0.00000000000E+00 0.  1.
         21    1    1    2  505  506  0.25658803883E+02 -0.20334214960E+02  0.11811356732E+04  0.11815893250E+04  0.00000000000E+00 0.  1.
         21    1    1    2  506  502  0.88767073217E+02 -0.26809048007E+02  0.25519824589E+03  0.27152249087E+03  0.00000000000E+00 0.  1.
<scales pt_clust_3="108.90018" pt_clust_4="32.23538" pt_clust_5="32.65036" pt_clust_6="14000.00000"></scales>
<clustering>
<clus scale="   32.235">  2  4  1 -1</clus>
<clus scale="   32.650">  1  5  2 -1</clus>
<clus scale="  108.900">  1  3  2 -1</clus>
<clus scale="   32.650">  1  3  2 -1</clus>
</clustering>
</event>
<event>
 6    0  0.6207838E+002  0.8787391E+02  0.7546771E-02  0.1308084E+00
         21   -1    0    0  504  501  0.00000000000E+00  0.00000000000E+00  0.85012455609E+03  0.85012455609E+03  0.00000000000E+00 0.  1.
         21   -1    0    0  505  502 -0.00000000000E+00 -0.00000000000E+00 -0.34507408114E+03  0.34507408114E+03  0.00000000000E+00 0. -1.
         21    1    1    2  503  501  0.30525499965E+02 -0.97140517763E+01  0.75727879854E+03  0.75795603281E+03  0.00000000000E+00 0.  1.
         21    1    1    2  504  502  0.28151963871E+02  0.74625141179E+02 -0.99178591581E+02  0.12727072638E+03  0.00000000000E+00 0. -1.
         21    1    1    2  505  506 -0.91447124141E+02  0.26186483458E+01 -0.20104297977E+03  0.22087940951E+03  0.00000000000E+00 0. -1.
         21    1    1    2  506  503  0.32769660306E+02 -0.67529737749E+02  0.47993247755E+02  0.89092468520E+02  0.00000000000E+00 0. -1.
<scales pt_clust_3="32.03387" pt_clust_4="80.16189" pt_clust_5="14000.00000" pt_clust_6="87.87391"></scales>
<clustering>
<clus scale="   32.034">  1  3  2 -1</clus>
<clus scale="   80.162">  2  4  1 -1</clus>
<clus scale="   87.874">  1  6  2 -1</clus>
<clus scale="   32.034">  1  3  2 -1</clus>
</clustering>
</event>
<event>
 6    0  0.6207838E+002  0.2350937E+03  0.7546771E-02  0.1123105E+00
         21   -1    0    0  502  501  0.00000000000E+00  0.00000000000E+00  0.11338404632E+04  0.11338404632E+04  0.00000000000E+00 0. -1.
         21   -1    0    0  504  502 -0.00000000000E+00 -0.00000000000E+00 -0.23082218247E+03  0.23082218247E+03  0.00000000000E+00 0.  1.
         21    1    1    2  503  505  0.11685823286E+03  0.97643548654E+02  0.17005771971E+03  0.22827557297E+03  0.00000000000E+00 0. -1.
         21    1    1    2  504  506 -0.12875407632E+03 -0.19895445091E+03 -0.11966388861E+03  0.26548056792E+03  0.00000000000E+00 0.  1.
         21    1    1    2  505  501  0.16369663254E+02  0.61938029048E+02  0.81066736769E+03  0.81319485140E+03  0.00000000000E+00 0. -1.
         21    1    1    2  506  503 -0.44738197940E+01  0.39372873212E+02  0.41957081913E+02  0.57711653339E+02  0.00000000000E+00 0. -1.
<scales pt_clust_3="37.60555" pt_clust_4="223.23613" pt_clust_5="64.06470" pt_clust_6="37.60555"></scales>
<clustering>
<clus scale="   37.606">  3  6 -1 -1</clus>
<clus scale="   64.065">  1  5  2 -1</clus>
<clus scale="  223.236">  2  4  1 -1</clus>
<clus scale="   64.065">  1  3  2 -1</clus>
</clustering>
</event>
<event>
 6    0  0.6207838E+002  0.1229252E+03  0.7546771E-02  0.1238348E+00
         21   -1    0    0  506  501  0.00000000000E+00  0.00000000000E+00  0.36867065226E+02  0.36867065226E+02  0.00000000000E+00 0. -1.
         21   -1    0    0  504  502 -0.00000000000E+00 -0.00000000000E+00 -0.98969560964E+03  0.98969560964E+03  0.00000000000E+00 0.  1.
         21    1    1    2  503  501  0.70811935223E+02  0.76288083793E+02 -0.10523477491E+03  0.14801540375E+03  0.00000000000E+00 0. -1.
         21    1    1    2  504  503  0.41633557877E+02 -0.26297385894E+01 -0.61147387990E+02  0.74022102946E+02  0.00000000000E+00 0.  1.
         21    1    1    2  505  502 -0.43315584544E+02 -0.34544909778E+02 -0.59048564115E+03  0.59307915413E+03  0.00000000000E+00 0.  1.
         21    1    1    2  506  505 -0.69129908556E+02 -0.39113435426E+02 -0.19596074037E+03  0.21144601404E+03  0.00000000000E+00 0.  1.
<scales pt_clust_3="37.70962" pt_clust_4="37.70962" pt_clust_5="55.40389" pt_clust_6="107.52910"></scales>
<clustering>
<clus scale="   37.710">  3  4 -1 -1</clus>
<clus scale="   55.404">  2  5  1 -1</clus>
<clus scale="  107.529">  2  6  1 -1</clus>
<clus scale="  122.925">  1  3  2 -1</clus>
</clustering>
</event>
<event>
 6    0  0.6207838E+002  0.1189306E+03  0.7546771E-02  0.1244872E+00
         21   -1    0    0  504  501  0.00000000000E+00  0.00000000000E+00  0.45400697578E+03  0.45400697578E+03  0.00000000000E+00 0. -1.
         21   -1    0    0  503  502 -0.00000000000E+00 -0.00000000000E+00 -0.12708499313E+03  0.12708499313E+03  0.00000000000E+00 0. -1.
         21    1    1    2  503  505  0.21280009054E+02 -0.13799433786E+03  0.54764724858E+02  0.14998150272E+03  0.00000000000E+00 0. -1.
         21    1    1    2  504  506 -0.72142249523E+02  0.10044033614E+03  0.67726755876E+02  0.14099531464E+03  0.00000000000E+00 0. -1.
         21    1    1    2  505  501  0.24872716675E+02 -0.35489757535E+02  0.20803560101E+03  0.21250173226E+03  0.00000000000E+00 0. -1.
         21    1    1    2  506  502  0.25989523793E+02  0.73043759261E+02 -0.36050990924E+01  0.77613419287E+02  0.00000000000E+00 0. -1.
<scales pt_clust_3="118.93057" pt_clust_4="14000.00000" pt_clust_5="43.33792" pt_clust_6="73.91410"></scales>
<clustering>
<clus scale="   43.338">  1  5  2 -1</clus>
<clus scale="   73.914">  2  6  1 -1</clus>
<clus scale="  118.931">  2  3  1 -1</clus>
<clus scale="   43.338">  1  3  2 -1</clus>
</clustering>
</event>
<event>
 6    0  0.6207838E+002  0.1902531E+03  0.7546771E-02  0.1158233E+00
         21   -1    0    0  503  501  0.00000000000E+00  0.00000000000E+00  0.36521559493E+03  0.36521559493E+03  0.00000000000E+00 0.  1.
         21   -1    0    0  506  502 -0.00000000000E+00 -0.00000000000E+00 -0.15450904792E+03  0.15450904792E+03  0.00000000000E+00 0.  1.
         21    1    1    2  503  504  0.12097695045E+03  0.93145410972E+02  0.61127340692E+02  0.16446288914E+03  0.00000000000E+00 0.  1.
         21    1    1    2  504  502  0.84859010168E+02 -0.46712393953E+02  0.42484377393E+02  0.10577344505E+03  0.00000000000E+00 0.  1.
         21    1    1    2  505  501 -0.34629837323E+02 -0.34587859043E+02  0.35895423974E+01  0.49075762254E+02  0.00000000000E+00 0.  1.
         21    1    1    2  506  505 -0.17120612329E+03 -0.11845157977E+02  0.10350528653E+03  0.20041254641E+03  0.00000000000E+00 0.  1.
<scales pt_clust_3="173.04796" pt_clust_4="96.86640" pt_clust_5="42.22167" pt_clust_6="42.22167"></scales>
<clustering>
<clus scale="   42.222">  5  6 -1 -1</clus>
<clus scale="   96.866">  2  4  1 -1</clus>
<clus scale="  173.048">  1  3  2 -1</clus>
<clus scale="  173.048">  1  3  2 -1</clus>
</clustering>
</event>
<event>
 6    0  0.6207838E+002  0.2901387E+03  0.7546771E-02  0.1090277E+00
         21   -1    0    0  506  501  0.00000000000E+00  0.00000000000E+00  0.24857631513E+03  0.24857631513E+03  0.00000000000E+00 0.  1.
         21   -1    0    0  503  502 -0.00000000000E+00 -0.00000000000E+00 -0.12089574901E+04  0.12089574901E+04  0.00000000000E+00 0.  1.
         21    1    1    2  503  505  0.60890925531E+02  0.29039466914E+03 -0.32222189706E+03  0.43802251040E+03  0.00000000000E+00 0.  1.
         21    1    1    2  504  502  0.21577352451E+02 -0.32577920719E+02 -0.63428825445E+03  0.63549074957E+03  0.00000000000E+00 0.  1.
         21    1    1    2  505  501  0.15395489498E+02  0.37213110613E+02  0.54484807728E+02  0.67752719292E+02  0.00000000000E+00 0.  1.
         21    1    1    2  506  504 -0.97863767479E+02 -0.29502985903E+03 -0.58355831193E+02  0.31626782596E+03  0.00000000000E+00 0.  1.
<scales pt_clust_3="14000.00000" pt_clust_4="39.07561" pt_clust_5="40.02123" pt_clust_6="290.13869"></scales>
<clustering>
<clus scale="   39.076">  2  4  1 -1</clus>
<clus scale="   40.021">  1  5  2 -1</clus>
<clus scale="  290.139">  1  6  2 -1</clus>
<clus scale="   40.021">  1  3  2 -1</clus>
</clustering>
</event>
<event>
 6    0  0.6207838E+002  0.7906925E+02  0.7546771E-02  0.1331714E+00
         21   -1    0    0  505  501  0.00000000000E+00  0.00000000000E+00  0.87216686951E+03  0.87216686951E+03  0.00000000000E+00 0.  1.
         21   -1    0    0  503  502 -0.00000000000E+00 -0.00000000000E+00 -0.59894205328E+03  0.59894205328E+03  0.00000000000E+00 0.  1.
         21    1    1    2  503  506 -0.29150831162E+01  0.10184790118E+03 -0.12713992057E+03  0.16292959242E+03  0.00000000000E+00 0.  1.
         21    1    1    2  504  502  0.33246466824E+02 -0.28474321151E+02 -0.33763662079E+03  0.34046233597E+03  0.00000000000E+00 0.  1.
         21    1    1    2  505  504  0.45309816043E+02 -0.49779753575E+02 -0.10297083620E+03  0.12302030890E+03  0.00000000000E+00 0.  1.
         21    1    1    2  506  501 -0.75641199751E+02 -0.23593826453E+02  0.84097219378E+03  0.84469668548E+03  0.00000000000E+00 0.  1.
<scales pt_clust_3="14000.00000" pt_clust_4="43.77345" pt_clust_5="77.42124" pt_clust_6="79.06925"></scales>
<clustering>
<clus scale="   43.773">  2  4  1 -1</clus>
<clus scale="   79.069">  1  6  2 -1</clus>
<clus scale="   77.421">  1  5  2 -1</clus>
<clus scale="   79.069">  1  3  2 -1</clus>
</clustering>
</event>
<event>
 6    0  0.6207838E+002  0.1104267E+03  0.7546771E-02  0.1259782E+00
         21   -1    0    0  504  501  0.00000000000E+00  0.00000000000E+00  0.30378458292E+03  0.30378458292E+03  0.00000000000E+00 0. -1.
         21   -1    0    0  505  502 -0.00000000000E+00 -0.00000000000E+00 -0.54094987322E+03  0.54094987322E+03  0.00000000000E+00 0. -1.
         21    1    1    2  503  502 -0.58630334919E+02  0.44600092471E+01 -0.41824666842E+03  0.42235966131E+03  0.00000000000E+00 0. -1.
         21    1    1    2  504  503  0.91767272576E+02  0.33172754451E+02  0.26287181307E+03  0.28039838456E+03  0.00000000000E+00 0. -1.
         21    1    1    2  505  506 -0.56574717928E+02 -0.46348205961E+01 -0.84068072067E+02  0.10143776916E+03  0.00000000000E+00 0.  1.
         21    1    1    2  506  501  0.23437780271E+02 -0.32997943102E+02  0.22776371152E+01  0.40538641119E+02  0.00000000000E+00 0. -1.
<scales pt_clust_3="14000.00000" pt_clust_4="110.42669" pt_clust_5="56.13887" pt_clust_6="40.47461"></scales>
<clustering>
<clus scale="   40.475">  1  6  2 -1</clus>
<clus scale="   56.139">  2  5  1 -1</clus>
<clus scale="  110.427">  1  4  2 -1</clus>
<clus scale="   40.475">  1  3  2 -1</clus>
</clustering>
</event>
<event>
 6    0  0.6207838E+002  0.9928983E+02  0.7546771E-02  0.1281796E+00
         21   -1    0    0  506  501  0.00000000000E+00  0.00000000000E+00  0.84375749323E+03  0.84375749323E+03  0.00000000000E+00 0. -1.
         21   -1    0    0  504  502 -0.00000000000E+00 -0.00000000000E+00 -0.12785171115E+04  0.12785171115E+04  0.00000000000E+00 0.  1.
         21    1    1    2  503  501 -0.24775802489E+02  0.40520982602E+02  0.71222692787E+03  0.71380878897E+03  0.00000000000E+00 0. -1.
         21    1    1    2  504  505 -0.36301543107E+02 -0.16218240685E+02 -0.96981772880E+03  0.97063240233E+03  0.00000000000E+00 0.  1.
         21    1    1    2  505  503  0.72580175502E+02  0.50548799693E+02  0.10982692110E+03  0.14101423908E+03  0.00000000000E+00 0.  1.
         21    1    1    2  506  502 -0.11502829906E+02 -0.74851541611E+02 -0.28699573839E+03  0.29681917430E+03  0.00000000000E+00 0. -1.
<scales pt_clust_3="47.50835" pt_clust_4="39.75970" pt_clust_5="14000.00000" pt_clust_6="99.28983"></scales>
<clustering>
<clus scale="   39.760">  2  4  1 -1</clus>
<clus scale="   47.508">  1  3  2 -1</clus>
<clus scale="   99.290">  2  6  1 -1</clus>
<clus scale="   47.508">  1  3  2 -1</clus>
</clustering>
</event>
<event>
 6    0  0.6207838E+002  0.1006452E+03  0.7546771E-02  0.1278945E+00
         21   -1    0    0  506  501  0.00000000000E+00  0.00000000000E+00  0.65961956190E+02  0.65961956190E+02  0.00000000000E+00 0.  1.
         21   -1    0    0  503  502 -0.00000000000E+00 -0.00000000000E+00 -0.18287589999E+04  0.18287589999E+04  0.00000000000E+00 0.  1.
         21    1    1    2  503  505 -0.28866936692E+02 -0.86992718361E+02 -0.15334818549E+04  0.15362186147E+04  0.00000000000E+00 0.  1.
         21    1    1    2  504  502  0.46264108181E+02  0.35836019671E+02 -0.16833785480E+03  0.17821958751E+03  0.00000000000E+00 0.  1.
         21    1    1    2  505  501 -0.67358919487E+02  0.13914954970E+02  0.25789938761E+02  0.73457272939E+02  0.00000000000E+00 0.  1.
         21    1    1    2  506  504  0.49961747998E+02  0.37241743720E+02 -0.86767272766E+02  0.10682548086E+03  0.00000000000E+00 0.  1.
<scales pt_clust_3="92.50491" pt_clust_4="38.42582" pt_clust_5="68.78117" pt_clust_6="38.42582"></scales>
<clustering>
<clus scale="   38.426">  4  6 -1 -1</clus>
<clus scale="   68.781">  1  5  2 -1</clus>
<clus scale="   92.505">  2  3  1 -1</clus>
<clus scale="   68.781">  1  3  2 -1</clus>
</clustering>
</event>
<event>
 6    0  0.6207838E+002  0.1207619E+03  0.7546771E-02  0.1241846E+00
         21   -1    0    0  505  501  0.00000000000E+00  0.00000000000E+00  0.30803437060E+03  0.30803437060E+03  0.00000000000E+00 0.  1.
         21   -1    0    0  506  502 -0.00000000000E+00 -0.00000000000E+00 -0.22092379417E+03  0.22092379417E+03  0.00000000000E+00 0. -1.
         21    1    1    2  503  502  0.52233272887E+02  0.41115876829E+02  0.29703390919E+02  0.72808801364E+02  0.00000000000E+00 0. -1.
         21    1    1    2  504  501  0.94755489057E+02  0.22076756563E+02  0.19138030657E+03  0.21469142421E+03  0.00000000000E+00 0.  1.
         21    1    1    2  505  503 -0.31027123616E+02 -0.21248299139E+02  0.21265589039E+02  0.43201827430E+02  0.00000000000E+00 0. -1.
         21    1    1    2  506  504 -0.11596163833E+03 -0.41944334253E+02 -0.15523871009E+03  0.19825611176E+03  0.00000000000E+00 0. -1.
<scales pt_clust_3="59.50270" pt_clust_4="14000.00000" pt_clust_5="37.60549" pt_clust_6="120.76185"></scales>
<clustering>
<clus scale="   37.605">  1  5  2 -1</clus>
<clus scale="   59.503">  1  3  2 -1</clus>
<clus scale="  120.762">  2  6  1 -1</clus>
<clus scale="   37.605">  1  3  2 -1</clus>
</clustering>
</event>
<event>
 6    0  0.6207838E+002  0.1063517E+03  0.7546771E-02  0.1267479E+00
         21   -1    0    0  506  501  0.00000000000E+00  0.00000000000E+00  0.70470077966E+02  0.70470077966E+02  0.00000000000E+00 0.  1.
         21   -1    0    0  505  502 -0.00000000000E+00 -0.00000000000E+00 -0.66516194095E+03  0.66516194095E+03  0.00000000000E+00 0.  1.
         21    1    1    2  503  501 -0.39654418559E+02  0.28371421908E+02  0.12212391576E+01  0.48773988123E+02  0.00000000000E+00 0.  1.
         21    1    1    2  504  502  0.24679232188E+02 -0.82903115596E+02 -0.19602269045E+03  0.21425892338E+03  0.00000000000E+00 0.  1.
         21    1    1    2  505  503 -0.88280014602E+01  0.13549269415E+03 -0.34795884150E+03  0.37351246185E+03  0.00000000000E+00 0.  1.
         21    1    1    2  506  504  0.23803187831E+02 -0.80961000466E+02 -0.51931570202E+02  0.99086645574E+02  0.00000000000E+00 0.  1.
<scales pt_clust_3="48.75870" pt_clust_4="106.35172" pt_clust_5="14000.00000" pt_clust_6="66.32967"></scales>
<clustering>
<clus scale="   48.759">  1  3  2 -1</clus>
<clus scale="   66.330">  1  6  2 -1</clus>
<clus scale="  106.352">  2  4  1 -1</clus>
<clus scale="   48.759">  1  3  2 -1</clus>
</clustering>
</event>
<event>
 6    0  0.6207838E+002  0.1117886E+03  0.7546771E-02  0.1257293E+00
         21   -1    0    0  505  501  0.00000000000E+00  0.00000000000E+00  0.18912436977E+03  0.18912436977E+03  0.00000000000E+00 0.  1.
         21   -1    0    0  506  502 -0.00000000000E+00 -0.00000000000E+00 -0.46171580098E+03  0.46171580098E+03  0.00000000000E+00 0.  1.
         21    1    1    2  503  501  0.14453428456E+01  0.12676208131E+03  0.27348066087E+02  0.12968666467E+03  0.00000000000E+00 0.  1.
         21    1    1    2  504  502 -0.31539253186E+02  0.27148346593E+02 -0.29179730748E+03  0.29474976822E+03  0.00000000000E+00 0.  1.
         21    1    1    2  505  504 -0.65987058214E+02 -0.84700471245E+02 -0.11186956529E+02  0.10795188594E+03  0.00000000000E+00 0.  1.
         21    1    1    2  506  503  0.96080968555E+02 -0.69209956659E+02  0.30447667214E+01  0.11845185192E+03  0.00000000000E+00 0.  1.
<scales pt_clust_3="14000.00000" pt_clust_4="41.61439" pt_clust_5="111.78864" pt_clust_6="104.21735"></scales>
<clustering>
<clus scale="   41.614">  2  4  1 -1</clus>
<clus scale="  104.217">  2  6  1 -1</clus>
<clus scale="  111.789">  2  5  1 -1</clus>
<clus scale="  111.789">  1  3  2 -1</clus>
</clustering>
</event>
<event>
 6    0  0.6207838E+002  0.1727450E+03  0.7546771E-02  0.1175015E+00
         21   -1    0    0  506  501  0.00000000000E+00  0.00000000000E+00  0.58174369611E+03  0.58174369611E+03  0.00000000000E+00 0.  1.
         21   -1    0    0  503  502 -0.00000000000E+00 -0.00000000000E+00 -0.61012074783E+03  0.61012074783E+03  0.00000000000E+00 0.  1.
         21    1    1    2  503  505 -0.22212665982E+03  0.58917788618E+01 -0.30183993292E+03  0.37480969994E+03  0.00000000000E+00 0.  1.
         21    1    1    2  504  502  0.59949539850E+02 -0.49437276221E+02 -0.17627317984E+03  0.19264014519E+03  0.00000000000E+00 0.  1.
         21    1    1    2  505  501  0.56105398188E+02  0.17594324648E+03  0.51760404153E+02  0.19178889729E+03  0.00000000000E+00 0.  1.
         21    1    1    2  506  504  0.10607172178E+03 -0.13239774912E+03  0.39797565689E+03  0.43262570152E+03  0.00000000000E+00 0.  1.
<scales pt_clust_3="163.64768" pt_clust_4="77.70451" pt_clust_5="14000.00000" pt_clust_6="172.74495"></scales>
<clustering>
<clus scale="   77.705">  2  4  1 -1</clus>
<clus scale="  172.745">  1  6  2 -1</clus>
<clus scale="  163.648">  2  3  1 -1</clus>
<clus scale="  172.745">  1  3  2 -1</clus>
</clustering>
</event>
<event>
 6    0  0.6207838E+002  0.1422786E+03  0.7546771E-02  0.1210295E+00
         21   -1    0    0  504  501  0.00000000000E+00  0.00000000000E+00  0.28999463963E+04  0.28999463963E+04  0.00000000000E+00 0. -1.
         21   -1    0    0  506  502 -0.00000000000E+00 -0.00000000000E+00 -0.19470553949E+03  0.19470553949E+03  0.00000000000E+00 0. -1.
         21    1    1    2  503  502 -0.12359549746E+03 -0.70729178452E+02 -0.15950767175E+03  0.21382507109E+03  0.00000000000E+00 0. -1.
         21    1    1    2  504  505  0.47564216266E+02 -0.44622105743E+02  0.57944704111E+03  0.58310578838E+03  0.00000000000E+00 0. -1.
         21    1    1    2  505  503  0.13012476064E+03  0.43347111906E+02  0.17009113170E+04  0.17064321650E+04  0.00000000000E+00 0. -1.
         21    1    1    2  506  501 -0.54093479441E+02  0.72004172288E+02  0.58439017051E+03  0.59128891139E+03  0.00000000000E+00 0. -1.
<scales pt_clust_3="142.27862" pt_clust_4="65.21876" pt_clust_5="14000.00000" pt_clust_6="73.82660"></scales>
<clustering>
<clus scale="   65.219">  1  4  2 -1</clus>
<clus scale="   73.827">  1  6  2 -1</clus>
<clus scale="  142.279">  2  3  1 -1</clus>
<clus scale="   65.219">  1  3  2 -1</clus>
</clustering>
</event>
<event>
 6    0  0.6207838E+002  0.7977662E+02  0.7546771E-02  0.1329687E+00
         21   -1    0    0  504  501  0.00000000000E+00  0.00000000000E+00  0.78878924159E+02  0.78878924159E+02  0.00000000000E+00 0.  1.
         21   -1    0    0  506  502 -0.00000000000E+00 -0.00000000000E+00 -0.61389695460E+03  0.61389695460E+03  0.00000000000E+00 0. -1.
         21    1    1    2  503  501  0.38077689176E+02 -0.31352731225E+02  0.41154077234E+02  0.64238323774E+02  0.00000000000E+00 0.  1.
         21    1    1    2  504  505 -0.87441143361E+02 -0.19974021930E+02 -0.14927184954E+03  0.17414649054E+03  0.00000000000E+00 0. -1.
         21    1    1    2  505  502  0.15023336974E+02 -0.44049467850E+02 -0.75780068488E+02  0.88930731762E+02  0.00000000000E+00 0. -1.
         21    1    1    2  506  503  0.34340117210E+02  0.95376221005E+02 -0.35112018965E+03  0.36546033268E+03  0.00000000000E+00 0. -1.
<scales pt_clust_3="50.18712" pt_clust_4="14000.00000" pt_clust_5="46.54091" pt_clust_6="79.77662"></scales>
<clustering>
<clus scale="   46.541">  2  5  1 -1</clus>
<clus scale="   50.187">  1  3  2 -1</clus>
<clus scale="   79.777">  2  6  1 -1</clus>
<clus scale="   50.187">  1  3  2 -1</clus>
</clustering>
</event>
<event>
 6    0  0.6207838E+002  0.1717566E+03  0.7546771E-02  0.1176028E+00
         21   -1    0    0  502  501  0.00000000000E+00  0.00000000000E+00  0.21727831761E+03  0.21727831761E+03  0.00000000000E+00 0.  1.
         21   -1    0    0  506  502 -0.00000000000E+00 -0.00000000000E+00 -0.10192083419E+04  0.10192083419E+04  0.00000000000E+00 0.  1.
         21    1    1    2  503  504  0.79371430315E+02  0.66104533378E+02 -0.12915182643E+03  0.16537783271E+03  0.00000000000E+00 0.  1.
         21    1    1    2  504  505  0.75222151059E+02  0.64066044219E+02 -0.70981165646E+02  0.12166000127E+03  0.00000000000E+00 0. -1.
         21    1    1    2  505  501 -0.21933423374E+02 -0.16765898641E+03  0.12463102502E+03  0.21005595251E+03  0.00000000000E+00 0.  1.
         21    1    1    2  506  503 -0.13266015800E+03  0.37488408818E+02 -0.72642805721E+03  0.73939287298E+03  0.00000000000E+00 0.  1.
<scales pt_clust_3="37.80284" pt_clust_4="37.80284" pt_clust_5="167.35111" pt_clust_6="137.85535"></scales>
<clustering>
<clus scale="   37.803">  3  4 -1 -1</clus>
<clus scale="  137.855">  2  6  1 -1</clus>
<clus scale="  167.351">  1  5  2 -1</clus>
<clus scale="  167.351">  1  3  2 -1</clus>
</clustering>
</event>
<event>
 6    0  0.6207838E+002  0.1191111E+03  0.7546771E-02  0.1244571E+00
         21   -1    0    0  503  501  0.00000000000E+00  0.00000000000E+00  0.10729472773E+03  0.10729472773E+03  0.00000000000E+00 0. -1.
         21   -1    0    0  505  502 -0.00000000000E+00 -0.00000000000E+00 -0.25636885224E+03  0.25636885224E+03  0.00000000000E+00 0. -1.
         21    1    1    2  503  506  0.70903154435E+02  0.32024036528E+02 -0.34904482326E+01  0.77877977974E+02  0.00000000000E+00 0. -1.
         21    1    1    2  504  502  0.15494868619E+02  0.49605758932E+02 -0.29304964862E+02  0.59662410598E+02  0.00000000000E+00 0. -1.
         21    1    1    2  505  501 -0.67023152685E+02 -0.12643171185E+03 -0.10035186006E+03  0.17477865022E+03  0.00000000000E+00 0. -1.
         21    1    1    2  506  504 -0.19374870370E+02  0.44801916388E+02 -0.15926851357E+02  0.51344541170E+02  0.00000000000E+00 0. -1.
<scales pt_clust_3="77.79972" pt_clust_4="35.59233" pt_clust_5="113.30796" pt_clust_6="35.59233"></scales>
<clustering>
<clus scale="   35.592">  4  6 -1 -1</clus>
<clus scale="   77.800">  1  3  2 -1</clus>
<clus scale="  113.308">  1  5  2 -1</clus>
<clus scale="   77.800">  1  3  2 -1</clus>
</clustering>
</event>
<event>
 6    0  0.6207838E+002  0.1320455E+03  0.7546771E-02  0.1224452E+00
         21   -1    0    0  503  501  0.00000000000E+00  0.00000000000E+00  0.27662627478E+03  0.27662627478E+03  0.00000000000E+00 0. -1.
         21   -1    0    0  504  502 -0.00000000000E+00 -0.00000000000E+00 -0.10986670185E+04  0.10986670185E+04  0.00000000000E+00 0.  1.
         21    1    1    2  503  505  0.10818897974E+03  0.58860317856E+02 -0.80254496908E+02  0.14700400209E+03  0.00000000000E+00 0. -1.
         21    1    1    2  504  506 -0.85698047540E+01 -0.68622470339E+02 -0.90347001719E+03  0.90611288312E+03  0.00000000000E+00 0.  1.
         21    1    1    2  505  502  0.30291120473E+02 -0.47341523650E+02 -0.44632228583E+02  0.71769127550E+02  0.00000000000E+00 0. -1.
         21    1    1    2  506  501 -0.12991029546E+03  0.57103676133E+02  0.20631599898E+03  0.25040728050E+03  0.00000000000E+00 0. -1.
<scales pt_clust_3="132.04546" pt_clust_4="111.21974" pt_clust_5="56.20295" pt_clust_6="14000.00000"></scales>
<clustering>
<clus scale="   56.203">  2  5  1 -1</clus>
<clus scale="  111.220">  2  4  1 -1</clus>
<clus scale="  132.045">  2  3  1 -1</clus>
<clus scale="  132.045">  1  3  2 -1</clus>
</clustering>
</event>
<event>
 6    0  0.6207838E+002  0.1519325E+03  0.7546771E-02  0.1198118E+00
         21   -1    0    0  505  501  0.00000000000E+00  0.00000000000E+00  0.21022567292E+03  0.21022567292E+03  0.00000000000E+00 0. -1.
         21   -1    0    0  504  502 -0.00000000000E+00 -0.00000000000E+00 -0.19604653046E+03  0.19604653046E+03  0.00000000000E+00 0. -1.
         21    1    1    2  503  501  0.52059798498E+02 -0.55287824448E+02 -0.69178308260E+01  0.76254983675E+02  0.00000000000E+00 0. -1.
         21    1    1    2  504  503  0.82655859707E+02 -0.31328912342E+02 -0.58562064316E+02  0.10603304801E+03  0.00000000000E+00 0. -1.
         21    1    1    2  505  506 -0.41768068845E+02  0.64317376983E+01  0.91371579226E+02  0.10067126857E+03  0.00000000000E+00 0. -1.
         21    1    1    2  506  502 -0.92947589360E+02  0.80184999092E+02 -0.11712541618E+02  0.12331290313E+03  0.00000000000E+00 0. -1.
<scales pt_clust_3="52.27801" pt_clust_4="52.27801" pt_clust_5="42.26037" pt_clust_6="140.68739"></scales>
<clustering>
<clus scale="   42.260">  1  5  2 -1</clus>
<clus scale="   52.278">  3  4 -1 -1</clus>
<clus scale="  140.687">  1  6  2 -1</clus>
<clus scale="   42.260">  1  3  2 -1</clus>
</clustering>
</event>
<event>
 6    0  0.6207838E+002  0.1148809E+03  0.7546771E-02  0.1251789E+00
         21   -1    0    0  504  501  0.00000000000E+00  0.00000000000E+00  0.49309199024E+03  0.49309199024E+03  0.00000000000E+00 0. -1.
         21   -1    0    0  501  502 -0.00000000000E+00 -0.00000000000E+00 -0.37911447186E+02  0.37911447186E+02  0.00000000000E+00 0. -1.
         21    1    1    2  503  502 -0.21019044145E+02  0.28780949051E+02  0.31345486890E+02  0.47462435603E+02  0.00000000000E+00 0. -1.
         21    1    1    2  504  506 -0.41352744454E+02 -0.10948016025E+03  0.28565120771E+03  0.30869494234E+03  0.00000000000E+00 0. -1.
         21    1    1    2  505  503  0.23873919137E+02  0.41747328741E+02  0.40570067761E+02  0.62918470023E+02  0.00000000000E+00 0. -1.
         21    1    1    2  506  505  0.38497869462E+02  0.38951882458E+02  0.97613780689E+02  0.11192758945E+03  0.00000000000E+00 0. -1.
<scales pt_clust_3="35.63907" pt_clust_4="110.10839" pt_clust_5="30.70671" pt_clust_6="30.70671"></scales>
<clustering>
<clus scale="   30.707">  5  6 -1 -1</clus>
<clus scale="   35.639">  2  3  1 -1</clus>
<clus scale="  110.108">  1  4  2 -1</clus>
<clus scale="  110.108">  1  3  2 -1</clus>
</clustering>
</event>
<event>
 6    0  0.6207838E+002  0.9169042E+02  0.7546771E-02  0.1298809E+00
         21   -1    0    0  504  501  0.00000000000E+00  0.00000000000E+00  0.23418994437E+04  0.23418994437E+04  0.00000000000E+00 0.  1.
         21   -1    0    0  503  502 -0.00000000000E+00 -0.00000000000E+00 -0.23796959755E+02  0.23796959755E+02  0.00000000000E+00 0. -1.
         21    1    1    2  503  505 -0.17160996777E+01  0.55579611206E+02  0.28636004793E+02  0.62546454339E+02  0.00000000000E+00 0. -1.
         21    1    1    2  504  506  0.38006811339E+02  0.12987065626E+02  0.53153589505E+03  0.53305120702E+03  0.00000000000E+00 0.  1.
         21    1    1    2  505  501 -0.10669987947E+03  0.22659565316E+01  0.97505594967E+03  0.98087925038E+03  0.00000000000E+00 0.  1.
         21    1    1    2  506  502  0.70409167813E+02 -0.70832633364E+02  0.78287463438E+03  0.78921949166E+03  0.00000000000E+00 0.  1.
<scales pt_clust_3="55.91195" pt_clust_4="40.16443" pt_clust_5="14000.00000" pt_clust_6="91.69042"></scales>
<clustering>
<clus scale="   40.164">  1  4  2 -1</clus>
<clus scale="   55.912">  2  3  1 -1</clus>
<clus scale="   91.690">  2  6  1 -1</clus>
<clus scale="   40.164">  1  3  2 -1</clus>
</clustering>
</event>
<event>
 6    0  0.6207838E+002  0.1612953E+03  0.7546771E-02  0.1187242E+00
         21   -1    0    0  504  501  0.00000000000E+00  0.00000000000E+00  0.53800142002E+03  0.53800142002E+03  0.00000000000E+00 0.  1.
         21   -1    0    0  503  502 -0.00000000000E+00 -0.00000000000E+00 -0.10891572166E+04  0.10891572166E+04  0.00000000000E+00 0.  1.
         21    1    1    2  503  505  0.86246510438E+02  0.13636800184E+03 -0.10062822146E+04  0.10191361970E+04  0.00000000000E+00 0.  1.
         21    1    1    2  504  506  0.54614894193E+02  0.34983670130E+02  0.18317881394E+03  0.19432221108E+03  0.00000000000E+00 0. -1.
         21    1    1    2  505  501 -0.70758758214E+02 -0.28184479790E+02 -0.22027285574E+02  0.79286619771E+02  0.00000000000E+00 0. -1.
         21    1    1    2  506  502 -0.70102646418E+02 -0.14316719218E+03  0.29397488971E+03  0.33441360877E+03  0.00000000000E+00 0.  1.
<scales pt_clust_3="161.29528" pt_clust_4="64.85865" pt_clust_5="70.95212" pt_clust_6="14000.00000"></scales>
<clustering>
<clus scale="   64.859">  1  4  2 -1</clus>
<clus scale="   70.952">  1  5  2 -1</clus>
<clus scale="  161.295">  2  3  1 -1</clus>
<clus scale="   64.859">  1  3  2 -1</clus>
</clustering>
</event>
<event>
 6    0  0.6207838E+002  0.1092740E+03  0.7546771E-02  0.1261920E+00
         21   -1    0    0  505  501  0.00000000000E+00  0.00000000000E+00  0.38002360694E+03  0.38002360694E+03  0.00000000000E+00 0. -1.
         21   -1    0    0  503  502 -0.00000000000E+00 -0.00000000000E+00 -0.10521702263E+04  0.10521702263E+04  0.00000000000E+00 0.  1.
         21    1    1    2  503  504 -0.25376148385E+02  0.17210044006E+02 -0.90566368557E+03  0.90618256764E+03  0.00000000000E+00 0.  1.
         21    1    1    2  504  506 -0.42050843546E+02  0.10101772067E+03 -0.21452385089E+02  0.11150362397E+03  0.00000000000E+00 0.  1.
         21    1    1    2  505  502 -0.90235202433E+01 -0.38898618178E+02 -0.64897839018E+02  0.76198792135E+02  0.00000000000E+00 0.  1.
         21    1    1    2  506  501  0.76450512175E+02 -0.79329146494E+02  0.31986729027E+03  0.33830884955E+03  0.00000000000E+00 0. -1.
<scales pt_clust_3="30.66161" pt_clust_4="109.27397" pt_clust_5="37.26049" pt_clust_6="14000.00000"></scales>
<clustering>
<clus scale="   30.662">  2  3  1 -1</clus>
<clus scale="   37.260">  2  5  1 -1</clus>
<clus scale="  109.274">  2  4  1 -1</clus>
<clus scale="  109.274">  1  3  2 -1</clus>
</clustering>
</event>
<event>
 6    0  0.6207838E+002  0.2310051E+03  0.7546771E-02  0.1125934E+00
         21   -1    0    0  504  501  0.00000000000E+00  0.00000000000E+00  0.65821160649E+03  0.65821160649E+03  0.00000000000E+00 0.  1.
         21   -1    0    0  503  502 -0.00000000000E+00 -0.00000000000E+00 -0.15608752768E+03  0.15608752768E+03  0.00000000000E+00 0.  1.
         21    1    1    2  503  501  0.15717685859E+03 -0.17564612971E+03  0.25394135046E+03  0.34647126465E+03  0.00000000000E+00 0.  1.
         21    1    1    2  504  506 -0.27461704933E+02 -0.39878411426E+02  0.10654409701E+03  0.11703024201E+03  0.00000000000E+00 0.  1.
         21    1    1    2  505  502 -0.17912690803E+03  0.14364741200E+03  0.76796639666E+02  0.24211309758E+03  0.00000000000E+00 0.  1.
         21    1    1    2  506  505  0.49411754369E+02  0.71877129131E+02  0.64841991675E+02  0.10868452993E+03  0.00000000000E+00 0.  1.
<scales pt_clust_3="14000.00000" pt_clust_4="48.41934" pt_clust_5="231.00515" pt_clust_6="79.53475"></scales>
<clustering>
<clus scale="   48.419">  1  4  2 -1</clus>
<clus scale="   79.535">  1  6  2 -1</clus>
<clus scale="  231.005">  2  5  1 -1</clus>
<clus scale="   48.419">  1  3  2 -1</clus>
</clustering>
</event>
<event>
 6    0  0.6207838E+002  0.2289703E+03  0.7546771E-02  0.1127367E+00
         21   -1    0    0  504  501  0.00000000000E+00  0.00000000000E+00  0.44243710169E+02  0.44243710169E+02  0.00000000000E+00 0. -1.
         21   -1    0    0  505  502 -0.00000000000E+00 -0.00000000000E+00 -0.13719911780E+04  0.13719911780E+04  0.00000000000E+00 0. -1.
         21    1    1    2  503  501 -0.10112102049E+03  0.10723279249E+02 -0.24082424110E+03  0.26141301536E+03  0.00000000000E+00 0. -1.
         21    1    1    2  504  506  0.23476048616E+03  0.14449772267E+02 -0.57280947591E+03  0.61921884457E+03  0.00000000000E+00 0. -1.
         21    1    1    2  505  503 -0.11584001289E+03  0.38647644047E+01 -0.38453974575E+03  0.40162751531E+03  0.00000000000E+00 0. -1.
         21    1    1    2  506  502 -0.17799452782E+02 -0.29037815920E+02 -0.12957400503E+03  0.13397551289E+03  0.00000000000E+00 0. -1.
<scales pt_clust_3="33.21836" pt_clust_4="226.20710" pt_clust_5="33.21836" pt_clust_6="34.05900"></scales>
<clustering>
<clus scale="   33.218">  3  5 -1 -1</clus>
<clus scale="   34.059">  2  6  1 -1</clus>
<clus scale="  226.207">  1  4  2 -1</clus>
<clus scale="  226.207">  1  3  2 -1</clus>
</clustering>
</event>
<event>
 6    0  0.6207838E+002  0.2030757E+03  0.7546771E-02  0.1147170E+00
         21   -1    0    0  503  501  0.00000000000E+00  0.00000000000E+00  0.13038168716E+03  0.13038168716E+03  0.00000000000E+00 0.  1.
         21   -1    0    0  504  502 -0.00000000000E+00 -0.00000000000E+00 -0.94627771618E+03  0.94627771618E+03  0.00000000000E+00 0.  1.
         21    1    1    2  503  502 -0.13436240027E+02 -0.45716031340E+02 -0.69365646912E+02  0.84155101087E+02  0.00000000000E+00 0. -1.
         21    1    1    2  504  506  0.27890775701E+02 -0.49773811037E+02 -0.35437636543E+03  0.35894001728E+03  0.00000000000E+00 0. -1.
         21    1    1    2  505  501  0.15970743305E+03  0.14248167716E+03 -0.13876071259E+02  0.21447619414E+03  0.00000000000E+00 0.  1.
         21    1    1    2  506  505 -0.17416196873E+03 -0.46991834783E+02 -0.37827794542E+03  0.41908809084E+03  0.00000000000E+00 0.  1.
<scales pt_clust_3="47.64964" pt_clust_4="72.08744" pt_clust_5="203.07566" pt_clust_6="14000.00000"></scales>
<clustering>
<clus scale="   47.650">  2  3  1 -1</clus>
<clus scale="   72.087">  2  4  1 -1</clus>
<clus scale="  203.076">  1  5  2 -1</clus>
<clus scale="  203.076">  1  3  2 -1</clus>
</clustering>
</event>
<event>
 6    0  0.6207838E+002  0.1226855E+03  0.7546771E-02  0.1238731E+00
         21   -1    0    0  505  501  0.00000000000E+00  0.00000000000E+00  0.64056548867E+03  0.64056548867E+03  0.00000000000E+00 0. -1.
         21   -1    0    0  506  502 -0.00000000000E+00 -0.00000000000E+00 -0.48713348988E+03  0.48713348988E+03  0.00000000000E+00 0. -1.
         21    1    1    2  503  501 -0.10935810273E+03 -0.59006662857E+02  0.57565225591E+03  0.58891128418E+03  0.00000000000E+00 0. -1.
         21    1    1    2  504  502  0.77781351047E+02  0.20041660947E+02 -0.14920873243E+03  0.16945457379E+03  0.00000000000E+00 0.  1.
         21    1    1    2  505  504  0.48149462719E+02 -0.92026696225E+02 -0.18003536720E+03  0.20784613786E+03  0.00000000000E+00 0. -1.
         21    1    1    2  506  503 -0.16572711033E+02  0.13099169813E+03 -0.92976157486E+02  0.16148698273E+03  0.00000000000E+00 0. -1.
<scales pt_clust_3="122.68550" pt_clust_4="80.32189" pt_clust_5="115.48737" pt_clust_6="14000.00000"></scales>
<clustering>
<clus scale="   80.322">  2  4  1 -1</clus>
<clus scale="  122.685">  1  3  2 -1</clus>
<clus scale="  115.487">  2  5  1 -1</clus>
<clus scale="  122.685">  1  3  2 -1</clus>
</clustering>
</event>
<event>
 6    0  0.6207838E+002  0.1261182E+03  0.7546771E-02  0.1233332E+00
         21   -1    0    0  503  501  0.00000000000E+00  0.00000000000E+00  0.29990028783E+03  0.29990028783E+03  0.00000000000E+00 0. -1.
         21   -1    0    0  505  502 -0.00000000000E+00 -0.00000000000E+00 -0.28433579460E+03  0.28433579460E+03  0.00000000000E+00 0. -1.
         21    1    1    2  503  506  0.25052083615E+02  0.23801895625E+02  0.65521727123E+02  0.74075865530E+02  0.00000000000E+00 0. -1.
         21    1    1    2  504  502 -0.31725339272E+02 -0.36243741744E+02 -0.16447266120E+03  0.17138075227E+03  0.00000000000E+00 0.  1.
         21    1    1    2  505  501  0.68081247182E+02 -0.92622663278E+02 -0.57134045574E+02  0.12836788202E+03  0.00000000000E+00 0. -1.
         21    1    1    2  506  504 -0.61407991524E+02  0.10506450940E+03  0.17164947288E+03  0.21041158261E+03  0.00000000000E+00 0. -1.
<scales pt_clust_3="34.55629" pt_clust_4="47.65097" pt_clust_5="14000.00000" pt_clust_6="126.11824"></scales>
<clustering>
<clus scale="   34.556">  1  3  2 -1</clus>
<clus scale="   47.651">  2  4  1 -1</clus>
<clus scale="  126.118">  1  6  2 -1</clus>
<clus scale="   34.556">  1  3  2 -1</clus>
</clustering>
</event>
<event>
 6    0  0.7007169E+002  0.1482435E+03  0.7546771E-02  0.1202648E+00
         21   -1    0    0  503  501  0.00000000000E+00  0.00000000000E+00  0.18529318124E+04  0.18529318124E+04  0.00000000000E+00 0. -1.
         21   -1    0    0  506  502 -0.00000000000E+00 -0.00000000000E+00 -0.16536307578E+03  0.16536307578E+03  0.00000000000E+00 0. -1.
         21    1    1    2  503  504  0.11194464360E+02 -0.76700185646E+02  0.11914701504E+04  0.11939888416E+04  0.00000000000E+00 0. -1.
         21    1    1    2  504  505 -0.30203667603E+02 -0.58953030835E+02  0.59056958836E+03  0.59427279938E+03  0.00000000000E+00 0.  1.
         21    1    1    2  505  502 -0.37270951426E+01  0.94956364600E+02 -0.13713293093E+03  0.16684137126E+03  0.00000000000E+00 0. -1.
         21    1    1    2  506  501  0.22736298385E+02  0.40696851881E+02  0.42661928727E+02  0.63191875901E+02  0.00000000000E+00 0. -1.
<scales pt_clust_3="54.18157" pt_clust_4="54.18157" pt_clust_5="136.10737" pt_clust_6="46.61730"></scales>
<clustering>
<clus scale="   46.617">  2  6  1 -1</clus>
<clus scale="   54.182">  3  4 -1 -1</clus>
<clus scale="  136.107">  2  5  1 -1</clus>
<clus scale="  148.244">  1  3  2 -1</clus>
</clustering>
</event>
<event>
 6    0  0.6207838E+002  0.1756031E+03  0.7546771E-02  0.1172128E+00
         21   -1    0    0  505  501  0.00000000000E+00  0.00000000000E+00  0.64582024716E+03  0.64582024716E+03  0.00000000000E+00 0.  1.
         21   -1    0    0  503  502 -0.00000000000E+00 -0.00000000000E+00 -0.19832607896E+03  0.19832607896E+03  0.00000000000E+00 0.  1.
         21    1    1    2  503  501 -0.39329637119E+02  0.20635639704E+03  0.38407448595E+03  0.43777048063E+03  0.00000000000E+00 0.  1.
         21    1    1    2  504  506 -0.39941051437E+02 -0.14247186561E+03  0.14351113102E+03  0.20612851527E+03  0.00000000000E+00 0.  1.
         21    1    1    2  505  504  0.34121777426E+02 -0.67805024260E+01  0.44174646289E+02  0.56228731824E+02  0.00000000000E+00 0.  1.
         21    1    1    2  506  502  0.45148911131E+02 -0.57104029006E+02 -0.12426609505E+03  0.14401859840E+03  0.00000000000E+00 0.  1.
<scales pt_clust_3="175.60307" pt_clust_4="14000.00000" pt_clust_5="34.78895" pt_clust_6="73.23631"></scales>
<clustering>
<clus scale="   34.789">  1  5  2 -1</clus>
<clus scale="   73.236">  2  6  1 -1</clus>
<clus scale="  175.603">  1  3  2 -1</clus>
<clus scale="   34.789">  1  3  2 -1</clus>
</clustering>
</event>
<event>
 6    0  0.6207838E+002  0.1292205E+03  0.7546771E-02  0.1228617E+00
         21   -1    0    0  505  501  0.00000000000E+00  0.00000000000E+00  0.14293347591E+04  0.14293347591E+04  0.00000000000E+00 0.  1.
         21   -1    0    0  506  502 -0.00000000000E+00 -0.00000000000E+00 -0.21724412688E+03  0.21724412688E+03  0.00000000000E+00 0. -1.
         21    1    1    2  503  501  0.30308058828E+02  0.48456270645E+02  0.17367974480E+03  0.18284212411E+03  0.00000000000E+00 0.  1.
         21    1    1    2  504  503 -0.38194009150E+02 -0.46695271338E+02  0.10255327190E+03  0.11898068868E+03  0.00000000000E+00 0.  1.
         21    1    1    2  505  502  0.12572960498E+03  0.50967328400E+02  0.11153976479E+04  0.11236180468E+04  0.00000000000E+00 0.  1.
         21    1    1    2  506  504 -0.11784365465E+03 -0.52728327707E+02 -0.17954003239E+03  0.22113802639E+03  0.00000000000E+00 0. -1.
<scales pt_clust_3="57.15408" pt_clust_4="55.30998" pt_clust_5="129.22050" pt_clust_6="14000.00000"></scales>
<clustering>
<clus scale="   57.154">  1  3  2 -1</clus>
<clus scale="   55.310">  1  4  2 -1</clus>
<clus scale="  129.221">  1  5  2 -1</clus>
<clus scale="   57.154">  1  3  2 -1</clus>
</clustering>
</event>
<event>
 6    0  0.6207838E+002  0.1586651E+03  0.7546771E-02  0.1190212E+00
         21   -1    0    0  506  501  0.00000000000E+00  0.00000000000E+00  0.37154276643E+03  0.37154276643E+03  0.00000000000E+00 0. -1.
         21   -1    0    0  504  502 -0.00000000000E+00 -0.00000000000E+00 -0.16516368153E+04  0.16516368153E+04  0.00000000000E+00 0. -1.
         21    1    1    2  503  501 -0.29154431656E+02  0.43488362073E+02  0.22723885675E+03  0.23319244528E+03  0.00000000000E+00 0. -1.
         21    1    1    2  504  503 -0.93976763532E+02  0.67471665166E+02  0.54943397551E+02  0.12807355160E+03  0.00000000000E+00 0. -1.
         21    1    1    2  505  502  0.86934187634E+02 -0.13540714835E+03 -0.15976340309E+04  0.16057170192E+04  0.00000000000E+00 0. -1.
         21    1    1    2  506  505  0.36197007554E+02  0.24447121110E+02  0.35357727749E+02  0.56196565714E+02  0.00000000000E+00 0. -1.
<scales pt_clust_3="60.86996" pt_clust_4="158.66508" pt_clust_5="14000.00000" pt_clust_6="43.67934"></scales>
<clustering>
<clus scale="   43.679">  1  6  2 -1</clus>
<clus scale="   60.870">  1  3  2 -1</clus>
<clus scale="  158.665">  1  4  2 -1</clus>
<clus scale="   43.679">  1  3  2 -1</clus>
</clustering>
</event>
<event>
 6    0  0.6207838E+002  0.1611682E+03  0.7546771E-02  0.1187384E+00
         21   -1    0    0  504  501  0.00000000000E+00  0.00000000000E+00  0.30880563226E+02  0.30880563226E+02  0.00000000000E+00 0. -1.
         21   -1    0    0  506  502 -0.00000000000E+00 -0.00000000000E+00 -0.19701002767E+04  0.19701002767E+04  0.00000000000E+00 0. -1.
         21    1    1    2  503  505  0.10239471524E+03  0.14019151497E+03 -0.42539402659E+03  0.45945447700E+03  0.00000000000E+00 0. -1.
         21    1    1    2  504  503 -0.37779180916E+02 -0.35283427771E+01 -0.99085845571E+02  0.10610240575E+03  0.00000000000E+00 0. -1.
         21    1    1    2  505  502 -0.12909730170E+03 -0.10897135591E+03 -0.11045438882E+04  0.11173889522E+04  0.00000000000E+00 0. -1.
         21    1    1    2  506  501  0.64481767374E+02 -0.27691816281E+02 -0.31019595319E+03  0.31803500497E+03  0.00000000000E+00 0. -1.
<scales pt_clust_3="14000.00000" pt_clust_4="37.94359" pt_clust_5="161.16815" pt_clust_6="65.45670"></scales>
<clustering>
<clus scale="   37.944">  1  4  2 -1</clus>
<clus scale="   65.457">  2  6  1 -1</clus>
<clus scale="  161.168">  2  5  1 -1</clus>
<clus scale="   37.944">  1  3  2 -1</clus>
</clustering>
</event>
<event>
 6    0  0.6207838E+002  0.2747776E+03  0.7546771E-02  0.1098576E+00
         21   -1    0    0  506  501  0.00000000000E+00  0.00000000000E+00  0.15993887579E+04  0.15993887579E+04  0.00000000000E+00 0.  1.
         21   -1    0    0  505  502 -0.00000000000E+00 -0.00000000000E+00 -0.68931152849E+03  0.68931152849E+03  0.00000000000E+00 0. -1.
         21    1    1    2  503  501 -0.23056278861E+03 -0.20172021418E+03 -0.41173766932E+03  0.51320381199E+03  0.00000000000E+00 0. -1.
         21    1    1    2  504  502  0.10581005158E+02 -0.39274952286E+02 -0.52053159052E+02  0.66060660869E+02  0.00000000000E+00 0. -1.
         21    1    1    2  505  503  0.45023029269E+02  0.30070380426E+02 -0.15085744422E+03  0.16027872417E+03  0.00000000000E+00 0. -1.
         21    1    1    2  506  504  0.17495875418E+03  0.21092478604E+03  0.15247255020E+04  0.15491570893E+04  0.00000000000E+00 0.  1.
<scales pt_clust_3="14000.00000" pt_clust_4="40.67529" pt_clust_5="51.80978" pt_clust_6="274.77758"></scales>
<clustering>
<clus scale="   40.675">  2  4  1 -1</clus>
<clus scale="   51.810">  2  5  1 -1</clus>
<clus scale="  274.778">  1  6  2 -1</clus>
<clus scale="  274.778">  1  3  2 -1</clus>
</clustering>
</event>
<event>
 6    0  0.6207838E+002  0.1059620E+03  0.7546771E-02  0.1268236E+00
         21   -1    0    0  506  501  0.00000000000E+00  0.00000000000E+00  0.34325532237E+02  0.34325532237E+02  0.00000000000E+00 0. -1.
         21   -1    0    0  504  502 -0.00000000000E+00 -0.00000000000E+00 -0.92667834668E+03  0.92667834668E+03  0.00000000000E+00 0. -1.
         21    1    1    2  503  501 -0.28299978634E+02 -0.21561226807E+02 -0.67529359923E+02  0.76328171364E+02  0.00000000000E+00 0. -1.
         21    1    1    2  504  505  0.61193463823E+02  0.21889609335E+02 -0.41021523653E+03  0.41533159679E+03  0.00000000000E+00 0. -1.
         21    1    1    2  505  503  0.15916900079E+02 -0.10211773167E+03 -0.24143584626E+03  0.26262643944E+03  0.00000000000E+00 0. -1.
         21    1    1    2  506  502 -0.48810385268E+02  0.10178934914E+03 -0.17317237172E+03  0.20671767132E+03  0.00000000000E+00 0. -1.
<scales pt_clust_3="35.57774" pt_clust_4="62.09895" pt_clust_5="105.96197" pt_clust_6="14000.00000"></scales>
<clustering>
<clus scale="   35.578">  1  3  2 -1</clus>
<clus scale="   62.099">  2  4  1 -1</clus>
<clus scale="  105.962">  2  5  1 -1</clus>
<clus scale="   35.578">  1  3  2 -1</clus>
</clustering>
</event>
<event>
 6    0  0.6207838E+002  0.1384004E+03  0.7546771E-02  0.1215498E+00
         21   -1    0    0  506  501  0.00000000000E+00  0.00000000000E+00  0.34961392457E+03  0.34961392457E+03  0.00000000000E+00 0.  1.
         21   -1    0    0  504  502 -0.00000000000E+00 -0.00000000000E+00 -0.33998143655E+03  0.33998143655E+03  0.00000000000E+00 0.  1.
         21    1    1    2  503  505 -0.18751040951E+03  0.18581747093E+02  0.15831664225E+03  0.24610890722E+03  0.00000000000E+00 0.  1.
         21    1    1    2  504  501  0.40397395583E+02  0.18416802934E+02  0.62955593251E+02  0.77035932666E+02  0.00000000000E+00 0.  1.
         21    1    1    2  505  502  0.13419610890E+03 -0.88041531737E+01 -0.26928125439E+03  0.30099585167E+03  0.00000000000E+00 0.  1.
         21    1    1    2  506  503  0.12916905028E+02 -0.28194396854E+02  0.57641506906E+02  0.65454669565E+02  0.00000000000E+00 0.  1.
<scales pt_clust_3="138.40041" pt_clust_4="45.04616" pt_clust_5="14000.00000" pt_clust_6="31.01242"></scales>
<clustering>
<clus scale="   31.012">  1  6  2 -1</clus>
<clus scale="   45.046">  1  4  2 -1</clus>
<clus scale="  138.400">  1  3  2 -1</clus>
<clus scale="   31.012">  1  3  2 -1</clus>
</clustering>
</event>
<event>
 6    0  0.6207838E+002  0.1803836E+03  0.7546771E-02  0.1167432E+00
         21   -1    0    0  504  501  0.00000000000E+00  0.00000000000E+00  0.46205836771E+03  0.46205836771E+03  0.00000000000E+00 0. -1.
         21   -1    0    0  505  502 -0.00000000000E+00 -0.00000000000E+00 -0.74263941289E+02  0.74263941289E+02  0.00000000000E+00 0. -1.
         21    1    1    2  503  501  0.13612681959E+02 -0.99541271074E+02  0.64261365627E+02  0.11926144754E+03  0.00000000000E+00 0.  1.
         21    1    1    2  504  506  0.13027404941E+02  0.94152746341E+02  0.17451109564E+03  0.19871732543E+03  0.00000000000E+00 0. -1.
         21    1    1    2  505  503 -0.27083528112E+02 -0.74540920806E+02  0.67072946527E+02  0.10386840966E+03  0.00000000000E+00 0. -1.
         21    1    1    2  506  502  0.44344121191E+00  0.79929445539E+02  0.81949018629E+02  0.11447512637E+03  0.00000000000E+00 0. -1.
<scales pt_clust_3="40.24875" pt_clust_4="179.77130" pt_clust_5="40.24875" pt_clust_6="39.24663"></scales>
<clustering>
<clus scale="   39.247">  4  6 -1 -1</clus>
<clus scale="   40.249">  3  5 -1 -1</clus>
<clus scale="  179.771">  1  4  2 -1</clus>
<clus scale="  179.771">  1  3  2 -1</clus>
</clustering>
</event>
<event>
 6    0  0.6207838E+002  0.1395777E+03  0.7546771E-02  0.1213898E+00
         21   -1    0    0  505  501  0.00000000000E+00  0.00000000000E+00  0.62429540599E+03  0.62429540599E+03  0.00000000000E+00 0. -1.
         21   -1    0    0  504  502 -0.00000000000E+00 -0.00000000000E+00 -0.59648947539E+03  0.59648947539E+03  0.00000000000E+00 0. -1.
         21    1    1    2  503  506  0.10049860199E+03 -0.12064946779E+03  0.22066038288E+03  0.27082700687E+03  0.00000000000E+00 0. -1.
         21    1    1    2  504  503  0.23808622269E+02  0.18410774528E+02 -0.45372982163E+03  0.45472690502E+03  0.00000000000E+00 0. -1.
         21    1    1    2  505  502 -0.10890022474E+03 -0.35834187304E+02 -0.71413805266E+02  0.13506768493E+03  0.00000000000E+00 0. -1.
         21    1    1    2  506  501 -0.15406999513E+02  0.13807288057E+03  0.33228917461E+03  0.36016328456E+03  0.00000000000E+00 0. -1.
<scales pt_clust_3="139.57770" pt_clust_4="30.09663" pt_clust_5="94.33789" pt_clust_6="14000.00000"></scales>
<clustering>
<clus scale="   30.097">  2  4  1 -1</clus>
<clus scale="   94.338">  2  5  1 -1</clus>
<clus scale="  139.578">  2  3  1 -1</clus>
<clus scale="  139.578">  1  3  2 -1</clus>
</clustering>
</event>
<event>
 6    0  0.6207838E+002  0.1046920E+03  0.7546771E-02  0.1270728E+00
         21   -1    0    0  504  501  0.00000000000E+00  0.00000000000E+00  0.23950289516E+03  0.23950289516E+03  0.00000000000E+00 0. -1.
         21   -1    0    0  505  502 -0.00000000000E+00 -0.00000000000E+00 -0.26185002604E+03  0.26185002604E+03  0.00000000000E+00 0. -1.
         21    1    1    2  503  506 -0.32095890543E+02 -0.24957598876E+02  0.73124565552E+01  0.41309804554E+02  0.00000000000E+00 0. -1.
         21    1    1    2  504  503 -0.26554790225E+02 -0.79173784179E+02  0.86156799190E+02  0.11998599515E+03  0.00000000000E+00 0. -1.
         21    1    1    2  505  501  0.95157555031E+01  0.78241363515E+02  0.94198034570E+02  0.12282316672E+03  0.00000000000E+00 0. -1.
         21    1    1    2  506  502  0.49134925264E+02  0.25890019540E+02 -0.21001442120E+03  0.21723395477E+03  0.00000000000E+00 0. -1.
<scales pt_clust_3="38.19605" pt_clust_4="38.19605" pt_clust_5="89.24032" pt_clust_6="55.53858"></scales>
<clustering>
<clus scale="   38.196">  3  4 -1 -1</clus>
<clus scale="   55.539">  2  6  1 -1</clus>
<clus scale="   89.240">  1  5  2 -1</clus>
<clus scale="   89.240">  1  3  2 -1</clus>
</clustering>
</event>
<event>
 6    0  0.6207838E+002  0.7564959E+02  0.7546771E-02  0.1341871E+00
         21   -1    0    0  504  501  0.00000000000E+00  0.00000000000E+00  0.74570463522E+03  0.74570463522E+03  0.00000000000E+00 0.  1.
         21   -1    0    0  506  502 -0.00000000000E+00 -0.00000000000E+00 -0.78708410666E+02  0.78708410666E+02  0.00000000000E+00 0. -1.
         21    1    1    2  503  501 -0.45872443995E+02  0.27180608808E+02  0.56584541848E+03  0.56835209530E+03  0.00000000000E+00 0.  1.
         21    1    1    2  504  505  0.97759217865E+02 -0.22281285172E+02  0.49013783467E+02  0.11160497890E+03  0.00000000000E+00 0. -1.
         21    1    1    2  505  502 -0.51560855102E+02 -0.55338735925E+02  0.55635004060E+02  0.93894361648E+02  0.00000000000E+00 0. -1.
         21    1    1    2  506  503 -0.32591876816E+00  0.50439412289E+02 -0.34979814552E+01  0.50561610036E+02  0.00000000000E+00 0.  1.
<scales pt_clust_3="53.96098" pt_clust_4="75.64959" pt_clust_5="14000.00000" pt_clust_6="50.44047"></scales>
<clustering>
<clus scale="   50.440">  2  6  1 -1</clus>
<clus scale="   53.961">  1  3  2 -1</clus>
<clus scale="   75.650">  1  4  2 -1</clus>
<clus scale="   53.961">  1  3  2 -1</clus>
</clustering>
</event>
<event>
 6    0  0.6207838E+002  0.1031226E+03  0.7546771E-02  0.1273863E+00
         21   -1    0    0  503  501  0.00000000000E+00  0.00000000000E+00  0.10483476917E+03  0.10483476917E+03  0.00000000000E+00 0.  1.
         21   -1    0    0  504  502 -0.00000000000E+00 -0.00000000000E+00 -0.63454125489E+03  0.63454125489E+03  0.00000000000E+00 0. -1.
         21    1    1    2  503  506  0.14580897581E+01 -0.67344865177E+02 -0.17375847062E+03  0.18635842617E+03  0.00000000000E+00 0. -1.
         21    1    1    2  504  501  0.31145537420E+02  0.10555535067E+03  0.61422567237E+02  0.12603455210E+03  0.00000000000E+00 0.  1.
         21    1    1    2  505  502  0.14394911813E+02 -0.33094290508E+02 -0.26501640058E+03  0.26746240507E+03  0.00000000000E+00 0. -1.
         21    1    1    2  506  505 -0.46998538991E+02 -0.51161949838E+01 -0.15235418176E+03  0.15952064072E+03  0.00000000000E+00 0. -1.
<scales pt_clust_3="103.12260" pt_clust_4="14000.00000" pt_clust_5="36.08941" pt_clust_6="45.15537"></scales>
<clustering>
<clus scale="   36.089">  2  5  1 -1</clus>
<clus scale="   45.155">  2  6  1 -1</clus>
<clus scale="  103.123">  2  3  1 -1</clus>
<clus scale="  103.123">  1  3  2 -1</clus>
</clustering>
</event>
<event>
 6    0  0.6207838E+002  0.1038799E+03  0.7546771E-02  0.1272342E+00
         21   -1    0    0  503  501  0.00000000000E+00  0.00000000000E+00  0.10313198962E+03  0.10313198962E+03  0.00000000000E+00 0. -1.
         21   -1    0    0  506  502 -0.00000000000E+00 -0.00000000000E+00 -0.10309799307E+04  0.10309799307E+04  0.00000000000E+00 0. -1.
         21    1    1    2  503  502 -0.14293135526E+02  0.49964738710E+02 -0.59906926099E+03  0.60131917340E+03  0.00000000000E+00 0. -1.
         21    1    1    2  504  501 -0.33301590405E+02  0.49268378318E+02  0.38356860476E+02  0.70764523394E+02  0.00000000000E+00 0. -1.
         21    1    1    2  505  504 -0.76284148049E+02 -0.38955549405E+02 -0.19157303755E+02  0.87771341338E+02  0.00000000000E+00 0. -1.
         21    1    1    2  506  505  0.12387887398E+03 -0.60277567623E+02 -0.34797823685E+03  0.37425688223E+03  0.00000000000E+00 0. -1.
<scales pt_clust_3="51.96892" pt_clust_4="61.32853" pt_clust_5="103.87990" pt_clust_6="14000.00000"></scales>
<clustering>
<clus scale="   51.969">  2  3  1 -1</clus>
<clus scale="   61.329">  1  4  2 -1</clus>
<clus scale="  103.880">  1  5  2 -1</clus>
<clus scale="   61.329">  1  3  2 -1</clus>
</clustering>
</event>
<event>
 6    0  0.6207838E+002  0.8476099E+02  0.7546771E-02  0.1316059E+00
         21   -1    0    0  503  501  0.00000000000E+00  0.00000000000E+00  0.11103280134E+04  0.11103280134E+04  0.00000000000E+00 0.  1.
         21   -1    0    0  506  502 -0.00000000000E+00 -0.00000000000E+00 -0.92981555241E+03  0.92981555241E+03  0.00000000000E+00 0. -1.
         21    1    1    2  503  502 -0.40351863522E+02 -0.24429164071E+02  0.41586015008E+02  0.62884446337E+02  0.00000000000E+00 0.  1.
         21    1    1    2  504  505  0.64141484864E+02 -0.11763239147E+03  0.82120793873E+03  0.83206609608E+03  0.00000000000E+00 0.  1.
         21    1    1    2  505  501 -0.39784836586E+02  0.58869094511E+02  0.22398045898E+03  0.23498010451E+03  0.00000000000E+00 0.  1.
         21    1    1    2  506  504  0.15995215243E+02  0.83192461027E+02 -0.90626195175E+03  0.91021291887E+03  0.00000000000E+00 0. -1.
<scales pt_clust_3="47.17051" pt_clust_4="84.76099" pt_clust_5="72.28845" pt_clust_6="14000.00000"></scales>
<clustering>
<clus scale="   47.171">  1  3  2 -1</clus>
<clus scale="   72.288">  1  5  2 -1</clus>
<clus scale="   84.761">  1  4  2 -1</clus>
<clus scale="   47.171">  1  3  2 -1</clus>
</clustering>
</event>
<event>
 6    0  0.6207838E+002  0.9467582E+02  0.7546771E-02  0.1291908E+00
         21   -1    0    0  504  501  0.00000000000E+00  0.00000000000E+00  0.35028171901E+02  0.35028171901E+02  0.00000000000E+00 0.  1.
         21   -1    0    0  506  502 -0.00000000000E+00 -0.00000000000E+00 -0.80843365009E+03  0.80843365009E+03  0.00000000000E+00 0.  1.
         21    1    1    2  503  501  0.94411196957E+02 -0.31046840580E+02 -0.24872273526E+03  0.26784394609E+03  0.00000000000E+00 0.  1.
         21    1    1    2  504  505 -0.45942601777E+02 -0.29684740525E+02 -0.40545184124E+02  0.68086844792E+02  0.00000000000E+00 0.  1.
         21    1    1    2  505  502 -0.49464557212E+02  0.97062428333E+02 -0.28514486922E+03  0.30524654602E+03  0.00000000000E+00 0.  1.
         21    1    1    2  506  503  0.99596203146E+00 -0.36330847228E+02 -0.19899268958E+03  0.20228448509E+03  0.00000000000E+00 0.  1.
<scales pt_clust_3="94.67582" pt_clust_4="56.45382" pt_clust_5="14000.00000" pt_clust_6="36.34450"></scales>
<clustering>
<clus scale="   36.344">  2  6  1 -1</clus>
<clus scale="   56.454">  1  4  2 -1</clus>
<clus scale="   94.676">  1  3  2 -1</clus>
<clus scale="   56.454">  1  3  2 -1</clus>
</clustering>
</event>
<event>
 6    0  0.6207838E+002  0.1029843E+03  0.7546771E-02  0.1274143E+00
         21   -1    0    0  505  501  0.00000000000E+00  0.00000000000E+00  0.37472580725E+03  0.37472580725E+03  0.00000000000E+00 0. -1.
         21   -1    0    0  506  502 -0.00000000000E+00 -0.00000000000E+00 -0.50474901616E+03  0.50474901616E+03  0.00000000000E+00 0.  1.
         21    1    1    2  503  502  0.69153320770E+02  0.42381520862E+02  0.11072148219E+03  0.13725021567E+03  0.00000000000E+00 0. -1.
         21    1    1    2  504  501 -0.11045330719E+03 -0.68993833401E+02  0.21638374442E+03  0.25255099874E+03  0.00000000000E+00 0. -1.
         21    1    1    2  505  503  0.21857049060E+02 -0.24651626855E+02 -0.39399681315E+01  0.33180666797E+02  0.00000000000E+00 0. -1.
         21    1    1    2  506  504  0.19442937359E+02  0.51263939394E+02 -0.45318846739E+03  0.45649294220E+03  0.00000000000E+00 0.  1.
<scales pt_clust_3="102.98426" pt_clust_4="14000.00000" pt_clust_5="32.94591" pt_clust_6="54.75715"></scales>
<clustering>
<clus scale="   32.946">  1  5  2 -1</clus>
<clus scale="   54.757">  2  6  1 -1</clus>
<clus scale="  102.984">  2  3  1 -1</clus>
<clus scale="   32.946">  1  3  2 -1</clus>
</clustering>
</event>
<event>
 6    0  0.6207838E+002  0.1645577E+03  0.7546771E-02  0.1183645E+00
         21   -1    0    0  506  501  0.00000000000E+00  0.00000000000E+00  0.50428334629E+03  0.50428334629E+03  0.00000000000E+00 0.  1.
         21   -1    0    0  503  502 -0.00000000000E+00 -0.00000000000E+00 -0.39242355908E+03  0.39242355908E+03  0.00000000000E+00 0.  1.
         21    1    1    2  503  501  0.15443277886E+02 -0.11266729573E+03 -0.44660484842E+01  0.11380843531E+03  0.00000000000E+00 0.  1.
         21    1    1    2  504  502 -0.70739359264E+02 -0.73125607383E+01 -0.15640474872E+03  0.17181378267E+03  0.00000000000E+00 0.  1.
         21    1    1    2  505  504 -0.76725879853E+02  0.23207464938E+02 -0.14319660606E+03  0.16410580446E+03  0.00000000000E+00 0.  1.
         21    1    1    2  506  505  0.13202196123E+03  0.96772391528E+02  0.41592719048E+03  0.44697888294E+03  0.00000000000E+00 0.  1.
<scales pt_clust_3="113.72077" pt_clust_4="30.98797" pt_clust_5="30.98797" pt_clust_6="161.23552"></scales>
<clustering>
<clus scale="   30.988">  4  5 -1 -1</clus>
<clus scale="  113.721">  2  3  1 -1</clus>
<clus scale="  161.236">  1  6  2 -1</clus>
<clus scale="  161.236">  1  3  2 -1</clus>
</clustering>
</event>
<event>
 6    0  0.6207838E+002  0.1162485E+03  0.7546771E-02  0.1249417E+00
         21   -1    0    0  504  501  0.00000000000E+00  0.00000000000E+00  0.20990951374E+04  0.20990951374E+04  0.00000000000E+00 0. -1.
         21   -1    0    0  506  502 -0.00000000000E+00 -0.00000000000E+00 -0.62625982627E+02  0.62625982627E+02  0.00000000000E+00 0. -1.
         21    1    1    2  503  505  0.13107613997E+02  0.10576374702E+03  0.11747860538E+03  0.15861589596E+03  0.00000000000E+00 0. -1.
         21    1    1    2  504  503  0.18358407532E+02 -0.11598931317E+03  0.19130517523E+04  0.19166526965E+04  0.00000000000E+00 0. -1.
         21    1    1    2  505  502 -0.14705910725E+02  0.44179672887E+02  0.12050835565E+02  0.48097088732E+02  0.00000000000E+00 0. -1.
         21    1    1    2  506  501 -0.16760110804E+02 -0.33954106733E+02 -0.61120384572E+01  0.38355438888E+02  0.00000000000E+00 0. -1.
<scales pt_clust_3="116.24854" pt_clust_4="14000.00000" pt_clust_5="36.53549" pt_clust_6="37.86532"></scales>
<clustering>
<clus scale="   37.865">  2  6  1 -1</clus>
<clus scale="   36.535">  2  5  1 -1</clus>
<clus scale="  116.249">  2  3  1 -1</clus>
<clus scale="  116.249">  1  3  2 -1</clus>
</clustering>
</event>
<event>
 6    0  0.6207838E+002  0.8513033E+02  0.7546771E-02  0.1315092E+00
         21   -1    0    0  504  501  0.00000000000E+00  0.00000000000E+00  0.11395508725E+04  0.11395508725E+04  0.00000000000E+00 0. -1.
         21   -1    0    0  505  502 -0.00000000000E+00 -0.00000000000E+00 -0.92719774141E+03  0.92719774141E+03  0.00000000000E+00 0. -1.
         21    1    1    2  503  502  0.23880862216E+02 -0.30442090448E+02 -0.90281034071E+03  0.90363904727E+03  0.00000000000E+00 0. -1.
         21    1    1    2  504  503  0.68758790591E+02 -0.31343798974E+02  0.95614830829E+02  0.12187042665E+03  0.00000000000E+00 0.  1.
         21    1    1    2  505  506 -0.46729981343E+02  0.86785726886E+02  0.23346613258E+03  0.25342037923E+03  0.00000000000E+00 0. -1.
         21    1    1    2  506  501 -0.45909671464E+02 -0.24999837464E+02  0.78608250841E+03  0.78781876078E+03  0.00000000000E+00 0. -1.
<scales pt_clust_3="38.69130" pt_clust_4="85.13033" pt_clust_5="14000.00000" pt_clust_6="52.06119"></scales>
<clustering>
<clus scale="   38.691">  2  3  1 -1</clus>
<clus scale="   52.061">  1  6  2 -1</clus>
<clus scale="   85.130">  2  4  1 -1</clus>
<clus scale="   52.061">  1  3  2 -1</clus>
</clustering>
</event>
<event>
 6    0  0.6207838E+002  0.1636587E+03  0.7546771E-02  0.1184627E+00
         21   -1    0    0  505  501  0.00000000000E+00  0.00000000000E+00  0.13603310937E+02  0.13603310937E+02  0.00000000000E+00 0. -1.
         21   -1    0    0  504  502 -0.00000000000E+00 -0.00000000000E+00 -0.32208716235E+04  0.32208716235E+04  0.00000000000E+00 0.  1.
         21    1    1    2  503  502 -0.30655204548E+02 -0.13631194212E+03 -0.78404090395E+03  0.79639238205E+03  0.00000000000E+00 0. -1.
         21    1    1    2  504  506  0.50635325693E+02  0.13609295929E+03 -0.20353425014E+04  0.20405157014E+04  0.00000000000E+00 0.  1.
         21    1    1    2  505  503 -0.39084785553E+02 -0.31272518822E+02 -0.23994388299E+03  0.24510948141E+03  0.00000000000E+00 0. -1.
         21    1    1    2  506  501  0.19104664408E+02  0.31491501649E+02 -0.14794102429E+03  0.15245736960E+03  0.00000000000E+00 0.  1.
<scales pt_clust_3="34.03387" pt_clust_4="153.46368" pt_clust_5="34.03387" pt_clust_6="36.83345"></scales>
<clustering>
<clus scale="   34.034">  3  5 -1 -1</clus>
<clus scale="   36.833">  1  6  2 -1</clus>
<clus scale="  153.464">  2  4  1 -1</clus>
<clus scale="   36.833">  1  3  2 -1</clus>
</clustering>
</event>
<event>
 6    0  0.6207838E+002  0.1129021E+03  0.7546771E-02  0.1255288E+00
         21   -1    0    0  503  501  0.00000000000E+00  0.00000000000E+00  0.18600993370E+03  0.18600993370E+03  0.00000000000E+00 0. -1.
         21   -1    0    0  506  502 -0.00000000000E+00 -0.00000000000E+00 -0.27766767052E+03  0.27766767052E+03  0.00000000000E+00 0. -1.
         21    1    1    2  503  502 -0.47845860086E+02 -0.11742204579E+03  0.15039467100E+02  0.12768456734E+03  0.00000000000E+00 0. -1.
         21    1    1    2  504  505 -0.84077000488E+01  0.10743726570E+03 -0.32307129453E+02  0.11250424923E+03  0.00000000000E+00 0. -1.
         21    1    1    2  505  501 -0.35181164872E+02  0.25652053489E+02  0.51290771796E+02  0.67279160826E+02  0.00000000000E+00 0. -1.
         21    1    1    2  506  504  0.91434725007E+02 -0.15667273399E+02 -0.12568084627E+03  0.15620962682E+03  0.00000000000E+00 0. -1.
<scales pt_clust_3="14000.00000" pt_clust_4="112.90211" pt_clust_5="43.54012" pt_clust_6="88.09947"></scales>
<clustering>
<clus scale="   43.540">  1  5  2 -1</clus>
<clus scale="   88.099">  2  6  1 -1</clus>
<clus scale="  112.902">  2  4  1 -1</clus>
<clus scale="   43.540">  1  3  2 -1</clus>
</clustering>
</event>
<event>
 6    0  0.6207838E+002  0.1259088E+03  0.7546771E-02  0.1233656E+00
         21   -1    0    0  503  501  0.00000000000E+00  0.00000000000E+00  0.84449829603E+02  0.84449829603E+02  0.00000000000E+00 0. -1.
         21   -1    0    0  505  502 -0.00000000000E+00 -0.00000000000E+00 -0.16735422842E+04  0.16735422842E+04  0.00000000000E+00 0.  1.
         21    1    1    2  503  506 -0.46964783311E+02 -0.57080841792E+02  0.14583365674E+00  0.73918432333E+02  0.00000000000E+00 0. -1.
         21    1    1    2  504  501  0.45038786533E+02  0.10585944807E+03 -0.13744501720E+03  0.17923684831E+03  0.00000000000E+00 0.  1.
         21    1    1    2  505  504  0.57460705933E+02 -0.29322111150E+02 -0.14440442318E+04  0.14454844386E+04  0.00000000000E+00 0.  1.
         21    1    1    2  506  502 -0.55534709155E+02 -0.19456495129E+02 -0.77490392170E+01  0.59352394496E+02  0.00000000000E+00 0. -1.
<scales pt_clust_3="32.65114" pt_clust_4="120.47338" pt_clust_5="64.50984" pt_clust_6="32.65114"></scales>
<clustering>
<clus scale="   32.651">  3  6 -1 -1</clus>
<clus scale="   64.510">  2  5  1 -1</clus>
<clus scale="  120.473">  2  4  1 -1</clus>
<clus scale="  125.909">  1  3  2 -1</clus>
</clustering>
</event>
<event>
 6    0  0.6207838E+002  0.1940741E+03  0.7546771E-02  0.1154837E+00
         21   -1    0    0  504  501  0.00000000000E+00  0.00000000000E+00  0.90550119847E+03  0.90550119847E+03  0.00000000000E+00 0.  1.
         21   -1    0    0  501  502 -0.00000000000E+00 -0.00000000000E+00 -0.29862022669E+03  0.29862022669E+03  0.00000000000E+00 0. -1.
         21    1    1    2  503  505  0.28098135132E+02  0.51919675544E+02  0.90062708490E+02  0.10768681148E+03  0.00000000000E+00 0.  1.
         21    1    1    2  504  506 -0.24324000877E+02 -0.13575753185E+03  0.32774648797E+03  0.35558335851E+03  0.00000000000E+00 0. -1.
         21    1    1    2  505  502  0.70185409465E+02 -0.10757794603E+03 -0.23608275707E+03  0.26876397519E+03  0.00000000000E+00 0. -1.
         21    1    1    2  506  503 -0.73959543720E+02  0.19141580234E+03  0.42515453240E+03  0.47208727997E+03  0.00000000000E+00 0.  1.
<scales pt_clust_3="51.92976" pt_clust_4="168.19922" pt_clust_5="128.44846" pt_clust_6="51.92976"></scales>
<clustering>
<clus scale="   51.930">  3  6 -1 -1</clus>
<clus scale="  128.448">  2  5  1 -1</clus>
<clus scale="  168.199">  1  4  2 -1</clus>
<clus scale="  168.199">  1  3  2 -1</clus>
</clustering>
</event>
<event>
 6    0  0.6207838E+002  0.8094651E+02  0.7546771E-02  0.1326387E+00
         21   -1    0    0  503  501  0.00000000000E+00  0.00000000000E+00  0.56932557318E+02  0.56932557318E+02  0.00000000000E+00 0. -1.
         21   -1    0    0  506  502 -0.00000000000E+00 -0.00000000000E+00 -0.60669656863E+03  0.60669656863E+03  0.00000000000E+00 0.  1.
         21    1    1    2  503  505  0.13284698558E+02 -0.34731561492E+02 -0.45962723593E+02  0.59121371259E+02  0.00000000000E+00 0. -1.
         21    1    1    2  504  502  0.39133735527E+02  0.96266769878E+01 -0.20198521474E+03  0.20596637867E+03  0.00000000000E+00 0.  1.
         21    1    1    2  505  504  0.39279808947E+02 -0.43902199426E+02 -0.27426149936E+03  0.28051680259E+03  0.00000000000E+00 0.  1.
         21    1    1    2  506  501 -0.91698243031E+02  0.69007083931E+02 -0.27554573623E+02  0.11802457344E+03  0.00000000000E+00 0. -1.
<scales pt_clust_3="37.18554" pt_clust_4="40.50867" pt_clust_5="14000.00000" pt_clust_6="80.94651"></scales>
<clustering>
<clus scale="   37.186">  1  3  2 -1</clus>
<clus scale="   40.509">  2  4  1 -1</clus>
<clus scale="   80.947">  1  6  2 -1</clus>
<clus scale="   37.186">  1  3  2 -1</clus>
</clustering>
</event>
<event>
 6    0  0.6207838E+002  0.1812522E+03  0.7546771E-02  0.1166597E+00
         21   -1    0    0  504  501  0.00000000000E+00  0.00000000000E+00  0.12179123494E+04  0.12179123494E+04  0.00000000000E+00 0.  1.
         21   -1    0    0  503  502 -0.00000000000E+00 -0.00000000000E+00 -0.75340153240E+02  0.75340153240E+02  0.00000000000E+00 0.  1.
         21    1    1    2  503  501  0.72668539399E+02 -0.16992449444E+02  0.16095549187E+03  0.17741513555E+03  0.00000000000E+00 0.  1.
         21    1    1    2  504  505 -0.99726049901E+01  0.77408250418E+02  0.28001219141E+03  0.29068594293E+03  0.00000000000E+00 0.  1.
         21    1    1    2  505  506  0.34460256128E+02  0.76254285381E+02  0.64163128041E+03  0.64706485401E+03  0.00000000000E+00 0.  1.
         21    1    1    2  506  502 -0.97156190537E+02 -0.13667008636E+03  0.59973232505E+02  0.17808657019E+03  0.00000000000E+00 0.  1.
<scales pt_clust_3="74.62881" pt_clust_4="73.15667" pt_clust_5="73.15667" pt_clust_6="164.66421"></scales>
<clustering>
<clus scale="   73.157">  4  5 -1 -1</clus>
<clus scale="   74.629">  1  3  2 -1</clus>
<clus scale="  164.664">  2  6  1 -1</clus>
<clus scale="   74.629">  1  3  2 -1</clus>
</clustering>
</event>
<event>
 6    0  0.6207838E+002  0.8283631E+02  0.7546771E-02  0.1321190E+00
         21   -1    0    0  505  501  0.00000000000E+00  0.00000000000E+00  0.60818357559E+03  0.60818357559E+03  0.00000000000E+00 0. -1.
         21   -1    0    0  506  502 -0.00000000000E+00 -0.00000000000E+00 -0.33222716811E+03  0.33222716811E+03  0.00000000000E+00 0. -1.
         21    1    1    2  503  501 -0.34921466041E+02  0.56682704163E+02  0.28513313414E+02  0.72425456737E+02  0.00000000000E+00 0. -1.
         21    1    1    2  504  502 -0.26515568036E+02 -0.22561585741E+02 -0.30031019239E+02  0.45977849188E+02  0.00000000000E+00 0. -1.
         21    1    1    2  505  504 -0.47769403986E+02 -0.22429111742E+02  0.53731904389E+03  0.53990437666E+03  0.00000000000E+00 0. -1.
         21    1    1    2  506  503  0.10920643806E+03 -0.11692006679E+02 -0.25984493059E+03  0.28210306111E+03  0.00000000000E+00 0. -1.
<scales pt_clust_3="14000.00000" pt_clust_4="34.81523" pt_clust_5="52.92051" pt_clust_6="82.83631"></scales>
<clustering>
<clus scale="   34.815">  2  4  1 -1</clus>
<clus scale="   52.921">  1  5  2 -1</clus>
<clus scale="   82.836">  2  6  1 -1</clus>
<clus scale="   52.921">  1  3  2 -1</clus>
</clustering>
</event>
<event>
 6    0  0.6207838E+002  0.8876220E+02  0.7546771E-02  0.1305877E+00
         21   -1    0    0  503  501  0.00000000000E+00  0.00000000000E+00  0.81992986091E+03  0.81992986091E+03  0.00000000000E+00 0.  1.
         21   -1    0    0  504  502 -0.00000000000E+00 -0.00000000000E+00 -0.44020414328E+02  0.44020414328E+02  0.00000000000E+00 0.  1.
         21    1    1    2  503  502 -0.33612721976E+01  0.53870434847E+02  0.34837388945E+03  0.35253040827E+03  0.00000000000E+00 0.  1.
         21    1    1    2  504  505 -0.19561046585E+02 -0.95123517412E+02  0.39256654445E+02  0.10474828412E+03  0.00000000000E+00 0.  1.
         21    1    1    2  505  506 -0.11056387495E+02  0.70152625840E+02  0.17662168328E+03  0.19036505357E+03  0.00000000000E+00 0.  1.
         21    1    1    2  506  501  0.33978706277E+02 -0.28899543275E+02  0.21165721941E+03  0.21630652928E+03  0.00000000000E+00 0.  1.
<scales pt_clust_3="40.57052" pt_clust_4="88.76220" pt_clust_5="14000.00000" pt_clust_6="44.60646"></scales>
<clustering>
<clus scale="   44.606">  1  6  2 -1</clus>
<clus scale="   40.571">  1  3  2 -1</clus>
<clus scale="   88.762">  2  4  1 -1</clus>
<clus scale="   44.606">  1  3  2 -1</clus>
</clustering>
</event>
<event>
 6    0  0.6207838E+002  0.7328027E+02  0.7546771E-02  0.1349281E+00
         21   -1    0    0  503  501  0.00000000000E+00  0.00000000000E+00  0.26257217344E+04  0.26257217344E+04  0.00000000000E+00 0.  1.
         21   -1    0    0  504  502 -0.00000000000E+00 -0.00000000000E+00 -0.16609616493E+03  0.16609616493E+03  0.00000000000E+00 0.  1.
         21    1    1    2  503  502 -0.35913421292E+02 -0.63876634589E+02  0.10608945949E+03  0.12893785980E+03  0.00000000000E+00 0. -1.
         21    1    1    2  504  506 -0.14038100615E+02  0.87043687385E+02 -0.12158992511E+03  0.15019248207E+03  0.00000000000E+00 0.  1.
         21    1    1    2  505  501 -0.74256096844E+01 -0.73428655625E+02  0.24134933086E+04  0.24146214730E+04  0.00000000000E+00 0.  1.
         21    1    1    2  506  505  0.57377131591E+02  0.50261602830E+02  0.61632726505E+02  0.98066084479E+02  0.00000000000E+00 0. -1.
<scales pt_clust_3="73.28027" pt_clust_4="55.08868" pt_clust_5="14000.00000" pt_clust_6="73.27849"></scales>
<clustering>
<clus scale="   73.280">  2  3  1 -1</clus>
<clus scale="   55.089">  2  4  1 -1</clus>
<clus scale="   73.278">  2  6  1 -1</clus>
<clus scale="   73.280">  1  3  2 -1</clus>
</clustering>
</event>
<event>
 6    0  0.6207838E+002  0.1274107E+03  0.7546771E-02  0.1231349E+00
         21   -1    0    0  504  501  0.00000000000E+00  0.00000000000E+00  0.43506597055E+03  0.43506597055E+03  0.00000000000E+00 0. -1.
         21   -1    0    0  501  502 -0.00000000000E+00 -0.00000000000E+00 -0.14368712074E+03  0.14368712074E+03  0.00000000000E+00 0.  1.
         21    1    1    2  503  502  0.34107068022E+02  0.21582701254E+02  0.99072895436E+00  0.40374331281E+02  0.00000000000E+00 0.  1.
         21    1    1    2  504  506 -0.10732821039E+03 -0.65078984134E+02  0.38571898769E+03  0.40562760801E+03  0.00000000000E+00 0. -1.
         21    1    1    2  505  503  0.47667909499E+02  0.75250164438E+01 -0.50294881745E+02  0.69702443273E+02  0.00000000000E+00 0.  1.
         21    1    1    2  506  505  0.25553232866E+02  0.35971266436E+02 -0.45035985090E+02  0.63048708725E+02  0.00000000000E+00 0. -1.
<scales pt_clust_3="40.36217" pt_clust_4="122.27775" pt_clust_5="34.23197" pt_clust_6="34.23197"></scales>
<clustering>
<clus scale="   34.232">  5  6 -1 -1</clus>
<clus scale="   40.362">  2  3  1 -1</clus>
<clus scale="  122.278">  1  4  2 -1</clus>
<clus scale="  122.278">  1  3  2 -1</clus>
</clustering>
</event>
<event>
 6    0  0.6207838E+002  0.7901151E+02  0.7546771E-02  0.1331880E+00
         21   -1    0    0  506  501  0.00000000000E+00  0.00000000000E+00  0.14815328291E+03  0.14815328291E+03  0.00000000000E+00 0. -1.
         21   -1    0    0  505  502 -0.00000000000E+00 -0.00000000000E+00 -0.21652642103E+04  0.21652642103E+04  0.00000000000E+00 0.  1.
         21    1    1    2  503  501  0.14927629210E+02 -0.11100633588E+03 -0.44490589257E+03  0.45878807086E+03  0.00000000000E+00 0.  1.
         21    1    1    2  504  502  0.80385714533E+01  0.32749503899E+02 -0.93265493575E+02  0.99174598202E+02  0.00000000000E+00 0.  1.
         21    1    1    2  505  503 -0.56739472739E+02  0.25246524191E+02 -0.16094234617E+04  0.16106211950E+04  0.00000000000E+00 0.  1.
         21    1    1    2  506  504  0.33773272076E+02  0.53010307788E+02  0.13048392045E+03  0.14483362915E+03  0.00000000000E+00 0. -1.
<scales pt_clust_3="14000.00000" pt_clust_4="33.72163" pt_clust_5="79.01151" pt_clust_6="62.96557"></scales>
<clustering>
<clus scale="   33.722">  2  4  1 -1</clus>
<clus scale="   62.966">  1  6  2 -1</clus>
<clus scale="   79.012">  2  5  1 -1</clus>
<clus scale="   62.966">  1  3  2 -1</clus>
</clustering>
</event>
<event>
 6    0  0.6207838E+002  0.6027177E+02  0.7546771E-02  0.1396695E+00
         21   -1    0    0  503  501  0.00000000000E+00  0.00000000000E+00  0.62379018268E+03  0.62379018268E+03  0.00000000000E+00 0. -1.
         21   -1    0    0  505  502 -0.00000000000E+00 -0.00000000000E+00 -0.71501407345E+02  0.71501407345E+02  0.00000000000E+00 0.  1.
         21    1    1    2  503  504  0.53255975020E+02 -0.45281833279E+01  0.42536560322E+03  0.42871039143E+03  0.00000000000E+00 0. -1.
         21    1    1    2  504  506 -0.43067068605E+02  0.64131262003E+02  0.78060581054E+02  0.10982279125E+03  0.00000000000E+00 0. -1.
         21    1    1    2  505  501  0.48320440942E+02 -0.51595962167E+01  0.58732456857E+02  0.76229836249E+02  0.00000000000E+00 0. -1.
         21    1    1    2  506  502 -0.58509347357E+02 -0.54443482458E+02 -0.98698657994E+01  0.80528571087E+02  0.00000000000E+00 0.  1.
<scales pt_clust_3="54.74293" pt_clust_4="60.27177" pt_clust_5="48.59513" pt_clust_6="14000.00000"></scales>
<clustering>
<clus scale="   48.595">  2  5  1 -1</clus>
<clus scale="   54.743">  1  3  2 -1</clus>
<clus scale="   60.272">  1  4  2 -1</clus>
<clus scale="   54.743">  1  3  2 -1</clus>
</clustering>
</event>
<event>
 6    0  0.6207838E+002  0.1204631E+03  0.7546771E-02  0.1242335E+00
         21   -1    0    0  505  501  0.00000000000E+00  0.00000000000E+00  0.78389317948E+03  0.78389317948E+03  0.00000000000E+00 0. -1.
         21   -1    0    0  504  502 -0.00000000000E+00 -0.00000000000E+00 -0.10100689294E+03  0.10100689294E+03  0.00000000000E+00 0.  1.
         21    1    1    2  503  501 -0.66038901947E+02 -0.26369454716E+02  0.20497173615E+03  0.21695598017E+03  0.00000000000E+00 0. -1.
         21    1    1    2  504  503 -0.30933416438E+02  0.15805170260E+03  0.40229414490E+03  0.43333335432E+03  0.00000000000E+00 0. -1.
         21    1    1    2  505  506 -0.52859341507E+01 -0.67167331587E+02  0.90461196964E+02  0.11279459069E+03  0.00000000000E+00 0.  1.
         21    1    1    2  506  502  0.10225825254E+03 -0.64514916296E+02 -0.14840791472E+02  0.12181614724E+03  0.00000000000E+00 0.  1.
<scales pt_clust_3="82.47246" pt_clust_4="120.46311" pt_clust_5="67.37501" pt_clust_6="14000.00000"></scales>
<clustering>
<clus scale="   67.375">  1  5  2 -1</clus>
<clus scale="   82.472">  1  3  2 -1</clus>
<clus scale="  120.463">  1  4  2 -1</clus>
<clus scale="   67.375">  1  3  2 -1</clus>
</clustering>
</event>
<event>
 6    0  0.6207838E+002  0.7809302E+02  0.7546771E-02  0.1334552E+00
         21   -1    0    0  505  501  0.00000000000E+00  0.00000000000E+00  0.15421813295E+04  0.15421813295E+04  0.00000000000E+00 0. -1.
         21   -1    0    0  503  502 -0.00000000000E+00 -0.00000000000E+00 -0.79843737164E+02  0.79843737164E+02  0.00000000000E+00 0. -1.
         21    1    1    2  503  504 -0.73392250835E+02 -0.18939484393E+02 -0.40057493354E+02  0.85730562377E+02  0.00000000000E+00 0. -1.
         21    1    1    2  504  506 -0.56813216363E+02 -0.35847959735E+02  0.17905493110E+03  0.19124195702E+03  0.00000000000E+00 0. -1.
         21    1    1    2  505  502  0.13045587726E+03  0.10979696057E+03  0.75292785788E+03  0.77199382616E+03  0.00000000000E+00 0. -1.
         21    1    1    2  506  501 -0.25041006597E+00 -0.55009516442E+02  0.57041229669E+03  0.57305872109E+03  0.00000000000E+00 0. -1.
<scales pt_clust_3="14000.00000" pt_clust_4="73.35429" pt_clust_5="78.09302" pt_clust_6="55.01009"></scales>
<clustering>
<clus scale="   55.010">  1  6  2 -1</clus>
<clus scale="   73.354">  1  4  2 -1</clus>
<clus scale="   78.093">  1  5  2 -1</clus>
<clus scale="   55.010">  1  3  2 -1</clus>
</clustering>
</event>
<event>
 6    0  0.6207838E+002  0.1392430E+03  0.7546771E-02  0.1214351E+00
         21   -1    0    0  505  501  0.00000000000E+00  0.00000000000E+00  0.16130442720E+03  0.16130442720E+03  0.00000000000E+00 0.  1.
         21   -1    0    0  503  502 -0.00000000000E+00 -0.00000000000E+00 -0.50157856363E+03  0.50157856363E+03  0.00000000000E+00 0.  1.
         21    1    1    2  503  506 -0.56537708179E+02 -0.39301774768E+01 -0.79841027043E+02  0.97910920435E+02  0.00000000000E+00 0.  1.
         21    1    1    2  504  502 -0.16225755162E+02 -0.12401366485E+03 -0.32541503550E+03  0.34862244553E+03  0.00000000000E+00 0.  1.
         21    1    1    2  505  504  0.10051476933E+03  0.10253956556E+03  0.91550322945E+02  0.17029105376E+03  0.00000000000E+00 0.  1.
         21    1    1    2  506  501 -0.27751305986E+02  0.25404276762E+02 -0.26568396839E+02  0.46058571105E+02  0.00000000000E+00 0.  1.
<scales pt_clust_3="96.97551" pt_clust_4="14000.00000" pt_clust_5="139.24296" pt_clust_6="34.93532"></scales>
<clustering>
<clus scale="   34.935">  3  6 -1 -1</clus>
<clus scale="   96.976">  2  3  1 -1</clus>
<clus scale="  139.243">  1  5  2 -1</clus>
<clus scale="  139.243">  1  3  2 -1</clus>
</clustering>
</event>
<event>
 6    0  0.6207838E+002  0.1204734E+03  0.7546771E-02  0.1242318E+00
         21   -1    0    0  505  501  0.00000000000E+00  0.00000000000E+00  0.22910103079E+03  0.22910103079E+03  0.00000000000E+00 0.  1.
         21   -1    0    0  506  502 -0.00000000000E+00 -0.00000000000E+00 -0.16921652833E+03  0.16921652833E+03  0.00000000000E+00 0.  1.
         21    1    1    2  503  502 -0.21898049832E+02  0.31432525805E+02 -0.10301638744E+03  0.10990861816E+03  0.00000000000E+00 0.  1.
         21    1    1    2  504  501  0.38251007669E+02  0.14448858000E+02  0.12515302300E+02  0.42761453166E+02  0.00000000000E+00 0.  1.
         21    1    1    2  505  503 -0.89115705455E+02 -0.64544496266E+02  0.51565349585E+02  0.12151784328E+03  0.00000000000E+00 0.  1.
         21    1    1    2  506  504  0.72762747617E+02  0.18663112461E+02  0.98820238012E+02  0.12412964452E+03  0.00000000000E+00 0.  1.
<scales pt_clust_3="38.30833" pt_clust_4="33.29519" pt_clust_5="111.70171" pt_clust_6="33.29519"></scales>
<clustering>
<clus scale="   33.295">  4  6 -1 -1</clus>
<clus scale="   38.308">  2  3  1 -1</clus>
<clus scale="  111.702">  2  5  1 -1</clus>
<clus scale="  120.473">  1  3  2 -1</clus>
</clustering>
</event>
<event>
 6    0  0.6207838E+002  0.1732700E+03  0.7546771E-02  0.1174480E+00
         21   -1    0    0  503  501  0.00000000000E+00  0.00000000000E+00  0.18615993347E+04  0.18615993347E+04  0.00000000000E+00 0. -1.
         21   -1    0    0  505  502 -0.00000000000E+00 -0.00000000000E+00 -0.88960681123E+02  0.88960681123E+02  0.00000000000E+00 0. -1.
         21    1    1    2  503  506  0.15063706036E+03 -0.44553898813E+02  0.16143368998E+04  0.16219618368E+04  0.00000000000E+00 0. -1.
         21    1    1    2  504  502 -0.11726652481E+03  0.12548619406E+02  0.69889597243E+02  0.13708924645E+03  0.00000000000E+00 0. -1.
         21    1    1    2  505  501  0.46314366602E+02 -0.28609647446E+02 -0.48860370640E+01  0.54657166400E+02  0.00000000000E+00 0. -1.
         21    1    1    2  506  504 -0.79684902152E+02  0.60614926853E+02  0.93298193625E+02  0.13685176624E+03  0.00000000000E+00 0. -1.
<scales pt_clust_3="160.47378" pt_clust_4="61.33595" pt_clust_5="54.43834" pt_clust_6="61.33595"></scales>
<clustering>
<clus scale="   54.438">  2  5  1 -1</clus>
<clus scale="   61.336">  4  6 -1 -1</clus>
<clus scale="  160.474">  1  3  2 -1</clus>
<clus scale="  160.474">  1  3  2 -1</clus>
</clustering>
</event>
<event>
 6    0  0.6207838E+002  0.1501486E+03  0.7546771E-02  0.1200291E+00
         21   -1    0    0  503  501  0.00000000000E+00  0.00000000000E+00  0.25597663770E+03  0.25597663770E+03  0.00000000000E+00 0. -1.
         21   -1    0    0  505  502 -0.00000000000E+00 -0.00000000000E+00 -0.85788731627E+03  0.85788731627E+03  0.00000000000E+00 0.  1.
         21    1    1    2  503  504  0.39990984759E+02 -0.18160792092E+02  0.18423115676E+01  0.43960065324E+02  0.00000000000E+00 0.  1.
         21    1    1    2  504  506 -0.49299934616E+02 -0.19718425065E+02 -0.22083242020E+02  0.57506255470E+02  0.00000000000E+00 0.  1.
         21    1    1    2  505  501  0.24626001952E+02 -0.11274364692E+03  0.19202224579E+03  0.22403149951E+03  0.00000000000E+00 0. -1.
         21    1    1    2  506  502 -0.15317052095E+02  0.15062286408E+03 -0.77369199391E+03  0.78836613366E+03  0.00000000000E+00 0.  1.
<scales pt_clust_3="43.92144" pt_clust_4="50.84512" pt_clust_5="14000.00000" pt_clust_6="150.14856"></scales>
<clustering>
<clus scale="   43.921">  1  3  2 -1</clus>
<clus scale="   50.845">  1  4  2 -1</clus>
<clus scale="  150.149">  2  6  1 -1</clus>
<clus scale="   43.921">  1  3  2 -1</clus>
</clustering>
</event>
<event>
 6    0  0.6207838E+002  0.1125901E+03  0.7546771E-02  0.1255847E+00
         21   -1    0    0  506  501  0.00000000000E+00  0.00000000000E+00  0.90342972960E+02  0.90342972960E+02  0.00000000000E+00 0.  1.
         21   -1    0    0  504  502 -0.00000000000E+00 -0.00000000000E+00 -0.10206875947E+04  0.10206875947E+04  0.00000000000E+00 0.  1.
         21    1    1    2  503  505 -0.52122473545E+02 -0.81546063750E+01 -0.18499428666E+03  0.19236978960E+03  0.00000000000E+00 0.  1.
         21    1    1    2  504  503 -0.28171535517E+02 -0.40165995099E+02 -0.53027244654E+03  0.53253714437E+03  0.00000000000E+00 0. -1.
         21    1    1    2  505  501  0.48342394976E+02  0.11462214424E+03  0.31890359661E+02  0.12842203138E+03  0.00000000000E+00 0.  1.
         21    1    1    2  506  502  0.31951614086E+02 -0.66301542771E+02 -0.24696824822E+03  0.25770160234E+03  0.00000000000E+00 0.  1.
<scales pt_clust_3="67.27777" pt_clust_4="49.06060" pt_clust_5="112.59008" pt_clust_6="14000.00000"></scales>
<clustering>
<clus scale="   49.061">  2  4  1 -1</clus>
<clus scale="   67.278">  2  3  1 -1</clus>
<clus scale="  112.590">  1  5  2 -1</clus>
<clus scale="  112.590">  1  3  2 -1</clus>
</clustering>
</event>
<event>
 6    0  0.6207838E+002  0.1787137E+03  0.7546771E-02  0.1169054E+00
         21   -1    0    0  505  501  0.00000000000E+00  0.00000000000E+00  0.64463135650E+03  0.64463135650E+03  0.00000000000E+00 0. -1.
         21   -1    0    0  504  502 -0.00000000000E+00 -0.00000000000E+00 -0.14663325643E+04  0.14663325643E+04  0.00000000000E+00 0. -1.
         21    1    1    2  503  501  0.65652710247E+02 -0.62285757245E+01  0.30544753905E+03  0.31248563588E+03  0.00000000000E+00 0. -1.
         21    1    1    2  504  506  0.24844061803E+01 -0.78562891771E+02  0.10852119149E+03  0.13399682549E+03  0.00000000000E+00 0. -1.
         21    1    1    2  505  502 -0.82603944946E+02  0.14940997662E+03 -0.14397965056E+04  0.14498830058E+04  0.00000000000E+00 0. -1.
         21    1    1    2  506  503  0.14466828518E+02 -0.64618509124E+02  0.20412656727E+03  0.21459845367E+03  0.00000000000E+00 0. -1.
<scales pt_clust_3="65.94751" pt_clust_4="50.11984" pt_clust_5="170.16700" pt_clust_6="50.11984"></scales>
<clustering>
<clus scale="   50.120">  4  6 -1 -1</clus>
<clus scale="   65.948">  1  3  2 -1</clus>
<clus scale="  170.167">  2  5  1 -1</clus>
<clus scale="   65.948">  1  3  2 -1</clus>
</clustering>
</event>
<event>
 6    0  0.6207838E+002  0.1897185E+03  0.7546771E-02  0.1158716E+00
         21   -1    0    0  506  501  0.00000000000E+00  0.00000000000E+00  0.12035099385E+04  0.12035099385E+04  0.00000000000E+00 0. -1.
         21   -1    0    0  504  502 -0.00000000000E+00 -0.00000000000E+00 -0.10929914943E+03  0.10929914943E+03  0.00000000000E+00 0.  1.
         21    1    1    2  503  501  0.14150382011E+02  0.58491482856E+02  0.70302968276E+03  0.70560061063E+03  0.00000000000E+00 0. -1.
         21    1    1    2  504  505  0.21614622900E+02 -0.45755928369E+02  0.75357775072E+02  0.90772193803E+02  0.00000000000E+00 0.  1.
         21    1    1    2  505  503 -0.37732766348E+02 -0.18084083496E+03  0.29356301378E+03  0.34685214761E+03  0.00000000000E+00 0. -1.
         21    1    1    2  506  502  0.19677614367E+01  0.16810528048E+03  0.22260317467E+02  0.16958413588E+03  0.00000000000E+00 0.  1.
<scales pt_clust_3="60.17879" pt_clust_4="32.29155" pt_clust_5="32.29155" pt_clust_6="179.40588"></scales>
<clustering>
<clus scale="   32.292">  4  5 -1 -1</clus>
<clus scale="   60.179">  1  3  2 -1</clus>
<clus scale="  179.406">  2  6  1 -1</clus>
<clus scale="   60.179">  1  3  2 -1</clus>
</clustering>
</event>
<event>
 6    0  0.6207838E+002  0.1798349E+03  0.7546771E-02  0.1167963E+00
         21   -1    0    0  503  501  0.00000000000E+00  0.00000000000E+00  0.18664781530E+04  0.18664781530E+04  0.00000000000E+00 0. -1.
         21   -1    0    0  505  502 -0.00000000000E+00 -0.00000000000E+00 -0.63859835100E+02  0.63859835100E+02  0.00000000000E+00 0. -1.
         21    1    1    2  503  504  0.96408086844E+01  0.34563365958E+02  0.14847265131E+03  0.15274717558E+03  0.00000000000E+00 0. -1.
         21    1    1    2  504  502  0.33393852121E+02 -0.18534465046E+03  0.27711561437E+03  0.33505350698E+03  0.00000000000E+00 0. -1.
         21    1    1    2  505  506  0.33700553577E+02  0.12803258561E+02 -0.16814920510E+02  0.39779294777E+02  0.00000000000E+00 0.  1.
         21    1    1    2  506  501 -0.76735214383E+02  0.13797802594E+03  0.13938449728E+04  0.14027580108E+04  0.00000000000E+00 0. -1.
<scales pt_clust_3="35.88275" pt_clust_4="14000.00000" pt_clust_5="36.19364" pt_clust_6="179.83493"></scales>
<clustering>
<clus scale="   35.883">  1  3  2 -1</clus>
<clus scale="   36.194">  2  5  1 -1</clus>
<clus scale="  179.835">  1  6  2 -1</clus>
<clus scale="   35.883">  1  3  2 -1</clus>
</clustering>
</event>
<event>
 6    0  0.6207838E+002  0.6829150E+02  0.7546771E-02  0.1366001E+00
         21   -1    0    0  504  501  0.00000000000E+00  0.00000000000E+00  0.17513780912E+03  0.17513780912E+03  0.00000000000E+00 0.  1.
         21   -1    0    0  506  502 -0.00000000000E+00 -0.00000000000E+00 -0.11219781651E+04  0.11219781651E+04  0.00000000000E+00 0.  1.
         21    1    1    2  503  505  0.96851971387E+01  0.70112056921E+02 -0.15514837604E+03  0.17053012097E+03  0.00000000000E+00 0. -1.
         21    1    1    2  504  503 -0.54245345301E+02 -0.11757181250E+02  0.15085922774E+03  0.16074605871E+03  0.00000000000E+00 0.  1.
         21    1    1    2  505  502 -0.24255275982E+01 -0.79433720805E+02 -0.88520350446E+03  0.88876366009E+03  0.00000000000E+00 0.  1.
         21    1    1    2  506  501  0.46985675760E+02  0.21078845135E+02 -0.57347703223E+02  0.77076134463E+02  0.00000000000E+00 0.  1.
<scales pt_clust_3="68.29150" pt_clust_4="55.26874" pt_clust_5="14000.00000" pt_clust_6="51.49730"></scales>
<clustering>
<clus scale="   51.497">  2  6  1 -1</clus>
<clus scale="   55.269">  1  4  2 -1</clus>
<clus scale="   68.291">  1  3  2 -1</clus>
<clus scale="   55.269">  1  3  2 -1</clus>
</clustering>
</event>
<event>
 6    0  0.6207838E+002  0.1218473E+03  0.7546771E-02  0.1240080E+00
         21   -1    0    0  504  501  0.00000000000E+00  0.00000000000E+00  0.95660316229E+03  0.95660316229E+03  0.00000000000E+00 0.  1.
         21   -1    0    0  505  502 -0.00000000000E+00 -0.00000000000E+00 -0.48543360838E+02  0.48543360838E+02  0.00000000000E+00 0.  1.
         21    1    1    2  503  501  0.11328965781E+03 -0.31474858314E+01  0.33600777210E+03  0.35460636788E+03  0.00000000000E+00 0.  1.
         21    1    1    2  504  506 -0.91414221395E+02  0.41253211807E+01  0.26383372229E+03  0.27925223574E+03  0.00000000000E+00 0.  1.
         21    1    1    2  505  503  0.65289120791E+02  0.42220431100E+02  0.24050387020E+03  0.25275946209E+03  0.00000000000E+00 0.  1.
         21    1    1    2  506  502 -0.87164557204E+02 -0.43198266449E+02  0.67714436865E+02  0.11852845741E+03  0.00000000000E+00 0.  1.
<scales pt_clust_3="46.19443" pt_clust_4="91.50726" pt_clust_5="46.19443" pt_clust_6="108.33400"></scales>
<clustering>
<clus scale="   46.194">  3  5 -1 -1</clus>
<clus scale="   91.507">  1  4  2 -1</clus>
<clus scale="  108.334">  2  6  1 -1</clus>
<clus scale="   91.507">  1  3  2 -1</clus>
</clustering>
</event>
<event>
 6    0  0.6207838E+002  0.8265796E+02  0.7546771E-02  0.1321673E+00
         21   -1    0    0  503  501  0.00000000000E+00  0.00000000000E+00  0.15507782234E+04  0.15507782234E+04  0.00000000000E+00 0.  1.
         21   -1    0    0  506  502 -0.00000000000E+00 -0.00000000000E+00 -0.27366873486E+03  0.27366873486E+03  0.00000000000E+00 0.  1.
         21    1    1    2  503  505 -0.37305616594E+02  0.20705745721E+01  0.50864118659E+02  0.63112240298E+02  0.00000000000E+00 0.  1.
         21    1    1    2  504  502 -0.35129698662E+02 -0.15427629947E+02 -0.23940405939E+03  0.24245909169E+03  0.00000000000E+00 0.  1.
         21    1    1    2  505  504 -0.52841261702E+02 -0.63092490852E+01  0.58033015551E+01  0.53532082635E+02  0.00000000000E+00 0.  1.
         21    1    1    2  506  501  0.12527657696E+03  0.19666304460E+02  0.14598461277E+04  0.14653435437E+04  0.00000000000E+00 0.  1.
<scales pt_clust_3="37.36303" pt_clust_4="38.40213" pt_clust_5="14000.00000" pt_clust_6="82.65796"></scales>
<clustering>
<clus scale="   37.363">  1  3  2 -1</clus>
<clus scale="   38.402">  2  4  1 -1</clus>
<clus scale="   82.658">  1  6  2 -1</clus>
<clus scale="   37.363">  1  3  2 -1</clus>
</clustering>
</event>
<event>
 6    0  0.6207838E+002  0.1267103E+03  0.7546771E-02  0.1232420E+00
         21   -1    0    0  505  501  0.00000000000E+00  0.00000000000E+00  0.22093758929E+04  0.22093758929E+04  0.00000000000E+00 0.  1.
         21   -1    0    0  504  502 -0.00000000000E+00 -0.00000000000E+00 -0.25574193704E+02  0.25574193704E+02  0.00000000000E+00 0.  1.
         21    1    1    2  503  501  0.96980372117E+02 -0.31758369677E+02  0.89107294598E+03  0.89689730833E+03  0.00000000000E+00 0.  1.
         21    1    1    2  504  503  0.35038517380E+02  0.12630893579E+02 -0.11364818949E+00  0.37245806324E+02  0.00000000000E+00 0.  1.
         21    1    1    2  505  506 -0.38865393448E+02  0.10144852104E+02  0.64384525043E+03  0.64509700304E+03  0.00000000000E+00 0.  1.
         21    1    1    2  506  502 -0.93153496048E+02  0.89826239946E+01  0.64899715097E+03  0.65570996891E+03  0.00000000000E+00 0.  1.
<scales pt_clust_3="114.86099" pt_clust_4="37.24563" pt_clust_5="35.05120" pt_clust_6="35.05120"></scales>
<clustering>
<clus scale="   35.051">  5  6 -1 -1</clus>
<clus scale="   37.246">  2  4  1 -1</clus>
<clus scale="  114.861">  1  3  2 -1</clus>
<clus scale="  114.861">  1  3  2 -1</clus>
</clustering>
</event>
<event>
 6    0  0.6207838E+002  0.1219176E+03  0.7546771E-02  0.1239967E+00
         21   -1    0    0  503  501  0.00000000000E+00  0.00000000000E+00  0.36198921957E+03  0.36198921957E+03  0.00000000000E+00 0. -1.
         21   -1    0    0  505  502 -0.00000000000E+00 -0.00000000000E+00 -0.45988817075E+03  0.45988817075E+03  0.00000000000E+00 0. -1.
         21    1    1    2  503  504 -0.32906763017E+02  0.65248530031E+02  0.23871695746E+03  0.24965178049E+03  0.00000000000E+00 0. -1.
         21    1    1    2  504  506 -0.46214565948E+02  0.47820932335E+02  0.49457317219E+02  0.82877342511E+02  0.00000000000E+00 0. -1.
         21    1    1    2  505  501 -0.20745714893E+02 -0.29487731916E+02  0.33996800017E+02  0.49554953651E+02  0.00000000000E+00 0.  1.
         21    1    1    2  506  502  0.99867043858E+02 -0.83581730449E+02 -0.42007002587E+03  0.43979331367E+03  0.00000000000E+00 0. -1.
<scales pt_clust_3="64.82977" pt_clust_4="121.91759" pt_clust_5="36.05428" pt_clust_6="14000.00000"></scales>
<clustering>
<clus scale="   36.054">  1  5  2 -1</clus>
<clus scale="   64.830">  1  3  2 -1</clus>
<clus scale="  121.918">  1  4  2 -1</clus>
<clus scale="   36.054">  1  3  2 -1</clus>
</clustering>
</event>
<event>
 6    0  0.6207838E+002  0.1135155E+03  0.7546771E-02  0.1254195E+00
         21   -1    0    0  503  501  0.00000000000E+00  0.00000000000E+00  0.10865030006E+03  0.10865030006E+03  0.00000000000E+00 0.  1.
         21   -1    0    0  506  502 -0.00000000000E+00 -0.00000000000E+00 -0.19353886454E+04  0.19353886454E+04  0.00000000000E+00 0.  1.
         21    1    1    2  503  502 -0.35838461918E+02 -0.16166312152E+02 -0.49877637587E+03  0.50032351347E+03  0.00000000000E+00 0. -1.
         21    1    1    2  504  505  0.90478457746E+02  0.36624064439E+02 -0.83560209686E+03  0.84128386273E+03  0.00000000000E+00 0.  1.
         21    1    1    2  505  501 -0.10241778741E+03 -0.95996094042E+01  0.78546824366E+02  0.12942626973E+03  0.00000000000E+00 0.  1.
         21    1    1    2  506  504  0.47777791579E+02 -0.10858142882E+02 -0.57090669698E+03  0.57300529953E+03  0.00000000000E+00 0.  1.
<scales pt_clust_3="39.31596" pt_clust_4="32.98991" pt_clust_5="103.52587" pt_clust_6="32.98991"></scales>
<clustering>
<clus scale="   32.990">  4  6 -1 -1</clus>
<clus scale="   39.316">  2  3  1 -1</clus>
<clus scale="  103.526">  1  5  2 -1</clus>
<clus scale="  103.526">  1  3  2 -1</clus>
</clustering>
</event>
<event>
 6    0  0.6207838E+002  0.1132533E+03  0.7546771E-02  0.1254661E+00
         21   -1    0    0  503  501  0.00000000000E+00  0.00000000000E+00  0.17363753732E+04  0.17363753732E+04  0.00000000000E+00 0. -1.
         21   -1    0    0  505  502 -0.00000000000E+00 -0.00000000000E+00 -0.12149394588E+03  0.12149394588E+03  0.00000000000E+00 0.  1.
         21    1    1    2  503  504  0.97634935736E+01  0.10715191081E+03  0.16549012034E+04  0.16583952638E+04  0.00000000000E+00 0. -1.
         21    1    1    2  504  502 -0.68216488738E+02 -0.42463318531E+02  0.25124910336E+02  0.84189571063E+02  0.00000000000E+00 0. -1.
         21    1    1    2  505  506  0.36339575057E+02 -0.21416946721E+02 -0.13305338216E+02  0.44229880705E+02  0.00000000000E+00 0.  1.
         21    1    1    2  506  501  0.22113420107E+02 -0.43271645561E+02 -0.51839348232E+02  0.71054603535E+02  0.00000000000E+00 0.  1.
<scales pt_clust_3="106.68179" pt_clust_4="80.35311" pt_clust_5="35.41983" pt_clust_6="35.41983"></scales>
<clustering>
<clus scale="   35.420">  5  6 -1 -1</clus>
<clus scale="   80.353">  2  4  1 -1</clus>
<clus scale="  106.682">  1  3  2 -1</clus>
<clus scale="  106.682">  1  3  2 -1</clus>
</clustering>
</event>
<event>
 6    0  0.6207838E+002  0.7794286E+02  0.7546771E-02  0.1334993E+00
         21   -1    0    0  504  501  0.00000000000E+00  0.00000000000E+00  0.14910802085E+04  0.14910802085E+04  0.00000000000E+00 0. -1.
         21   -1    0    0  503  502 -0.00000000000E+00 -0.00000000000E+00 -0.49807869459E+03  0.49807869459E+03  0.00000000000E+00 0.  1.
         21    1    1    2  503  506 -0.56479663182E+02  0.15148337390E+02 -0.48617683936E+03  0.48968085893E+03  0.00000000000E+00 0.  1.
         21    1    1    2  504  502 -0.78130684470E+02 -0.46923079195E+02  0.57496972708E+03  0.58214806216E+03  0.00000000000E+00 0. -1.
         21    1    1    2  505  501  0.75715304256E+02 -0.77852017609E+01  0.60786348985E+03  0.61261034840E+03  0.00000000000E+00 0. -1.
         21    1    1    2  506  505  0.58895043397E+02  0.39559943565E+02  0.29634513635E+03  0.30471963362E+03  0.00000000000E+00 0. -1.
<scales pt_clust_3="58.47585" pt_clust_4="14000.00000" pt_clust_5="77.94286" pt_clust_6="58.01273"></scales>
<clustering>
<clus scale="   58.476">  2  3  1 -1</clus>
<clus scale="   58.013">  2  6  1 -1</clus>
<clus scale="   77.943">  1  5  2 -1</clus>
<clus scale="   77.943">  1  3  2 -1</clus>
</clustering>
</event>
<event>
 6    0  0.6207838E+002  0.2178456E+03  0.7546771E-02  0.1135499E+00
         21   -1    0    0  506  501  0.00000000000E+00  0.00000000000E+00  0.11949114868E+04  0.11949114868E+04  0.00000000000E+00 0.  1.
         21   -1    0    0  505  502 -0.00000000000E+00 -0.00000000000E+00 -0.77306594345E+02  0.77306594345E+02  0.00000000000E+00 0.  1.
         21    1    1    2  503  501  0.20945401657E+03 -0.51163173870E+02  0.91734200073E+03  0.94234017304E+03  0.00000000000E+00 0.  1.
         21    1    1    2  504  502 -0.67543411952E+02  0.38305861681E+02  0.38088965905E+02  0.86488270077E+02  0.00000000000E+00 0.  1.
         21    1    1    2  505  503 -0.20951637409E+02 -0.42449505205E+02  0.31013376076E+02  0.56592942120E+02  0.00000000000E+00 0. -1.
         21    1    1    2  506  504 -0.12095896721E+03  0.55306817394E+02  0.13116054979E+03  0.18679669595E+03  0.00000000000E+00 0.  1.
<scales pt_clust_3="213.80814" pt_clust_4="31.89782" pt_clust_5="47.33848" pt_clust_6="31.89782"></scales>
<clustering>
<clus scale="   31.898">  4  6 -1 -1</clus>
<clus scale="   47.338">  2  5  1 -1</clus>
<clus scale="  213.808">  1  3  2 -1</clus>
<clus scale="  213.808">  1  3  2 -1</clus>
</clustering>
</event>
<event>
 6    0  0.6207838E+002  0.2448811E+03  0.7546771E-02  0.1116583E+00
         21   -1    0    0  502  501  0.00000000000E+00  0.00000000000E+00  0.91119089186E+03  0.91119089186E+03  0.00000000000E+00 0.  1.
         21   -1    0    0  503  502 -0.00000000000E+00 -0.00000000000E+00 -0.69926566582E+02  0.69926566582E+02  0.00000000000E+00 0.  1.
         21    1    1    2  503  506  0.20945861460E+03  0.50165565015E+02  0.19701614875E+03  0.29189871190E+03  0.00000000000E+00 0.  1.
         21    1    1    2  504  501 -0.11890877489E+03  0.10788864548E+02  0.40687564520E+03  0.42403241267E+03  0.00000000000E+00 0.  1.
         21    1    1    2  505  504 -0.71787481703E+02 -0.27799128819E+02  0.18539815044E+03  0.20074538171E+03  0.00000000000E+00 0.  1.
         21    1    1    2  506  505 -0.18762358005E+02 -0.33155300744E+02  0.51974380891E+02  0.64440952153E+02  0.00000000000E+00 0. -1.
<scales pt_clust_3="215.38221" pt_clust_4="90.20780" pt_clust_5="90.20780" pt_clust_6="31.95448"></scales>
<clustering>
<clus scale="   31.954">  5  6 -1 -1</clus>
<clus scale="   90.208">  4  5 -1 -1</clus>
<clus scale="  215.382">  2  3  1 -1</clus>
<clus scale="  244.881">  1  3  2 -1</clus>
</clustering>
</event>
<event>
 6    0  0.6207838E+002  0.1105333E+03  0.7546771E-02  0.1259585E+00
         21   -1    0    0  503  501  0.00000000000E+00  0.00000000000E+00  0.17258242697E+03  0.17258242697E+03  0.00000000000E+00 0.  1.
         21   -1    0    0  504  502 -0.00000000000E+00 -0.00000000000E+00 -0.24354191258E+03  0.24354191258E+03  0.00000000000E+00 0.  1.
         21    1    1    2  503  506 -0.38501713964E+02 -0.22918338655E+02 -0.10033099264E+02  0.45916176950E+02  0.00000000000E+00 0. -1.
         21    1    1    2  504  505 -0.66191512018E+02  0.10566439358E+03 -0.75842149308E+01  0.12491517382E+03  0.00000000000E+00 0.  1.
         21    1    1    2  505  501  0.29788581989E+02 -0.69431830224E+01  0.73508933428E+02  0.79618657996E+02  0.00000000000E+00 0.  1.
         21    1    1    2  506  502  0.74904643993E+02 -0.75802871906E+02 -0.12685110485E+03  0.16567433079E+03  0.00000000000E+00 0.  1.
<scales pt_clust_3="40.87973" pt_clust_4="14000.00000" pt_clust_5="30.58705" pt_clust_6="110.53333"></scales>
<clustering>
<clus scale="   30.587">  1  5  2 -1</clus>
<clus scale="   40.880">  1  3  2 -1</clus>
<clus scale="  110.533">  2  6  1 -1</clus>
<clus scale="   30.587">  1  3  2 -1</clus>
</clustering>
</event>
<event>
 6    0  0.6207838E+002  0.1274220E+03  0.7546771E-02  0.1231332E+00
         21   -1    0    0  504  501  0.00000000000E+00  0.00000000000E+00  0.21091784180E+03  0.21091784180E+03  0.00000000000E+00 0.  1.
         21   -1    0    0  505  502 -0.00000000000E+00 -0.00000000000E+00 -0.13602562819E+04  0.13602562819E+04  0.00000000000E+00 0. -1.
         21    1    1    2  503  506  0.23878465725E+02  0.20636182642E+02 -0.17137069834E+03  0.17425254491E+03  0.00000000000E+00 0. -1.
         21    1    1    2  504  503 -0.74736354728E+02 -0.88968665859E+02  0.18772524656E+03  0.22077525772E+03  0.00000000000E+00 0.  1.
         21    1    1    2  505  501  0.54415833920E+02 -0.26084536097E+02 -0.37431805014E+03  0.37915101037E+03  0.00000000000E+00 0. -1.
         21    1    1    2  506  502 -0.35579449170E+01  0.94417019314E+02 -0.79137493820E+03  0.79699531073E+03  0.00000000000E+00 0. -1.
<scales pt_clust_3="30.54432" pt_clust_4="115.94524" pt_clust_5="60.34473" pt_clust_6="30.54432"></scales>
<clustering>
<clus scale="   30.544">  3  6 -1 -1</clus>
<clus scale="   60.345">  2  5  1 -1</clus>
<clus scale="  115.945">  1  4  2 -1</clus>
<clus scale="  115.945">  1  3  2 -1</clus>
</clustering>
</event>
<event>
 6    0  0.6207838E+002  0.1016293E+03  0.7546771E-02  0.1276907E+00
         21   -1    0    0  504  501  0.00000000000E+00  0.00000000000E+00  0.11010085848E+04  0.11010085848E+04  0.00000000000E+00 0. -1.
         21   -1    0    0  506  502 -0.00000000000E+00 -0.00000000000E+00 -0.42272495841E+03  0.42272495841E+03  0.00000000000E+00 0.  1.
         21    1    1    2  503  501 -0.83594971095E+02  0.57162920388E+02  0.90105952395E+03  0.90673258702E+03  0.00000000000E+00 0. -1.
         21    1    1    2  504  502  0.72935837080E+02 -0.77522568065E+02  0.11476478873E+03  0.15652584969E+03  0.00000000000E+00 0.  1.
         21    1    1    2  505  503  0.41767312197E+02  0.63352650012E+01  0.53376600361E+02  0.68071325952E+02  0.00000000000E+00 0.  1.
         21    1    1    2  506  505 -0.31108178182E+02  0.14024382676E+02 -0.39091728661E+03  0.39240378060E+03  0.00000000000E+00 0.  1.
<scales pt_clust_3="101.62932" pt_clust_4="14000.00000" pt_clust_5="35.73776" pt_clust_6="34.12334"></scales>
<clustering>
<clus scale="   34.123">  2  6  1 -1</clus>
<clus scale="   35.738">  2  5  1 -1</clus>
<clus scale="  101.629">  1  3  2 -1</clus>
<clus scale="  101.629">  1  3  2 -1</clus>
</clustering>
</event>
<event>
 6    0  0.6207838E+002  0.9686673E+02  0.7546771E-02  0.1287026E+00
         21   -1    0    0  503  501  0.00000000000E+00  0.00000000000E+00  0.64512748602E+03  0.64512748602E+03  0.00000000000E+00 0. -1.
         21   -1    0    0  501  502 -0.00000000000E+00 -0.00000000000E+00 -0.55646824766E+02  0.55646824766E+02  0.00000000000E+00 0. -1.
         21    1    1    2  503  505 -0.75765255213E+02 -0.60493060010E+02  0.44229086304E+03  0.45279243780E+03  0.00000000000E+00 0. -1.
         21    1    1    2  504  506  0.99328358584E+01 -0.44172162723E+02  0.62103974398E+02  0.76855350001E+02  0.00000000000E+00 0.  1.
         21    1    1    2  505  504  0.71075250836E+02  0.65217615156E+02  0.26027686979E+02  0.99912307037E+02  0.00000000000E+00 0. -1.
         21    1    1    2  506  502 -0.52428314812E+01  0.39447607576E+02  0.59058136847E+02  0.71214215949E+02  0.00000000000E+00 0. -1.
<scales pt_clust_3="96.86673" pt_clust_4="39.38086" pt_clust_5="14000.00000" pt_clust_6="39.79448"></scales>
<clustering>
<clus scale="   39.794">  2  6  1 -1</clus>
<clus scale="   39.381">  2  4  1 -1</clus>
<clus scale="   96.867">  1  3  2 -1</clus>
<clus scale="   96.867">  1  3  2 -1</clus>
</clustering>
</event>
<event>
 6    0  0.6207838E+002  0.1863060E+03  0.7546771E-02  0.1161836E+00
         21   -1    0    0  503  501  0.00000000000E+00  0.00000000000E+00  0.39230309442E+03  0.39230309442E+03  0.00000000000E+00 0.  1.
         21   -1    0    0  506  502 -0.00000000000E+00 -0.00000000000E+00 -0.11559584946E+04  0.11559584946E+04  0.00000000000E+00 0.  1.
         21    1    1    2  503  504  0.11761232630E+02  0.74001540138E+02 -0.22543873626E+01  0.74964236795E+02  0.00000000000E+00 0.  1.
         21    1    1    2  504  502  0.81883060375E+02 -0.60374651362E+02 -0.94231802617E+03  0.94779385762E+03  0.00000000000E+00 0.  1.
         21    1    1    2  505  501 -0.12626984078E+03  0.84560568758E+02  0.31877005005E+03  0.35314148339E+03  0.00000000000E+00 0.  1.
         21    1    1    2  506  505  0.32625547772E+02 -0.98187457534E+02 -0.13785303673E+03  0.17236201125E+03  0.00000000000E+00 0. -1.
<scales pt_clust_3="74.93033" pt_clust_4="14000.00000" pt_clust_5="186.30598" pt_clust_6="100.25548"></scales>
<clustering>
<clus scale="   74.930">  1  3  2 -1</clus>
<clus scale="  100.255">  2  6  1 -1</clus>
<clus scale="  186.306">  1  5  2 -1</clus>
<clus scale="   74.930">  1  3  2 -1</clus>
</clustering>
</event>
<event>
 6    0  0.6207838E+002  0.7007919E+02  0.7546771E-02  0.1359824E+00
         21   -1    0    0  503  501  0.00000000000E+00  0.00000000000E+00  0.49104333143E+02  0.49104333143E+02  0.00000000000E+00 0.  1.
         21   -1    0    0  505  502 -0.00000000000E+00 -0.00000000000E+00 -0.48081462066E+03  0.48081462066E+03  0.00000000000E+00 0.  1.
         21    1    1    2  503  506 -0.44559953683E+02  0.42183303254E+02 -0.26467632503E+02  0.66824816617E+02  0.00000000000E+00 0.  1.
         21    1    1    2  504  501  0.61089400799E+02 -0.61858275847E+02 -0.69056444577E+02  0.11102771599E+03  0.00000000000E+00 0.  1.
         21    1    1    2  505  504  0.38968286721E+02  0.25234734392E+02 -0.19031330636E+03  0.19589403709E+03  0.00000000000E+00 0.  1.
         21    1    1    2  506  502 -0.55497733838E+02 -0.55597617987E+01 -0.14587290408E+03  0.15617238410E+03  0.00000000000E+00 0.  1.
<scales pt_clust_3="14000.00000" pt_clust_4="70.07919" pt_clust_5="46.42542" pt_clust_6="35.87589"></scales>
<clustering>
<clus scale="   46.425">  2  5  1 -1</clus>
<clus scale="   35.876">  2  6  1 -1</clus>
<clus scale="   70.079">  2  4  1 -1</clus>
<clus scale="   70.079">  1  3  2 -1</clus>
</clustering>
</event>
<event>
 6    0  0.6207838E+002  0.5845676E+02  0.7546771E-02  0.1404425E+00
         21   -1    0    0  505  501  0.00000000000E+00  0.00000000000E+00  0.13881891995E+04  0.13881891995E+04  0.00000000000E+00 0. -1.
         21   -1    0    0  504  502 -0.00000000000E+00 -0.00000000000E+00 -0.43375447335E+02  0.43375447335E+02  0.00000000000E+00 0.  1.
         21    1    1    2  503  506 -0.50561152514E+02  0.16204590943E+02  0.14802024270E+03  0.15725460617E+03  0.00000000000E+00 0. -1.
         21    1    1    2  504  501  0.12181866707E+03  0.32551770944E+02  0.10078115016E+04  0.10156689560E+04  0.00000000000E+00 0. -1.
         21    1    1    2  505  503 -0.28770581975E+02 -0.10535109628E+02  0.19837346740E+03  0.20072560248E+03  0.00000000000E+00 0.  1.
         21    1    1    2  506  502 -0.42486932581E+02 -0.38221252259E+02 -0.93914595364E+01  0.57915482184E+02  0.00000000000E+00 0.  1.
<scales pt_clust_3="56.25170" pt_clust_4="58.45676" pt_clust_5="30.63878" pt_clust_6="14000.00000"></scales>
<clustering>
<clus scale="   30.639">  1  5  2 -1</clus>
<clus scale="   56.252">  1  3  2 -1</clus>
<clus scale="   58.457">  1  4  2 -1</clus>
<clus scale="   30.639">  1  3  2 -1</clus>
</clustering>
</event>
<event>
 6    0  0.6207838E+002  0.1318837E+03  0.7546771E-02  0.1224687E+00
         21   -1    0    0  503  501  0.00000000000E+00  0.00000000000E+00  0.18601430066E+03  0.18601430066E+03  0.00000000000E+00 0.  1.
         21   -1    0    0  504  502 -0.00000000000E+00 -0.00000000000E+00 -0.29945273865E+03  0.29945273865E+03  0.00000000000E+00 0.  1.
         21    1    1    2  503  502 -0.63397600757E+02 -0.72403417357E+01 -0.27648782059E+02  0.69542314310E+02  0.00000000000E+00 0.  1.
         21    1    1    2  504  506 -0.85108612070E+02  0.18152894639E+02 -0.19871512884E+03  0.21693479634E+03  0.00000000000E+00 0.  1.
         21    1    1    2  505  501  0.21285278509E+02 -0.26208242434E+02  0.36817166983E+02  0.49954367550E+02  0.00000000000E+00 0. -1.
         21    1    1    2  506  505  0.12722093432E+03  0.15295689531E+02  0.76108305927E+02  0.14903556112E+03  0.00000000000E+00 0.  1.
<scales pt_clust_3="61.28327" pt_clust_4="131.88375" pt_clust_5="33.76292" pt_clust_6="14000.00000"></scales>
<clustering>
<clus scale="   33.763">  1  5  2 -1</clus>
<clus scale="   61.283">  2  3  1 -1</clus>
<clus scale="  131.884">  2  4  1 -1</clus>
<clus scale="   33.763">  1  3  2 -1</clus>
</clustering>
</event>
<event>
 6    0  0.6207838E+002  0.9034789E+02  0.7546771E-02  0.1302011E+00
         21   -1    0    0  506  501  0.00000000000E+00  0.00000000000E+00  0.10440071205E+03  0.10440071205E+03  0.00000000000E+00 0.  1.
         21   -1    0    0  503  502 -0.00000000000E+00 -0.00000000000E+00 -0.31830646277E+03  0.31830646277E+03  0.00000000000E+00 0.  1.
         21    1    1    2  503  505  0.64090553824E+02  0.63870743835E+01 -0.82207194230E+02  0.10443379047E+03  0.00000000000E+00 0.  1.
         21    1    1    2  504  501 -0.54828244070E+02 -0.22183353926E+02  0.53364356923E+02  0.79661735664E+02  0.00000000000E+00 0.  1.
         21    1    1    2  505  504  0.62130616718E+02  0.74687867407E+01 -0.33759655399E+02  0.71103520600E+02  0.00000000000E+00 0.  1.
         21    1    1    2  506  502 -0.71392926472E+02  0.83274928016E+01 -0.15130325802E+03  0.16750812808E+03  0.00000000000E+00 0.  1.
<scales pt_clust_3="34.72749" pt_clust_4="59.14590" pt_clust_5="34.72749" pt_clust_6="83.19539"></scales>
<clustering>
<clus scale="   34.727">  3  5 -1 -1</clus>
<clus scale="   59.146">  1  4  2 -1</clus>
<clus scale="   83.195">  2  6  1 -1</clus>
<clus scale="   59.146">  1  3  2 -1</clus>
</clustering>
</event>
<event>
 6    0  0.6207838E+002  0.1387003E+03  0.7546771E-02  0.1215089E+00
         21   -1    0    0  505  501  0.00000000000E+00  0.00000000000E+00  0.12235030412E+03  0.12235030412E+03  0.00000000000E+00 0.  1.
         21   -1    0    0  506  502 -0.00000000000E+00 -0.00000000000E+00 -0.58148634213E+03  0.58148634213E+03  0.00000000000E+00 0.  1.
         21    1    1    2  503  504  0.80526680479E+02 -0.49008390987E+02  0.49400656591E+02  0.10642740966E+03  0.00000000000E+00 0.  1.
         21    1    1    2  504  502 -0.12684193982E+03 -0.86288674190E+01 -0.46037257484E+03  0.47760469294E+03  0.00000000000E+00 0.  1.
         21    1    1    2  505  503  0.43230803266E+02  0.75509373927E+01  0.78696171117E+01  0.44585310137E+02  0.00000000000E+00 0.  1.
         21    1    1    2  506  501  0.30844560748E+01  0.50086321013E+02 -0.56033736880E+02  0.75219233515E+02  0.00000000000E+00 0. -1.
<scales pt_clust_3="34.04914" pt_clust_4="129.41197" pt_clust_5="34.04914" pt_clust_6="50.18121"></scales>
<clustering>
<clus scale="   34.049">  3  5 -1 -1</clus>
<clus scale="   50.181">  2  6  1 -1</clus>
<clus scale="  129.412">  2  4  1 -1</clus>
<clus scale="  138.700">  1  3  2 -1</clus>
</clustering>
</event>
<event>
 6    0  0.6207838E+002  0.9795737E+02  0.7546771E-02  0.1284651E+00
         21   -1    0    0  504  501  0.00000000000E+00  0.00000000000E+00  0.26013943676E+03  0.26013943676E+03  0.00000000000E+00 0.  1.
         21   -1    0    0  503  502 -0.00000000000E+00 -0.00000000000E+00 -0.38289957428E+03  0.38289957428E+03  0.00000000000E+00 0. -1.
         21    1    1    2  503  501  0.15835001264E+02 -0.34842181825E+02 -0.36713791104E+02  0.53034209305E+02  0.00000000000E+00 0.  1.
         21    1    1    2  504  506  0.48615486245E+02 -0.86112534469E+02  0.20233372283E+03  0.22520606006E+03  0.00000000000E+00 0.  1.
         21    1    1    2  505  502 -0.74310310753E+02  0.13791638599E+02 -0.23056414155E+03  0.24263564237E+03  0.00000000000E+00 0. -1.
         21    1    1    2  506  505  0.98598232445E+01  0.10716307769E+03 -0.57815927695E+02  0.12216309930E+03  0.00000000000E+00 0. -1.
<scales pt_clust_3="38.27172" pt_clust_4="97.95737" pt_clust_5="64.10839" pt_clust_6="14000.00000"></scales>
<clustering>
<clus scale="   38.272">  2  3  1 -1</clus>
<clus scale="   64.108">  2  5  1 -1</clus>
<clus scale="   97.957">  1  4  2 -1</clus>
<clus scale="   97.957">  1  3  2 -1</clus>
</clustering>
</event>
<event>
 6    0  0.6207838E+002  0.1321204E+03  0.7546771E-02  0.1224343E+00
         21   -1    0    0  503  501  0.00000000000E+00  0.00000000000E+00  0.47024552849E+03  0.47024552849E+03  0.00000000000E+00 0. -1.
         21   -1    0    0  505  502 -0.00000000000E+00 -0.00000000000E+00 -0.11058942109E+03  0.11058942109E+03  0.00000000000E+00 0. -1.
         21    1    1    2  503  506 -0.27166295689E+02 -0.22444750785E+02  0.20605020673E+03  0.20904177131E+03  0.00000000000E+00 0. -1.
         21    1    1    2  504  502 -0.12421388162E+03  0.51092954608E+02 -0.13602693273E+02  0.13499856170E+03  0.00000000000E+00 0. -1.
         21    1    1    2  505  501  0.35078514203E+02  0.21352555200E+02  0.39928845162E+02  0.57277800658E+02  0.00000000000E+00 0. -1.
         21    1    1    2  506  504  0.11630166310E+03 -0.50000759023E+02  0.12727974879E+03  0.17951681591E+03  0.00000000000E+00 0. -1.
<scales pt_clust_3="35.23882" pt_clust_4="132.12039" pt_clust_5="34.62631" pt_clust_6="14000.00000"></scales>
<clustering>
<clus scale="   35.239">  1  3  2 -1</clus>
<clus scale="   34.626">  1  5  2 -1</clus>
<clus scale="  132.120">  2  4  1 -1</clus>
<clus scale="   35.239">  1  3  2 -1</clus>
</clustering>
</event>
<event>
 6    0  0.6207838E+002  0.1229646E+03  0.7546771E-02  0.1238285E+00
         21   -1    0    0  505  501  0.00000000000E+00  0.00000000000E+00  0.17363245894E+04  0.17363245894E+04  0.00000000000E+00 0. -1.
         21   -1    0    0  504  502 -0.00000000000E+00 -0.00000000000E+00 -0.98364614353E+02  0.98364614353E+02  0.00000000000E+00 0. -1.
         21    1    1    2  503  501 -0.10342850152E+03 -0.10091244052E+03  0.14449866840E+04  0.14521939583E+04  0.00000000000E+00 0. -1.
         21    1    1    2  504  503  0.26071710876E+02  0.22204475335E+02  0.13196401708E+02  0.36700379438E+02  0.00000000000E+00 0. -1.
         21    1    1    2  505  506  0.41009711310E+02  0.73821554133E+02  0.25146743764E+03  0.26526833673E+03  0.00000000000E+00 0.  1.
         21    1    1    2  506  502  0.36347079339E+02  0.48864110551E+01 -0.71690548348E+02  0.80526529243E+02  0.00000000000E+00 0. -1.
<scales pt_clust_3="14000.00000" pt_clust_4="34.24577" pt_clust_5="122.96464" pt_clust_6="64.08309"></scales>
<clustering>
<clus scale="   34.246">  2  4  1 -1</clus>
<clus scale="   64.083">  2  6  1 -1</clus>
<clus scale="  122.965">  2  5  1 -1</clus>
<clus scale="  122.965">  1  3  2 -1</clus>
</clustering>
</event>
<event>
 6    0  0.6207838E+002  0.1032573E+03  0.7546771E-02  0.1273592E+00
         21   -1    0    0  504  501  0.00000000000E+00  0.00000000000E+00  0.50910170642E+03  0.50910170642E+03  0.00000000000E+00 0.  1.
         21   -1    0    0  503  502 -0.00000000000E+00 -0.00000000000E+00 -0.23204350333E+03  0.23204350333E+03  0.00000000000E+00 0.  1.
         21    1    1    2  503  506 -0.12948790282E+02  0.82641229445E+02 -0.13981878350E+03  0.16293107805E+03  0.00000000000E+00 0.  1.
         21    1    1    2  504  505 -0.10331982958E+03  0.29668816423E+02  0.47002749632E+02  0.11732213911E+03  0.00000000000E+00 0.  1.
         21    1    1    2  505  502  0.62651459932E+02 -0.18776462332E+02 -0.98655213482E+01  0.66144459184E+02  0.00000000000E+00 0.  1.
         21    1    1    2  506  501  0.53617159927E+02 -0.93533583536E+02  0.37973975831E+03  0.39474753341E+03  0.00000000000E+00 0.  1.
<scales pt_clust_3="76.90156" pt_clust_4="103.25729" pt_clust_5="65.40459" pt_clust_6="14000.00000"></scales>
<clustering>
<clus scale="   65.405">  2  5  1 -1</clus>
<clus scale="   76.902">  2  3  1 -1</clus>
<clus scale="  103.257">  2  4  1 -1</clus>
<clus scale="  103.257">  1  3  2 -1</clus>
</clustering>
</event>
<event>
 6    0  0.6207838E+002  0.9089048E+02  0.7546771E-02  0.1300709E+00
         21   -1    0    0  505  501  0.00000000000E+00  0.00000000000E+00  0.44671521429E+03  0.44671521429E+03  0.00000000000E+00 0. -1.
         21   -1    0    0  503  502 -0.00000000000E+00 -0.00000000000E+00 -0.14056690582E+04  0.14056690582E+04  0.00000000000E+00 0.  1.
         21    1    1    2  503  506 -0.48795986177E+02 -0.17372507541E+02 -0.12543142468E+04  0.12553832411E+04  0.00000000000E+00 0.  1.
         21    1    1    2  504  502 -0.40599152378E+02 -0.19677836399E+02 -0.10961129756E+03  0.11853330743E+03  0.00000000000E+00 0. -1.
         21    1    1    2  505  504  0.28239598040E+02  0.75964840991E+02  0.15758193873E+02  0.82561811017E+02  0.00000000000E+00 0. -1.
         21    1    1    2  506  501  0.61155540515E+02 -0.38914497051E+02  0.38921350657E+03  0.39590591295E+03  0.00000000000E+00 0. -1.
<scales pt_clust_3="14000.00000" pt_clust_4="45.11661" pt_clust_5="90.89048" pt_clust_6="72.42551"></scales>
<clustering>
<clus scale="   45.117">  2  4  1 -1</clus>
<clus scale="   72.426">  1  6  2 -1</clus>
<clus scale="   90.890">  1  5  2 -1</clus>
<clus scale="   72.426">  1  3  2 -1</clus>
</clustering>
</event>
<event>
 6    0  0.6207838E+002  0.8190289E+02  0.7546771E-02  0.1323736E+00
         21   -1    0    0  506  501  0.00000000000E+00  0.00000000000E+00  0.19997310358E+03  0.19997310358E+03  0.00000000000E+00 0. -1.
         21   -1    0    0  503  502 -0.00000000000E+00 -0.00000000000E+00 -0.27492100730E+03  0.27492100730E+03  0.00000000000E+00 0. -1.
         21    1    1    2  503  501 -0.46959307937E+02 -0.31078157160E+02 -0.68307929187E+01  0.56724669997E+02  0.00000000000E+00 0.  1.
         21    1    1    2  504  505  0.66147385280E+02  0.19217796483E+02 -0.55319567207E+02  0.88346221181E+02  0.00000000000E+00 0. -1.
         21    1    1    2  505  502 -0.95493041839E+02  0.11359477209E+02 -0.14687240679E+03  0.17555472833E+03  0.00000000000E+00 0. -1.
         21    1    1    2  506  504  0.76304964496E+02  0.50088346762E+00  0.13407486320E+03  0.15426849138E+03  0.00000000000E+00 0. -1.
<scales pt_clust_3="56.31189" pt_clust_4="81.90289" pt_clust_5="14000.00000" pt_clust_6="45.22719"></scales>
<clustering>
<clus scale="   56.312">  1  3  2 -1</clus>
<clus scale="   45.227">  1  6  2 -1</clus>
<clus scale="   81.903">  1  4  2 -1</clus>
<clus scale="   56.312">  1  3  2 -1</clus>
</clustering>
</event>
<event>
 6    0  0.6207838E+002  0.1655542E+03  0.7546771E-02  0.1182565E+00
         21   -1    0    0  503  501  0.00000000000E+00  0.00000000000E+00  0.70247857493E+03  0.70247857493E+03  0.00000000000E+00 0. -1.
         21   -1    0    0  504  502 -0.00000000000E+00 -0.00000000000E+00 -0.85229441674E+02  0.85229441674E+02  0.00000000000E+00 0. -1.
         21    1    1    2  503  506  0.39438568777E+02  0.82310154667E+02  0.93752861904E+02  0.13084327030E+03  0.00000000000E+00 0. -1.
         21    1    1    2  504  501 -0.13453106534E+03 -0.64565332933E+02  0.30921415021E+03  0.34333756050E+03  0.00000000000E+00 0. -1.
         21    1    1    2  505  502  0.11579500524E+02 -0.10398740926E+03  0.12984965316E+03  0.16675850366E+03  0.00000000000E+00 0.  1.
         21    1    1    2  506  505  0.83512996035E+02  0.86242587524E+02  0.84432467978E+02  0.14676868214E+03  0.00000000000E+00 0. -1.
<scales pt_clust_3="36.90319" pt_clust_4="160.05285" pt_clust_5="104.63014" pt_clust_6="36.90319"></scales>
<clustering>
<clus scale="   36.903">  3  6 -1 -1</clus>
<clus scale="  104.630">  2  5  1 -1</clus>
<clus scale="  160.053">  1  4  2 -1</clus>
<clus scale="  160.053">  1  3  2 -1</clus>
</clustering>
</event>
<event>
 6    0  0.6207838E+002  0.2048654E+03  0.7546771E-02  0.1145698E+00
         21   -1    0    0  505  501  0.00000000000E+00  0.00000000000E+00  0.46494774463E+03  0.46494774463E+03  0.00000000000E+00 0. -1.
         21   -1    0    0  506  502 -0.00000000000E+00 -0.00000000000E+00 -0.13514646440E+04  0.13514646440E+04  0.00000000000E+00 0.  1.
         21    1    1    2  503  502  0.40697349872E+02  0.26425912931E+02 -0.31155094538E+03  0.31530714348E+03  0.00000000000E+00 0.  1.
         21    1    1    2  504  501 -0.64214196395E+02 -0.19158377975E+02  0.39034819414E+03  0.39605835319E+03  0.00000000000E+00 0. -1.
         21    1    1    2  505  503 -0.11024441683E+03  0.14444759424E+03 -0.82862828991E+02  0.19971276212E+03  0.00000000000E+00 0.  1.
         21    1    1    2  506  504  0.13376126336E+03 -0.15171512920E+03 -0.88245131916E+03  0.90533412986E+03  0.00000000000E+00 0.  1.
<scales pt_clust_3="48.52425" pt_clust_4="66.88321" pt_clust_5="14000.00000" pt_clust_6="204.86536"></scales>
<clustering>
<clus scale="   48.524">  2  3  1 -1</clus>
<clus scale="   66.883">  1  4  2 -1</clus>
<clus scale="  204.865">  2  6  1 -1</clus>
<clus scale="   66.883">  1  3  2 -1</clus>
</clustering>
</event>
<event>
 6    0  0.6207838E+002  0.1207553E+03  0.7546771E-02  0.1241856E+00
         21   -1    0    0  503  501  0.00000000000E+00  0.00000000000E+00  0.61128591645E+02  0.61128591645E+02  0.00000000000E+00 0.  1.
         21   -1    0    0  504  502 -0.00000000000E+00 -0.00000000000E+00 -0.18130341130E+04  0.18130341130E+04  0.00000000000E+00 0. -1.
         21    1    1    2  503  505 -0.32380206746E+02 -0.35665578237E+02  0.37896878273E+02  0.61291799148E+02  0.00000000000E+00 0.  1.
         21    1    1    2  504  501  0.14580049676E+03 -0.73843229957E+00 -0.83404773497E+03  0.84669590429E+03  0.00000000000E+00 0. -1.
         21    1    1    2  505  506 -0.10035973502E+03  0.83628160906E+01 -0.85130323150E+03  0.85723929277E+03  0.00000000000E+00 0.  1.
         21    1    1    2  506  502 -0.13060555002E+02  0.28041194446E+02 -0.10445143312E+03  0.10893570840E+03  0.00000000000E+00 0.  1.
<scales pt_clust_3="48.08994" pt_clust_4="120.75530" pt_clust_5="14000.00000" pt_clust_6="30.93359"></scales>
<clustering>
<clus scale="   30.934">  2  6  1 -1</clus>
<clus scale="   48.090">  1  3  2 -1</clus>
<clus scale="  120.755">  1  4  2 -1</clus>
<clus scale="   48.090">  1  3  2 -1</clus>
</clustering>
</event>
<event>
 6    0  0.6207838E+002  0.8300923E+02  0.7546771E-02  0.1320722E+00
         21   -1    0    0  504  501  0.00000000000E+00  0.00000000000E+00  0.48953588062E+03  0.48953588062E+03  0.00000000000E+00 0. -1.
         21   -1    0    0  503  502 -0.00000000000E+00 -0.00000000000E+00 -0.97507755936E+03  0.97507755936E+03  0.00000000000E+00 0. -1.
         21    1    1    2  503  505 -0.44430785761E+02  0.78455209385E-01 -0.76265146133E+03  0.76394460031E+03  0.00000000000E+00 0. -1.
         21    1    1    2  504  506 -0.39982244807E+02 -0.15282998773E+02  0.38746927401E+03  0.38982635654E+03  0.00000000000E+00 0. -1.
         21    1    1    2  505  501 -0.27604045346E+02  0.47566591483E+02 -0.17085264886E+03  0.17948590911E+03  0.00000000000E+00 0.  1.
         21    1    1    2  506  502  0.11201707591E+03 -0.32362047919E+02  0.60493157440E+02  0.13135657402E+03  0.00000000000E+00 0. -1.
<scales pt_clust_3="44.68703" pt_clust_4="42.80362" pt_clust_5="14000.00000" pt_clust_6="83.00923"></scales>
<clustering>
<clus scale="   42.804">  1  4  2 -1</clus>
<clus scale="   44.687">  2  3  1 -1</clus>
<clus scale="   83.009">  1  6  2 -1</clus>
<clus scale="   42.804">  1  3  2 -1</clus>
</clustering>
</event>
<event>
 6    0  0.6207838E+002  0.8997908E+02  0.7546771E-02  0.1302902E+00
         21   -1    0    0  504  501  0.00000000000E+00  0.00000000000E+00  0.44813774642E+03  0.44813774642E+03  0.00000000000E+00 0.  1.
         21   -1    0    0  506  502 -0.00000000000E+00 -0.00000000000E+00 -0.63185313796E+02  0.63185313796E+02  0.00000000000E+00 0.  1.
         21    1    1    2  503  501 -0.64044033862E+02  0.13455546478E+02  0.10616697496E+03  0.12471614401E+03  0.00000000000E+00 0. -1.
         21    1    1    2  504  505 -0.10747707748E+02 -0.44812842923E+02  0.11453123006E+03  0.12345487747E+03  0.00000000000E+00 0.  1.
         21    1    1    2  505  502  0.10053535913E+03 -0.53152795651E+02  0.11618169662E+03  0.16257541250E+03  0.00000000000E+00 0.  1.
         21    1    1    2  506  503 -0.25743617519E+02  0.84510092095E+02  0.48072530981E+02  0.10057662623E+03  0.00000000000E+00 0.  1.
<scales pt_clust_3="67.85131" pt_clust_4="46.08366" pt_clust_5="89.97908" pt_clust_6="14000.00000"></scales>
<clustering>
<clus scale="   46.084">  1  4  2 -1</clus>
<clus scale="   67.851">  1  3  2 -1</clus>
<clus scale="   89.979">  1  5  2 -1</clus>
<clus scale="   46.084">  1  3  2 -1</clus>
</clustering>
</event>
<event>
 6    0  0.7361476E+002  0.1012531E+03  0.7546771E-02  0.1277683E+00
         21   -1    0    0  504  501  0.00000000000E+00  0.00000000000E+00  0.93678127598E+03  0.93678127598E+03  0.00000000000E+00 0. -1.
         21   -1    0    0  505  502 -0.00000000000E+00 -0.00000000000E+00 -0.21905741248E+03  0.21905741248E+03  0.00000000000E+00 0. -1.
         21    1    1    2  503  502 -0.75467151396E+02 -0.68513762051E+02 -0.18853093762E+03  0.21432064989E+03  0.00000000000E+00 0. -1.
         21    1    1    2  504  506 -0.14034463138E+02  0.34506799470E+02  0.10650798743E+03  0.11283455477E+03  0.00000000000E+00 0.  1.
         21    1    1    2  505  501  0.26075336774E+02  0.66083414792E+02  0.71303003934E+03  0.71656037980E+03  0.00000000000E+00 0. -1.
         21    1    1    2  506  503  0.63426277759E+02 -0.32076452212E+02  0.86716774346E+02  0.11212310400E+03  0.00000000000E+00 0. -1.
<scales pt_clust_3="101.25310" pt_clust_4="37.25165" pt_clust_5="14000.00000" pt_clust_6="67.76248"></scales>
<clustering>
<clus scale="   37.252">  1  4  2 -1</clus>
<clus scale="   67.762">  1  6  2 -1</clus>
<clus scale="  101.253">  2  3  1 -1</clus>
<clus scale="   37.252">  1  3  2 -1</clus>
</clustering>
</event>
<event>
 6    0  0.6207838E+002  0.8410865E+02  0.7546771E-02  0.1317780E+00
         21   -1    0    0  503  501  0.00000000000E+00  0.00000000000E+00  0.11524645987E+04  0.11524645987E+04  0.00000000000E+00 0.  1.
         21   -1    0    0  505  502 -0.00000000000E+00 -0.00000000000E+00 -0.29410923794E+03  0.29410923794E+03  0.00000000000E+00 0.  1.
         21    1    1    2  503  504 -0.47478425123E+02  0.64930462548E+02 -0.67762957616E+02  0.10517596800E+03  0.00000000000E+00 0.  1.
         21    1    1    2  504  502  0.85608187027E+02  0.28414486357E+02 -0.10484063681E+03  0.13830294230E+03  0.00000000000E+00 0.  1.
         21    1    1    2  505  506  0.11687256257E+02 -0.93973086668E+02 -0.59277980790E+02  0.11172023981E+03  0.00000000000E+00 0.  1.
         21    1    1    2  506  501 -0.49817018161E+02  0.62813776338E+00  0.10902369359E+04  0.10913746865E+04  0.00000000000E+00 0.  1.
<scales pt_clust_3="14000.00000" pt_clust_4="77.55070" pt_clust_5="84.10865" pt_clust_6="49.82098"></scales>
<clustering>
<clus scale="   49.821">  1  6  2 -1</clus>
<clus scale="   77.551">  2  4  1 -1</clus>
<clus scale="   84.109">  1  5  2 -1</clus>
<clus scale="   49.821">  1  3  2 -1</clus>
</clustering>
</event>
<event>
 6    0  0.6207838E+002  0.2037626E+03  0.7546771E-02  0.1146603E+00
         21   -1    0    0  505  501  0.00000000000E+00  0.00000000000E+00  0.13145474667E+04  0.13145474667E+04  0.00000000000E+00 0.  1.
         21   -1    0    0  504  502 -0.00000000000E+00 -0.00000000000E+00 -0.11621438512E+03  0.11621438512E+03  0.00000000000E+00 0. -1.
         21    1    1    2  503  506 -0.78204898348E+02 -0.17140029815E+03  0.11375497107E+03  0.22007785390E+03  0.00000000000E+00 0. -1.
         21    1    1    2  504  503  0.10708951449E+02 -0.35410567295E+02 -0.39483887977E+01  0.37204565464E+02  0.00000000000E+00 0. -1.
         21    1    1    2  505  502 -0.51024429381E+01  0.16352257200E+03  0.12407121603E+03  0.20532738036E+03  0.00000000000E+00 0. -1.
         21    1    1    2  506  501  0.72598389837E+02  0.43288293449E+02  0.96445528324E+03  0.96815205207E+03  0.00000000000E+00 0.  1.
<scales pt_clust_3="36.56901" pt_clust_4="36.56901" pt_clust_5="186.30314" pt_clust_6="84.52457"></scales>
<clustering>
<clus scale="   36.569">  3  4 -1 -1</clus>
<clus scale="   84.525">  1  6  2 -1</clus>
<clus scale="  186.303">  2  5  1 -1</clus>
<clus scale="   84.525">  1  3  2 -1</clus>
</clustering>
</event>
<event>
 6    0  0.6207838E+002  0.1297646E+03  0.7546771E-02  0.1227805E+00
         21   -1    0    0  503  501  0.00000000000E+00  0.00000000000E+00  0.32043392387E+02  0.32043392387E+02  0.00000000000E+00 0. -1.
         21   -1    0    0  504  502 -0.00000000000E+00 -0.00000000000E+00 -0.10184090218E+04  0.10184090218E+04  0.00000000000E+00 0. -1.
         21    1    1    2  503  506 -0.18899404472E+02  0.52735483315E+02 -0.62563254748E+02  0.83978446845E+02  0.00000000000E+00 0. -1.
         21    1    1    2  504  501  0.51151190981E+02  0.92842626783E+02 -0.54256667190E+03  0.55282437640E+03  0.00000000000E+00 0. -1.
         21    1    1    2  505  502 -0.14577131554E+02 -0.11507573840E+03 -0.34082463915E+03  0.36002271176E+03  0.00000000000E+00 0. -1.
         21    1    1    2  506  505 -0.17674654956E+02 -0.30502371702E+02 -0.40411063587E+02  0.53626879152E+02  0.00000000000E+00 0. -1.
<scales pt_clust_3="56.01981" pt_clust_4="115.35461" pt_clust_5="32.76417" pt_clust_6="32.76417"></scales>
<clustering>
<clus scale="   32.764">  5  6 -1 -1</clus>
<clus scale="   56.020">  1  3  2 -1</clus>
<clus scale="  115.355">  2  4  1 -1</clus>
<clus scale="   56.020">  1  3  2 -1</clus>
</clustering>
</event>
<event>
 6    0  0.6207838E+002  0.1211345E+03  0.7546771E-02  0.1241237E+00
         21   -1    0    0  503  501  0.00000000000E+00  0.00000000000E+00  0.55232581437E+03  0.55232581437E+03  0.00000000000E+00 0. -1.
         21   -1    0    0  505  502 -0.00000000000E+00 -0.00000000000E+00 -0.14922161853E+03  0.14922161853E+03  0.00000000000E+00 0. -1.
         21    1    1    2  503  502  0.25944242161E+02 -0.12188942783E+03 -0.63856619308E+02  0.14002786918E+03  0.00000000000E+00 0. -1.
         21    1    1    2  504  501 -0.13555072992E+02  0.27814488046E+02  0.45517416323E+03  0.45622462080E+03  0.00000000000E+00 0. -1.
         21    1    1    2  505  506 -0.54983418876E+01  0.54469967875E+02 -0.15271569594E+02  0.56836871850E+02  0.00000000000E+00 0. -1.
         21    1    1    2  506  504 -0.68908272812E+01  0.39604971907E+02  0.27058221511E+02  0.48458071069E+02  0.00000000000E+00 0. -1.
<scales pt_clust_3="112.82311" pt_clust_4="30.94165" pt_clust_5="40.67259" pt_clust_6="40.67259"></scales>
<clustering>
<clus scale="   30.942">  1  4  2 -1</clus>
<clus scale="   40.673">  5  6 -1 -1</clus>
<clus scale="  112.823">  2  3  1 -1</clus>
<clus scale="   30.942">  1  3  2 -1</clus>
</clustering>
</event>
<event>
 6    0  0.6207838E+002  0.1201485E+03  0.7546771E-02  0.1242852E+00
         21   -1    0    0  506  501  0.00000000000E+00  0.00000000000E+00  0.16964455954E+03  0.16964455954E+03  0.00000000000E+00 0.  1.
         21   -1    0    0  503  502 -0.00000000000E+00 -0.00000000000E+00 -0.15857514841E+03  0.15857514841E+03  0.00000000000E+00 0.  1.
         21    1    1    2  503  501 -0.15743657583E+02  0.96198010443E+02  0.46744878142E+01  0.97589808913E+02  0.00000000000E+00 0.  1.
         21    1    1    2  504  505  0.27540209004E+02 -0.54587626646E+02  0.35817238777E+02  0.70860050017E+02  0.00000000000E+00 0.  1.
         21    1    1    2  505  502 -0.34332749691E+01  0.29853624320E+02 -0.70698134767E+02  0.76819610267E+02  0.00000000000E+00 0.  1.
         21    1    1    2  506  504 -0.83632764515E+01 -0.71464008118E+02  0.41275819303E+02  0.82950238748E+02  0.00000000000E+00 0.  1.
<scales pt_clust_3="113.92170" pt_clust_4="35.28960" pt_clust_5="30.05040" pt_clust_6="35.28960"></scales>
<clustering>
<clus scale="   30.050">  2  5  1 -1</clus>
<clus scale="   35.290">  4  6 -1 -1</clus>
<clus scale="  113.922">  2  3  1 -1</clus>
<clus scale="  120.148">  1  3  2 -1</clus>
</clustering>
</event>
<event>
 6    0  0.6207838E+002  0.7644486E+02  0.7546771E-02  0.1339454E+00
         21   -1    0    0  504  501  0.00000000000E+00  0.00000000000E+00  0.31747537073E+03  0.31747537073E+03  0.00000000000E+00 0. -1.
         21   -1    0    0  505  502 -0.00000000000E+00 -0.00000000000E+00 -0.88583799380E+02  0.88583799380E+02  0.00000000000E+00 0. -1.
         21    1    1    2  503  501  0.17202565360E+02  0.51839272999E+02  0.44374512969E+02  0.70372834824E+02  0.00000000000E+00 0.  1.
         21    1    1    2  504  502 -0.34885127845E+02 -0.58186855279E+02  0.15592897398E+03  0.17004860246E+03  0.00000000000E+00 0. -1.
         21    1    1    2  505  506 -0.10504651353E+02  0.76783052877E+02 -0.13823630456E+02  0.78721519727E+02  0.00000000000E+00 0. -1.
         21    1    1    2  506  503  0.28187213838E+02 -0.70435470598E+02  0.42411714854E+02  0.86916213097E+02  0.00000000000E+00 0. -1.
<scales pt_clust_3="54.61903" pt_clust_4="35.23765" pt_clust_5="14000.00000" pt_clust_6="76.44486"></scales>
<clustering>
<clus scale="   54.619">  1  3  2 -1</clus>
<clus scale="   35.238">  1  4  2 -1</clus>
<clus scale="   76.445">  1  6  2 -1</clus>
<clus scale="   54.619">  1  3  2 -1</clus>
</clustering>
</event>
<event>
 6    0  0.6207838E+002  0.9144006E+02  0.7546771E-02  0.1299401E+00
         21   -1    0    0  503  501  0.00000000000E+00  0.00000000000E+00  0.61310452695E+03  0.61310452695E+03  0.00000000000E+00 0. -1.
         21   -1    0    0  504  502 -0.00000000000E+00 -0.00000000000E+00 -0.63263023756E+02  0.63263023756E+02  0.00000000000E+00 0.  1.
         21    1    1    2  503  505  0.38899470860E+02  0.13353612897E+02  0.35296941075E+03  0.35535741548E+03  0.00000000000E+00 0. -1.
         21    1    1    2  504  506 -0.96509402394E+02 -0.27332237167E+02  0.15667190809E+02  0.10152131208E+03  0.00000000000E+00 0.  1.
         21    1    1    2  505  502  0.10841889451E+02 -0.38306465739E+02  0.21933675476E+02  0.45453470760E+02  0.00000000000E+00 0.  1.
         21    1    1    2  506  501  0.46768042084E+02  0.52285090009E+02  0.15927122616E+03  0.17403535238E+03  0.00000000000E+00 0. -1.
<scales pt_clust_3="41.08743" pt_clust_4="91.44006" pt_clust_5="39.81120" pt_clust_6="14000.00000"></scales>
<clustering>
<clus scale="   39.811">  2  5  1 -1</clus>
<clus scale="   41.087">  1  3  2 -1</clus>
<clus scale="   91.440">  2  4  1 -1</clus>
<clus scale="   41.087">  1  3  2 -1</clus>
</clustering>
</event>
<event>
 6    0  0.6207838E+002  0.1003174E+03  0.7546771E-02  0.1279630E+00
         21   -1    0    0  506  501  0.00000000000E+00  0.00000000000E+00  0.34933227854E+03  0.34933227854E+03  0.00000000000E+00 0.  1.
         21   -1    0    0  505  502 -0.00000000000E+00 -0.00000000000E+00 -0.15172513814E+03  0.15172513814E+03  0.00000000000E+00 0.  1.
         21    1    1    2  503  502  0.31437078176E+02  0.30879394171E+02 -0.91076706379E+02  0.10117703946E+03  0.00000000000E+00 0.  1.
         21    1    1    2  504  503  0.62328272098E+02  0.27111254533E+02  0.39972796714E+02  0.78852128076E+02  0.00000000000E+00 0.  1.
         21    1    1    2  505  501 -0.13029927426E+03 -0.69809654134E+02  0.13205993594E+03  0.19821986622E+03  0.00000000000E+00 0.  1.
         21    1    1    2  506  504  0.36533923987E+02  0.11819005429E+02  0.11665111412E+03  0.12280838293E+03  0.00000000000E+00 0.  1.
<scales pt_clust_3="44.82320" pt_clust_4="14000.00000" pt_clust_5="100.31739" pt_clust_6="38.39813"></scales>
<clustering>
<clus scale="   38.398">  1  6  2 -1</clus>
<clus scale="   44.823">  2  3  1 -1</clus>
<clus scale="  100.317">  1  5  2 -1</clus>
<clus scale="   38.398">  1  3  2 -1</clus>
</clustering>
</event>
<event>
 6    0  0.6207838E+002  0.9066144E+02  0.7546771E-02  0.1301258E+00
         21   -1    0    0  504  501  0.00000000000E+00  0.00000000000E+00  0.24124537325E+04  0.24124537325E+04  0.00000000000E+00 0.  1.
         21   -1    0    0  503  502 -0.00000000000E+00 -0.00000000000E+00 -0.66989355747E+02  0.66989355747E+02  0.00000000000E+00 0.  1.
         21    1    1    2  503  501  0.91573510091E+01 -0.90376549295E+02  0.43135563421E+03  0.44081681105E+03  0.00000000000E+00 0.  1.
         21    1    1    2  504  505  0.63791133514E+02  0.72852956793E+02  0.18957454403E+04  0.18982169624E+04  0.00000000000E+00 0.  1.
         21    1    1    2  505  506 -0.61560884158E+02 -0.16163773710E+02  0.58736792353E+02  0.86608433855E+02  0.00000000000E+00 0.  1.
         21    1    1    2  506  502 -0.11387600365E+02  0.33687366211E+02 -0.40373490106E+02  0.53800880919E+02  0.00000000000E+00 0.  1.
<scales pt_clust_3="90.66144" pt_clust_4="14000.00000" pt_clust_5="69.92993" pt_clust_6="35.56003"></scales>
<clustering>
<clus scale="   35.560">  2  6  1 -1</clus>
<clus scale="   69.930">  2  5  1 -1</clus>
<clus scale="   90.661">  2  3  1 -1</clus>
<clus scale="   90.661">  1  3  2 -1</clus>
</clustering>
</event>
<event>
 6    0  0.6207838E+002  0.7905366E+02  0.7546771E-02  0.1331759E+00
         21   -1    0    0  505  501  0.00000000000E+00  0.00000000000E+00  0.57135567229E+03  0.57135567229E+03  0.00000000000E+00 0.  1.
         21   -1    0    0  504  502 -0.00000000000E+00 -0.00000000000E+00 -0.25741111663E+03  0.25741111663E+03  0.00000000000E+00 0.  1.
         21    1    1    2  503  501 -0.50360905309E+02  0.88980324715E+02  0.29273403733E+03  0.31007569331E+03  0.00000000000E+00 0.  1.
         21    1    1    2  504  503  0.88909663159E+02  0.16727897016E+02  0.22614138715E+03  0.24356657760E+03  0.00000000000E+00 0.  1.
         21    1    1    2  505  506 -0.39288363058E+00 -0.36936375014E+02  0.16266452121E+02  0.40361462081E+02  0.00000000000E+00 0. -1.
         21    1    1    2  506  502 -0.38155874219E+02 -0.68771846717E+02 -0.22119732094E+03  0.23476305593E+03  0.00000000000E+00 0.  1.
<scales pt_clust_3="77.41420" pt_clust_4="14000.00000" pt_clust_5="36.93846" pt_clust_6="79.05366"></scales>
<clustering>
<clus scale="   36.938">  1  5  2 -1</clus>
<clus scale="   79.054">  2  6  1 -1</clus>
<clus scale="   77.414">  1  3  2 -1</clus>
<clus scale="   36.938">  1  3  2 -1</clus>
</clustering>
</event>
<event>
 6    0  0.6207838E+002  0.1220365E+03  0.7546771E-02  0.1239775E+00
         21   -1    0    0  503  501  0.00000000000E+00  0.00000000000E+00  0.19264826668E+03  0.19264826668E+03  0.00000000000E+00 0.  1.
         21   -1    0    0  505  502 -0.00000000000E+00 -0.00000000000E+00 -0.12002200833E+04  0.12002200833E+04  0.00000000000E+00 0.  1.
         21    1    1    2  503  506  0.18782284104E+03 -0.64256986166E+02  0.80117717232E+02  0.21406828000E+03  0.00000000000E+00 0.  1.
         21    1    1    2  504  502  0.47809997952E+02 -0.23185931715E+02 -0.95951015361E+02  0.10968126860E+03  0.00000000000E+00 0. -1.
         21    1    1    2  505  501 -0.78041807683E+02  0.50485233463E+02 -0.35849379948E+02  0.99621586952E+02  0.00000000000E+00 0.  1.
         21    1    1    2  506  504 -0.15759103131E+03  0.36957684417E+02 -0.95588913853E+03  0.96949721441E+03  0.00000000000E+00 0.  1.
<scales pt_clust_3="122.03652" pt_clust_4="53.13552" pt_clust_5="89.69357" pt_clust_6="14000.00000"></scales>
<clustering>
<clus scale="   53.136">  2  4  1 -1</clus>
<clus scale="   89.694">  1  5  2 -1</clus>
<clus scale="  122.037">  1  3  2 -1</clus>
<clus scale="   89.694">  1  3  2 -1</clus>
</clustering>
</event>
<event>
 6    0  0.6207838E+002  0.5753986E+02  0.7546771E-02  0.1408456E+00
         21   -1    0    0  505  501  0.00000000000E+00  0.00000000000E+00  0.14819234643E+02  0.14819234643E+02  0.00000000000E+00 0.  1.
         21   -1    0    0  504  502 -0.00000000000E+00 -0.00000000000E+00 -0.30074059787E+04  0.30074059787E+04  0.00000000000E+00 0.  1.
         21    1    1    2  503  506  0.29717418069E+02 -0.65429864788E+02 -0.36501103700E+03  0.37201780774E+03  0.00000000000E+00 0.  1.
         21    1    1    2  504  503  0.11339737796E+02  0.56163602035E+02 -0.21488851880E+04  0.21496489227E+04  0.00000000000E+00 0.  1.
         21    1    1    2  505  502 -0.90593280244E+02 -0.93741571247E+01 -0.25778745837E+03  0.27340334844E+03  0.00000000000E+00 0.  1.
         21    1    1    2  506  501  0.49536124379E+02  0.18640419877E+02 -0.22090306073E+03  0.22715513446E+03  0.00000000000E+00 0.  1.
<scales pt_clust_3="57.53986" pt_clust_4="14000.00000" pt_clust_5="57.59835" pt_clust_6="52.92724"></scales>
<clustering>
<clus scale="   52.927">  1  6  2 -1</clus>
<clus scale="   57.598">  1  5  2 -1</clus>
<clus scale="   57.540">  1  3  2 -1</clus>
<clus scale="   52.927">  1  3  2 -1</clus>
</clustering>
</event>
<event>
 6    0  0.6207838E+002  0.1876919E+03  0.7546771E-02  0.1160560E+00
         21   -1    0    0  505  501  0.00000000000E+00  0.00000000000E+00  0.26290981674E+03  0.26290981674E+03  0.00000000000E+00 0. -1.
         21   -1    0    0  504  502 -0.00000000000E+00 -0.00000000000E+00 -0.85767764961E+03  0.85767764961E+03  0.00000000000E+00 0. -1.
         21    1    1    2  503  501 -0.15368033340E+03  0.31414242898E+02 -0.20964668622E+02  0.15825301533E+03  0.00000000000E+00 0. -1.
         21    1    1    2  504  503  0.17275363569E+03 -0.85208005173E+02 -0.63022180171E+03  0.65900208053E+03  0.00000000000E+00 0. -1.
         21    1    1    2  505  506 -0.46358926086E+02 -0.71772727439E+01  0.16737272852E+03  0.17382259210E+03  0.00000000000E+00 0. -1.
         21    1    1    2  506  502  0.27285623801E+02  0.60971035019E+02 -0.11095409105E+03  0.12950977839E+03  0.00000000000E+00 0. -1.
<scales pt_clust_3="14000.00000" pt_clust_4="187.69190" pt_clust_5="46.91123" pt_clust_6="64.35817"></scales>
<clustering>
<clus scale="   46.911">  1  5  2 -1</clus>
<clus scale="   64.358">  2  6  1 -1</clus>
<clus scale="  187.692">  2  4  1 -1</clus>
<clus scale="   46.911">  1  3  2 -1</clus>
</clustering>
</event>
<event>
 6    0  0.6207838E+002  0.2943406E+03  0.7546771E-02  0.1088104E+00
         21   -1    0    0  504  501  0.00000000000E+00  0.00000000000E+00  0.26234984103E+03  0.26234984103E+03  0.00000000000E+00 0.  1.
         21   -1    0    0  506  502 -0.00000000000E+00 -0.00000000000E+00 -0.19615776144E+04  0.19615776144E+04  0.00000000000E+00 0. -1.
         21    1    1    2  503  502  0.52175102961E+02 -0.37723504761E+02 -0.10310755404E+04  0.10330837692E+04  0.00000000000E+00 0. -1.
         21    1    1    2  504  505  0.16850828054E+03 -0.23253436062E+03  0.11245806268E+03  0.30840571548E+03  0.00000000000E+00 0.  1.
         21    1    1    2  505  503 -0.17304157085E+03  0.29217426275E+03 -0.55358623398E+03  0.64943583479E+03  0.00000000000E+00 0. -1.
         21    1    1    2  506  501 -0.47641812652E+02 -0.21916397371E+02 -0.22702406173E+03  0.23300213602E+03  0.00000000000E+00 0. -1.
<scales pt_clust_3="56.07762" pt_clust_4="294.34062" pt_clust_5="14000.00000" pt_clust_6="52.44112"></scales>
<clustering>
<clus scale="   52.441">  2  6  1 -1</clus>
<clus scale="   56.078">  2  3  1 -1</clus>
<clus scale="  294.341">  1  4  2 -1</clus>
<clus scale="  294.341">  1  3  2 -1</clus>
</clustering>
</event>
<event>
 6    0  0.6207838E+002  0.1041174E+03  0.7546771E-02  0.1271868E+00
         21   -1    0    0  504  501  0.00000000000E+00  0.00000000000E+00  0.20658359358E+03  0.20658359358E+03  0.00000000000E+00 0.  1.
         21   -1    0    0  506  502 -0.00000000000E+00 -0.00000000000E+00 -0.12063446401E+04  0.12063446401E+04  0.00000000000E+00 0.  1.
         21    1    1    2  503  502 -0.38582253171E+02 -0.68015115522E+02  0.11319154029E+03  0.13757532843E+03  0.00000000000E+00 0.  1.
         21    1    1    2  504  503 -0.42480650880E+02  0.48895429716E+02  0.34971627857E+02  0.73609669890E+02  0.00000000000E+00 0.  1.
         21    1    1    2  505  501 -0.14290628658E+01 -0.45387261990E+02  0.35209050475E+01  0.45546048610E+02  0.00000000000E+00 0. -1.
         21    1    1    2  506  505  0.82491966916E+02  0.64506947796E+02 -0.11514451197E+04  0.11561971868E+04  0.00000000000E+00 0.  1.
<scales pt_clust_3="104.11739" pt_clust_4="55.59977" pt_clust_5="45.40975" pt_clust_6="14000.00000"></scales>
<clustering>
<clus scale="   45.410">  1  5  2 -1</clus>
<clus scale="   55.600">  1  4  2 -1</clus>
<clus scale="  104.117">  1  3  2 -1</clus>
<clus scale="   45.410">  1  3  2 -1</clus>
</clustering>
</event>
<event>
 6    0  0.6207838E+002  0.1455243E+03  0.7546771E-02  0.1206083E+00
         21   -1    0    0  506  501  0.00000000000E+00  0.00000000000E+00  0.79905369627E+02  0.79905369627E+02  0.00000000000E+00 0.  1.
         21   -1    0    0  504  502 -0.00000000000E+00 -0.00000000000E+00 -0.18380862932E+04  0.18380862932E+04  0.00000000000E+00 0.  1.
         21    1    1    2  503  501 -0.16138583252E+02 -0.48044369645E+02  0.47814487197E+02  0.69677403150E+02  0.00000000000E+00 0.  1.
         21    1    1    2  504  505  0.91541060296E+01  0.35886946102E+02 -0.47782955035E+03  0.47926271475E+03  0.00000000000E+00 0. -1.
         21    1    1    2  505  503  0.83747535067E+02 -0.12809099096E+03 -0.88029136818E+03  0.89349529628E+03  0.00000000000E+00 0.  1.
         21    1    1    2  506  502 -0.76763057844E+02  0.14024841451E+03 -0.44787449220E+03  0.47555624860E+03  0.00000000000E+00 0.  1.
<scales pt_clust_3="50.38553" pt_clust_4="37.03607" pt_clust_5="14000.00000" pt_clust_6="145.52426"></scales>
<clustering>
<clus scale="   37.036">  2  4  1 -1</clus>
<clus scale="   50.386">  1  3  2 -1</clus>
<clus scale="  145.524">  1  6  2 -1</clus>
<clus scale="   50.386">  1  3  2 -1</clus>
</clustering>
</event>
<event>
 6    0  0.6207838E+002  0.9190388E+02  0.7546771E-02  0.1298306E+00
         21   -1    0    0  503  501  0.00000000000E+00  0.00000000000E+00  0.70448052685E+02  0.70448052685E+02  0.00000000000E+00 0. -1.
         21   -1    0    0  505  502 -0.00000000000E+00 -0.00000000000E+00 -0.63175823349E+03  0.63175823349E+03  0.00000000000E+00 0.  1.
         21    1    1    2  503  504  0.52319046990E+02  0.12900444556E+02  0.99568111281E+01  0.54798195549E+02  0.00000000000E+00 0. -1.
         21    1    1    2  504  506  0.19021954508E+02 -0.79944352485E+02 -0.35114441137E+02  0.89364188710E+02  0.00000000000E+00 0. -1.
         21    1    1    2  505  501 -0.23135296845E+02 -0.22223346169E+02 -0.29050881116E+03  0.29227467977E+03  0.00000000000E+00 0.  1.
         21    1    1    2  506  502 -0.48205704652E+02  0.89267254098E+02 -0.24564373964E+03  0.26576922214E+03  0.00000000000E+00 0.  1.
<scales pt_clust_3="52.06663" pt_clust_4="91.90388" pt_clust_5="32.07989" pt_clust_6="14000.00000"></scales>
<clustering>
<clus scale="   32.080">  2  5  1 -1</clus>
<clus scale="   52.067">  1  3  2 -1</clus>
<clus scale="   91.904">  1  4  2 -1</clus>
<clus scale="   52.067">  1  3  2 -1</clus>
</clustering>
</event>
<event>
 6    0  0.6207838E+002  0.2478736E+03  0.7546771E-02  0.1114656E+00
         21   -1    0    0  506  501  0.00000000000E+00  0.00000000000E+00  0.65732301859E+03  0.65732301859E+03  0.00000000000E+00 0. -1.
         21   -1    0    0  505  502 -0.00000000000E+00 -0.00000000000E+00 -0.17287756461E+04  0.17287756461E+04  0.00000000000E+00 0. -1.
         21    1    1    2  503  502 -0.56050536864E+02  0.21758156012E+03 -0.62959945882E+03  0.66848999733E+03  0.00000000000E+00 0. -1.
         21    1    1    2  504  503 -0.68171263493E+02 -0.24193190612E+03  0.73022924468E+02  0.26174551737E+03  0.00000000000E+00 0. -1.
         21    1    1    2  505  501  0.15880505066E+03  0.20125533979E+02 -0.97821013833E+03  0.99122104294E+03  0.00000000000E+00 0. -1.
         21    1    1    2  506  504 -0.34583250304E+02  0.42248120267E+01  0.46333404516E+03  0.46464210705E+03  0.00000000000E+00 0. -1.
<scales pt_clust_3="247.87356" pt_clust_4="14000.00000" pt_clust_5="158.93892" pt_clust_6="34.84035"></scales>
<clustering>
<clus scale="   34.840">  1  6  2 -1</clus>
<clus scale="  158.939">  2  5  1 -1</clus>
<clus scale="  247.874">  2  3  1 -1</clus>
<clus scale="   34.840">  1  3  2 -1</clus>
</clustering>
</event>
<event>
 6    0  0.6207838E+002  0.8439609E+02  0.7546771E-02  0.1317019E+00
         21   -1    0    0  505  501  0.00000000000E+00  0.00000000000E+00  0.14668522197E+03  0.14668522197E+03  0.00000000000E+00 0.  1.
         21   -1    0    0  503  502 -0.00000000000E+00 -0.00000000000E+00 -0.18524920231E+03  0.18524920231E+03  0.00000000000E+00 0.  1.
         21    1    1    2  503  506  0.66736613412E+02 -0.13909656725E+02 -0.34572475600E+02  0.76436314596E+02  0.00000000000E+00 0.  1.
         21    1    1    2  504  502  0.17801961562E+02  0.29521027760E+02 -0.27615271539E+02  0.44170172488E+02  0.00000000000E+00 0. -1.
         21    1    1    2  505  504  0.27499693254E+02  0.64048894774E+02  0.24412879410E+02  0.73854469953E+02  0.00000000000E+00 0.  1.
         21    1    1    2  506  501 -0.11203826823E+03 -0.79660265809E+02 -0.78911260915E+00  0.13747346724E+03  0.00000000000E+00 0.  1.
<scales pt_clust_3="73.41110" pt_clust_4="34.47319" pt_clust_5="84.39609" pt_clust_6="14000.00000"></scales>
<clustering>
<clus scale="   34.473">  2  4  1 -1</clus>
<clus scale="   73.411">  2  3  1 -1</clus>
<clus scale="   84.396">  1  5  2 -1</clus>
<clus scale="   84.396">  1  3  2 -1</clus>
</clustering>
</event>
<event>
 6    0  0.6207838E+002  0.1165955E+03  0.7546771E-02  0.1248821E+00
         21   -1    0    0  505  501  0.00000000000E+00  0.00000000000E+00  0.26959290215E+03  0.26959290215E+03  0.00000000000E+00 0.  1.
         21   -1    0    0  506  502 -0.00000000000E+00 -0.00000000000E+00 -0.39490201807E+03  0.39490201807E+03  0.00000000000E+00 0.  1.
         21    1    1    2  503  502 -0.37097184028E+02  0.77650860639E+02 -0.62597585021E+02  0.10641576420E+03  0.00000000000E+00 0.  1.
         21    1    1    2  504  501  0.18639466242E+02 -0.14084807811E+03  0.10076198801E+03  0.17417976070E+03  0.00000000000E+00 0.  1.
         21    1    1    2  505  503  0.32236159029E+02  0.25228737811E+02  0.10484758630E+03  0.11255521095E+03  0.00000000000E+00 0.  1.
         21    1    1    2  506  504 -0.13778441243E+02  0.37968479657E+02 -0.26832110521E+03  0.27134418437E+03  0.00000000000E+00 0.  1.
<scales pt_clust_3="14000.00000" pt_clust_4="116.59552" pt_clust_5="41.33846" pt_clust_6="40.39122"></scales>
<clustering>
<clus scale="   40.391">  2  6  1 -1</clus>
<clus scale="   41.338">  1  5  2 -1</clus>
<clus scale="  116.596">  1  4  2 -1</clus>
<clus scale="   41.338">  1  3  2 -1</clus>
</clustering>
</event>
<event>
 6    0  0.6207838E+002  0.1630965E+03  0.7546771E-02  0.1185244E+00
         21   -1    0    0  503  501  0.00000000000E+00  0.00000000000E+00  0.15348726550E+03  0.15348726550E+03  0.00000000000E+00 0.  1.
         21   -1    0    0  506  502 -0.00000000000E+00 -0.00000000000E+00 -0.53682570500E+03  0.53682570500E+03  0.00000000000E+00 0.  1.
         21    1    1    2  503  505 -0.13283677187E+03 -0.68657469301E+02 -0.42975909832E+02  0.15558401228E+03  0.00000000000E+00 0.  1.
         21    1    1    2  504  501 -0.28859872791E+02  0.26582164511E+02  0.55008595073E+02  0.67568108302E+02  0.00000000000E+00 0.  1.
         21    1    1    2  505  502 -0.22625842883E+02  0.39476847035E+02 -0.17009221902E+03  0.17607303368E+03  0.00000000000E+00 0.  1.
         21    1    1    2  506  504  0.18432248755E+03  0.25984577549E+01 -0.22527890572E+03  0.29108781623E+03  0.00000000000E+00 0.  1.
<scales pt_clust_3="163.09655" pt_clust_4="39.23651" pt_clust_5="46.71616" pt_clust_6="14000.00000"></scales>
<clustering>
<clus scale="   39.237">  1  4  2 -1</clus>
<clus scale="   46.716">  2  5  1 -1</clus>
<clus scale="  163.097">  1  3  2 -1</clus>
<clus scale="   39.237">  1  3  2 -1</clus>
</clustering>
</event>
<event>
 6    0  0.6207838E+002  0.9919642E+02  0.7546771E-02  0.1281995E+00
         21   -1    0    0  503  501  0.00000000000E+00  0.00000000000E+00  0.11941477882E+02  0.11941477882E+02  0.00000000000E+00 0.  1.
         21   -1    0    0  505  502 -0.00000000000E+00 -0.00000000000E+00 -0.16158124055E+04  0.16158124055E+04  0.00000000000E+00 0.  1.
         21    1    1    2  503  504 -0.42359310991E+02 -0.37456293782E+02 -0.28469635728E+03  0.29025730140E+03  0.00000000000E+00 0.  1.
         21    1    1    2  504  502 -0.45467948427E+02  0.43435883263E+01 -0.23001819392E+03  0.23450921225E+03  0.00000000000E+00 0.  1.
         21    1    1    2  505  506  0.42836023158E+02 -0.57411525809E+02 -0.52211960399E+03  0.52701033106E+03  0.00000000000E+00 0.  1.
         21    1    1    2  506  501  0.44991236260E+02  0.90524231264E+02 -0.56703677241E+03  0.57597703865E+03  0.00000000000E+00 0.  1.
<scales pt_clust_3="36.38308" pt_clust_4="36.38308" pt_clust_5="71.63106" pt_clust_6="90.56039"></scales>
<clustering>
<clus scale="   36.383">  3  4 -1 -1</clus>
<clus scale="   71.631">  2  5  1 -1</clus>
<clus scale="   90.560">  2  6  1 -1</clus>
<clus scale="   99.196">  1  3  2 -1</clus>
</clustering>
</event>
<event>
 6    0  0.6207838E+002  0.1992679E+03  0.7546771E-02  0.1150358E+00
         21   -1    0    0  505  501  0.00000000000E+00  0.00000000000E+00  0.11214953363E+04  0.11214953363E+04  0.00000000000E+00 0. -1.
         21   -1    0    0  504  502 -0.00000000000E+00 -0.00000000000E+00 -0.75516046120E+03  0.75516046120E+03  0.00000000000E+00 0. -1.
         21    1    1    2  503  506 -0.26831890290E+02 -0.17329017909E+03 -0.53298210763E+02  0.18327611895E+03  0.00000000000E+00 0. -1.
         21    1    1    2  504  501  0.80927431130E+02  0.12212682334E+03  0.66495938474E+03  0.68090762475E+03  0.00000000000E+00 0. -1.
         21    1    1    2  505  503 -0.67379238945E+02  0.92181718995E+02  0.37430977078E+03  0.39133775139E+03  0.00000000000E+00 0. -1.
         21    1    1    2  506  502  0.13283698105E+02 -0.41018363238E+02 -0.61963606968E+03  0.62113430239E+03  0.00000000000E+00 0. -1.
<scales pt_clust_3="199.26794" pt_clust_4="14000.00000" pt_clust_5="111.59769" pt_clust_6="43.11569"></scales>
<clustering>
<clus scale="   43.116">  2  6  1 -1</clus>
<clus scale="  111.598">  1  5  2 -1</clus>
<clus scale="  199.268">  2  3  1 -1</clus>
<clus scale="  111.598">  1  3  2 -1</clus>
</clustering>
</event>
<event>
 6    0  0.6207838E+002  0.2302148E+03  0.7546771E-02  0.1126489E+00
         21   -1    0    0  503  501  0.00000000000E+00  0.00000000000E+00  0.81049360341E+02  0.81049360341E+02  0.00000000000E+00 0. -1.
         21   -1    0    0  505  502 -0.00000000000E+00 -0.00000000000E+00 -0.20584401412E+04  0.20584401412E+04  0.00000000000E+00 0. -1.
         21    1    1    2  503  502 -0.96235184926E+02  0.95029529812E+02 -0.96533398665E+03  0.97476229314E+03  0.00000000000E+00 0. -1.
         21    1    1    2  504  501 -0.67236741938E+01 -0.15403088659E+03 -0.13120503948E+03  0.20244871994E+03  0.00000000000E+00 0. -1.
         21    1    1    2  505  506  0.16480865929E+03  0.10917813782E+03 -0.85646534066E+03  0.87898500540E+03  0.00000000000E+00 0. -1.
         21    1    1    2  506  504 -0.61849800168E+02 -0.50176781036E+02 -0.24386414113E+02  0.83293483114E+02  0.00000000000E+00 0.  1.
<scales pt_clust_3="135.24726" pt_clust_4="75.50692" pt_clust_5="204.84637" pt_clust_6="75.50692"></scales>
<clustering>
<clus scale="   75.507">  4  6 -1 -1</clus>
<clus scale="  135.247">  2  3  1 -1</clus>
<clus scale="  204.846">  2  5  1 -1</clus>
<clus scale="  230.215">  1  3  2 -1</clus>
</clustering>
</event>
<event>
 6    0  0.6207838E+002  0.1249142E+03  0.7546771E-02  0.1235203E+00
         21   -1    0    0  506  501  0.00000000000E+00  0.00000000000E+00  0.29561881151E+04  0.29561881151E+04  0.00000000000E+00 0. -1.
         21   -1    0    0  503  502 -0.00000000000E+00 -0.00000000000E+00 -0.41514239267E+03  0.41514239267E+03  0.00000000000E+00 0.  1.
         21    1    1    2  503  505 -0.39185140133E+02  0.71639443701E+01  0.57002677987E+01  0.40240407046E+02  0.00000000000E+00 0. -1.
         21    1    1    2  504  502 -0.56414505845E+02 -0.18178653064E+02 -0.90140530188E+02  0.10788130088E+03  0.00000000000E+00 0.  1.
         21    1    1    2  505  501  0.10905856399E+03 -0.61621818021E+02  0.29184182607E+04  0.29211052982E+04  0.00000000000E+00 0. -1.
         21    1    1    2  506  504 -0.13458918016E+02  0.72636526715E+02 -0.29293227585E+03  0.30210350167E+03  0.00000000000E+00 0.  1.
<scales pt_clust_3="39.83462" pt_clust_4="68.16696" pt_clust_5="14000.00000" pt_clust_6="124.91425"></scales>
<clustering>
<clus scale="   39.835">  2  3  1 -1</clus>
<clus scale="   68.167">  2  4  1 -1</clus>
<clus scale="  124.914">  2  6  1 -1</clus>
<clus scale="  124.914">  1  3  2 -1</clus>
</clustering>
</event>
<event>
 6    0  0.6207838E+002  0.1812167E+03  0.7546771E-02  0.1166631E+00
         21   -1    0    0  504  501  0.00000000000E+00  0.00000000000E+00  0.80734274732E+03  0.80734274732E+03  0.00000000000E+00 0.  1.
         21   -1    0    0  501  502 -0.00000000000E+00 -0.00000000000E+00 -0.12376285024E+04  0.12376285024E+04  0.00000000000E+00 0.  1.
         21    1    1    2  503  505  0.24987830023E+02 -0.12958298309E+03 -0.47879262760E+03  0.49664728067E+03  0.00000000000E+00 0.  1.
         21    1    1    2  504  506  0.56249943871E+02  0.31590921820E+02  0.77892582702E+03  0.78159291611E+03  0.00000000000E+00 0.  1.
         21    1    1    2  505  502 -0.15601158599E+02 -0.50817081466E+02 -0.33465934722E+03  0.33885491084E+03  0.00000000000E+00 0.  1.
         21    1    1    2  506  503 -0.65636615295E+02  0.14880914273E+03 -0.39575960731E+03  0.42787614214E+03  0.00000000000E+00 0.  1.
<scales pt_clust_3="38.74854" pt_clust_4="64.51389" pt_clust_5="38.74854" pt_clust_6="170.62232"></scales>
<clustering>
<clus scale="   38.749">  3  5 -1 -1</clus>
<clus scale="   64.514">  1  4  2 -1</clus>
<clus scale="  170.622">  1  6  2 -1</clus>
<clus scale="   64.514">  1  3  2 -1</clus>
</clustering>
</event>
<event>
 6    0  0.6207838E+002  0.1430396E+03  0.7546771E-02  0.1209296E+00
         21   -1    0    0  505  501  0.00000000000E+00  0.00000000000E+00  0.96406714951E+03  0.96406714951E+03  0.00000000000E+00 0. -1.
         21   -1    0    0  506  502 -0.00000000000E+00 -0.00000000000E+00 -0.48393925215E+03  0.48393925215E+03  0.00000000000E+00 0. -1.
         21    1    1    2  503  502 -0.42855715698E+02 -0.82787302767E+02 -0.30505203681E+03  0.31897820464E+03  0.00000000000E+00 0. -1.
         21    1    1    2  504  503 -0.48351598625E+02 -0.12944455897E+02 -0.15422403317E+03  0.16214341934E+03  0.00000000000E+00 0. -1.
         21    1    1    2  505  504  0.68127798291E+01  0.30977992378E+02  0.12814134532E+02  0.34208946558E+02  0.00000000000E+00 0. -1.
         21    1    1    2  506  501  0.84394534493E+02  0.64753766286E+02  0.92658983281E+03  0.93267583113E+03  0.00000000000E+00 0. -1.
<scales pt_clust_3="40.55990" pt_clust_4="40.55990" pt_clust_5="31.71829" pt_clust_6="131.90970"></scales>
<clustering>
<clus scale="   31.718">  1  5  2 -1</clus>
<clus scale="   40.560">  3  4 -1 -1</clus>
<clus scale="  131.910">  1  6  2 -1</clus>
<clus scale="   31.718">  1  3  2 -1</clus>
</clustering>
</event>
<event>
 6    0  0.6207838E+002  0.9792515E+02  0.7546771E-02  0.1284721E+00
         21   -1    0    0  505  501  0.00000000000E+00  0.00000000000E+00  0.58087152444E+03  0.58087152444E+03  0.00000000000E+00 0.  1.
         21   -1    0    0  503  502 -0.00000000000E+00 -0.00000000000E+00 -0.19187732200E+03  0.19187732200E+03  0.00000000000E+00 0.  1.
         21    1    1    2  503  504 -0.11439275486E+02  0.62845343469E+02  0.19606621296E+02  0.66819262328E+02  0.00000000000E+00 0.  1.
         21    1    1    2  504  501 -0.21495016967E+02  0.94360621566E+02  0.46248546063E+03  0.47250266026E+03  0.00000000000E+00 0.  1.
         21    1    1    2  505  506 -0.86481877686E+01 -0.48914317984E+02  0.34883119578E+02  0.60697888654E+02  0.00000000000E+00 0. -1.
         21    1    1    2  506  502  0.41582480222E+02 -0.10829164705E+03 -0.12798099906E+03  0.17272903520E+03  0.00000000000E+00 0.  1.
<scales pt_clust_3="97.92515" pt_clust_4="59.11163" pt_clust_5="49.67295" pt_clust_6="14000.00000"></scales>
<clustering>
<clus scale="   49.673">  1  5  2 -1</clus>
<clus scale="   59.112">  1  4  2 -1</clus>
<clus scale="   97.925">  1  3  2 -1</clus>
<clus scale="   49.673">  1  3  2 -1</clus>
</clustering>
</event>
<event>
 6    0  0.6207838E+002  0.1044302E+03  0.7546771E-02  0.1271246E+00
         21   -1    0    0  503  501  0.00000000000E+00  0.00000000000E+00  0.45161861030E+03  0.45161861030E+03  0.00000000000E+00 0.  1.
         21   -1    0    0  504  502 -0.00000000000E+00 -0.00000000000E+00 -0.55692075710E+02  0.55692075710E+02  0.00000000000E+00 0.  1.
         21    1    1    2  503  506  0.13514022647E+02 -0.35797196736E+02  0.83021108875E+02  0.91414291121E+02  0.00000000000E+00 0.  1.
         21    1    1    2  504  505 -0.69709409827E+01  0.84072637867E+02  0.69605994006E+02  0.10936999981E+03  0.00000000000E+00 0.  1.
         21    1    1    2  505  501 -0.82659199065E+02 -0.26487386336E+02  0.56305893621E+02  0.10346244962E+03  0.00000000000E+00 0.  1.
         21    1    1    2  506  502  0.76116117401E+02 -0.21788054794E+02  0.18699353809E+03  0.20306394546E+03  0.00000000000E+00 0.  1.
<scales pt_clust_3="34.47943" pt_clust_4="84.36114" pt_clust_5="91.90087" pt_clust_6="34.47943"></scales>
<clustering>
<clus scale="   34.479">  3  6 -1 -1</clus>
<clus scale="   84.361">  2  4  1 -1</clus>
<clus scale="   91.901">  2  5  1 -1</clus>
<clus scale="  104.430">  1  3  2 -1</clus>
</clustering>
</event>
<event>
 6    0  0.6207838E+002  0.1702901E+03  0.7546771E-02  0.1177546E+00
         21   -1    0    0  504  501  0.00000000000E+00  0.00000000000E+00  0.17449926978E+03  0.17449926978E+03  0.00000000000E+00 0. -1.
         21   -1    0    0  505  502 -0.00000000000E+00 -0.00000000000E+00 -0.40978458014E+03  0.40978458014E+03  0.00000000000E+00 0.  1.
         21    1    1    2  503  506  0.36317657239E+02  0.12856961928E+03 -0.25652816716E+02  0.13604111965E+03  0.00000000000E+00 0. -1.
         21    1    1    2  504  503  0.29030286399E+02  0.56222553427E+02  0.59202160528E+02  0.86652344766E+02  0.00000000000E+00 0. -1.
         21    1    1    2  505  501 -0.36833912334E+02  0.10741939266E+02 -0.18305880962E+02  0.42511547076E+02  0.00000000000E+00 0.  1.
         21    1    1    2  506  502 -0.28514031304E+02 -0.19553411197E+03 -0.25052877322E+03  0.31907883843E+03  0.00000000000E+00 0.  1.
<scales pt_clust_3="14000.00000" pt_clust_4="63.02371" pt_clust_5="38.36830" pt_clust_6="170.29015"></scales>
<clustering>
<clus scale="   38.368">  2  5  1 -1</clus>
<clus scale="   63.024">  1  4  2 -1</clus>
<clus scale="  170.290">  2  6  1 -1</clus>
<clus scale="   63.024">  1  3  2 -1</clus>
</clustering>
</event>
<event>
 6    0  0.6207838E+002  0.1750431E+03  0.7546771E-02  0.1172688E+00
         21   -1    0    0  505  501  0.00000000000E+00  0.00000000000E+00  0.23985520270E+03  0.23985520270E+03  0.00000000000E+00 0.  1.
         21   -1    0    0  504  502 -0.00000000000E+00 -0.00000000000E+00 -0.40071729066E+04  0.40071729066E+04  0.00000000000E+00 0. -1.
         21    1    1    2  503  501 -0.60177032733E+02 -0.15775589554E+03  0.16562907660E+03  0.23651889747E+03  0.00000000000E+00 0.  1.
         21    1    1    2  504  503 -0.13960697278E+03  0.51338191445E+02 -0.36135996980E+04  0.36166598533E+04  0.00000000000E+00 0. -1.
         21    1    1    2  505  506  0.88122502013E+02  0.26892249152E+02 -0.10831110474E+03  0.14219727084E+03  0.00000000000E+00 0. -1.
         21    1    1    2  506  502  0.11166150350E+03  0.79525454945E+02 -0.21103597773E+03  0.25165208771E+03  0.00000000000E+00 0. -1.
<scales pt_clust_3="169.53969" pt_clust_4="148.74716" pt_clust_5="35.70075" pt_clust_6="35.70075"></scales>
<clustering>
<clus scale="   35.701">  5  6 -1 -1</clus>
<clus scale="  148.747">  2  4  1 -1</clus>
<clus scale="  169.540">  1  3  2 -1</clus>
<clus scale="  169.540">  1  3  2 -1</clus>
</clustering>
</event>
<event>
 6    0  0.6207838E+002  0.2057983E+03  0.7546771E-02  0.1144937E+00
         21   -1    0    0  502  501  0.00000000000E+00  0.00000000000E+00  0.13610235446E+04  0.13610235446E+04  0.00000000000E+00 0.  1.
         21   -1    0    0  504  502 -0.00000000000E+00 -0.00000000000E+00 -0.32641201708E+02  0.32641201708E+02  0.00000000000E+00 0.  1.
         21    1    1    2  503  501  0.17738846178E+01 -0.13935755419E+03  0.47945594147E+03  0.49930118604E+03  0.00000000000E+00 0.  1.
         21    1    1    2  504  505  0.11368624214E+02  0.13118512505E+03  0.40769716341E+03  0.42843407860E+03  0.00000000000E+00 0.  1.
         21    1    1    2  505  506  0.21341266421E+02  0.58610349712E+02  0.90468710365E+02  0.10988726178E+03  0.00000000000E+00 0.  1.
         21    1    1    2  506  503 -0.34483775253E+02 -0.50437920572E+02  0.35076052764E+03  0.35604221988E+03  0.00000000000E+00 0.  1.
<scales pt_clust_3="48.02381" pt_clust_4="204.01134" pt_clust_5="46.31493" pt_clust_6="48.02381"></scales>
<clustering>
<clus scale="   46.315">  4  5 -1 -1</clus>
<clus scale="   48.024">  3  6 -1 -1</clus>
<clus scale="  204.011">  2  4  1 -1</clus>
<clus scale="  205.798">  1  3  2 -1</clus>
</clustering>
</event>
<event>
 6    0  0.6207838E+002  0.8579943E+02  0.7546771E-02  0.1313355E+00
         21   -1    0    0  503  501  0.00000000000E+00  0.00000000000E+00  0.91597884302E+03  0.91597884302E+03  0.00000000000E+00 0. -1.
         21   -1    0    0  506  502 -0.00000000000E+00 -0.00000000000E+00 -0.24875649523E+02  0.24875649523E+02  0.00000000000E+00 0. -1.
         21    1    1    2  503  502 -0.54307212910E+02 -0.13504377568E+02  0.66217369224E+02  0.86697067854E+02  0.00000000000E+00 0. -1.
         21    1    1    2  504  501 -0.46393687443E+02 -0.54421182574E+02  0.51180174191E+03  0.51677370518E+03  0.00000000000E+00 0. -1.
         21    1    1    2  505  504  0.42147718866E+02  0.39751012496E+02  0.11257366713E+03  0.12660728151E+03  0.00000000000E+00 0. -1.
         21    1    1    2  506  505  0.58553181486E+02  0.28174547646E+02  0.20051041523E+03  0.21077643799E+03  0.00000000000E+00 0. -1.
<scales pt_clust_3="55.96107" pt_clust_4="79.43528" pt_clust_5="30.62021" pt_clust_6="30.62021"></scales>
<clustering>
<clus scale="   30.620">  5  6 -1 -1</clus>
<clus scale="   55.961">  2  3  1 -1</clus>
<clus scale="   79.435">  1  4  2 -1</clus>
<clus scale="   79.435">  1  3  2 -1</clus>
</clustering>
</event>
<event>
 6    0  0.6207838E+002  0.8545291E+02  0.7546771E-02  0.1314252E+00
         21   -1    0    0  506  501  0.00000000000E+00  0.00000000000E+00  0.56388753860E+03  0.56388753860E+03  0.00000000000E+00 0. -1.
         21   -1    0    0  505  502 -0.00000000000E+00 -0.00000000000E+00 -0.40340993969E+02  0.40340993969E+02  0.00000000000E+00 0. -1.
         21    1    1    2  503  502  0.17491976112E+02  0.47291286522E+02  0.80717433397E+02  0.95172154874E+02  0.00000000000E+00 0. -1.
         21    1    1    2  504  503  0.55475400829E+02  0.82455590887E+01  0.21655608230E+02  0.60120501575E+02  0.00000000000E+00 0. -1.
         21    1    1    2  505  501 -0.10798158548E+03 -0.49016254031E+02  0.29837751804E+03  0.32107905449E+03  0.00000000000E+00 0. -1.
         21    1    1    2  506  504  0.35014208535E+02 -0.65205915794E+01  0.12279598496E+03  0.12785682163E+03  0.00000000000E+00 0. -1.
<scales pt_clust_3="52.10957" pt_clust_4="14000.00000" pt_clust_5="85.45291" pt_clust_6="35.61619"></scales>
<clustering>
<clus scale="   35.616">  1  6  2 -1</clus>
<clus scale="   52.110">  2  3  1 -1</clus>
<clus scale="   85.453">  1  5  2 -1</clus>
<clus scale="   35.616">  1  3  2 -1</clus>
</clustering>
</event>
<event>
 6    0  0.6207838E+002  0.1676207E+03  0.7546771E-02  0.1180352E+00
         21   -1    0    0  505  501  0.00000000000E+00  0.00000000000E+00  0.13194050763E+04  0.13194050763E+04  0.00000000000E+00 0. -1.
         21   -1    0    0  506  502 -0.00000000000E+00 -0.00000000000E+00 -0.10915288944E+03  0.10915288944E+03  0.00000000000E+00 0. -1.
         21    1    1    2  503  504  0.15246017438E+03  0.12540252038E+03  0.19217758315E+03  0.27550339445E+03  0.00000000000E+00 0. -1.
         21    1    1    2  504  501 -0.43115282952E+01 -0.63847461265E+02  0.95407369239E+03  0.95621739061E+03  0.00000000000E+00 0. -1.
         21    1    1    2  505  502 -0.12559443446E+03 -0.81491791254E+02  0.32377270581E+02  0.15317689663E+03  0.00000000000E+00 0. -1.
         21    1    1    2  506  503 -0.22554211622E+02  0.19936732142E+02  0.31623640762E+02  0.43660284074E+02  0.00000000000E+00 0.  1.
<scales pt_clust_3="14000.00000" pt_clust_4="63.80242" pt_clust_5="167.62066" pt_clust_6="30.10259"></scales>
<clustering>
<clus scale="   30.103">  2  6  1 -1</clus>
<clus scale="   63.802">  1  4  2 -1</clus>
<clus scale="  167.621">  2  5  1 -1</clus>
<clus scale="   63.802">  1  3  2 -1</clus>
</clustering>
</event>
<event>
 6    0  0.6207838E+002  0.7638621E+02  0.7546771E-02  0.1339631E+00
         21   -1    0    0  505  501  0.00000000000E+00  0.00000000000E+00  0.88952087518E+03  0.88952087518E+03  0.00000000000E+00 0. -1.
         21   -1    0    0  506  502 -0.00000000000E+00 -0.00000000000E+00 -0.50148815681E+03  0.50148815681E+03  0.00000000000E+00 0. -1.
         21    1    1    2  503  502  0.26326091371E+02 -0.28051658133E+02  0.53001738485E+01  0.38833625297E+02  0.00000000000E+00 0. -1.
         21    1    1    2  504  503  0.32879015991E+01 -0.54641453325E+02 -0.33884790248E+02  0.64379171543E+02  0.00000000000E+00 0. -1.
         21    1    1    2  505  504  0.35767240485E+01 -0.40096665369E+02  0.84243022477E+03  0.84339149814E+03  0.00000000000E+00 0. -1.
         21    1    1    2  506  501 -0.33190717018E+02  0.12278977683E+03 -0.42581289000E+03  0.44440473701E+03  0.00000000000E+00 0. -1.
<scales pt_clust_3="38.47023" pt_clust_4="76.38621" pt_clust_5="40.28591" pt_clust_6="14000.00000"></scales>
<clustering>
<clus scale="   38.470">  2  3  1 -1</clus>
<clus scale="   40.286">  1  5  2 -1</clus>
<clus scale="   76.386">  1  4  2 -1</clus>
<clus scale="   40.286">  1  3  2 -1</clus>
</clustering>
</event>
<event>
 6    0  0.6207838E+002  0.1169885E+03  0.7546771E-02  0.1248149E+00
         21   -1    0    0  502  501  0.00000000000E+00  0.00000000000E+00  0.43002869094E+03  0.43002869094E+03  0.00000000000E+00 0. -1.
         21   -1    0    0  503  502 -0.00000000000E+00 -0.00000000000E+00 -0.23639609014E+03  0.23639609014E+03  0.00000000000E+00 0. -1.
         21    1    1    2  503  504  0.57984269608E+02 -0.19708982878E+02 -0.10156921391E+03  0.11860406714E+03  0.00000000000E+00 0. -1.
         21    1    1    2  504  505  0.71902708346E+02  0.64715053951E+01 -0.79223152105E+02  0.10718296357E+03  0.00000000000E+00 0. -1.
         21    1    1    2  505  506 -0.65802106607E+02  0.37842246902E+02  0.18467691396E+02  0.78121754397E+02  0.00000000000E+00 0.  1.
         21    1    1    2  506  501 -0.64084871346E+02 -0.24604769420E+02  0.35595727542E+03  0.36251599597E+03  0.00000000000E+00 0. -1.
<scales pt_clust_3="32.53812" pt_clust_4="32.53812" pt_clust_5="111.52699" pt_clust_6="68.64594"></scales>
<clustering>
<clus scale="   32.538">  3  4 -1 -1</clus>
<clus scale="   68.646">  1  6  2 -1</clus>
<clus scale="  111.527">  1  5  2 -1</clus>
<clus scale="   68.646">  1  3  2 -1</clus>
</clustering>
</event>
<event>
 6    0  0.6207838E+002  0.2043390E+03  0.7546771E-02  0.1146129E+00
         21   -1    0    0  505  501  0.00000000000E+00  0.00000000000E+00  0.17711196226E+03  0.17711196226E+03  0.00000000000E+00 0.  1.
         21   -1    0    0  504  502 -0.00000000000E+00 -0.00000000000E+00 -0.37132922997E+03  0.37132922997E+03  0.00000000000E+00 0.  1.
         21    1    1    2  503  502  0.46983808687E+02 -0.77701355360E+02 -0.14768916522E+03  0.17336974484E+03  0.00000000000E+00 0. -1.
         21    1    1    2  504  501 -0.10483519043E+03  0.17674802190E+03 -0.80211726937E+02  0.22059964083E+03  0.00000000000E+00 0.  1.
         21    1    1    2  505  506  0.19122691120E+02 -0.26206897712E+02  0.59721728730E+02  0.67964429563E+02  0.00000000000E+00 0. -1.
         21    1    1    2  506  503  0.38728690626E+02 -0.72839768824E+02 -0.26038104283E+02  0.86507376996E+02  0.00000000000E+00 0.  1.
<scales pt_clust_3="84.15536" pt_clust_4="185.49595" pt_clust_5="32.44193" pt_clust_6="84.15536"></scales>
<clustering>
<clus scale="   32.442">  1  5  2 -1</clus>
<clus scale="   84.155">  3  6 -1 -1</clus>
<clus scale="  185.496">  1  4  2 -1</clus>
<clus scale="   32.442">  1  3  2 -1</clus>
</clustering>
</event>
<event>
 6    0  0.6207838E+002  0.9757219E+02  0.7546771E-02  0.1285486E+00
         21   -1    0    0  503  501  0.00000000000E+00  0.00000000000E+00  0.14891999926E+04  0.14891999926E+04  0.00000000000E+00 0. -1.
         21   -1    0    0  505  502 -0.00000000000E+00 -0.00000000000E+00 -0.24723989885E+03  0.24723989885E+03  0.00000000000E+00 0. -1.
         21    1    1    2  503  504  0.11908394963E+03 -0.44599395021E+02  0.53437869445E+03  0.54930017493E+03  0.00000000000E+00 0. -1.
         21    1    1    2  504  502 -0.55994154701E+02  0.80381467342E+01 -0.22613200658E+03  0.23310006770E+03  0.00000000000E+00 0. -1.
         21    1    1    2  505  506 -0.63539702043E+02  0.43910692068E+01  0.93046878949E+02  0.11275769112E+03  0.00000000000E+00 0.  1.
         21    1    1    2  506  501  0.44990711652E+00  0.32170179079E+02  0.84066652693E+03  0.84128195770E+03  0.00000000000E+00 0. -1.
<scales pt_clust_3="97.57219" pt_clust_4="56.59060" pt_clust_5="14000.00000" pt_clust_6="32.17332"></scales>
<clustering>
<clus scale="   32.173">  1  6  2 -1</clus>
<clus scale="   56.591">  2  4  1 -1</clus>
<clus scale="   97.572">  1  3  2 -1</clus>
<clus scale="   32.173">  1  3  2 -1</clus>
</clustering>
</event>
<event>
 6    0  0.6207838E+002  0.1222105E+03  0.7546771E-02  0.1239494E+00
         21   -1    0    0  504  501  0.00000000000E+00  0.00000000000E+00  0.60115121914E+03  0.60115121914E+03  0.00000000000E+00 0. -1.
         21   -1    0    0  505  502 -0.00000000000E+00 -0.00000000000E+00 -0.29736314975E+03  0.29736314975E+03  0.00000000000E+00 0. -1.
         21    1    1    2  503  501  0.42335105920E+01 -0.35726247292E+02  0.47769586811E+03  0.47904867161E+03  0.00000000000E+00 0. -1.
         21    1    1    2  504  502 -0.66651466973E+02 -0.90746991530E+02 -0.12743271499E+02  0.11331295376E+03  0.00000000000E+00 0. -1.
         21    1    1    2  505  506  0.11356345824E+03  0.62127357678E+02 -0.18010931538E+03  0.22180133703E+03  0.00000000000E+00 0. -1.
         21    1    1    2  506  503 -0.51145501863E+02  0.64345881144E+02  0.18944788157E+02  0.84351406505E+02  0.00000000000E+00 0. -1.
<scales pt_clust_3="35.97621" pt_clust_4="14000.00000" pt_clust_5="122.21048" pt_clust_6="69.77868"></scales>
<clustering>
<clus scale="   35.976">  1  3  2 -1</clus>
<clus scale="   69.779">  1  6  2 -1</clus>
<clus scale="  122.210">  2  5  1 -1</clus>
<clus scale="   35.976">  1  3  2 -1</clus>
</clustering>
</event>
<event>
 6    0  0.6207838E+002  0.1677767E+03  0.7546771E-02  0.1180186E+00
         21   -1    0    0  503  501  0.00000000000E+00  0.00000000000E+00  0.31383011971E+03  0.31383011971E+03  0.00000000000E+00 0.  1.
         21   -1    0    0  506  502 -0.00000000000E+00 -0.00000000000E+00 -0.44147546319E+03  0.44147546319E+03  0.00000000000E+00 0.  1.
         21    1    1    2  503  505 -0.11077689377E+03 -0.13502644430E+03 -0.10953236734E+01  0.17465640723E+03  0.00000000000E+00 0.  1.
         21    1    1    2  504  501  0.12667272284E+03 -0.23318021242E+02  0.31276229414E+02  0.13254399780E+03  0.00000000000E+00 0.  1.
         21    1    1    2  505  502  0.16186158471E+03  0.13855183211E+02 -0.14649560028E+03  0.21875122768E+03  0.00000000000E+00 0.  1.
         21    1    1    2  506  504 -0.17775741378E+03  0.14448928233E+03 -0.11330648931E+02  0.22935395019E+03  0.00000000000E+00 0.  1.
<scales pt_clust_3="157.10290" pt_clust_4="128.80104" pt_clust_5="167.77668" pt_clust_6="14000.00000"></scales>
<clustering>
<clus scale="  128.801">  1  4  2 -1</clus>
<clus scale="  157.103">  1  3  2 -1</clus>
<clus scale="  167.777">  2  5  1 -1</clus>
<clus scale="  128.801">  1  3  2 -1</clus>
</clustering>
</event>
<event>
 6    0  0.6207838E+002  0.1195101E+03  0.7546771E-02  0.1243907E+00
         21   -1    0    0  506  501  0.00000000000E+00  0.00000000000E+00  0.65564590623E+02  0.65564590623E+02  0.00000000000E+00 0.  1.
         21   -1    0    0  505  502 -0.00000000000E+00 -0.00000000000E+00 -0.74389950681E+03  0.74389950681E+03  0.00000000000E+00 0. -1.
         21    1    1    2  503  502  0.25562822581E+02 -0.33246375607E+02 -0.20824070421E+03  0.21242168034E+03  0.00000000000E+00 0. -1.
         21    1    1    2  504  501 -0.11613195966E+03  0.87095292235E+01 -0.66503546762E+02  0.13410894708E+03  0.00000000000E+00 0.  1.
         21    1    1    2  505  504 -0.28243784621E+02  0.87016217186E+02 -0.18566601305E+03  0.20698164611E+03  0.00000000000E+00 0.  1.
         21    1    1    2  506  503  0.11881292171E+03 -0.62479370802E+02 -0.21792465217E+03  0.25595182391E+03  0.00000000000E+00 0. -1.
<scales pt_clust_3="41.93780" pt_clust_4="14000.00000" pt_clust_5="77.11956" pt_clust_6="119.51014"></scales>
<clustering>
<clus scale="   41.938">  2  3  1 -1</clus>
<clus scale="   77.120">  2  5  1 -1</clus>
<clus scale="  119.510">  2  6  1 -1</clus>
<clus scale="  119.510">  1  3  2 -1</clus>
</clustering>
</event>
<event>
 6    0  0.6207838E+002  0.1066519E+03  0.7546771E-02  0.1266899E+00
         21   -1    0    0  505  501  0.00000000000E+00  0.00000000000E+00  0.18414927423E+03  0.18414927423E+03  0.00000000000E+00 0. -1.
         21   -1    0    0  503  502 -0.00000000000E+00 -0.00000000000E+00 -0.85314625181E+03  0.85314625181E+03  0.00000000000E+00 0. -1.
         21    1    1    2  503  506 -0.67718159816E+02  0.73128927419E+01 -0.41271643001E+03  0.41829903080E+03  0.00000000000E+00 0. -1.
         21    1    1    2  504  502  0.43169086494E+02  0.31455623333E+02 -0.64146826786E+02  0.83473598549E+02  0.00000000000E+00 0. -1.
         21    1    1    2  505  504 -0.39499157848E+02  0.96717521156E+02  0.13793071695E+03  0.17302989640E+03  0.00000000000E+00 0. -1.
         21    1    1    2  506  501  0.64048231170E+02 -0.13548603723E+03 -0.33006443774E+03  0.36249300029E+03  0.00000000000E+00 0. -1.
<scales pt_clust_3="50.77714" pt_clust_4="53.41373" pt_clust_5="106.65195" pt_clust_6="14000.00000"></scales>
<clustering>
<clus scale="   53.414">  2  4  1 -1</clus>
<clus scale="   50.777">  2  3  1 -1</clus>
<clus scale="  106.652">  1  5  2 -1</clus>
<clus scale="  106.652">  1  3  2 -1</clus>
</clustering>
</event>
<event>
 6    0  0.6207838E+002  0.8498682E+02  0.7546771E-02  0.1315467E+00
         21   -1    0    0  504  501  0.00000000000E+00  0.00000000000E+00  0.11067548624E+04  0.11067548624E+04  0.00000000000E+00 0. -1.
         21   -1    0    0  506  502 -0.00000000000E+00 -0.00000000000E+00 -0.61380361053E+02  0.61380361053E+02  0.00000000000E+00 0. -1.
         21    1    1    2  503  502 -0.85308654228E+00 -0.63807178533E+02 -0.23373873704E+02  0.67958971159E+02  0.00000000000E+00 0. -1.
         21    1    1    2  504  503  0.34583645278E+02 -0.31944586193E+02  0.10596119843E+03  0.11594938845E+03  0.00000000000E+00 0. -1.
         21    1    1    2  505  501  0.13597093295E+02  0.10598311451E+03  0.89251120309E+03  0.89888461392E+03  0.00000000000E+00 0. -1.
         21    1    1    2  506  505 -0.47327652030E+02 -0.10231349786E+02  0.70275973482E+02  0.85342249876E+02  0.00000000000E+00 0. -1.
<scales pt_clust_3="84.98682" pt_clust_4="47.07956" pt_clust_5="14000.00000" pt_clust_6="46.40486"></scales>
<clustering>
<clus scale="   47.080">  1  4  2 -1</clus>
<clus scale="   46.405">  2  6  1 -1</clus>
<clus scale="   84.987">  2  3  1 -1</clus>
<clus scale="   47.080">  1  3  2 -1</clus>
</clustering>
</event>
<event>
 6    0  0.6207838E+002  0.2797927E+03  0.7546771E-02  0.1095802E+00
         21   -1    0    0  504  501  0.00000000000E+00  0.00000000000E+00  0.22764403331E+03  0.22764403331E+03  0.00000000000E+00 0. -1.
         21   -1    0    0  506  502 -0.00000000000E+00 -0.00000000000E+00 -0.82229753204E+03  0.82229753204E+03  0.00000000000E+00 0.  1.
         21    1    1    2  503  502  0.48304176863E+01 -0.79214542475E+02 -0.33740519715E+03  0.34661295957E+03  0.00000000000E+00 0.  1.
         21    1    1    2  504  503  0.25521586087E+03  0.13443446186E+02 -0.32237574408E+03  0.41139030404E+03  0.00000000000E+00 0.  1.
         21    1    1    2  505  501 -0.19391396831E+03  0.70518688925E+02  0.84337784114E+02  0.22290889265E+03  0.00000000000E+00 0. -1.
         21    1    1    2  506  505 -0.66132310248E+02 -0.47475926360E+01 -0.19210341615E+02  0.69029409092E+02  0.00000000000E+00 0.  1.
<scales pt_clust_3="79.36168" pt_clust_4="263.14915" pt_clust_5="53.88585" pt_clust_6="53.88585"></scales>
<clustering>
<clus scale="   53.886">  5  6 -1 -1</clus>
<clus scale="   79.362">  2  3  1 -1</clus>
<clus scale="  263.149">  2  4  1 -1</clus>
<clus scale="  279.793">  1  3  2 -1</clus>
</clustering>
</event>
<event>
 6    0  0.6207838E+002  0.8709987E+02  0.7546771E-02  0.1310031E+00
         21   -1    0    0  503  501  0.00000000000E+00  0.00000000000E+00  0.80458094263E+02  0.80458094263E+02  0.00000000000E+00 0. -1.
         21   -1    0    0  505  502 -0.00000000000E+00 -0.00000000000E+00 -0.35526437296E+03  0.35526437296E+03  0.00000000000E+00 0. -1.
         21    1    1    2  503  502 -0.39025122806E+02  0.61013653525E+02 -0.12647023179E+02  0.73522604155E+02  0.00000000000E+00 0. -1.
         21    1    1    2  504  501 -0.32536366969E+02 -0.89458456556E+01  0.63853422993E+01  0.34342625501E+02  0.00000000000E+00 0. -1.
         21    1    1    2  505  506  0.75552569672E+01 -0.93762094895E+02 -0.21468972840E+03  0.23439302854E+03  0.00000000000E+00 0. -1.
         21    1    1    2  506  504  0.64006232808E+02  0.41694287026E+02 -0.53854869410E+02  0.93464209021E+02  0.00000000000E+00 0. -1.
<scales pt_clust_3="87.09987" pt_clust_4="33.74379" pt_clust_5="14000.00000" pt_clust_6="65.88166"></scales>
<clustering>
<clus scale="   33.744">  1  4  2 -1</clus>
<clus scale="   65.882">  1  6  2 -1</clus>
<clus scale="   87.100">  1  3  2 -1</clus>
<clus scale="   33.744">  1  3  2 -1</clus>
</clustering>
</event>
<event>
 6    0  0.6207838E+002  0.1155035E+03  0.7546771E-02  0.1250705E+00
         21   -1    0    0  503  501  0.00000000000E+00  0.00000000000E+00  0.24253614147E+03  0.24253614147E+03  0.00000000000E+00 0.  1.
         21   -1    0    0  505  502 -0.00000000000E+00 -0.00000000000E+00 -0.64711096655E+03  0.64711096655E+03  0.00000000000E+00 0.  1.
         21    1    1    2  503  504 -0.47574998388E+02 -0.85421130647E+02  0.13093919719E+03  0.16341732893E+03  0.00000000000E+00 0.  1.
         21    1    1    2  504  502 -0.64777498430E+02 -0.44933500315E+02 -0.54430802926E+03  0.54998761302E+03  0.00000000000E+00 0.  1.
         21    1    1    2  505  506  0.40258906344E+02  0.74991573818E+02  0.51587880367E+01  0.85270914019E+02  0.00000000000E+00 0.  1.
         21    1    1    2  506  501  0.72093590473E+02  0.55363057144E+02  0.36352189421E+01  0.90971252055E+02  0.00000000000E+00 0.  1.
<scales pt_clust_3="109.41894" pt_clust_4="78.83618" pt_clust_5="35.79766" pt_clust_6="35.79766"></scales>
<clustering>
<clus scale="   35.798">  5  6 -1 -1</clus>
<clus scale="   78.836">  2  4  1 -1</clus>
<clus scale="  109.419">  1  3  2 -1</clus>
<clus scale="  109.419">  1  3  2 -1</clus>
</clustering>
</event>
<event>
 6    0  0.6207838E+002  0.1116216E+03  0.7546771E-02  0.1257596E+00
         21   -1    0    0  506  501  0.00000000000E+00  0.00000000000E+00  0.21746129321E+03  0.21746129321E+03  0.00000000000E+00 0. -1.
         21   -1    0    0  505  502 -0.00000000000E+00 -0.00000000000E+00 -0.45000989989E+03  0.45000989989E+03  0.00000000000E+00 0. -1.
         21    1    1    2  503  501 -0.11010619032E+03  0.20983268155E+02  0.17122530394E+03  0.20465037357E+03  0.00000000000E+00 0. -1.
         21    1    1    2  504  502 -0.14708587571E+02 -0.60560909162E+02 -0.10632791807E+03  0.12324606456E+03  0.00000000000E+00 0. -1.
         21    1    1    2  505  503  0.17707662386E+02  0.29003587696E+02 -0.14677747756E+02  0.37016289463E+02  0.00000000000E+00 0. -1.
         21    1    1    2  506  504  0.10710711551E+03  0.10574053310E+02 -0.28276824479E+03  0.30255846552E+03  0.00000000000E+00 0. -1.
<scales pt_clust_3="111.62161" pt_clust_4="53.63663" pt_clust_5="33.98190" pt_clust_6="14000.00000"></scales>
<clustering>
<clus scale="   33.982">  2  5  1 -1</clus>
<clus scale="   53.637">  2  4  1 -1</clus>
<clus scale="  111.622">  1  3  2 -1</clus>
<clus scale="  111.622">  1  3  2 -1</clus>
</clustering>
</event>
<event>
 6    0  0.6207838E+002  0.1327071E+03  0.7546771E-02  0.1223493E+00
         21   -1    0    0  503  501  0.00000000000E+00  0.00000000000E+00  0.12680688910E+04  0.12680688910E+04  0.00000000000E+00 0. -1.
         21   -1    0    0  506  502 -0.00000000000E+00 -0.00000000000E+00 -0.35263731131E+02  0.35263731131E+02  0.00000000000E+00 0. -1.
         21    1    1    2  503  505 -0.12270770289E+03  0.70814348755E+02  0.42741942116E+03  0.45028792335E+03  0.00000000000E+00 0. -1.
         21    1    1    2  504  501  0.25230366525E+02  0.33071437544E+02  0.21157098015E+03  0.21562136030E+03  0.00000000000E+00 0. -1.
         21    1    1    2  505  502  0.10631351700E+01 -0.12888265539E+03  0.28132437598E+03  0.30944349022E+03  0.00000000000E+00 0. -1.
         21    1    1    2  506  504  0.96414201197E+02  0.24996869091E+02  0.31249038257E+03  0.32797984825E+03  0.00000000000E+00 0. -1.
<scales pt_clust_3="122.14149" pt_clust_4="33.53394" pt_clust_5="128.88704" pt_clust_6="33.53394"></scales>
<clustering>
<clus scale="   33.534">  4  6 -1 -1</clus>
<clus scale="  128.887">  2  5  1 -1</clus>
<clus scale="  122.141">  2  3  1 -1</clus>
<clus scale="  132.707">  1  3  2 -1</clus>
</clustering>
</event>
<event>
 6    0  0.6207838E+002  0.6970497E+02  0.7546771E-02  0.1361099E+00
         21   -1    0    0  503  501  0.00000000000E+00  0.00000000000E+00  0.57507782813E+03  0.57507782813E+03  0.00000000000E+00 0.  1.
         21   -1    0    0  504  502 -0.00000000000E+00 -0.00000000000E+00 -0.11667220750E+03  0.11667220750E+03  0.00000000000E+00 0.  1.
         21    1    1    2  503  505  0.39076392089E+02 -0.48619844143E+02  0.47692689058E+03  0.48098868243E+03  0.00000000000E+00 0.  1.
         21    1    1    2  504  501  0.74023918876E+02  0.32539448119E+02 -0.42253819262E+01  0.80970427330E+02  0.00000000000E+00 0.  1.
         21    1    1    2  505  506 -0.80651432228E+02  0.24670598422E+02  0.14484635471E+02  0.85575093407E+02  0.00000000000E+00 0.  1.
         21    1    1    2  506  502 -0.32448878736E+02 -0.85902023976E+01 -0.28780523493E+02  0.44215832470E+02  0.00000000000E+00 0. -1.
<scales pt_clust_3="62.03626" pt_clust_4="14000.00000" pt_clust_5="69.70497" pt_clust_6="33.56667"></scales>
<clustering>
<clus scale="   33.567">  2  6  1 -1</clus>
<clus scale="   62.036">  1  3  2 -1</clus>
<clus scale="   69.705">  1  5  2 -1</clus>
<clus scale="   62.036">  1  3  2 -1</clus>
</clustering>
</event>
<event>
 6    0  0.6207838E+002  0.8827590E+02  0.7546771E-02  0.1307081E+00
         21   -1    0    0  505  501  0.00000000000E+00  0.00000000000E+00  0.81968134486E+03  0.81968134486E+03  0.00000000000E+00 0. -1.
         21   -1    0    0  503  502 -0.00000000000E+00 -0.00000000000E+00 -0.74994894514E+03  0.74994894514E+03  0.00000000000E+00 0. -1.
         21    1    1    2  503  506  0.17268637654E+02 -0.36791685003E+02 -0.68937532710E+03  0.69057235360E+03  0.00000000000E+00 0. -1.
         21    1    1    2  504  502  0.50831990457E+02  0.17640887381E+02 -0.33853732396E+02  0.63570176644E+02  0.00000000000E+00 0. -1.
         21    1    1    2  505  504 -0.42771332431E+02 -0.77990765487E+02  0.33091606116E+03  0.34266220380E+03  0.00000000000E+00 0. -1.
         21    1    1    2  506  501 -0.25329295680E+02  0.97141563108E+02  0.46204539806E+03  0.47282555596E+03  0.00000000000E+00 0. -1.
<scales pt_clust_3="40.64276" pt_clust_4="66.00276" pt_clust_5="14000.00000" pt_clust_6="88.27590"></scales>
<clustering>
<clus scale="   40.643">  2  3  1 -1</clus>
<clus scale="   66.003">  2  4  1 -1</clus>
<clus scale="   88.276">  1  6  2 -1</clus>
<clus scale="   88.276">  1  3  2 -1</clus>
</clustering>
</event>
<event>
 6    0  0.6207838E+002  0.1106395E+03  0.7546771E-02  0.1259390E+00
         21   -1    0    0  505  501  0.00000000000E+00  0.00000000000E+00  0.89866546795E+02  0.89866546795E+02  0.00000000000E+00 0.  1.
         21   -1    0    0  503  502 -0.00000000000E+00 -0.00000000000E+00 -0.66797428472E+03  0.66797428472E+03  0.00000000000E+00 0. -1.
         21    1    1    2  503  506 -0.51300443276E+02  0.82702585967E+02 -0.46107822486E+03  0.47123728911E+03  0.00000000000E+00 0. -1.
         21    1    1    2  504  501  0.26165639436E+02 -0.79365936055E+02 -0.21207658546E+02  0.86216919882E+02  0.00000000000E+00 0.  1.
         21    1    1    2  505  502  0.16873569892E+02  0.84288909874E+02 -0.32237575601E+02  0.91807401495E+02  0.00000000000E+00 0. -1.
         21    1    1    2  506  504  0.82612339478E+01 -0.87625559786E+02 -0.63584278923E+02  0.10857922103E+03  0.00000000000E+00 0.  1.
<scales pt_clust_3="102.74531" pt_clust_4="39.99248" pt_clust_5="85.96126" pt_clust_6="39.99248"></scales>
<clustering>
<clus scale="   39.992">  4  6 -1 -1</clus>
<clus scale="   85.961">  1  5  2 -1</clus>
<clus scale="  102.745">  2  3  1 -1</clus>
<clus scale="   85.961">  1  3  2 -1</clus>
</clustering>
</event>
<event>
 6    0  0.6207838E+002  0.1052959E+03  0.7546771E-02  0.1269538E+00
         21   -1    0    0  506  501  0.00000000000E+00  0.00000000000E+00  0.13769131277E+03  0.13769131277E+03  0.00000000000E+00 0. -1.
         21   -1    0    0  505  502 -0.00000000000E+00 -0.00000000000E+00 -0.63971195156E+03  0.63971195156E+03  0.00000000000E+00 0. -1.
         21    1    1    2  503  501  0.10837979816E+02  0.30837105079E+02  0.34746813519E+01  0.32870385861E+02  0.00000000000E+00 0. -1.
         21    1    1    2  504  502  0.11946947693E+02 -0.85427530500E+02 -0.64374980216E+02  0.10763238641E+03  0.00000000000E+00 0. -1.
         21    1    1    2  505  503 -0.60094064430E+02  0.94843928202E+02 -0.52488321722E+03  0.53675791472E+03  0.00000000000E+00 0. -1.
         21    1    1    2  506  504  0.37309136921E+02 -0.40253502781E+02  0.83762877296E+02  0.10014257734E+03  0.00000000000E+00 0. -1.
<scales pt_clust_3="32.68622" pt_clust_4="105.29590" pt_clust_5="14000.00000" pt_clust_6="48.54777"></scales>
<clustering>
<clus scale="   32.686">  1  3  2 -1</clus>
<clus scale="   48.548">  1  6  2 -1</clus>
<clus scale="  105.296">  1  4  2 -1</clus>
<clus scale="   32.686">  1  3  2 -1</clus>
</clustering>
</event>
<event>
 6    0  0.6207838E+002  0.1156311E+03  0.7546771E-02  0.1250484E+00
         21   -1    0    0  505  501  0.00000000000E+00  0.00000000000E+00  0.19578024030E+03  0.19578024030E+03  0.00000000000E+00 0.  1.
         21   -1    0    0  504  502 -0.00000000000E+00 -0.00000000000E+00 -0.29437069879E+03  0.29437069879E+03  0.00000000000E+00 0. -1.
         21    1    1    2  503  506  0.25938962073E+02  0.52851918550E+02 -0.79740469774E+02  0.99119612427E+02  0.00000000000E+00 0. -1.
         21    1    1    2  504  503 -0.54680014089E+02  0.29956176653E+02 -0.11894544214E+03  0.13429554969E+03  0.00000000000E+00 0. -1.
         21    1    1    2  505  502 -0.25342865158E+02 -0.10376340658E+03  0.14730094839E+03  0.18195239695E+03  0.00000000000E+00 0.  1.
         21    1    1    2  506  501  0.54083917174E+02  0.20955311376E+02 -0.47205494979E+02  0.74783380025E+02  0.00000000000E+00 0. -1.
<scales pt_clust_3="47.35063" pt_clust_4="62.34803" pt_clust_5="105.33158" pt_clust_6="47.35063"></scales>
<clustering>
<clus scale="   47.351">  3  6 -1 -1</clus>
<clus scale="   62.348">  2  4  1 -1</clus>
<clus scale="  105.332">  1  5  2 -1</clus>
<clus scale="  105.332">  1  3  2 -1</clus>
</clustering>
</event>
<event>
 6    0  0.6207838E+002  0.1003562E+03  0.7546771E-02  0.1279549E+00
         21   -1    0    0  505  501  0.00000000000E+00  0.00000000000E+00  0.70779909392E+02  0.70779909392E+02  0.00000000000E+00 0. -1.
         21   -1    0    0  503  502 -0.00000000000E+00 -0.00000000000E+00 -0.78750234023E+03  0.78750234023E+03  0.00000000000E+00 0. -1.
         21    1    1    2  503  501  0.10548111837E+03 -0.24483277179E+01  0.14825732750E+02  0.10654606043E+03  0.00000000000E+00 0. -1.
         21    1    1    2  504  506 -0.55873005523E+02 -0.47682375382E+02 -0.26499382147E+03  0.27498568524E+03  0.00000000000E+00 0. -1.
         21    1    1    2  505  504 -0.60919117273E+02  0.19235157810E+02 -0.34252905743E+03  0.34843548231E+03  0.00000000000E+00 0. -1.
         21    1    1    2  506  502  0.11311004429E+02  0.30895545290E+02 -0.12402528469E+03  0.12831502165E+03  0.00000000000E+00 0. -1.
<scales pt_clust_3="100.35623" pt_clust_4="62.10438" pt_clust_5="14000.00000" pt_clust_6="32.90097"></scales>
<clustering>
<clus scale="   32.901">  2  6  1 -1</clus>
<clus scale="   62.104">  2  4  1 -1</clus>
<clus scale="  100.356">  1  3  2 -1</clus>
<clus scale="  100.356">  1  3  2 -1</clus>
</clustering>
</event>
<event>
 6    0  0.6207838E+002  0.9136994E+02  0.7546771E-02  0.1299568E+00
         21   -1    0    0  505  501  0.00000000000E+00  0.00000000000E+00  0.59200267867E+03  0.59200267867E+03  0.00000000000E+00 0.  1.
         21   -1    0    0  503  502 -0.00000000000E+00 -0.00000000000E+00 -0.32290851062E+03  0.32290851062E+03  0.00000000000E+00 0.  1.
         21    1    1    2  503  504 -0.28781530066E+02 -0.13683945776E+02 -0.15591415677E+02  0.35478431303E+02  0.00000000000E+00 0. -1.
         21    1    1    2  504  501 -0.77181960767E+02  0.49920848099E+02  0.56208731126E+03  0.56955358977E+03  0.00000000000E+00 0.  1.
         21    1    1    2  505  506  0.85703615084E+02  0.10384694441E+02 -0.15664389435E+03  0.17885821523E+03  0.00000000000E+00 0.  1.
         21    1    1    2  506  502  0.20259875748E+02 -0.46621596764E+02 -0.12075783318E+03  0.13102095299E+03  0.00000000000E+00 0. -1.
<scales pt_clust_3="31.86890" pt_clust_4="91.36994" pt_clust_5="14000.00000" pt_clust_6="53.03298"></scales>
<clustering>
<clus scale="   31.869">  2  3  1 -1</clus>
<clus scale="   53.033">  2  6  1 -1</clus>
<clus scale="   91.370">  1  4  2 -1</clus>
<clus scale="   91.370">  1  3  2 -1</clus>
</clustering>
</event>
<event>
 6    0  0.6207838E+002  0.1572509E+03  0.7546771E-02  0.1191836E+00
         21   -1    0    0  506  501  0.00000000000E+00  0.00000000000E+00  0.11772883875E+04  0.11772883875E+04  0.00000000000E+00 0.  1.
         21   -1    0    0  503  502 -0.00000000000E+00 -0.00000000000E+00 -0.57052199377E+02  0.57052199377E+02  0.00000000000E+00 0. -1.
         21    1    1    2  503  501 -0.45286193868E+02  0.40973230671E+01 -0.97533346440E+01  0.46505429232E+02  0.00000000000E+00 0. -1.
         21    1    1    2  504  502 -0.13742160748E+02  0.13149911548E+03  0.17536979078E+03  0.21962565395E+03  0.00000000000E+00 0. -1.
         21    1    1    2  505  504 -0.25511260694E+01 -0.46971936904E+02  0.17730692137E+03  0.18344104084E+03  0.00000000000E+00 0. -1.
         21    1    1    2  506  505  0.61579480686E+02 -0.88624501647E+02  0.77731281061E+03  0.78476846284E+03  0.00000000000E+00 0.  1.
<scales pt_clust_3="45.47117" pt_clust_4="143.06567" pt_clust_5="43.09234" pt_clust_6="43.09234"></scales>
<clustering>
<clus scale="   43.092">  5  6 -1 -1</clus>
<clus scale="   45.471">  2  3  1 -1</clus>
<clus scale="  143.066">  2  4  1 -1</clus>
<clus scale="  157.251">  1  3  2 -1</clus>
</clustering>
</event>
<event>
 6    0  0.6207838E+002  0.1227764E+03  0.7546771E-02  0.1238586E+00
         21   -1    0    0  503  501  0.00000000000E+00  0.00000000000E+00  0.14599519469E+03  0.14599519469E+03  0.00000000000E+00 0.  1.
         21   -1    0    0  504  502 -0.00000000000E+00 -0.00000000000E+00 -0.22342254655E+03  0.22342254655E+03  0.00000000000E+00 0.  1.
         21    1    1    2  503  502  0.99051981810E+02 -0.16479229861E+02  0.34873359151E+02  0.10629680755E+03  0.00000000000E+00 0.  1.
         21    1    1    2  504  506  0.35996194480E+02 -0.57773114937E+02 -0.65890072043E+02  0.94736267714E+02  0.00000000000E+00 0.  1.
         21    1    1    2  505  501 -0.29253029584E+02  0.42139299993E+02 -0.14223880152E+02  0.53233251923E+02  0.00000000000E+00 0.  1.
         21    1    1    2  506  505 -0.10579514671E+03  0.32113044805E+02 -0.32186758818E+02  0.11515141404E+03  0.00000000000E+00 0.  1.
<scales pt_clust_3="112.36558" pt_clust_4="68.06951" pt_clust_5="33.70197" pt_clust_6="33.70197"></scales>
<clustering>
<clus scale="   33.702">  5  6 -1 -1</clus>
<clus scale="   68.070">  2  4  1 -1</clus>
<clus scale="  112.366">  1  3  2 -1</clus>
<clus scale="  112.366">  1  3  2 -1</clus>
</clustering>
</event>
<event>
 6    0  0.6207838E+002  0.6942275E+02  0.7546771E-02  0.1362067E+00
         21   -1    0    0  506  501  0.00000000000E+00  0.00000000000E+00  0.34041966802E+03  0.34041966802E+03  0.00000000000E+00 0.  1.
         21   -1    0    0  505  502 -0.00000000000E+00 -0.00000000000E+00 -0.17807400290E+03  0.17807400290E+03  0.00000000000E+00 0.  1.
         21    1    1    2  503  504 -0.43619726751E+02 -0.11903342157E+03 -0.12039810088E+01  0.12677967338E+03  0.00000000000E+00 0.  1.
         21    1    1    2  504  501  0.38781058369E+02  0.53298703830E+02  0.25234932994E+03  0.26081584813E+03  0.00000000000E+00 0.  1.
         21    1    1    2  505  503  0.21159505679E+02  0.35236075133E+02 -0.87047224405E+02  0.96262791088E+02  0.00000000000E+00 0.  1.
         21    1    1    2  506  502 -0.16320837297E+02  0.30498642610E+02 -0.17524594037E+01  0.34635358307E+02  0.00000000000E+00 0.  1.
<scales pt_clust_3="69.42275" pt_clust_4="14000.00000" pt_clust_5="54.02526" pt_clust_6="34.59099"></scales>
<clustering>
<clus scale="   34.591">  2  6  1 -1</clus>
<clus scale="   54.025">  2  5  1 -1</clus>
<clus scale="   69.423">  2  3  1 -1</clus>
<clus scale="   69.423">  1  3  2 -1</clus>
</clustering>
</event>
<event>
 6    0  0.6207838E+002  0.1438253E+03  0.7546771E-02  0.1208272E+00
         21   -1    0    0  506  501  0.00000000000E+00  0.00000000000E+00  0.44701230933E+02  0.44701230933E+02  0.00000000000E+00 0.  1.
         21   -1    0    0  503  502 -0.00000000000E+00 -0.00000000000E+00 -0.18108387048E+04  0.18108387048E+04  0.00000000000E+00 0.  1.
         21    1    1    2  503  504  0.19310503710E+03  0.13380306665E+02 -0.56986886588E+03  0.60184641916E+03  0.00000000000E+00 0.  1.
         21    1    1    2  504  501 -0.33793332564E+02  0.12542795626E+02  0.69439290998E+01  0.36708707404E+02  0.00000000000E+00 0.  1.
         21    1    1    2  505  502 -0.13149369463E+03 -0.86676496778E+01 -0.11173438970E+04  0.11250880428E+04  0.00000000000E+00 0.  1.
         21    1    1    2  506  505 -0.27818009899E+02 -0.17255452613E+02 -0.85868640126E+02  0.91896766411E+02  0.00000000000E+00 0.  1.
<scales pt_clust_3="14000.00000" pt_clust_4="48.48521" pt_clust_5="143.82529" pt_clust_6="32.73518"></scales>
<clustering>
<clus scale="   32.735">  1  6  2 -1</clus>
<clus scale="   48.485">  1  4  2 -1</clus>
<clus scale="  143.825">  2  5  1 -1</clus>
<clus scale="   32.735">  1  3  2 -1</clus>
</clustering>
</event>
<event>
 6    0  0.6207838E+002  0.8248727E+02  0.7546771E-02  0.1322138E+00
         21   -1    0    0  505  501  0.00000000000E+00  0.00000000000E+00  0.12750803656E+03  0.12750803656E+03  0.00000000000E+00 0.  1.
         21   -1    0    0  506  502 -0.00000000000E+00 -0.00000000000E+00 -0.14234598813E+04  0.14234598813E+04  0.00000000000E+00 0.  1.
         21    1    1    2  503  502 -0.22021188224E+02 -0.79723587772E+02 -0.10120290001E+04  0.10154031122E+04  0.00000000000E+00 0.  1.
         21    1    1    2  504  503  0.17520514244E+02 -0.46191993062E+02 -0.19403036925E+03  0.20022100997E+03  0.00000000000E+00 0.  1.
         21    1    1    2  505  504  0.27336686099E+02  0.37284844745E+02  0.10790768643E+03  0.11739473091E+03  0.00000000000E+00 0.  1.
         21    1    1    2  506  501 -0.22836012119E+02  0.88630736089E+02 -0.19780016174E+03  0.21794906472E+03  0.00000000000E+00 0.  1.
<scales pt_clust_3="82.48727" pt_clust_4="44.89297" pt_clust_5="46.23261" pt_clust_6="14000.00000"></scales>
<clustering>
<clus scale="   46.233">  1  5  2 -1</clus>
<clus scale="   44.893">  1  4  2 -1</clus>
<clus scale="   82.487">  2  3  1 -1</clus>
<clus scale="   46.233">  1  3  2 -1</clus>
</clustering>
</event>
<event>
 6    0  0.6207838E+002  0.1160037E+03  0.7546771E-02  0.1249839E+00
         21   -1    0    0  505  501  0.00000000000E+00  0.00000000000E+00  0.24258699861E+04  0.24258699861E+04  0.00000000000E+00 0.  1.
         21   -1    0    0  504  502 -0.00000000000E+00 -0.00000000000E+00 -0.29881961388E+02  0.29881961388E+02  0.00000000000E+00 0.  1.
         21    1    1    2  503  506 -0.14965145688E+02 -0.58988967556E+02  0.13486709272E+03  0.14796211196E+03  0.00000000000E+00 0.  1.
         21    1    1    2  504  503  0.43817972457E+02 -0.70596639839E+01  0.14422552507E+03  0.15090015125E+03  0.00000000000E+00 0.  1.
         21    1    1    2  505  502  0.63353137290E+02 -0.13477554089E+02  0.39366739443E+02  0.75795808875E+02  0.00000000000E+00 0.  1.
         21    1    1    2  506  501 -0.92205964058E+02  0.79526185629E+02  0.20775286675E+04  0.20810938754E+04  0.00000000000E+00 0.  1.
<scales pt_clust_3="60.87241" pt_clust_4="44.38303" pt_clust_5="14000.00000" pt_clust_6="116.00370"></scales>
<clustering>
<clus scale="   44.383">  2  4  1 -1</clus>
<clus scale="   60.872">  2  3  1 -1</clus>
<clus scale="  116.004">  1  6  2 -1</clus>
<clus scale="  116.004">  1  3  2 -1</clus>
</clustering>
</event>
<event>
 6    0  0.6207838E+002  0.1446030E+03  0.7546771E-02  0.1207266E+00
         21   -1    0    0  505  501  0.00000000000E+00  0.00000000000E+00  0.18387097537E+04  0.18387097537E+04  0.00000000000E+00 0.  1.
         21   -1    0    0  506  502 -0.00000000000E+00 -0.00000000000E+00 -0.29244067004E+02  0.29244067004E+02  0.00000000000E+00 0.  1.
         21    1    1    2  503  504  0.21284955759E+02 -0.40042692560E+02  0.39002346616E+02  0.59813456769E+02  0.00000000000E+00 0.  1.
         21    1    1    2  504  501  0.17045667091E+02  0.26018028367E+02  0.15500725323E+03  0.15809725209E+03  0.00000000000E+00 0.  1.
         21    1    1    2  505  502 -0.75469661249E+01  0.10895842137E+03  0.14675934416E+04  0.14716519304E+04  0.00000000000E+00 0.  1.
         21    1    1    2  506  503 -0.30783656725E+02 -0.94933757173E+02  0.14786264526E+03  0.17839118150E+03  0.00000000000E+00 0.  1.
<scales pt_clust_3="40.36046" pt_clust_4="31.10454" pt_clust_5="131.89384" pt_clust_6="40.36046"></scales>
<clustering>
<clus scale="   31.105">  1  4  2 -1</clus>
<clus scale="   40.360">  3  6 -1 -1</clus>
<clus scale="  131.894">  1  5  2 -1</clus>
<clus scale="   31.105">  1  3  2 -1</clus>
</clustering>
</event>
<event>
 6    0  0.6207838E+002  0.1185752E+03  0.7546771E-02  0.1245466E+00
         21   -1    0    0  503  501  0.00000000000E+00  0.00000000000E+00  0.42044723071E+03  0.42044723071E+03  0.00000000000E+00 0. -1.
         21   -1    0    0  506  502 -0.00000000000E+00 -0.00000000000E+00 -0.13980908172E+04  0.13980908172E+04  0.00000000000E+00 0.  1.
         21    1    1    2  503  505  0.66408917839E+02 -0.39429797292E+02  0.40697314392E+02  0.87299053155E+02  0.00000000000E+00 0. -1.
         21    1    1    2  504  501  0.61562101837E+02  0.43092156256E+02  0.34008374708E+03  0.34828692387E+03  0.00000000000E+00 0. -1.
         21    1    1    2  505  502  0.20674290816E+00 -0.35858531812E+02 -0.26754828431E+02  0.44740338518E+02  0.00000000000E+00 0. -1.
         21    1    1    2  506  504 -0.12817776258E+03  0.32196172847E+02 -0.13316698196E+04  0.13382117324E+04  0.00000000000E+00 0.  1.
<scales pt_clust_3="14000.00000" pt_clust_4="75.08402" pt_clust_5="35.85913" pt_clust_6="118.57520"></scales>
<clustering>
<clus scale="   35.859">  2  5  1 -1</clus>
<clus scale="   75.084">  1  4  2 -1</clus>
<clus scale="  118.575">  2  6  1 -1</clus>
<clus scale="   75.084">  1  3  2 -1</clus>
</clustering>
</event>
<event>
 6    0  0.6207838E+002  0.9992145E+02  0.7546771E-02  0.1280461E+00
         21   -1    0    0  504  501  0.00000000000E+00  0.00000000000E+00  0.27821615412E+03  0.27821615412E+03  0.00000000000E+00 0. -1.
         21   -1    0    0  506  502 -0.00000000000E+00 -0.00000000000E+00 -0.63323110654E+03  0.63323110654E+03  0.00000000000E+00 0. -1.
         21    1    1    2  503  501 -0.59144737274E+02 -0.36274734956E+02 -0.11598777300E+03  0.13515590934E+03  0.00000000000E+00 0.  1.
         21    1    1    2  504  505  0.98527055835E+02  0.28732405827E+02  0.24395115100E+03  0.26466071856E+03  0.00000000000E+00 0. -1.
         21    1    1    2  505  502 -0.71885624584E+02 -0.44501632521E+02 -0.39760468407E+03  0.40649406283E+03  0.00000000000E+00 0. -1.
         21    1    1    2  506  503  0.32503306023E+02  0.52043961650E+02 -0.85373646345E+02  0.10513656993E+03  0.00000000000E+00 0. -1.
<scales pt_clust_3="99.92145" pt_clust_4="14000.00000" pt_clust_5="47.92387" pt_clust_6="61.35991"></scales>
<clustering>
<clus scale="   61.360">  2  6  1 -1</clus>
<clus scale="   47.924">  2  5  1 -1</clus>
<clus scale="   99.921">  2  3  1 -1</clus>
<clus scale="   99.921">  1  3  2 -1</clus>
</clustering>
</event>
<event>
 6    0  0.6207838E+002  0.1460499E+03  0.7546771E-02  0.1205413E+00
         21   -1    0    0  505  501  0.00000000000E+00  0.00000000000E+00  0.20813279033E+04  0.20813279033E+04  0.00000000000E+00 0.  1.
         21   -1    0    0  506  502 -0.00000000000E+00 -0.00000000000E+00 -0.97861606414E+02  0.97861606414E+02  0.00000000000E+00 0.  1.
         21    1    1    2  503  504  0.12450568226E+03 -0.53814927044E+02  0.17323958618E+04  0.17376976530E+04  0.00000000000E+00 0.  1.
         21    1    1    2  504  501  0.43058998781E+02 -0.17629330823E+02  0.19491197909E+03  0.20038849836E+03  0.00000000000E+00 0.  1.
         21    1    1    2  505  502 -0.29542325659E+02  0.22559620937E+02  0.84180951723E+02  0.92022378448E+02  0.00000000000E+00 0.  1.
         21    1    1    2  506  503 -0.13802235538E+03  0.48884636930E+02 -0.28022495692E+02  0.14908097993E+03  0.00000000000E+00 0.  1.
<scales pt_clust_3="146.04993" pt_clust_4="42.98027" pt_clust_5="37.17103" pt_clust_6="14000.00000"></scales>
<clustering>
<clus scale="   37.171">  1  5  2 -1</clus>
<clus scale="   42.980">  1  4  2 -1</clus>
<clus scale="  146.050">  1  3  2 -1</clus>
<clus scale="   37.171">  1  3  2 -1</clus>
</clustering>
</event>
<event>
 6    0  0.6207838E+002  0.9138051E+02  0.7546771E-02  0.1299543E+00
         21   -1    0    0  503  501  0.00000000000E+00  0.00000000000E+00  0.82372997955E+03  0.82372997955E+03  0.00000000000E+00 0. -1.
         21   -1    0    0  506  502 -0.00000000000E+00 -0.00000000000E+00 -0.54797262401E+02  0.54797262401E+02  0.00000000000E+00 0. -1.
         21    1    1    2  503  502  0.51946247749E+02  0.84276778769E+02  0.22656572029E+03  0.24725091245E+03  0.00000000000E+00 0. -1.
         21    1    1    2  504  501 -0.10569668046E+02 -0.60691650776E+02  0.21906169724E+03  0.22755927042E+03  0.00000000000E+00 0. -1.
         21    1    1    2  505  504 -0.80375794099E+02 -0.32916268919E+02  0.34661705843E+03  0.35733336569E+03  0.00000000000E+00 0. -1.
         21    1    1    2  506  505  0.38999214396E+02  0.93311409264E+01 -0.23311758812E+02  0.46383693400E+02  0.00000000000E+00 0. -1.
<scales pt_clust_3="91.38051" pt_clust_4="58.74797" pt_clust_5="14000.00000" pt_clust_6="40.09999"></scales>
<clustering>
<clus scale="   40.100">  2  6  1 -1</clus>
<clus scale="   58.748">  1  4  2 -1</clus>
<clus scale="   91.381">  1  3  2 -1</clus>
<clus scale="   58.748">  1  3  2 -1</clus>
</clustering>
</event>
<event>
 6    0  0.6207838E+002  0.1037024E+03  0.7546771E-02  0.1272698E+00
         21   -1    0    0  503  501  0.00000000000E+00  0.00000000000E+00  0.10561649991E+03  0.10561649991E+03  0.00000000000E+00 0. -1.
         21   -1    0    0  504  502 -0.00000000000E+00 -0.00000000000E+00 -0.10663017746E+04  0.10663017746E+04  0.00000000000E+00 0. -1.
         21    1    1    2  503  505 -0.10023854900E+03 -0.42444700959E+02 -0.62871791133E+02  0.12570672801E+03  0.00000000000E+00 0. -1.
         21    1    1    2  504  506  0.11273550393E+03  0.15583303865E+02 -0.10338641878E+03  0.15375592605E+03  0.00000000000E+00 0. -1.
         21    1    1    2  505  502 -0.28222704260E+02 -0.24028561192E+02 -0.82843283850E+03  0.82926163585E+03  0.00000000000E+00 0. -1.
         21    1    1    2  506  501  0.15725749332E+02  0.50889958286E+02  0.34005773711E+02  0.63193984619E+02  0.00000000000E+00 0. -1.
<scales pt_clust_3="103.70235" pt_clust_4="14000.00000" pt_clust_5="37.06606" pt_clust_6="51.35574"></scales>
<clustering>
<clus scale="   37.066">  2  5  1 -1</clus>
<clus scale="   51.356">  1  6  2 -1</clus>
<clus scale="  103.702">  1  3  2 -1</clus>
<clus scale="   51.356">  1  3  2 -1</clus>
</clustering>
</event>
<event>
 6    0  0.6207838E+002  0.7465395E+02  0.7546771E-02  0.1344946E+00
         21   -1    0    0  504  501  0.00000000000E+00  0.00000000000E+00  0.14805874003E+03  0.14805874003E+03  0.00000000000E+00 0. -1.
         21   -1    0    0  505  502 -0.00000000000E+00 -0.00000000000E+00 -0.13428139490E+04  0.13428139490E+04  0.00000000000E+00 0.  1.
         21    1    1    2  503  502 -0.22704749226E+02  0.31436670014E+02 -0.12450428330E+04  0.12456465895E+04  0.00000000000E+00 0.  1.
         21    1    1    2  504  503 -0.22804048007E+02 -0.99637725441E+02  0.41767144321E+02  0.11041827422E+03  0.00000000000E+00 0. -1.
         21    1    1    2  505  506  0.66341184294E+02  0.28285845536E+02 -0.27462199965E+02  0.77171330286E+02  0.00000000000E+00 0. -1.
         21    1    1    2  506  501 -0.20832387061E+02  0.39915209891E+02  0.35982679646E+02  0.57636495086E+02  0.00000000000E+00 0. -1.
<scales pt_clust_3="38.77847" pt_clust_4="14000.00000" pt_clust_5="74.65395" pt_clust_6="49.29112"></scales>
<clustering>
<clus scale="   38.778">  2  3  1 -1</clus>
<clus scale="   49.291">  1  6  2 -1</clus>
<clus scale="   74.654">  2  5  1 -1</clus>
<clus scale="   49.291">  1  3  2 -1</clus>
</clustering>
</event>
<event>
 6    0  0.6207838E+002  0.2369138E+03  0.7546771E-02  0.1121866E+00
         21   -1    0    0  504  501  0.00000000000E+00  0.00000000000E+00  0.21409008059E+04  0.21409008059E+04  0.00000000000E+00 0. -1.
         21   -1    0    0  503  502 -0.00000000000E+00 -0.00000000000E+00 -0.42337234077E+03  0.42337234077E+03  0.00000000000E+00 0. -1.
         21    1    1    2  503  506 -0.46852882698E+02  0.39588355566E+02 -0.35262000958E+03  0.35791521575E+03  0.00000000000E+00 0. -1.
         21    1    1    2  504  505 -0.82648157544E+02  0.22551644384E+03  0.17078200753E+04  0.17246268564E+04  0.00000000000E+00 0. -1.
         21    1    1    2  505  502  0.86463055753E+02 -0.26014842631E+03  0.31266011443E+03  0.41582377383E+03  0.00000000000E+00 0. -1.
         21    1    1    2  506  501  0.43037984490E+02 -0.49563730964E+01  0.49668284950E+02  0.65907300605E+02  0.00000000000E+00 0. -1.
<scales pt_clust_3="61.29281" pt_clust_4="236.91380" pt_clust_5="14000.00000" pt_clust_6="43.32244"></scales>
<clustering>
<clus scale="   43.322">  1  6  2 -1</clus>
<clus scale="   61.293">  2  3  1 -1</clus>
<clus scale="  236.914">  1  4  2 -1</clus>
<clus scale="   43.322">  1  3  2 -1</clus>
</clustering>
</event>
<event>
 6    0  0.6207838E+002  0.8843223E+02  0.7546771E-02  0.1306693E+00
         21   -1    0    0  504  501  0.00000000000E+00  0.00000000000E+00  0.26299243988E+03  0.26299243988E+03  0.00000000000E+00 0.  1.
         21   -1    0    0  505  502 -0.00000000000E+00 -0.00000000000E+00 -0.23564622993E+03  0.23564622993E+03  0.00000000000E+00 0.  1.
         21    1    1    2  503  502  0.60715689623E+02  0.18030424425E+02 -0.15201422300E+03  0.16468094961E+03  0.00000000000E+00 0.  1.
         21    1    1    2  504  503  0.68155241168E+02 -0.40728023316E+02  0.96611568806E+02  0.12505080571E+03  0.00000000000E+00 0.  1.
         21    1    1    2  505  506 -0.99759405455E+02  0.59602278323E+02  0.28932408513E+01  0.11624431771E+03  0.00000000000E+00 0.  1.
         21    1    1    2  506  501 -0.29111525337E+02 -0.36904679432E+02  0.79855623290E+02  0.92662596782E+02  0.00000000000E+00 0.  1.
<scales pt_clust_3="61.96738" pt_clust_4="88.43223" pt_clust_5="14000.00000" pt_clust_6="47.00464"></scales>
<clustering>
<clus scale="   47.005">  1  6  2 -1</clus>
<clus scale="   61.967">  2  3  1 -1</clus>
<clus scale="   88.432">  1  4  2 -1</clus>
<clus scale="   47.005">  1  3  2 -1</clus>
</clustering>
</event>
<event>
 6    0  0.6207838E+002  0.1160197E+03  0.7546771E-02  0.1249812E+00
         21   -1    0    0  506  501  0.00000000000E+00  0.00000000000E+00  0.19618417142E+03  0.19618417142E+03  0.00000000000E+00 0. -1.
         21   -1    0    0  503  502 -0.00000000000E+00 -0.00000000000E+00 -0.17510419141E+03  0.17510419141E+03  0.00000000000E+00 0. -1.
         21    1    1    2  503  504 -0.48430380154E+02  0.62818498307E+02  0.25315949140E+02  0.83262012540E+02  0.00000000000E+00 0. -1.
         21    1    1    2  504  501 -0.67553829007E+02  0.33681221962E+02  0.20113189939E+02  0.78118403311E+02  0.00000000000E+00 0. -1.
         21    1    1    2  505  502  0.90184840565E+02 -0.47089171042E+02 -0.81289882890E+02  0.13022572925E+03  0.00000000000E+00 0. -1.
         21    1    1    2  506  505  0.25799368596E+02 -0.49410549226E+02  0.56940723814E+02  0.79682217736E+02  0.00000000000E+00 0. -1.
<scales pt_clust_3="34.00789" pt_clust_4="34.00789" pt_clust_5="110.65838" pt_clust_6="55.74056"></scales>
<clustering>
<clus scale="   34.008">  3  4 -1 -1</clus>
<clus scale="   55.741">  1  6  2 -1</clus>
<clus scale="  110.658">  2  5  1 -1</clus>
<clus scale="   55.741">  1  3  2 -1</clus>
</clustering>
</event>
<event>
 6    0  0.6207838E+002  0.3506869E+03  0.7546771E-02  0.1062333E+00
         21   -1    0    0  504  501  0.00000000000E+00  0.00000000000E+00  0.18315261923E+03  0.18315261923E+03  0.00000000000E+00 0. -1.
         21   -1    0    0  506  502 -0.00000000000E+00 -0.00000000000E+00 -0.12110228578E+04  0.12110228578E+04  0.00000000000E+00 0. -1.
         21    1    1    2  503  501  0.50343379064E+02  0.45464319227E+02  0.33339901188E+02  0.75584450449E+02  0.00000000000E+00 0. -1.
         21    1    1    2  504  502 -0.12082518453E+02 -0.38536912912E+03 -0.71967089168E+03  0.81644445326E+03  0.00000000000E+00 0. -1.
         21    1    1    2  505  503  0.28702856822E+02  0.35154134168E+02 -0.92340789114E+01  0.46313446775E+02  0.00000000000E+00 0. -1.
         21    1    1    2  506  505 -0.66963717433E+02  0.30475067572E+03 -0.33230516917E+03  0.45583312655E+03  0.00000000000E+00 0. -1.
<scales pt_clust_3="119.49061" pt_clust_4="350.68685" pt_clust_5="31.99799" pt_clust_6="14000.00000"></scales>
<clustering>
<clus scale="   31.998">  3  5 -1 -1</clus>
<clus scale="  119.491">  1  3  2 -1</clus>
<clus scale="  350.687">  2  4  1 -1</clus>
<clus scale="  119.491">  1  3  2 -1</clus>
</clustering>
</event>
<event>
 6    0  0.6207838E+002  0.6725722E+02  0.7546771E-02  0.1369676E+00
         21   -1    0    0  503  501  0.00000000000E+00  0.00000000000E+00  0.12614438849E+03  0.12614438849E+03  0.00000000000E+00 0.  1.
         21   -1    0    0  505  502 -0.00000000000E+00 -0.00000000000E+00 -0.59263706895E+03  0.59263706895E+03  0.00000000000E+00 0. -1.
         21    1    1    2  503  506  0.58444662119E+02 -0.30152334210E+02  0.90503062918E+02  0.11187379580E+03  0.00000000000E+00 0.  1.
         21    1    1    2  504  501 -0.79500402246E+02  0.70930187347E+02 -0.24757494484E+03  0.26952691656E+03  0.00000000000E+00 0. -1.
         21    1    1    2  505  504  0.51202446855E+02  0.21958144039E+02 -0.20069415370E+03  0.20828344625E+03  0.00000000000E+00 0. -1.
         21    1    1    2  506  502 -0.30146706728E+02 -0.62735997177E+02 -0.10872664484E+03  0.12909729884E+03  0.00000000000E+00 0.  1.
<scales pt_clust_3="67.25722" pt_clust_4="14000.00000" pt_clust_5="55.71221" pt_clust_6="57.84557"></scales>
<clustering>
<clus scale="   55.712">  2  5  1 -1</clus>
<clus scale="   57.846">  2  6  1 -1</clus>
<clus scale="   67.257">  1  3  2 -1</clus>
<clus scale="   67.257">  1  3  2 -1</clus>
</clustering>
</event>
<event>
 6    0  0.6207838E+002  0.1593404E+03  0.7546771E-02  0.1189443E+00
         21   -1    0    0  505  501  0.00000000000E+00  0.00000000000E+00  0.21074346357E+03  0.21074346357E+03  0.00000000000E+00 0. -1.
         21   -1    0    0  504  502 -0.00000000000E+00 -0.00000000000E+00 -0.57191885345E+03  0.57191885345E+03  0.00000000000E+00 0. -1.
         21    1    1    2  503  501  0.47786232866E+02  0.50215496803E+02 -0.13948241744E+03  0.15575771231E+03  0.00000000000E+00 0. -1.
         21    1    1    2  504  503  0.74342113145E+02  0.45018205645E+02 -0.35399427964E+03  0.36450698024E+03  0.00000000000E+00 0. -1.
         21    1    1    2  505  506 -0.43149935025E+02  0.85192720121E+00  0.13109150518E+03  0.13801313489E+03  0.00000000000E+00 0. -1.
         21    1    1    2  506  502 -0.78978410986E+02 -0.96085629649E+02  0.12098020263E+01  0.12438448958E+03  0.00000000000E+00 0. -1.
<scales pt_clust_3="49.90740" pt_clust_4="49.90740" pt_clust_5="43.15834" pt_clust_6="149.05725"></scales>
<clustering>
<clus scale="   43.158">  1  5  2 -1</clus>
<clus scale="   49.907">  3  4 -1 -1</clus>
<clus scale="  149.057">  1  6  2 -1</clus>
<clus scale="   43.158">  1  3  2 -1</clus>
</clustering>
</event>
<event>
 6    0  0.6207838E+002  0.2895577E+03  0.7546771E-02  0.1090580E+00
         21   -1    0    0  505  501  0.00000000000E+00  0.00000000000E+00  0.72881938278E+03  0.72881938278E+03  0.00000000000E+00 0.  1.
         21   -1    0    0  503  502 -0.00000000000E+00 -0.00000000000E+00 -0.24042366429E+03  0.24042366429E+03  0.00000000000E+00 0.  1.
         21    1    1    2  503  501  0.41135027549E+02 -0.18358365530E+03  0.11733300982E+03  0.22172524479E+03  0.00000000000E+00 0.  1.
         21    1    1    2  504  502 -0.24707671217E+03 -0.72008332076E+02  0.28622368931E+02  0.25894273805E+03  0.00000000000E+00 0.  1.
         21    1    1    2  505  506 -0.37413598884E+01  0.56026498148E+02  0.34322220754E+02  0.65810189987E+02  0.00000000000E+00 0. -1.
         21    1    1    2  506  504  0.20968304451E+03  0.19956548923E+03  0.30811811899E+03  0.42276487424E+03  0.00000000000E+00 0.  1.
<scales pt_clust_3="188.13572" pt_clust_4="264.84462" pt_clust_5="51.55289" pt_clust_6="51.55289"></scales>
<clustering>
<clus scale="   51.553">  5  6 -1 -1</clus>
<clus scale="  188.136">  1  3  2 -1</clus>
<clus scale="  264.845">  2  4  1 -1</clus>
<clus scale="  188.136">  1  3  2 -1</clus>
</clustering>
</event>
<event>
 6    0  0.6207838E+002  0.7723617E+02  0.7546771E-02  0.1337083E+00
         21   -1    0    0  506  501  0.00000000000E+00  0.00000000000E+00  0.14060711722E+03  0.14060711722E+03  0.00000000000E+00 0. -1.
         21   -1    0    0  504  502 -0.00000000000E+00 -0.00000000000E+00 -0.21203382309E+03  0.21203382309E+03  0.00000000000E+00 0. -1.
         21    1    1    2  503  505 -0.44960062295E+02 -0.41223658249E+02 -0.16076110995E+01  0.61019518308E+02  0.00000000000E+00 0. -1.
         21    1    1    2  504  501  0.27390443534E+02 -0.32157481912E+02  0.27993900271E+02  0.50675422961E+02  0.00000000000E+00 0.  1.
         21    1    1    2  505  502  0.78264047757E+02  0.33357436255E+02 -0.13477953268E+03  0.15938476136E+03  0.00000000000E+00 0. -1.
         21    1    1    2  506  503 -0.60694428995E+02  0.40023703906E+02  0.36966537645E+02  0.81561237674E+02  0.00000000000E+00 0.  1.
<scales pt_clust_3="77.23617" pt_clust_4="42.24145" pt_clust_5="14000.00000" pt_clust_6="49.44388"></scales>
<clustering>
<clus scale="   42.241">  1  4  2 -1</clus>
<clus scale="   49.444">  1  6  2 -1</clus>
<clus scale="   77.236">  1  3  2 -1</clus>
<clus scale="   42.241">  1  3  2 -1</clus>
</clustering>
</event>
<event>
 6    0  0.6207838E+002  0.1817147E+03  0.7546771E-02  0.1166154E+00
         21   -1    0    0  502  501  0.00000000000E+00  0.00000000000E+00  0.14212456329E+03  0.14212456329E+03  0.00000000000E+00 0.  1.
         21   -1    0    0  505  502 -0.00000000000E+00 -0.00000000000E+00 -0.36641884352E+03  0.36641884352E+03  0.00000000000E+00 0.  1.
         21    1    1    2  503  501  0.36356472422E+02  0.27007924125E+02  0.42026047822E+02  0.61785190362E+02  0.00000000000E+00 0.  1.
         21    1    1    2  504  503  0.15291253357E+03 -0.42502438680E+02 -0.91117178771E+02  0.18300557501E+03  0.00000000000E+00 0.  1.
         21    1    1    2  505  506 -0.90933932320E+02  0.24839117297E+02 -0.11241690280E+03  0.14670896983E+03  0.00000000000E+00 0.  1.
         21    1    1    2  506  504 -0.98335073672E+02 -0.93446027417E+01 -0.62786246483E+02  0.11704367160E+03  0.00000000000E+00 0.  1.
<scales pt_clust_3="45.29041" pt_clust_4="173.82102" pt_clust_5="52.43940" pt_clust_6="52.43940"></scales>
<clustering>
<clus scale="   45.290">  1  3  2 -1</clus>
<clus scale="   52.439">  5  6 -1 -1</clus>
<clus scale="  173.821">  1  4  2 -1</clus>
<clus scale="   45.290">  1  3  2 -1</clus>
</clustering>
</event>
<event>
 6    0  0.6207838E+002  0.6407373E+02  0.7546771E-02  0.1381490E+00
         21   -1    0    0  506  501  0.00000000000E+00  0.00000000000E+00  0.43486473434E+02  0.43486473434E+02  0.00000000000E+00 0. -1.
         21   -1    0    0  503  502 -0.00000000000E+00 -0.00000000000E+00 -0.11598227183E+04  0.11598227183E+04  0.00000000000E+00 0. -1.
         21    1    1    2  503  505 -0.67118404014E+02  0.42127125520E+01 -0.85017941990E+03  0.85283507967E+03  0.00000000000E+00 0. -1.
         21    1    1    2  504  502  0.40116290411E+02 -0.35782284314E+02 -0.75081750145E+02  0.92341528209E+02  0.00000000000E+00 0. -1.
         21    1    1    2  505  501  0.14112094544E+02  0.80055190419E+02 -0.19141592779E+03  0.20796163622E+03  0.00000000000E+00 0. -1.
         21    1    1    2  506  504  0.12890019058E+02 -0.48485618657E+02  0.34085294770E+00  0.50170947656E+02  0.00000000000E+00 0. -1.
<scales pt_clust_3="64.07373" pt_clust_4="14000.00000" pt_clust_5="61.38891" pt_clust_6="50.16979"></scales>
<clustering>
<clus scale="   50.170">  1  6  2 -1</clus>
<clus scale="   61.389">  1  5  2 -1</clus>
<clus scale="   64.074">  2  3  1 -1</clus>
<clus scale="   50.170">  1  3  2 -1</clus>
</clustering>
</event>
<event>
 6    0  0.6207838E+002  0.1825365E+03  0.7546771E-02  0.1165371E+00
         21   -1    0    0  504  501  0.00000000000E+00  0.00000000000E+00  0.57359739434E+03  0.57359739434E+03  0.00000000000E+00 0.  1.
         21   -1    0    0  505  502 -0.00000000000E+00 -0.00000000000E+00 -0.78371566573E+03  0.78371566573E+03  0.00000000000E+00 0.  1.
         21    1    1    2  503  506 -0.88027416895E+02 -0.10029832529E+03 -0.13976170103E+03  0.19324055800E+03  0.00000000000E+00 0.  1.
         21    1    1    2  504  502 -0.21012452237E+02  0.86284980546E+02 -0.56983917795E+03  0.57671770369E+03  0.00000000000E+00 0.  1.
         21    1    1    2  505  503 -0.32107129349E+02 -0.55611493441E+02  0.58091669777E+00  0.64217158315E+02  0.00000000000E+00 0.  1.
         21    1    1    2  506  501  0.14114699848E+03  0.69624838187E+02  0.49890169090E+03  0.52313764006E+03  0.00000000000E+00 0.  1.
<scales pt_clust_3="62.71193" pt_clust_4="88.80665" pt_clust_5="62.71193" pt_clust_6="158.57667"></scales>
<clustering>
<clus scale="   62.712">  3  5 -1 -1</clus>
<clus scale="   88.807">  2  4  1 -1</clus>
<clus scale="  158.577">  1  6  2 -1</clus>
<clus scale="  158.577">  1  3  2 -1</clus>
</clustering>
</event>
<event>
 6    0  0.6207838E+002  0.9800617E+02  0.7546771E-02  0.1284545E+00
         21   -1    0    0  505  501  0.00000000000E+00  0.00000000000E+00  0.22889795723E+02  0.22889795723E+02  0.00000000000E+00 0.  1.
         21   -1    0    0  506  502 -0.00000000000E+00 -0.00000000000E+00 -0.21639188073E+04  0.21639188073E+04  0.00000000000E+00 0.  1.
         21    1    1    2  503  502 -0.13099581845E+03  0.35002319422E+02 -0.10209771734E+04  0.10299414815E+04  0.00000000000E+00 0.  1.
         21    1    1    2  504  501  0.11350123059E+03 -0.19025242311E+02 -0.36637901406E+03  0.38402873737E+03  0.00000000000E+00 0.  1.
         21    1    1    2  505  503 -0.49422674012E+02  0.74951546971E+01 -0.72960149560E+02  0.88441853634E+02  0.00000000000E+00 0.  1.
         21    1    1    2  506  504  0.66917261874E+02 -0.23472231808E+02 -0.68071267458E+03  0.68439653048E+03  0.00000000000E+00 0.  1.
<scales pt_clust_3="98.00617" pt_clust_4="14000.00000" pt_clust_5="49.98778" pt_clust_6="64.95219"></scales>
<clustering>
<clus scale="   49.988">  1  5  2 -1</clus>
<clus scale="   64.952">  2  6  1 -1</clus>
<clus scale="   98.006">  2  3  1 -1</clus>
<clus scale="   49.988">  1  3  2 -1</clus>
</clustering>
</event>
<event>
 6    0  0.6207838E+002  0.1659130E+03  0.7546771E-02  0.1182178E+00
         21   -1    0    0  503  501  0.00000000000E+00  0.00000000000E+00  0.65219746137E+02  0.65219746137E+02  0.00000000000E+00 0. -1.
         21   -1    0    0  505  502 -0.00000000000E+00 -0.00000000000E+00 -0.10054448290E+04  0.10054448290E+04  0.00000000000E+00 0. -1.
         21    1    1    2  503  502 -0.19478260357E+01 -0.19728291291E+03 -0.28688458583E+03  0.34817683344E+03  0.00000000000E+00 0. -1.
         21    1    1    2  504  501  0.33227604390E+02  0.36353581215E+02 -0.79908991139E+01  0.49895000043E+02  0.00000000000E+00 0. -1.
         21    1    1    2  505  506 -0.38416840372E+02  0.18047755873E+02 -0.96829697330E+02  0.10572400579E+03  0.00000000000E+00 0. -1.
         21    1    1    2  506  504  0.71370620181E+01  0.14288157582E+03 -0.54851990060E+03  0.56686873588E+03  0.00000000000E+00 0. -1.
<scales pt_clust_3="165.91296" pt_clust_4="48.86496" pt_clust_5="42.44497" pt_clust_6="14000.00000"></scales>
<clustering>
<clus scale="   42.445">  2  5  1 -1</clus>
<clus scale="   48.865">  1  4  2 -1</clus>
<clus scale="  165.913">  1  3  2 -1</clus>
<clus scale="   48.865">  1  3  2 -1</clus>
</clustering>
</event>
<event>
 6    0  0.6207838E+002  0.8380199E+02  0.7546771E-02  0.1318596E+00
         21   -1    0    0  505  501  0.00000000000E+00  0.00000000000E+00  0.20506025305E+04  0.20506025305E+04  0.00000000000E+00 0.  1.
         21   -1    0    0  504  502 -0.00000000000E+00 -0.00000000000E+00 -0.95241421669E+01  0.95241421669E+01  0.00000000000E+00 0.  1.
         21    1    1    2  503  506  0.38718173462E+02  0.25885980147E+02  0.58011426704E+03  0.58198087919E+03  0.00000000000E+00 0.  1.
         21    1    1    2  504  503  0.61634413347E+02 -0.63540359109E+02  0.62724132271E+03  0.63345706647E+03  0.00000000000E+00 0.  1.
         21    1    1    2  505  502 -0.92415173046E+02  0.26056166180E+00  0.47281011597E+03  0.48175723956E+03  0.00000000000E+00 0.  1.
         21    1    1    2  506  501 -0.79374137638E+01  0.37393817301E+02  0.36091268258E+03  0.36293148741E+03  0.00000000000E+00 0. -1.
<scales pt_clust_3="52.88506" pt_clust_4="83.80199" pt_clust_5="14000.00000" pt_clust_6="38.22696"></scales>
<clustering>
<clus scale="   38.227">  1  6  2 -1</clus>
<clus scale="   52.885">  1  3  2 -1</clus>
<clus scale="   83.802">  1  4  2 -1</clus>
<clus scale="   38.227">  1  3  2 -1</clus>
</clustering>
</event>
<event>
 6    0  0.6207838E+002  0.1179022E+03  0.7546771E-02  0.1246598E+00
         21   -1    0    0  505  501  0.00000000000E+00  0.00000000000E+00  0.65388065068E+03  0.65388065068E+03  0.00000000000E+00 0. -1.
         21   -1    0    0  506  502 -0.00000000000E+00 -0.00000000000E+00 -0.29516338535E+03  0.29516338535E+03  0.00000000000E+00 0.  1.
         21    1    1    2  503  502  0.78339326484E+01 -0.32000301980E+02 -0.15053454906E+03  0.15409750254E+03  0.00000000000E+00 0. -1.
         21    1    1    2  504  501  0.27330677558E+02  0.74350321534E+02 -0.85049787171E+02  0.11622565356E+03  0.00000000000E+00 0.  1.
         21    1    1    2  505  503 -0.66577831454E+02 -0.10022015617E+03  0.60063779868E+03  0.61257036538E+03  0.00000000000E+00 0. -1.
         21    1    1    2  506  504  0.31413221247E+02  0.57870136615E+02 -0.63361971178E+01  0.66150514547E+02  0.00000000000E+00 0.  1.
<scales pt_clust_3="32.94526" pt_clust_4="14000.00000" pt_clust_5="117.90216" pt_clust_6="59.92310"></scales>
<clustering>
<clus scale="   32.945">  2  3  1 -1</clus>
<clus scale="   59.923">  2  6  1 -1</clus>
<clus scale="  117.902">  1  5  2 -1</clus>
<clus scale="  117.902">  1  3  2 -1</clus>
</clustering>
</event>
<event>
 6    0  0.6207838E+002  0.8949653E+02  0.7546771E-02  0.1304076E+00
         21   -1    0    0  506  501  0.00000000000E+00  0.00000000000E+00  0.16536130545E+04  0.16536130545E+04  0.00000000000E+00 0.  1.
         21   -1    0    0  505  502 -0.00000000000E+00 -0.00000000000E+00 -0.80260098378E+03  0.80260098378E+03  0.00000000000E+00 0.  1.
         21    1    1    2  503  502  0.26657527017E+02 -0.33338455354E+02 -0.94692945523E+02  0.10386929423E+03  0.00000000000E+00 0. -1.
         21    1    1    2  504  501 -0.60800556679E+02  0.69441439651E+01  0.16358012121E+04  0.16369454891E+04  0.00000000000E+00 0.  1.
         21    1    1    2  505  504  0.63866821754E+02  0.92039182101E+02 -0.49229396029E+03  0.50487971369E+03  0.00000000000E+00 0.  1.
         21    1    1    2  506  503 -0.29723792093E+02 -0.65644870712E+02 -0.19780223554E+03  0.21051954126E+03  0.00000000000E+00 0.  1.
<scales pt_clust_3="42.68579" pt_clust_4="61.17121" pt_clust_5="14000.00000" pt_clust_6="89.49653"></scales>
<clustering>
<clus scale="   42.686">  2  3  1 -1</clus>
<clus scale="   61.171">  1  4  2 -1</clus>
<clus scale="   89.497">  1  6  2 -1</clus>
<clus scale="   61.171">  1  3  2 -1</clus>
</clustering>
</event>
<event>
 6    0  0.6207838E+002  0.1113364E+03  0.7546771E-02  0.1258115E+00
         21   -1    0    0  506  501  0.00000000000E+00  0.00000000000E+00  0.14940803571E+04  0.14940803571E+04  0.00000000000E+00 0. -1.
         21   -1    0    0  504  502 -0.00000000000E+00 -0.00000000000E+00 -0.26160977728E+03  0.26160977728E+03  0.00000000000E+00 0. -1.
         21    1    1    2  503  505 -0.59144078084E+02 -0.14418969837E+02  0.18469394662E+02  0.63616406711E+02  0.00000000000E+00 0.  1.
         21    1    1    2  504  501 -0.68378039452E+02  0.76268662453E+02 -0.11742130154E+03  0.15582113851E+03  0.00000000000E+00 0. -1.
         21    1    1    2  505  502  0.54628136061E+02  0.22494724399E+02 -0.91529829692E+02  0.10894014686E+03  0.00000000000E+00 0. -1.
         21    1    1    2  506  503  0.72893981475E+02 -0.84344417015E+02  0.14229523164E+04  0.14273124423E+04  0.00000000000E+00 0. -1.
<scales pt_clust_3="52.72172" pt_clust_4="111.33641" pt_clust_5="59.07830" pt_clust_6="14000.00000"></scales>
<clustering>
<clus scale="   59.078">  2  5  1 -1</clus>
<clus scale="   52.722">  2  3  1 -1</clus>
<clus scale="  111.336">  2  4  1 -1</clus>
<clus scale="  111.336">  1  3  2 -1</clus>
</clustering>
</event>
<event>
 6    0  0.6207838E+002  0.1437137E+03  0.7546771E-02  0.1208418E+00
         21   -1    0    0  503  501  0.00000000000E+00  0.00000000000E+00  0.35187972213E+03  0.35187972213E+03  0.00000000000E+00 0. -1.
         21   -1    0    0  505  502 -0.00000000000E+00 -0.00000000000E+00 -0.12168145054E+03  0.12168145054E+03  0.00000000000E+00 0. -1.
         21    1    1    2  503  502  0.97778224344E+01 -0.61104444834E+02  0.11349817392E+02  0.62914047278E+02  0.00000000000E+00 0.  1.
         21    1    1    2  504  501  0.13797491029E+03  0.12265553427E+02  0.20993927986E+03  0.25151942450E+03  0.00000000000E+00 0. -1.
         21    1    1    2  505  506 -0.77216180426E+02  0.18761871591E+02  0.19225401561E+02  0.81755503854E+02  0.00000000000E+00 0. -1.
         21    1    1    2  506  504 -0.70536552301E+02  0.30077019816E+02 -0.10316227227E+02  0.77372197046E+02  0.00000000000E+00 0. -1.
<scales pt_clust_3="61.88181" pt_clust_4="140.09809" pt_clust_5="31.46785" pt_clust_6="31.46785"></scales>
<clustering>
<clus scale="   31.468">  5  6 -1 -1</clus>
<clus scale="   61.882">  2  3  1 -1</clus>
<clus scale="  140.098">  1  4  2 -1</clus>
<clus scale="  140.098">  1  3  2 -1</clus>
</clustering>
</event>
<event>
 6    0  0.6207838E+002  0.9390591E+02  0.7546771E-02  0.1293659E+00
         21   -1    0    0  506  501  0.00000000000E+00  0.00000000000E+00  0.65905557957E+02  0.65905557957E+02  0.00000000000E+00 0.  1.
         21   -1    0    0  505  502 -0.00000000000E+00 -0.00000000000E+00 -0.25464781245E+04  0.25464781245E+04  0.00000000000E+00 0. -1.
         21    1    1    2  503  504  0.94041979240E+02 -0.79815289631E+01 -0.88746067699E+02  0.12955100616E+03  0.00000000000E+00 0.  1.
         21    1    1    2  504  502 -0.32097811178E+02  0.89471172098E+02 -0.23549867291E+04  0.23569042947E+04  0.00000000000E+00 0. -1.
         21    1    1    2  505  501 -0.14681693687E+02 -0.66111205342E+02 -0.73074388933E+01  0.68114919544E+02  0.00000000000E+00 0.  1.
         21    1    1    2  506  503 -0.47262474375E+02 -0.15378437793E+02 -0.29532330904E+02  0.57813462114E+02  0.00000000000E+00 0.  1.
<scales pt_clust_3="76.71041" pt_clust_4="93.90591" pt_clust_5="14000.00000" pt_clust_6="49.70149"></scales>
<clustering>
<clus scale="   49.701">  1  6  2 -1</clus>
<clus scale="   76.710">  1  3  2 -1</clus>
<clus scale="   93.906">  2  4  1 -1</clus>
<clus scale="   49.701">  1  3  2 -1</clus>
</clustering>
</event>
<event>
 6    0  0.6207838E+002  0.1211376E+03  0.7546771E-02  0.1241232E+00
         21   -1    0    0  506  501  0.00000000000E+00  0.00000000000E+00  0.90167379445E+03  0.90167379445E+03  0.00000000000E+00 0.  1.
         21   -1    0    0  503  502 -0.00000000000E+00 -0.00000000000E+00 -0.28096213889E+02  0.28096213889E+02  0.00000000000E+00 0.  1.
         21    1    1    2  503  504 -0.18156142246E+02 -0.59982786149E+02  0.11213253842E+03  0.12845733264E+03  0.00000000000E+00 0.  1.
         21    1    1    2  504  501 -0.29100608733E+01 -0.65783130965E+02  0.18688579327E+03  0.19814688617E+03  0.00000000000E+00 0.  1.
         21    1    1    2  505  502  0.42009079804E+02  0.10232511623E+03  0.21086809079E+03  0.23811876010E+03  0.00000000000E+00 0.  1.
         21    1    1    2  506  505 -0.20942876685E+02  0.23440800883E+02  0.36369115808E+03  0.36504702943E+03  0.00000000000E+00 0.  1.
<scales pt_clust_3="30.81191" pt_clust_4="30.81191" pt_clust_5="116.94795" pt_clust_6="31.43366"></scales>
<clustering>
<clus scale="   30.812">  3  4 -1 -1</clus>
<clus scale="   31.434">  1  6  2 -1</clus>
<clus scale="  116.948">  2  5  1 -1</clus>
<clus scale="   31.434">  1  3  2 -1</clus>
</clustering>
</event>
<event>
 6    0  0.6207838E+002  0.1206358E+03  0.7546771E-02  0.1242052E+00
         21   -1    0    0  503  501  0.00000000000E+00  0.00000000000E+00  0.56378195778E+02  0.56378195778E+02  0.00000000000E+00 0. -1.
         21   -1    0    0  504  502 -0.00000000000E+00 -0.00000000000E+00 -0.32763039615E+04  0.32763039615E+04  0.00000000000E+00 0. -1.
         21    1    1    2  503  502 -0.84134540679E+02 -0.69524488831E+02 -0.21633440211E+01  0.10916480907E+03  0.00000000000E+00 0. -1.
         21    1    1    2  504  505 -0.38298641095E+02  0.19090391670E+02 -0.12134485793E+04  0.12142029005E+04  0.00000000000E+00 0. -1.
         21    1    1    2  505  506  0.59393293765E+02  0.51508115722E+02 -0.11202387891E+04  0.11229940311E+04  0.00000000000E+00 0. -1.
         21    1    1    2  506  501  0.63039888009E+02 -0.10740185604E+01 -0.88407505332E+03  0.88632041661E+03  0.00000000000E+00 0. -1.
<scales pt_clust_3="109.61705" pt_clust_4="42.79286" pt_clust_5="40.49922" pt_clust_6="40.49922"></scales>
<clustering>
<clus scale="   42.793">  2  4  1 -1</clus>
<clus scale="   40.499">  5  6 -1 -1</clus>
<clus scale="  109.617">  1  3  2 -1</clus>
<clus scale="  109.617">  1  3  2 -1</clus>
</clustering>
</event>
<event>
 6    0  0.6207838E+002  0.1284840E+03  0.7546771E-02  0.1229723E+00
         21   -1    0    0  503  501  0.00000000000E+00  0.00000000000E+00  0.95267691823E+02  0.95267691823E+02  0.00000000000E+00 0. -1.
         21   -1    0    0  506  502 -0.00000000000E+00 -0.00000000000E+00 -0.72707347835E+03  0.72707347835E+03  0.00000000000E+00 0. -1.
         21    1    1    2  503  504 -0.55955556586E+02  0.50735063344E+02  0.16778043186E+02  0.77372951983E+02  0.00000000000E+00 0. -1.
         21    1    1    2  504  502 -0.29042588979E+02  0.43441319322E+02 -0.18165963455E+02  0.55322892434E+02  0.00000000000E+00 0. -1.
         21    1    1    2  505  501 -0.41379344506E+02 -0.95556043674E+02 -0.99977200772E+02  0.14435597774E+03  0.00000000000E+00 0. -1.
         21    1    1    2  506  505  0.12637749007E+03  0.13796610074E+01 -0.53044066549E+03  0.54528934802E+03  0.00000000000E+00 0. -1.
<scales pt_clust_3="32.34679" pt_clust_4="32.34679" pt_clust_5="104.13072" pt_clust_6="122.45711"></scales>
<clustering>
<clus scale="   32.347">  3  4 -1 -1</clus>
<clus scale="  104.131">  1  5  2 -1</clus>
<clus scale="  122.457">  2  6  1 -1</clus>
<clus scale="  104.131">  1  3  2 -1</clus>
</clustering>
</event>
<event>
 6    0  0.6207838E+002  0.4394644E+03  0.7546771E-02  0.1030911E+00
         21   -1    0    0  503  501  0.00000000000E+00  0.00000000000E+00  0.71393491790E+03  0.71393491790E+03  0.00000000000E+00 0.  1.
         21   -1    0    0  501  502 -0.00000000000E+00 -0.00000000000E+00 -0.79651450993E+03  0.79651450993E+03  0.00000000000E+00 0. -1.
         21    1    1    2  503  504  0.16777703730E+03 -0.19901540195E+03  0.44214716827E+03  0.51307931440E+03  0.00000000000E+00 0.  1.
         21    1    1    2  504  506  0.12332632335E+02  0.35315663286E+03 -0.35550946722E+03  0.50125710213E+03  0.00000000000E+00 0. -1.
         21    1    1    2  505  502 -0.46427206401E+02 -0.27887952023E+03 -0.88475892367E+02  0.29623851172E+03  0.00000000000E+00 0.  1.
         21    1    1    2  506  505 -0.13368246323E+03  0.12473828932E+03 -0.80741400702E+02  0.19987449959E+03  0.00000000000E+00 0. -1.
<scales pt_clust_3="260.30034" pt_clust_4="173.47523" pt_clust_5="367.37938" pt_clust_6="173.47523"></scales>
<clustering>
<clus scale="  173.475">  4  6 -1 -1</clus>
<clus scale="  260.300">  1  3  2 -1</clus>
<clus scale="  367.379">  2  5  1 -1</clus>
<clus scale="  260.300">  1  3  2 -1</clus>
</clustering>
</event>
<event>
 6    0  0.6207838E+002  0.1825192E+03  0.7546771E-02  0.1165387E+00
         21   -1    0    0  505  501  0.00000000000E+00  0.00000000000E+00  0.11880464638E+04  0.11880464638E+04  0.00000000000E+00 0. -1.
         21   -1    0    0  506  502 -0.00000000000E+00 -0.00000000000E+00 -0.62989474970E+02  0.62989474970E+02  0.00000000000E+00 0. -1.
         21    1    1    2  503  502  0.80589007883E+01 -0.34273298945E+02  0.30149386179E+02  0.46352889764E+02  0.00000000000E+00 0. -1.
         21    1    1    2  504  501  0.35798124496E+02  0.15650701250E+02  0.88537369609E+02  0.96774562692E+02  0.00000000000E+00 0. -1.
         21    1    1    2  505  503  0.78351394526E+02 -0.15151840629E+03  0.78425889997E+03  0.80259503528E+03  0.00000000000E+00 0. -1.
         21    1    1    2  506  504 -0.12220841981E+03  0.17014100399E+03  0.22211133310E+03  0.30531345107E+03  0.00000000000E+00 0. -1.
<scales pt_clust_3="35.20802" pt_clust_4="38.68107" pt_clust_5="182.51921" pt_clust_6="14000.00000"></scales>
<clustering>
<clus scale="   35.208">  2  3  1 -1</clus>
<clus scale="   38.681">  1  4  2 -1</clus>
<clus scale="  182.519">  1  5  2 -1</clus>
<clus scale="   38.681">  1  3  2 -1</clus>
</clustering>
</event>
<event>
 6    0  0.6207838E+002  0.6666968E+02  0.7546771E-02  0.1371799E+00
         21   -1    0    0  504  501  0.00000000000E+00  0.00000000000E+00  0.19069242220E+03  0.19069242220E+03  0.00000000000E+00 0. -1.
         21   -1    0    0  506  502 -0.00000000000E+00 -0.00000000000E+00 -0.36831437722E+03  0.36831437722E+03  0.00000000000E+00 0. -1.
         21    1    1    2  503  502  0.26430579950E+02  0.52118023422E+02 -0.30863196023E+03  0.31411550550E+03  0.00000000000E+00 0. -1.
         21    1    1    2  504  505  0.58666780080E+02 -0.25176378727E+02  0.47290029036E+02  0.79448020599E+02  0.00000000000E+00 0. -1.
         21    1    1    2  505  503 -0.22257886638E+02 -0.55248045726E+02  0.34758718492E+01  0.59664409485E+02  0.00000000000E+00 0. -1.
         21    1    1    2  506  501 -0.62839473393E+02  0.28306401031E+02  0.80244104319E+02  0.10577886383E+03  0.00000000000E+00 0. -1.
<scales pt_clust_3="58.43684" pt_clust_4="14000.00000" pt_clust_5="30.93813" pt_clust_6="66.66968"></scales>
<clustering>
<clus scale="   58.437">  2  3  1 -1</clus>
<clus scale="   30.938">  2  5  1 -1</clus>
<clus scale="   66.670">  1  6  2 -1</clus>
<clus scale="   66.670">  1  3  2 -1</clus>
</clustering>
</event>
<event>
 6    0  0.6207838E+002  0.2349490E+03  0.7546771E-02  0.1123204E+00
         21   -1    0    0  502  501  0.00000000000E+00  0.00000000000E+00  0.18327565591E+04  0.18327565591E+04  0.00000000000E+00 0.  1.
         21   -1    0    0  504  502 -0.00000000000E+00 -0.00000000000E+00 -0.62142583809E+03  0.62142583809E+03  0.00000000000E+00 0.  1.
         21    1    1    2  503  505 -0.18725350581E+03  0.14706258065E+03  0.94844157341E+02  0.25629415180E+03  0.00000000000E+00 0.  1.
         21    1    1    2  504  503  0.23457065404E+03 -0.41712063225E+02 -0.49285985310E+03  0.54742499281E+03  0.00000000000E+00 0.  1.
         21    1    1    2  505  506 -0.26041791959E+02 -0.80187905979E+02  0.66803704585E+02  0.10756862991E+03  0.00000000000E+00 0.  1.
         21    1    1    2  506  501 -0.21275356268E+02 -0.25162611443E+02  0.15425427122E+04  0.15428946227E+04  0.00000000000E+00 0.  1.
<scales pt_clust_3="234.94897" pt_clust_4="14000.00000" pt_clust_5="93.55512" pt_clust_6="32.95145"></scales>
<clustering>
<clus scale="   32.951">  1  6  2 -1</clus>
<clus scale="   93.555">  1  5  2 -1</clus>
<clus scale="  234.949">  1  3  2 -1</clus>
<clus scale="   32.951">  1  3  2 -1</clus>
</clustering>
</event>
<event>
 6    0  0.6207838E+002  0.2141685E+03  0.7546771E-02  0.1138307E+00
         21   -1    0    0  506  501  0.00000000000E+00  0.00000000000E+00  0.90636446060E+03  0.90636446060E+03  0.00000000000E+00 0. -1.
         21   -1    0    0  503  502 -0.00000000000E+00 -0.00000000000E+00 -0.10171894511E+03  0.10171894511E+03  0.00000000000E+00 0. -1.
         21    1    1    2  503  505  0.83572399123E+02  0.12365999382E+03  0.13547887938E+03  0.20157050063E+03  0.00000000000E+00 0. -1.
         21    1    1    2  504  501  0.28720961601E+02 -0.10557978793E+03  0.42700427384E+03  0.44079999448E+03  0.00000000000E+00 0. -1.
         21    1    1    2  505  504  0.79513175254E+02  0.10007811159E+02  0.74248125367E+02  0.10924873200E+03  0.00000000000E+00 0. -1.
         21    1    1    2  506  502 -0.19180653598E+03 -0.28088017048E+02  0.16791423691E+03  0.25646417860E+03  0.00000000000E+00 0. -1.
<scales pt_clust_3="66.18958" pt_clust_4="109.41657" pt_clust_5="66.18958" pt_clust_6="194.18798"></scales>
<clustering>
<clus scale="   66.190">  3  5 -1 -1</clus>
<clus scale="  109.417">  1  4  2 -1</clus>
<clus scale="  194.188">  2  6  1 -1</clus>
<clus scale="  109.417">  1  3  2 -1</clus>
</clustering>
</event>
<event>
 6    0  0.6207838E+002  0.1473347E+03  0.7546771E-02  0.1203787E+00
         21   -1    0    0  506  501  0.00000000000E+00  0.00000000000E+00  0.40178959986E+03  0.40178959986E+03  0.00000000000E+00 0. -1.
         21   -1    0    0  505  502 -0.00000000000E+00 -0.00000000000E+00 -0.29496180864E+03  0.29496180864E+03  0.00000000000E+00 0.  1.
         21    1    1    2  503  504  0.63654377095E+01  0.50475537606E+02 -0.78449371800E+02  0.93501885701E+02  0.00000000000E+00 0.  1.
         21    1    1    2  504  501 -0.50950740395E+02  0.63052009462E+02 -0.54833050683E+02  0.97868264985E+02  0.00000000000E+00 0.  1.
         21    1    1    2  505  503  0.71612199517E+02  0.19200249025E+02 -0.10848215543E+03  0.13139762071E+03  0.00000000000E+00 0.  1.
         21    1    1    2  506  502 -0.27026896831E+02 -0.13272779609E+03  0.34859236913E+03  0.37398363711E+03  0.00000000000E+00 0. -1.
<scales pt_clust_3="49.99036" pt_clust_4="49.99036" pt_clust_5="74.14146" pt_clust_6="133.13733"></scales>
<clustering>
<clus scale="   49.990">  3  4 -1 -1</clus>
<clus scale="   74.141">  2  5  1 -1</clus>
<clus scale="  133.137">  1  6  2 -1</clus>
<clus scale="  133.137">  1  3  2 -1</clus>
</clustering>
</event>
<event>
 6    0  0.6207838E+002  0.9190516E+02  0.7546771E-02  0.1298303E+00
         21   -1    0    0  503  501  0.00000000000E+00  0.00000000000E+00  0.19503329432E+04  0.19503329432E+04  0.00000000000E+00 0. -1.
         21   -1    0    0  506  502 -0.00000000000E+00 -0.00000000000E+00 -0.12948013102E+03  0.12948013102E+03  0.00000000000E+00 0.  1.
         21    1    1    2  503  502  0.28573524760E+02 -0.34155775097E+02  0.27971047326E+02  0.52587477390E+02  0.00000000000E+00 0. -1.
         21    1    1    2  504  505  0.26891199919E+02 -0.60801080113E+02  0.60494013513E+03  0.60858234863E+03  0.00000000000E+00 0. -1.
         21    1    1    2  505  501 -0.48366110692E+02 -0.31822708523E+02  0.12674859270E+04  0.12688075270E+04  0.00000000000E+00 0. -1.
         21    1    1    2  506  504 -0.70986139878E+01  0.12677956373E+03 -0.79544297313E+02  0.14983572116E+03  0.00000000000E+00 0.  1.
<scales pt_clust_3="44.53160" pt_clust_4="91.90516" pt_clust_5="57.86796" pt_clust_6="14000.00000"></scales>
<clustering>
<clus scale="   44.532">  2  3  1 -1</clus>
<clus scale="   57.868">  1  5  2 -1</clus>
<clus scale="   91.905">  1  4  2 -1</clus>
<clus scale="   57.868">  1  3  2 -1</clus>
</clustering>
</event>
<event>
 6    0  0.6207838E+002  0.2595125E+03  0.7546771E-02  0.1107436E+00
         21   -1    0    0  503  501  0.00000000000E+00  0.00000000000E+00  0.50292394470E+03  0.50292394470E+03  0.00000000000E+00 0.  1.
         21   -1    0    0  504  502 -0.00000000000E+00 -0.00000000000E+00 -0.42697641373E+03  0.42697641373E+03  0.00000000000E+00 0. -1.
         21    1    1    2  503  505 -0.41165621584E+02 -0.11945697312E+03  0.18165173026E+03  0.22127342347E+03  0.00000000000E+00 0.  1.
         21    1    1    2  504  506 -0.78810721626E+01  0.22711561650E+03 -0.25520843643E+03  0.34172351483E+03  0.00000000000E+00 0. -1.
         21    1    1    2  505  502 -0.58824344748E+02 -0.18977630259E+03  0.10129673891E+03  0.22301654170E+03  0.00000000000E+00 0.  1.
         21    1    1    2  506  501  0.10787103849E+03  0.82117659198E+02  0.48207498231E+02  0.14388687843E+03  0.00000000000E+00 0.  1.
<scales pt_clust_3="86.29707" pt_clust_4="235.87332" pt_clust_5="86.29707" pt_clust_6="135.57091"></scales>
<clustering>
<clus scale="   86.297">  3  5 -1 -1</clus>
<clus scale="  135.571">  1  6  2 -1</clus>
<clus scale="  235.873">  2  4  1 -1</clus>
<clus scale="  135.571">  1  3  2 -1</clus>
</clustering>
</event>
<event>
 6    0  0.6207838E+002  0.7892597E+02  0.7546771E-02  0.1332127E+00
         21   -1    0    0  505  501  0.00000000000E+00  0.00000000000E+00  0.89353817308E+03  0.89353817308E+03  0.00000000000E+00 0. -1.
         21   -1    0    0  506  502 -0.00000000000E+00 -0.00000000000E+00 -0.29110755211E+03  0.29110755211E+03  0.00000000000E+00 0. -1.
         21    1    1    2  503  504  0.53593711583E+02  0.15022570523E+02  0.51623143437E+02  0.75913849097E+02  0.00000000000E+00 0. -1.
         21    1    1    2  504  502 -0.40375379798E+02  0.12841552470E+02 -0.26918352898E+03  0.27249742942E+03  0.00000000000E+00 0. -1.
         21    1    1    2  505  503  0.73618091273E+02 -0.94543090309E+01  0.42050509740E+03  0.42700532112E+03  0.00000000000E+00 0. -1.
         21    1    1    2  506  501 -0.86836423059E+02 -0.18409813962E+02  0.39948590912E+03  0.40922912556E+03  0.00000000000E+00 0.  1.
<scales pt_clust_3="37.15322" pt_clust_4="42.36835" pt_clust_5="78.92597" pt_clust_6="14000.00000"></scales>
<clustering>
<clus scale="   42.368">  2  4  1 -1</clus>
<clus scale="   37.153">  2  3  1 -1</clus>
<clus scale="   78.926">  1  5  2 -1</clus>
<clus scale="   78.926">  1  3  2 -1</clus>
</clustering>
</event>
<event>
 6    0  0.6207838E+002  0.1106820E+03  0.7546771E-02  0.1259312E+00
         21   -1    0    0  503  501  0.00000000000E+00  0.00000000000E+00  0.24703551261E+03  0.24703551261E+03  0.00000000000E+00 0.  1.
         21   -1    0    0  501  502 -0.00000000000E+00 -0.00000000000E+00 -0.52920478468E+03  0.52920478468E+03  0.00000000000E+00 0. -1.
         21    1    1    2  503  504 -0.50293195800E+01 -0.45335692867E+02  0.54455699663E+02  0.71035500484E+02  0.00000000000E+00 0.  1.
         21    1    1    2  504  506 -0.61723842610E+02 -0.50710828459E+02  0.13639877362E+03  0.15806975143E+03  0.00000000000E+00 0.  1.
         21    1    1    2  505  502  0.88333366357E+01  0.56001159128E+02 -0.47333576332E+03  0.47671889254E+03  0.00000000000E+00 0. -1.
         21    1    1    2  506  505  0.57919825554E+02  0.40045362198E+02  0.31201796923E+00  0.70416152842E+02  0.00000000000E+00 0.  1.
<scales pt_clust_3="36.88661" pt_clust_4="36.88661" pt_clust_5="56.69354" pt_clust_6="99.33594"></scales>
<clustering>
<clus scale="   36.887">  3  4 -1 -1</clus>
<clus scale="   56.694">  2  5  1 -1</clus>
<clus scale="   99.336">  2  6  1 -1</clus>
<clus scale="  110.682">  1  3  2 -1</clus>
</clustering>
</event>
<event>
 6    0  0.6207838E+002  0.1197775E+03  0.7546771E-02  0.1243465E+00
         21   -1    0    0  502  501  0.00000000000E+00  0.00000000000E+00  0.36177999987E+03  0.36177999987E+03  0.00000000000E+00 0.  1.
         21   -1    0    0  505  502 -0.00000000000E+00 -0.00000000000E+00 -0.14909432841E+04  0.14909432841E+04  0.00000000000E+00 0. -1.
         21    1    1    2  503  504 -0.16819614353E+02  0.53739843562E+02 -0.83160415717E+02  0.10043169298E+03  0.00000000000E+00 0. -1.
         21    1    1    2  504  506 -0.63555089255E+02  0.55974547680E+02 -0.30346071189E+02  0.89962677788E+02  0.00000000000E+00 0.  1.
         21    1    1    2  505  503  0.30815160305E+02  0.92676446398E+01 -0.13259449967E+04  0.13263354016E+04  0.00000000000E+00 0. -1.
         21    1    1    2  506  501  0.49559543303E+02 -0.11898203588E+03  0.31028819933E+03  0.33599351160E+03  0.00000000000E+00 0.  1.
<scales pt_clust_3="58.90297" pt_clust_4="14000.00000" pt_clust_5="32.17862" pt_clust_6="119.77745"></scales>
<clustering>
<clus scale="   32.179">  2  5  1 -1</clus>
<clus scale="   58.903">  2  3  1 -1</clus>
<clus scale="  119.777">  1  6  2 -1</clus>
<clus scale="  119.777">  1  3  2 -1</clus>
</clustering>
</event>
<event>
 6    0  0.6207838E+002  0.8855412E+02  0.7546771E-02  0.1306391E+00
         21   -1    0    0  503  501  0.00000000000E+00  0.00000000000E+00  0.21388205992E+03  0.21388205992E+03  0.00000000000E+00 0.  1.
         21   -1    0    0  505  502 -0.00000000000E+00 -0.00000000000E+00 -0.31027365818E+03  0.31027365818E+03  0.00000000000E+00 0. -1.
         21    1    1    2  503  504  0.75784069087E+02 -0.31847556827E+01  0.16908933654E+01  0.75869802402E+02  0.00000000000E+00 0. -1.
         21    1    1    2  504  502  0.20305178746E+02  0.57647101777E+02  0.14078406815E+02  0.62719137157E+02  0.00000000000E+00 0.  1.
         21    1    1    2  505  506 -0.30123445318E+01 -0.35387364037E+02 -0.23083136664E+03  0.23354755314E+03  0.00000000000E+00 0. -1.
         21    1    1    2  506  501 -0.93076903301E+02 -0.19074982058E+02  0.11867046820E+03  0.15201922540E+03  0.00000000000E+00 0.  1.
<scales pt_clust_3="14000.00000" pt_clust_4="50.48753" pt_clust_5="35.51535" pt_clust_6="88.55412"></scales>
<clustering>
<clus scale="   35.515">  2  5  1 -1</clus>
<clus scale="   50.488">  2  4  1 -1</clus>
<clus scale="   88.554">  1  6  2 -1</clus>
<clus scale="   88.554">  1  3  2 -1</clus>
</clustering>
</event>
<event>
 6    0  0.6207838E+002  0.1462078E+03  0.7546771E-02  0.1205212E+00
         21   -1    0    0  503  501  0.00000000000E+00  0.00000000000E+00  0.63121202016E+03  0.63121202016E+03  0.00000000000E+00 0.  1.
         21   -1    0    0  506  502 -0.00000000000E+00 -0.00000000000E+00 -0.10090182102E+03  0.10090182102E+03  0.00000000000E+00 0.  1.
         21    1    1    2  503  502 -0.11737162714E+03 -0.13196967256E+03  0.22164480147E+03  0.28340520699E+03  0.00000000000E+00 0.  1.
         21    1    1    2  504  501 -0.97223196351E+01  0.34170115340E+02  0.22267692090E+03  0.22549308500E+03  0.00000000000E+00 0. -1.
         21    1    1    2  505  504  0.10692204380E+03  0.60991075217E+02  0.11793113443E+03  0.17046990108E+03  0.00000000000E+00 0.  1.
         21    1    1    2  506  505  0.20171902981E+02  0.36808481999E+02 -0.31942657656E+02  0.52745648115E+02  0.00000000000E+00 0.  1.
<scales pt_clust_3="146.20781" pt_clust_4="35.52633" pt_clust_5="14000.00000" pt_clust_6="42.62441"></scales>
<clustering>
<clus scale="   35.526">  1  4  2 -1</clus>
<clus scale="   42.624">  2  6  1 -1</clus>
<clus scale="  146.208">  1  3  2 -1</clus>
<clus scale="   35.526">  1  3  2 -1</clus>
</clustering>
</event>
<event>
 6    0  0.6207838E+002  0.1177308E+03  0.7546771E-02  0.1246888E+00
         21   -1    0    0  506  501  0.00000000000E+00  0.00000000000E+00  0.20480021832E+04  0.20480021832E+04  0.00000000000E+00 0. -1.
         21   -1    0    0  504  502 -0.00000000000E+00 -0.00000000000E+00 -0.65344281885E+02  0.65344281885E+02  0.00000000000E+00 0. -1.
         21    1    1    2  503  502  0.31326168307E+02  0.43059030428E+02  0.15634419634E+03  0.16516330298E+03  0.00000000000E+00 0. -1.
         21    1    1    2  504  501 -0.44627171918E+02 -0.99797489680E+02 -0.25136241448E+01  0.10935008791E+03  0.00000000000E+00 0. -1.
         21    1    1    2  505  503  0.69055365080E+02  0.17797497136E+02  0.29492994091E+03  0.30342884569E+03  0.00000000000E+00 0. -1.
         21    1    1    2  506  505 -0.55754361469E+02  0.38940962116E+02  0.15338973882E+04  0.15354042285E+04  0.00000000000E+00 0. -1.
<scales pt_clust_3="40.07014" pt_clust_4="108.21389" pt_clust_5="40.07014" pt_clust_6="68.00697"></scales>
<clustering>
<clus scale="   40.070">  3  5 -1 -1</clus>
<clus scale="   68.007">  1  6  2 -1</clus>
<clus scale="  108.214">  2  4  1 -1</clus>
<clus scale="   68.007">  1  3  2 -1</clus>
</clustering>
</event>
<event>
 6    0  0.6207838E+002  0.1060864E+03  0.7546771E-02  0.1267994E+00
         21   -1    0    0  505  501  0.00000000000E+00  0.00000000000E+00  0.56625986407E+02  0.56625986407E+02  0.00000000000E+00 0.  1.
         21   -1    0    0  501  502 -0.00000000000E+00 -0.00000000000E+00 -0.66374085959E+03  0.66374085959E+03  0.00000000000E+00 0.  1.
         21    1    1    2  503  504 -0.11121703029E+03  0.14414266724E+02 -0.36174804166E+03  0.37873294623E+03  0.00000000000E+00 0.  1.
         21    1    1    2  504  502  0.10747539290E+02  0.28992508760E+02 -0.91935549400E+02  0.96995981404E+02  0.00000000000E+00 0. -1.
         21    1    1    2  505  506 -0.44399456001E+01 -0.68215556224E+02 -0.16426953757E+02  0.70305903292E+02  0.00000000000E+00 0.  1.
         21    1    1    2  506  503  0.10490943660E+03  0.24808780740E+02 -0.13700432836E+03  0.17433201507E+03  0.00000000000E+00 0.  1.
<scales pt_clust_3="14000.00000" pt_clust_4="30.92047" pt_clust_5="66.10621" pt_clust_6="106.08641"></scales>
<clustering>
<clus scale="   30.920">  2  4  1 -1</clus>
<clus scale="   66.106">  1  5  2 -1</clus>
<clus scale="  106.086">  1  6  2 -1</clus>
<clus scale="   66.106">  1  3  2 -1</clus>
</clustering>
</event>
<event>
 6    0  0.6207838E+002  0.2166384E+03  0.7546771E-02  0.1136414E+00
         21   -1    0    0  505  501  0.00000000000E+00  0.00000000000E+00  0.27317311392E+03  0.27317311392E+03  0.00000000000E+00 0.  1.
         21   -1    0    0  503  502 -0.00000000000E+00 -0.00000000000E+00 -0.54869091600E+03  0.54869091600E+03  0.00000000000E+00 0.  1.
         21    1    1    2  503  504 -0.78468763860E+01 -0.32837260411E+02 -0.19989509608E+03  0.20272619115E+03  0.00000000000E+00 0.  1.
         21    1    1    2  504  506 -0.95571527604E+01 -0.12174837377E+03 -0.20771531021E+03  0.24095571332E+03  0.00000000000E+00 0.  1.
         21    1    1    2  505  502 -0.31894284872E+01  0.21460647780E+03  0.19415866237E+03  0.28941958977E+03  0.00000000000E+00 0.  1.
         21    1    1    2  506  501  0.20593457634E+02 -0.60020843619E+02 -0.62066058158E+02  0.88762535685E+02  0.00000000000E+00 0. -1.
<scales pt_clust_3="33.76180" pt_clust_4="36.67112" pt_clust_5="210.14734" pt_clust_6="36.67112"></scales>
<clustering>
<clus scale="   33.762">  2  3  1 -1</clus>
<clus scale="   36.671">  4  6 -1 -1</clus>
<clus scale="  210.147">  1  5  2 -1</clus>
<clus scale="  210.147">  1  3  2 -1</clus>
</clustering>
</event>
<event>
 6    0  0.6207838E+002  0.8024670E+02  0.7546771E-02  0.1328353E+00
         21   -1    0    0  503  501  0.00000000000E+00  0.00000000000E+00  0.42469191834E+03  0.42469191834E+03  0.00000000000E+00 0.  1.
         21   -1    0    0  504  502 -0.00000000000E+00 -0.00000000000E+00 -0.57059249044E+02  0.57059249044E+02  0.00000000000E+00 0.  1.
         21    1    1    2  503  506 -0.19199229003E+02  0.31673070458E+02  0.12045233268E+03  0.12601808694E+03  0.00000000000E+00 0.  1.
         21    1    1    2  504  501 -0.37835592079E+02 -0.76238145186E+02  0.12400044450E+03  0.15039912582E+03  0.00000000000E+00 0.  1.
         21    1    1    2  505  502  0.40257862662E+01  0.80246603033E+02  0.18116436709E+02  0.82364613350E+02  0.00000000000E+00 0.  1.
         21    1    1    2  506  505  0.53009034815E+02 -0.35681528305E+02  0.10506345540E+03  0.12296934128E+03  0.00000000000E+00 0.  1.
<scales pt_clust_3="37.03773" pt_clust_4="14000.00000" pt_clust_5="80.24670" pt_clust_6="51.52312"></scales>
<clustering>
<clus scale="   37.038">  1  3  2 -1</clus>
<clus scale="   51.523">  1  6  2 -1</clus>
<clus scale="   80.247">  2  5  1 -1</clus>
<clus scale="   37.038">  1  3  2 -1</clus>
</clustering>
</event>
<event>
 6    0  0.6207838E+002  0.7753377E+02  0.7546771E-02  0.1336200E+00
         21   -1    0    0  506  501  0.00000000000E+00  0.00000000000E+00  0.33656621304E+03  0.33656621304E+03  0.00000000000E+00 0. -1.
         21   -1    0    0  505  502 -0.00000000000E+00 -0.00000000000E+00 -0.16875551292E+03  0.16875551292E+03  0.00000000000E+00 0.  1.
         21    1    1    2  503  502  0.25106580564E+02  0.36565141881E+02 -0.12025526513E+03  0.12817440767E+03  0.00000000000E+00 0.  1.
         21    1    1    2  504  503  0.36068646268E+02 -0.71500184758E+02  0.34612868777E+02  0.87242617734E+02  0.00000000000E+00 0. -1.
         21    1    1    2  505  501 -0.59463149508E+02  0.77750733205E+02  0.17699555643E+03  0.20225842296E+03  0.00000000000E+00 0. -1.
         21    1    1    2  506  504 -0.17120773244E+01 -0.42815690328E+02  0.76457540048E+02  0.87646277601E+02  0.00000000000E+00 0. -1.
<scales pt_clust_3="43.79206" pt_clust_4="77.53377" pt_clust_5="14000.00000" pt_clust_6="42.84991"></scales>
<clustering>
<clus scale="   42.850">  1  6  2 -1</clus>
<clus scale="   43.792">  2  3  1 -1</clus>
<clus scale="   77.534">  2  4  1 -1</clus>
<clus scale="   42.850">  1  3  2 -1</clus>
</clustering>
</event>
<event>
 6    0  0.6207838E+002  0.2105230E+03  0.7546771E-02  0.1141152E+00
         21   -1    0    0  503  501  0.00000000000E+00  0.00000000000E+00  0.44490628779E+03  0.44490628779E+03  0.00000000000E+00 0. -1.
         21   -1    0    0  504  502 -0.00000000000E+00 -0.00000000000E+00 -0.12713347888E+04  0.12713347888E+04  0.00000000000E+00 0. -1.
         21    1    1    2  503  506 -0.76401989460E+02  0.88532045080E+02  0.28207171148E+03  0.30535166188E+03  0.00000000000E+00 0. -1.
         21    1    1    2  504  505 -0.13692083809E+02 -0.63830781329E+02 -0.80879330939E+03  0.81142372354E+03  0.00000000000E+00 0. -1.
         21    1    1    2  505  501  0.14803602560E+03 -0.92042702231E+02 -0.41720839068E+03  0.45216077358E+03  0.00000000000E+00 0. -1.
         21    1    1    2  506  502 -0.57941952333E+02  0.67341438480E+02  0.11750148756E+03  0.14730491762E+03  0.00000000000E+00 0. -1.
<scales pt_clust_3="46.89156" pt_clust_4="65.28278" pt_clust_5="203.53267" pt_clust_6="46.89156"></scales>
<clustering>
<clus scale="   46.892">  3  6 -1 -1</clus>
<clus scale="   65.283">  2  4  1 -1</clus>
<clus scale="  203.533">  2  5  1 -1</clus>
<clus scale="  210.523">  1  3  2 -1</clus>
</clustering>
</event>
<event>
 6    0  0.6207838E+002  0.1706670E+03  0.7546771E-02  0.1177154E+00
         21   -1    0    0  504  501  0.00000000000E+00  0.00000000000E+00  0.64740306654E+03  0.64740306654E+03  0.00000000000E+00 0.  1.
         21   -1    0    0  503  502 -0.00000000000E+00 -0.00000000000E+00 -0.15660760658E+03  0.15660760658E+03  0.00000000000E+00 0.  1.
         21    1    1    2  503  505  0.69699417240E+02 -0.14095730822E+03  0.17708844285E+03  0.23682754928E+03  0.00000000000E+00 0.  1.
         21    1    1    2  504  506 -0.14757217476E+02  0.66617476721E+02  0.56004622921E+02  0.88273333804E+02  0.00000000000E+00 0.  1.
         21    1    1    2  505  501  0.37577320379E+02 -0.74956718013E+02  0.28863470556E+03  0.30056706047E+03  0.00000000000E+00 0.  1.
         21    1    1    2  506  502 -0.92519520143E+02  0.14929654951E+03 -0.30932311383E+02  0.17834272957E+03  0.00000000000E+00 0.  1.
<scales pt_clust_3="170.66697" pt_clust_4="68.23242" pt_clust_5="50.68709" pt_clust_6="14000.00000"></scales>
<clustering>
<clus scale="   68.232">  1  4  2 -1</clus>
<clus scale="   50.687">  1  5  2 -1</clus>
<clus scale="  170.667">  1  3  2 -1</clus>
<clus scale="   68.232">  1  3  2 -1</clus>
</clustering>
</event>
<event>
 6    0  0.6207838E+002  0.7795347E+02  0.7546771E-02  0.1334962E+00
         21   -1    0    0  506  501  0.00000000000E+00  0.00000000000E+00  0.61564008655E+03  0.61564008655E+03  0.00000000000E+00 0.  1.
         21   -1    0    0  504  502 -0.00000000000E+00 -0.00000000000E+00 -0.44307783507E+03  0.44307783507E+03  0.00000000000E+00 0.  1.
         21    1    1    2  503  502 -0.53652293453E+02 -0.28828082015E+02 -0.13011423157E+02  0.62281008646E+02  0.00000000000E+00 0.  1.
         21    1    1    2  504  501  0.54587692092E+02  0.40725255745E+02 -0.34684844015E+03  0.35347164386E+03  0.00000000000E+00 0.  1.
         21    1    1    2  505  503 -0.64006688298E+02 -0.59169820622E+01 -0.34200604940E+02  0.72811731211E+02  0.00000000000E+00 0.  1.
         21    1    1    2  506  505  0.63071289659E+02 -0.59801916680E+01  0.56662271972E+03  0.57015353790E+03  0.00000000000E+00 0.  1.
<scales pt_clust_3="30.32009" pt_clust_4="71.45996" pt_clust_5="30.32009" pt_clust_6="63.35417"></scales>
<clustering>
<clus scale="   30.320">  3  5 -1 -1</clus>
<clus scale="   63.354">  1  6  2 -1</clus>
<clus scale="   71.460">  2  4  1 -1</clus>
<clus scale="   63.354">  1  3  2 -1</clus>
</clustering>
</event>
<event>
 6    0  0.6207838E+002  0.1333252E+03  0.7546771E-02  0.1222604E+00
         21   -1    0    0  503  501  0.00000000000E+00  0.00000000000E+00  0.30806761784E+03  0.30806761784E+03  0.00000000000E+00 0.  1.
         21   -1    0    0  506  502 -0.00000000000E+00 -0.00000000000E+00 -0.14712986700E+03  0.14712986700E+03  0.00000000000E+00 0.  1.
         21    1    1    2  503  502  0.32771856325E+02 -0.81556107739E+01  0.34709079719E+02  0.48427562080E+02  0.00000000000E+00 0. -1.
         21    1    1    2  504  501 -0.41034514424E+02 -0.20442029921E+02  0.99426640825E+02  0.10948682508E+03  0.00000000000E+00 0.  1.
         21    1    1    2  505  504 -0.57923698568E+02 -0.76014884011E+02  0.11182953988E+03  0.14710290085E+03  0.00000000000E+00 0.  1.
         21    1    1    2  506  505  0.66186356667E+02  0.10461252471E+03 -0.85027509591E+02  0.15018019683E+03  0.00000000000E+00 0.  1.
<scales pt_clust_3="33.77142" pt_clust_4="31.83303" pt_clust_5="31.83303" pt_clust_6="125.15253"></scales>
<clustering>
<clus scale="   31.833">  4  5 -1 -1</clus>
<clus scale="   33.771">  1  3  2 -1</clus>
<clus scale="  125.153">  2  6  1 -1</clus>
<clus scale="   33.771">  1  3  2 -1</clus>
</clustering>
</event>
<event>
 6    0  0.6207838E+002  0.9249009E+02  0.7546771E-02  0.1296931E+00
         21   -1    0    0  506  501  0.00000000000E+00  0.00000000000E+00  0.36603399492E+03  0.36603399492E+03  0.00000000000E+00 0. -1.
         21   -1    0    0  503  502 -0.00000000000E+00 -0.00000000000E+00 -0.31664811663E+03  0.31664811663E+03  0.00000000000E+00 0. -1.
         21    1    1    2  503  501  0.86424643688E+02  0.14687244830E+02 -0.94211601807E+02  0.12868861687E+03  0.00000000000E+00 0.  1.
         21    1    1    2  504  502 -0.82458347588E+01 -0.32548715363E+02 -0.17820235161E+03  0.18133805663E+03  0.00000000000E+00 0. -1.
         21    1    1    2  505  504 -0.13660593056E+01 -0.36789910538E+02 -0.53392452903E+00  0.36819135118E+02  0.00000000000E+00 0.  1.
         21    1    1    2  506  505 -0.76812749623E+02  0.54651381072E+02  0.32233375623E+03  0.33583630293E+03  0.00000000000E+00 0. -1.
<scales pt_clust_3="92.49009" pt_clust_4="33.57697" pt_clust_5="41.30626" pt_clust_6="14000.00000"></scales>
<clustering>
<clus scale="   33.577">  2  4  1 -1</clus>
<clus scale="   41.306">  2  5  1 -1</clus>
<clus scale="   92.490">  2  3  1 -1</clus>
<clus scale="   92.490">  1  3  2 -1</clus>
</clustering>
</event>
<event>
 6    0  0.6207838E+002  0.1300789E+03  0.7546771E-02  0.1227339E+00
         21   -1    0    0  505  501  0.00000000000E+00  0.00000000000E+00  0.62396070211E+03  0.62396070211E+03  0.00000000000E+00 0.  1.
         21   -1    0    0  503  502 -0.00000000000E+00 -0.00000000000E+00 -0.16359125868E+03  0.16359125868E+03  0.00000000000E+00 0.  1.
         21    1    1    2  503  504  0.31480889300E+02 -0.75914730473E+02 -0.11035517675E+03  0.13759490445E+03  0.00000000000E+00 0.  1.
         21    1    1    2  504  501 -0.11804349499E+03  0.12754387576E+03  0.43547659282E+03  0.46887265845E+03  0.00000000000E+00 0.  1.
         21    1    1    2  505  506  0.64620053507E+02 -0.50580272362E+01  0.98180360099E+02  0.11764658118E+03  0.00000000000E+00 0.  1.
         21    1    1    2  506  502  0.21942552182E+02 -0.46571118050E+02  0.37067667260E+02  0.63437816709E+02  0.00000000000E+00 0.  1.
<scales pt_clust_3="130.07893" pt_clust_4="14000.00000" pt_clust_5="66.53146" pt_clust_6="51.48150"></scales>
<clustering>
<clus scale="   51.481">  2  6  1 -1</clus>
<clus scale="   66.531">  1  5  2 -1</clus>
<clus scale="  130.079">  2  3  1 -1</clus>
<clus scale="   66.531">  1  3  2 -1</clus>
</clustering>
</event>
<event>
 6    0  0.6207838E+002  0.2413394E+03  0.7546771E-02  0.1118904E+00
         21   -1    0    0  506  501  0.00000000000E+00  0.00000000000E+00  0.50355140658E+03  0.50355140658E+03  0.00000000000E+00 0. -1.
         21   -1    0    0  503  502 -0.00000000000E+00 -0.00000000000E+00 -0.44012967689E+03  0.44012967689E+03  0.00000000000E+00 0. -1.
         21    1    1    2  503  504 -0.16823936296E+02  0.91285413471E+02 -0.25361906024E+03  0.27007165579E+03  0.00000000000E+00 0. -1.
         21    1    1    2  504  505 -0.15694979414E+03 -0.29635525341E+02  0.18952271911E+03  0.24785149445E+03  0.00000000000E+00 0. -1.
         21    1    1    2  505  501 -0.56069482657E+02  0.41094905764E+02  0.15755524881E+03  0.17220985626E+03  0.00000000000E+00 0. -1.
         21    1    1    2  506  502  0.22984321309E+03 -0.10274479389E+03 -0.30037177992E+02  0.25354807698E+03  0.00000000000E+00 0. -1.
<scales pt_clust_3="92.82280" pt_clust_4="67.53659" pt_clust_5="67.53659" pt_clust_6="218.55164"></scales>
<clustering>
<clus scale="   67.537">  4  5 -1 -1</clus>
<clus scale="   92.823">  2  3  1 -1</clus>
<clus scale="  218.552">  2  6  1 -1</clus>
<clus scale="  241.339">  1  3  2 -1</clus>
</clustering>
</event>
<event>
 6    0  0.6207838E+002  0.9829707E+02  0.7546771E-02  0.1283918E+00
         21   -1    0    0  503  501  0.00000000000E+00  0.00000000000E+00  0.14496281377E+04  0.14496281377E+04  0.00000000000E+00 0. -1.
         21   -1    0    0  505  502 -0.00000000000E+00 -0.00000000000E+00 -0.58682282945E+03  0.58682282945E+03  0.00000000000E+00 0.  1.
         21    1    1    2  503  506 -0.33822669513E+02 -0.48495982623E-01  0.12564713879E+04  0.12569265388E+04  0.00000000000E+00 0. -1.
         21    1    1    2  504  501  0.38977416554E+02  0.75832820347E+02 -0.58350580736E+01  0.85462878174E+02  0.00000000000E+00 0.  1.
         21    1    1    2  505  504  0.67145240623E+02 -0.20404295470E+02 -0.52485866767E+03  0.52952945116E+03  0.00000000000E+00 0.  1.
         21    1    1    2  506  502 -0.72299987664E+02 -0.55380028894E+02  0.13702764611E+03  0.16453209904E+03  0.00000000000E+00 0.  1.
<scales pt_clust_3="33.82270" pt_clust_4="14000.00000" pt_clust_5="69.78559" pt_clust_6="98.29707"></scales>
<clustering>
<clus scale="   33.823">  1  3  2 -1</clus>
<clus scale="   69.786">  2  5  1 -1</clus>
<clus scale="   98.297">  1  6  2 -1</clus>
<clus scale="   33.823">  1  3  2 -1</clus>
</clustering>
</event>
<event>
 6    0  0.6207838E+002  0.3545671E+03  0.7546771E-02  0.1060756E+00
         21   -1    0    0  504  501  0.00000000000E+00  0.00000000000E+00  0.24208631864E+03  0.24208631864E+03  0.00000000000E+00 0. -1.
         21   -1    0    0  505  502 -0.00000000000E+00 -0.00000000000E+00 -0.33730572970E+04  0.33730572970E+04  0.00000000000E+00 0. -1.
         21    1    1    2  503  501  0.26938414333E+03  0.21725514842E+02 -0.16672335922E+04  0.16889960526E+04  0.00000000000E+00 0. -1.
         21    1    1    2  504  506 -0.30414341605E+02 -0.15905266088E+03  0.15219534046E+03  0.22223006720E+03  0.00000000000E+00 0. -1.
         21    1    1    2  505  503  0.69897055144E+02 -0.19678621944E+02 -0.95424380964E+03  0.95700266181E+03  0.00000000000E+00 0. -1.
         21    1    1    2  506  502 -0.30886685687E+03  0.15700576799E+03 -0.66168891689E+03  0.74691483396E+03  0.00000000000E+00 0. -1.
<scales pt_clust_3="61.44010" pt_clust_4="161.93450" pt_clust_5="61.44010" pt_clust_6="334.16809"></scales>
<clustering>
<clus scale="   61.440">  3  5 -1 -1</clus>
<clus scale="  161.934">  1  4  2 -1</clus>
<clus scale="  334.168">  1  6  2 -1</clus>
<clus scale="  161.934">  1  3  2 -1</clus>
</clustering>
</event>
<event>
 6    0  0.6207838E+002  0.8384386E+02  0.7546771E-02  0.1318484E+00
         21   -1    0    0  505  501  0.00000000000E+00  0.00000000000E+00  0.33187302202E+03  0.33187302202E+03  0.00000000000E+00 0.  1.
         21   -1    0    0  503  502 -0.00000000000E+00 -0.00000000000E+00 -0.50246529512E+03  0.50246529512E+03  0.00000000000E+00 0. -1.
         21    1    1    2  503  501 -0.20915793365E+02 -0.11979387464E+03 -0.20327123410E+03  0.23686966338E+03  0.00000000000E+00 0.  1.
         21    1    1    2  504  506  0.11381653026E+02  0.49030834691E+02  0.10401788740E+03  0.11555641772E+03  0.00000000000E+00 0.  1.
         21    1    1    2  505  504  0.20164259870E+02  0.31151413954E+02  0.20206761408E+03  0.20544665640E+03  0.00000000000E+00 0.  1.
         21    1    1    2  506  502 -0.10630119531E+02  0.39611625999E+02 -0.27340654047E+03  0.27646557964E+03  0.00000000000E+00 0. -1.
<scales pt_clust_3="14000.00000" pt_clust_4="83.84386" pt_clust_5="37.10806" pt_clust_6="41.31128"></scales>
<clustering>
<clus scale="   37.108">  1  5  2 -1</clus>
<clus scale="   41.311">  2  6  1 -1</clus>
<clus scale="   83.844">  1  4  2 -1</clus>
<clus scale="   37.108">  1  3  2 -1</clus>
</clustering>
</event>
<event>
 6    0  0.2486146E+003  0.1577149E+03  0.7546771E-02  0.1191301E+00
         21   -1    0    0  506  501  0.00000000000E+00  0.00000000000E+00  0.12859023205E+04  0.12859023205E+04  0.00000000000E+00 0. -1.
         21   -1    0    0  505  502 -0.00000000000E+00 -0.00000000000E+00 -0.51447312010E+03  0.51447312010E+03  0.00000000000E+00 0.  1.
         21    1    1    2  503  501  0.78874862642E+02  0.19200114190E+02  0.37101976875E+03  0.37979673135E+03  0.00000000000E+00 0. -1.
         21    1    1    2  504  502  0.23919679626E+02  0.54623922155E+02  0.74791801390E+02  0.95654260230E+02  0.00000000000E+00 0. -1.
         21    1    1    2  505  503 -0.15106220795E+03 -0.53801429500E+02 -0.48592529602E+03  0.51170086750E+03  0.00000000000E+00 0.  1.
         21    1    1    2  506  504  0.48267665681E+02 -0.20022606844E+02  0.81154292627E+03  0.81322358150E+03  0.00000000000E+00 0. -1.
<scales pt_clust_3="14000.00000" pt_clust_4="60.54976" pt_clust_5="157.71492" pt_clust_6="52.25584"></scales>
<clustering>
<clus scale="   52.256">  1  6  2 -1</clus>
<clus scale="   60.550">  1  4  2 -1</clus>
<clus scale="  157.715">  2  5  1 -1</clus>
<clus scale="   52.256">  1  3  2 -1</clus>
</clustering>
</event>
<event>
 6    0  0.6207838E+002  0.1909410E+03  0.7546771E-02  0.1157615E+00
         21   -1    0    0  506  501  0.00000000000E+00  0.00000000000E+00  0.13260687315E+04  0.13260687315E+04  0.00000000000E+00 0.  1.
         21   -1    0    0  504  502 -0.00000000000E+00 -0.00000000000E+00 -0.55496310068E+03  0.55496310068E+03  0.00000000000E+00 0. -1.
         21    1    1    2  503  502  0.30487753049E+02  0.11909374275E+02 -0.23372947402E+03  0.23601017628E+03  0.00000000000E+00 0. -1.
         21    1    1    2  504  501 -0.10673158457E+03 -0.14082728825E+03  0.12967687330E+04  0.13087524988E+04  0.00000000000E+00 0.  1.
         21    1    1    2  505  503  0.42698558427E+02  0.95223737182E+02 -0.25666781419E+03  0.27707236213E+03  0.00000000000E+00 0. -1.
         21    1    1    2  506  505  0.33545273091E+02  0.33694176792E+02 -0.35265813979E+02  0.59196794948E+02  0.00000000000E+00 0.  1.
<scales pt_clust_3="32.73127" pt_clust_4="176.18092" pt_clust_5="47.42448" pt_clust_6="47.42448"></scales>
<clustering>
<clus scale="   32.731">  2  3  1 -1</clus>
<clus scale="   47.424">  5  6 -1 -1</clus>
<clus scale="  176.181">  1  4  2 -1</clus>
<clus scale="  176.181">  1  3  2 -1</clus>
</clustering>
</event>
<event>
 6    0  0.6207838E+002  0.1086640E+03  0.7546771E-02  0.1263064E+00
         21   -1    0    0  502  501  0.00000000000E+00  0.00000000000E+00  0.24529623564E+02  0.24529623564E+02  0.00000000000E+00 0. -1.
         21   -1    0    0  505  502 -0.00000000000E+00 -0.00000000000E+00 -0.29006468791E+04  0.29006468791E+04  0.00000000000E+00 0. -1.
         21    1    1    2  503  504 -0.30409047653E+02 -0.69598098607E+02 -0.29391867113E+03  0.30357336963E+03  0.00000000000E+00 0. -1.
         21    1    1    2  504  501 -0.37183765545E+01 -0.74433403541E+02 -0.72864534839E+02  0.10422762745E+03  0.00000000000E+00 0. -1.
         21    1    1    2  505  506 -0.41094967267E+02  0.36605228265E+02 -0.12546066588E+04  0.12558131260E+04  0.00000000000E+00 0. -1.
         21    1    1    2  506  503  0.75222391474E+02  0.10742627388E+03 -0.12547273907E+04  0.12615623796E+04  0.00000000000E+00 0. -1.
<scales pt_clust_3="108.66399" pt_clust_4="72.70578" pt_clust_5="55.03398" pt_clust_6="14000.00000"></scales>
<clustering>
<clus scale="   55.034">  2  5  1 -1</clus>
<clus scale="   72.706">  1  4  2 -1</clus>
<clus scale="  108.664">  1  3  2 -1</clus>
<clus scale="   72.706">  1  3  2 -1</clus>
</clustering>
</event>
<event>
 6    0  0.6207838E+002  0.1459476E+03  0.7546771E-02  0.1205543E+00
         21   -1    0    0  504  501  0.00000000000E+00  0.00000000000E+00  0.14633344653E+03  0.14633344653E+03  0.00000000000E+00 0. -1.
         21   -1    0    0  506  502 -0.00000000000E+00 -0.00000000000E+00 -0.66990952523E+03  0.66990952523E+03  0.00000000000E+00 0. -1.
         21    1    1    2  503  505 -0.28029543723E+02 -0.61478034925E+02 -0.48647253077E+02  0.83257187867E+02  0.00000000000E+00 0. -1.
         21    1    1    2  504  503  0.43944051087E+02  0.12451511723E+03  0.70185917631E+02  0.14953647408E+03  0.00000000000E+00 0. -1.
         21    1    1    2  505  502 -0.49145329472E+02 -0.10250696611E+03 -0.16815882337E+03  0.20297864761E+03  0.00000000000E+00 0. -1.
         21    1    1    2  506  501  0.33230822107E+02  0.39469883799E+02 -0.37695591988E+03  0.38047066221E+03  0.00000000000E+00 0. -1.
<scales pt_clust_3="35.15247" pt_clust_4="138.64221" pt_clust_5="35.15247" pt_clust_6="51.59612"></scales>
<clustering>
<clus scale="   35.152">  3  5 -1 -1</clus>
<clus scale="   51.596">  2  6  1 -1</clus>
<clus scale="  138.642">  1  4  2 -1</clus>
<clus scale="  138.642">  1  3  2 -1</clus>
</clustering>
</event>
<event>
 6    0  0.6207838E+002  0.7782407E+02  0.7546771E-02  0.1335342E+00
         21   -1    0    0  502  501  0.00000000000E+00  0.00000000000E+00  0.54288339845E+02  0.54288339845E+02  0.00000000000E+00 0.  1.
         21   -1    0    0  506  502 -0.00000000000E+00 -0.00000000000E+00 -0.92419481229E+03  0.92419481229E+03  0.00000000000E+00 0.  1.
         21    1    1    2  503  505 -0.79560274801E+02 -0.17139489547E+02 -0.10829344854E+03  0.13546612280E+03  0.00000000000E+00 0.  1.
         21    1    1    2  504  501  0.59767361099E+00  0.43372240988E+02  0.12977291498E+02  0.45276026733E+02  0.00000000000E+00 0.  1.
         21    1    1    2  505  504  0.11239952192E+02 -0.64432841558E+02 -0.10537196807E+03  0.12402088232E+03  0.00000000000E+00 0.  1.
         21    1    1    2  506  503  0.67722648998E+02  0.38200090117E+02 -0.66921834733E+03  0.67372012029E+03  0.00000000000E+00 0.  1.
<scales pt_clust_3="77.82407" pt_clust_4="43.37636" pt_clust_5="49.69953" pt_clust_6="14000.00000"></scales>
<clustering>
<clus scale="   43.376">  1  4  2 -1</clus>
<clus scale="   49.700">  1  5  2 -1</clus>
<clus scale="   77.824">  1  3  2 -1</clus>
<clus scale="   43.376">  1  3  2 -1</clus>
</clustering>
</event>
<event>
 6    0  0.6207838E+002  0.1517383E+03  0.7546771E-02  0.1198353E+00
         21   -1    0    0  503  501  0.00000000000E+00  0.00000000000E+00  0.32775842151E+03  0.32775842151E+03  0.00000000000E+00 0. -1.
         21   -1    0    0  505  502 -0.00000000000E+00 -0.00000000000E+00 -0.24042706847E+03  0.24042706847E+03  0.00000000000E+00 0.  1.
         21    1    1    2  503  506  0.82746879019E+02  0.50358203749E+02  0.16215078628E+03  0.18888057646E+03  0.00000000000E+00 0. -1.
         21    1    1    2  504  501 -0.17046978131E+03 -0.57610378255E+02 -0.71752180100E+02  0.19371958438E+03  0.00000000000E+00 0.  1.
         21    1    1    2  505  504 -0.39434673726E+02  0.35289304334E+02 -0.14508168090E+02  0.54871809097E+02  0.00000000000E+00 0. -1.
         21    1    1    2  506  502  0.12715757602E+03 -0.28037129828E+02  0.11440914953E+02  0.13071352004E+03  0.00000000000E+00 0. -1.
<scales pt_clust_3="95.92575" pt_clust_4="151.73831" pt_clust_5="52.91907" pt_clust_6="14000.00000"></scales>
<clustering>
<clus scale="   52.919">  2  5  1 -1</clus>
<clus scale="   95.926">  1  3  2 -1</clus>
<clus scale="  151.738">  1  4  2 -1</clus>
<clus scale="   95.926">  1  3  2 -1</clus>
</clustering>
</event>
<event>
 6    0  0.6207838E+002  0.7766988E+02  0.7546771E-02  0.1335797E+00
         21   -1    0    0  504  501  0.00000000000E+00  0.00000000000E+00  0.52192382281E+03  0.52192382281E+03  0.00000000000E+00 0. -1.
         21   -1    0    0  506  502 -0.00000000000E+00 -0.00000000000E+00 -0.10378432379E+03  0.10378432379E+03  0.00000000000E+00 0. -1.
         21    1    1    2  503  502  0.58609486540E+02 -0.64926819793E+01 -0.70786235255E+02  0.92129897065E+02  0.00000000000E+00 0. -1.
         21    1    1    2  504  505  0.30745041172E+02 -0.62622105414E+02  0.17733510590E+03  0.19056370438E+03  0.00000000000E+00 0. -1.
         21    1    1    2  505  503 -0.47060675278E+02  0.81431294730E+02  0.16471692545E+03  0.18967716902E+03  0.00000000000E+00 0. -1.
         21    1    1    2  506  501 -0.42293852434E+02 -0.12316507337E+02  0.14687370293E+03  0.15333737613E+03  0.00000000000E+00 0. -1.
<scales pt_clust_3="57.80245" pt_clust_4="14000.00000" pt_clust_5="77.66988" pt_clust_6="44.05072"></scales>
<clustering>
<clus scale="   44.051">  1  6  2 -1</clus>
<clus scale="   57.802">  2  3  1 -1</clus>
<clus scale="   77.670">  2  5  1 -1</clus>
<clus scale="   44.051">  1  3  2 -1</clus>
</clustering>
</event>
<event>
 6    0  0.6207838E+002  0.1277506E+03  0.7546771E-02  0.1230832E+00
         21   -1    0    0  503  501  0.00000000000E+00  0.00000000000E+00  0.23358884138E+03  0.23358884138E+03  0.00000000000E+00 0. -1.
         21   -1    0    0  506  502 -0.00000000000E+00 -0.00000000000E+00 -0.10026101943E+03  0.10026101943E+03  0.00000000000E+00 0. -1.
         21    1    1    2  503  502  0.10795762071E+03  0.95238701669E+01  0.86485858980E+02  0.13865552919E+03  0.00000000000E+00 0. -1.
         21    1    1    2  504  505 -0.86371041440E+02 -0.58617670613E+00  0.65215966019E+02  0.10822856659E+03  0.00000000000E+00 0. -1.
         21    1    1    2  505  501 -0.45858175771E+02  0.15446758493E+02 -0.94770572629E+00  0.48399098949E+02  0.00000000000E+00 0. -1.
         21    1    1    2  506  504  0.24271596503E+02 -0.24384451954E+02 -0.17426297327E+02  0.38566666079E+02  0.00000000000E+00 0. -1.
<scales pt_clust_3="116.72101" pt_clust_4="36.00577" pt_clust_5="36.00577" pt_clust_6="34.40511"></scales>
<clustering>
<clus scale="   34.405">  2  6  1 -1</clus>
<clus scale="   36.006">  4  5 -1 -1</clus>
<clus scale="  116.721">  1  3  2 -1</clus>
<clus scale="  116.721">  1  3  2 -1</clus>
</clustering>
</event>
<event>
 6    0  0.6207838E+002  0.2356086E+03  0.7546771E-02  0.1122753E+00
         21   -1    0    0  504  501  0.00000000000E+00  0.00000000000E+00  0.23105706467E+03  0.23105706467E+03  0.00000000000E+00 0.  1.
         21   -1    0    0  503  502 -0.00000000000E+00 -0.00000000000E+00 -0.41864565101E+03  0.41864565101E+03  0.00000000000E+00 0.  1.
         21    1    1    2  503  501 -0.27947367013E+02 -0.14088512301E+03 -0.71569732032E+02  0.16047398466E+03  0.00000000000E+00 0.  1.
         21    1    1    2  504  506  0.15605866884E+03  0.12696193772E+03  0.54148221991E+02  0.20834027862E+03  0.00000000000E+00 0.  1.
         21    1    1    2  505  502 -0.16374237991E+03 -0.30430974619E+02 -0.12903160486E+03  0.21068167041E+03  0.00000000000E+00 0.  1.
         21    1    1    2  506  505  0.35631078084E+02  0.44354159907E+02 -0.41135471439E+02  0.70206781988E+02  0.00000000000E+00 0.  1.
<scales pt_clust_3="143.63034" pt_clust_4="56.59220" pt_clust_5="210.20567" pt_clust_6="56.59220"></scales>
<clustering>
<clus scale="   56.592">  4  6 -1 -1</clus>
<clus scale="  143.630">  2  3  1 -1</clus>
<clus scale="  210.206">  2  5  1 -1</clus>
<clus scale="  235.609">  1  3  2 -1</clus>
</clustering>
</event>
<event>
 6    0  0.6207838E+002  0.6171840E+02  0.7546771E-02  0.1390759E+00
         21   -1    0    0  504  501  0.00000000000E+00  0.00000000000E+00  0.14160654292E+03  0.14160654292E+03  0.00000000000E+00 0. -1.
         21   -1    0    0  505  502 -0.00000000000E+00 -0.00000000000E+00 -0.31171906119E+04  0.31171906119E+04  0.00000000000E+00 0.  1.
         21    1    1    2  503  502 -0.31420142751E+02 -0.61996610090E+02 -0.49585847029E+03  0.50070592926E+03  0.00000000000E+00 0. -1.
         21    1    1    2  504  503 -0.52203203276E+02 -0.32598531302E+02  0.12999589433E+03  0.14382896516E+03  0.00000000000E+00 0. -1.
         21    1    1    2  505  506  0.21272695666E+02  0.34054214924E+02 -0.16819629295E+04  0.16824421278E+04  0.00000000000E+00 0.  1.
         21    1    1    2  506  501  0.62350650361E+02  0.60540926468E+02 -0.92775856352E+03  0.93182013262E+03  0.00000000000E+00 0.  1.
<scales pt_clust_3="55.63098" pt_clust_4="61.71840" pt_clust_5="40.15242" pt_clust_6="14000.00000"></scales>
<clustering>
<clus scale="   40.152">  2  5  1 -1</clus>
<clus scale="   55.631">  2  3  1 -1</clus>
<clus scale="   61.718">  1  4  2 -1</clus>
<clus scale="   61.718">  1  3  2 -1</clus>
</clustering>
</event>
<event>
 6    0  0.6207838E+002  0.8082601E+02  0.7546771E-02  0.1326724E+00
         21   -1    0    0  506  501  0.00000000000E+00  0.00000000000E+00  0.30073942839E+03  0.30073942839E+03  0.00000000000E+00 0. -1.
         21   -1    0    0  505  502 -0.00000000000E+00 -0.00000000000E+00 -0.69723840413E+03  0.69723840413E+03  0.00000000000E+00 0. -1.
         21    1    1    2  503  504  0.53361319057E+02 -0.76486148900E+02 -0.43975471100E+02  0.10310869703E+03  0.00000000000E+00 0.  1.
         21    1    1    2  504  501 -0.18247738984E+02  0.39310948163E+02  0.24592232002E+03  0.24971207040E+03  0.00000000000E+00 0. -1.
         21    1    1    2  505  503  0.15796222652E+02 -0.54353405947E+02 -0.49404181353E+03  0.49727369416E+03  0.00000000000E+00 0. -1.
         21    1    1    2  506  502 -0.50909802725E+02  0.91528606684E+02 -0.10440401112E+03  0.14788337092E+03  0.00000000000E+00 0.  1.
<scales pt_clust_3="80.82601" pt_clust_4="43.33971" pt_clust_5="55.29447" pt_clust_6="14000.00000"></scales>
<clustering>
<clus scale="   43.340">  1  4  2 -1</clus>
<clus scale="   55.294">  2  5  1 -1</clus>
<clus scale="   80.826">  1  3  2 -1</clus>
<clus scale="   43.340">  1  3  2 -1</clus>
</clustering>
</event>
<event>
 6    0  0.6207838E+002  0.1290798E+03  0.7546771E-02  0.1228828E+00
         21   -1    0    0  506  501  0.00000000000E+00  0.00000000000E+00  0.20421116409E+02  0.20421116409E+02  0.00000000000E+00 0. -1.
         21   -1    0    0  503  502 -0.00000000000E+00 -0.00000000000E+00 -0.28360015016E+04  0.28360015016E+04  0.00000000000E+00 0. -1.
         21    1    1    2  503  504  0.91099030304E+02  0.20883532015E+02 -0.11728843921E+04  0.11766022916E+04  0.00000000000E+00 0. -1.
         21    1    1    2  504  505 -0.45478763071E+02 -0.30417260930E+02 -0.42714380328E+03  0.43063366837E+03  0.00000000000E+00 0. -1.
         21    1    1    2  505  501 -0.35701207208E+02 -0.10581118535E+03 -0.98389390744E+03  0.99021098976E+03  0.00000000000E+00 0. -1.
         21    1    1    2  506  502 -0.99190600254E+01  0.11534491427E+03 -0.23165828236E+03  0.25897566833E+03  0.00000000000E+00 0. -1.
<scales pt_clust_3="93.46205" pt_clust_4="35.85377" pt_clust_5="35.85377" pt_clust_6="118.48147"></scales>
<clustering>
<clus scale="   35.854">  4  5 -1 -1</clus>
<clus scale="   93.462">  2  3  1 -1</clus>
<clus scale="  118.481">  1  6  2 -1</clus>
<clus scale="  118.481">  1  3  2 -1</clus>
</clustering>
</event>
<event>
 6    0  0.6207838E+002  0.1868610E+03  0.7546771E-02  0.1161323E+00
         21   -1    0    0  505  501  0.00000000000E+00  0.00000000000E+00  0.27281508604E+03  0.27281508604E+03  0.00000000000E+00 0. -1.
         21   -1    0    0  504  502 -0.00000000000E+00 -0.00000000000E+00 -0.82553772551E+03  0.82553772551E+03  0.00000000000E+00 0. -1.
         21    1    1    2  503  501 -0.15257186590E+03  0.13084724748E+02  0.10005962334E+03  0.18292433548E+03  0.00000000000E+00 0. -1.
         21    1    1    2  504  506  0.82408143811E+02  0.62478585878E+02 -0.67726282094E+03  0.68511284069E+03  0.00000000000E+00 0. -1.
         21    1    1    2  505  502  0.12887063415E+03 -0.54327486930E+02 -0.34914064248E+02  0.14414613441E+03  0.00000000000E+00 0. -1.
         21    1    1    2  506  503 -0.58706912060E+02 -0.21235823695E+02  0.59394622367E+02  0.86169500972E+02  0.00000000000E+00 0. -1.
<scales pt_clust_3="30.49258" pt_clust_4="103.41507" pt_clust_5="180.65538" pt_clust_6="30.49258"></scales>
<clustering>
<clus scale="   30.493">  3  6 -1 -1</clus>
<clus scale="  103.415">  2  4  1 -1</clus>
<clus scale="  180.655">  2  5  1 -1</clus>
<clus scale="  186.861">  1  3  2 -1</clus>
</clustering>
</event>
<event>
 6    0  0.6207838E+002  0.1435821E+03  0.7546771E-02  0.1208589E+00
         21   -1    0    0  506  501  0.00000000000E+00  0.00000000000E+00  0.94680271980E+03  0.94680271980E+03  0.00000000000E+00 0.  1.
         21   -1    0    0  504  502 -0.00000000000E+00 -0.00000000000E+00 -0.34139108398E+03  0.34139108398E+03  0.00000000000E+00 0.  1.
         21    1    1    2  503  505 -0.19778854362E+02  0.40201044905E+02  0.89589259209E+01  0.45690146038E+02  0.00000000000E+00 0.  1.
         21    1    1    2  504  501  0.33245759254E+02  0.31371819150E+02 -0.25046947151E+03  0.25460641725E+03  0.00000000000E+00 0.  1.
         21    1    1    2  505  502 -0.44095728150E+02  0.62830816328E+02 -0.42578396439E+02  0.87778497166E+02  0.00000000000E+00 0.  1.
         21    1    1    2  506  503  0.30628823258E+02 -0.13440368038E+03  0.88950057785E+03  0.90011874334E+03  0.00000000000E+00 0.  1.
<scales pt_clust_3="34.06461" pt_clust_4="45.71074" pt_clust_5="34.06461" pt_clust_6="136.48348"></scales>
<clustering>
<clus scale="   34.065">  3  5 -1 -1</clus>
<clus scale="   45.711">  2  4  1 -1</clus>
<clus scale="  136.483">  1  6  2 -1</clus>
<clus scale="  136.483">  1  3  2 -1</clus>
</clustering>
</event>
<event>
 6    0  0.6207838E+002  0.1168153E+03  0.7546771E-02  0.1248445E+00
         21   -1    0    0  504  501  0.00000000000E+00  0.00000000000E+00  0.10465670326E+04  0.10465670326E+04  0.00000000000E+00 0.  1.
         21   -1    0    0  503  502 -0.00000000000E+00 -0.00000000000E+00 -0.50903597845E+02  0.50903597845E+02  0.00000000000E+00 0. -1.
         21    1    1    2  503  501  0.31642902878E+02  0.14057680423E+03  0.29165989714E+03  0.32531309040E+03  0.00000000000E+00 0.  1.
         21    1    1    2  504  505  0.37443045877E+02  0.10740172512E+01  0.49640978444E+03  0.49782106152E+03  0.00000000000E+00 0.  1.
         21    1    1    2  505  506 -0.48802819020E+01 -0.52230101321E+02  0.12847024261E+03  0.13876744529E+03  0.00000000000E+00 0. -1.
         21    1    1    2  506  502 -0.64205666853E+02 -0.89420720157E+02  0.79123510568E+02  0.13556903324E+03  0.00000000000E+00 0. -1.
<scales pt_clust_3="116.81528" pt_clust_4="37.45845" pt_clust_5="52.14040" pt_clust_6="14000.00000"></scales>
<clustering>
<clus scale="   37.458">  1  4  2 -1</clus>
<clus scale="   52.140">  1  5  2 -1</clus>
<clus scale="  116.815">  1  3  2 -1</clus>
<clus scale="   37.458">  1  3  2 -1</clus>
</clustering>
</event>
<event>
 6    0  0.6207838E+002  0.1182857E+03  0.7546771E-02  0.1245952E+00
         21   -1    0    0  506  501  0.00000000000E+00  0.00000000000E+00  0.17771816887E+03  0.17771816887E+03  0.00000000000E+00 0. -1.
         21   -1    0    0  501  502 -0.00000000000E+00 -0.00000000000E+00 -0.10476302447E+03  0.10476302447E+03  0.00000000000E+00 0. -1.
         21    1    1    2  503  504  0.31939103128E+02 -0.32158617793E+02  0.24917107308E+01  0.45392638493E+02  0.00000000000E+00 0. -1.
         21    1    1    2  504  505 -0.11146272540E+03  0.47886118544E+02  0.95096839418E+01  0.12168588082E+03  0.00000000000E+00 0. -1.
         21    1    1    2  505  502  0.28537543724E+02  0.17010884939E+02  0.63235902821E+01  0.33819364309E+02  0.00000000000E+00 0. -1.
         21    1    1    2  506  503  0.50986078544E+02 -0.32738385691E+02  0.54630159446E+02  0.81583309715E+02  0.00000000000E+00 0. -1.
<scales pt_clust_3="36.69206" pt_clust_4="110.54293" pt_clust_5="33.22291" pt_clust_6="36.69206"></scales>
<clustering>
<clus scale="   33.223">  2  5  1 -1</clus>
<clus scale="   36.692">  3  6 -1 -1</clus>
<clus scale="  110.543">  2  4  1 -1</clus>
<clus scale="  118.286">  1  3  2 -1</clus>
</clustering>
</event>
<event>
 6    0  0.6207838E+002  0.9373923E+02  0.7546771E-02  0.1294041E+00
         21   -1    0    0  503  501  0.00000000000E+00  0.00000000000E+00  0.88641702542E+02  0.88641702542E+02  0.00000000000E+00 0.  1.
         21   -1    0    0  505  502 -0.00000000000E+00 -0.00000000000E+00 -0.57729745835E+03  0.57729745835E+03  0.00000000000E+00 0.  1.
         21    1    1    2  503  506  0.15690087273E+02  0.58455829036E+02 -0.35876343225E+02  0.70358899865E+02  0.00000000000E+00 0.  1.
         21    1    1    2  504  501  0.14610974178E+02 -0.67123250475E+02  0.56444832612E+01  0.68926566083E+02  0.00000000000E+00 0.  1.
         21    1    1    2  505  504 -0.15758142977E+02 -0.60503104853E+02 -0.45130294991E+03  0.45561310052E+03  0.00000000000E+00 0.  1.
         21    1    1    2  506  502 -0.14542918475E+02  0.69170526291E+02 -0.71209459325E+01  0.71040594424E+02  0.00000000000E+00 0.  1.
<scales pt_clust_3="39.85759" pt_clust_4="83.25740" pt_clust_5="62.52155" pt_clust_6="39.85759"></scales>
<clustering>
<clus scale="   39.858">  3  6 -1 -1</clus>
<clus scale="   62.522">  2  5  1 -1</clus>
<clus scale="   83.257">  1  4  2 -1</clus>
<clus scale="   83.257">  1  3  2 -1</clus>
</clustering>
</event>
<event>
 6    0  0.6207838E+002  0.1271472E+03  0.7546771E-02  0.1231751E+00
         21   -1    0    0  505  501  0.00000000000E+00  0.00000000000E+00  0.12458485096E+03  0.12458485096E+03  0.00000000000E+00 0. -1.
         21   -1    0    0  506  502 -0.00000000000E+00 -0.00000000000E+00 -0.10000272661E+04  0.10000272661E+04  0.00000000000E+00 0. -1.
         21    1    1    2  503  502 -0.34949568175E+02  0.28803498972E+02 -0.61819012339E+03  0.61984687022E+03  0.00000000000E+00 0. -1.
         21    1    1    2  504  501  0.13755225960E+03 -0.40409362264E+02  0.56836922455E+02  0.15422054478E+03  0.00000000000E+00 0. -1.
         21    1    1    2  505  503 -0.36963197894E+02  0.49372851920E+02 -0.22654810817E+03  0.23479353019E+03  0.00000000000E+00 0. -1.
         21    1    1    2  506  504 -0.65639493530E+02 -0.37766988628E+02 -0.87541106040E+02  0.11575117186E+03  0.00000000000E+00 0. -1.
<scales pt_clust_3="45.28922" pt_clust_4="14000.00000" pt_clust_5="127.14722" pt_clust_6="80.77427"></scales>
<clustering>
<clus scale="   45.289">  2  3  1 -1</clus>
<clus scale="   80.774">  2  6  1 -1</clus>
<clus scale="  127.147">  2  5  1 -1</clus>
<clus scale="  127.147">  1  3  2 -1</clus>
</clustering>
</event>
<event>
 6    0  0.6207838E+002  0.1723862E+03  0.7546771E-02  0.1175382E+00
         21   -1    0    0  506  501  0.00000000000E+00  0.00000000000E+00  0.38758893990E+03  0.38758893990E+03  0.00000000000E+00 0.  1.
         21   -1    0    0  503  502 -0.00000000000E+00 -0.00000000000E+00 -0.51024122075E+03  0.51024122075E+03  0.00000000000E+00 0.  1.
         21    1    1    2  503  501 -0.88203629157E+02 -0.84750006059E+02 -0.12387944387E+02  0.12294675632E+03  0.00000000000E+00 0.  1.
         21    1    1    2  504  502 -0.17196965384E+03 -0.26776941004E+02 -0.29491210012E+03  0.34243789687E+03  0.00000000000E+00 0.  1.
         21    1    1    2  505  504  0.12956383959E+03  0.16748980711E+03  0.16640346061E+02  0.21240650915E+03  0.00000000000E+00 0.  1.
         21    1    1    2  506  505  0.13060944341E+03 -0.55962860048E+02  0.16800741759E+03  0.22003899832E+03  0.00000000000E+00 0.  1.
<scales pt_clust_3="122.32107" pt_clust_4="14000.00000" pt_clust_5="172.38617" pt_clust_6="131.82257"></scales>
<clustering>
<clus scale="  122.321">  1  3  2 -1</clus>
<clus scale="  131.823">  1  6  2 -1</clus>
<clus scale="  172.386">  1  5  2 -1</clus>
<clus scale="  122.321">  1  3  2 -1</clus>
</clustering>
</event>
<event>
 6    0  0.6207838E+002  0.9687028E+02  0.7546771E-02  0.1287018E+00
         21   -1    0    0  503  501  0.00000000000E+00  0.00000000000E+00  0.12980738074E+04  0.12980738074E+04  0.00000000000E+00 0.  1.
         21   -1    0    0  505  502 -0.00000000000E+00 -0.00000000000E+00 -0.55348064152E+02  0.55348064152E+02  0.00000000000E+00 0.  1.
         21    1    1    2  503  502  0.62256453156E+02  0.45764415711E+02  0.81485282896E+02  0.11229469726E+03  0.00000000000E+00 0.  1.
         21    1    1    2  504  506  0.84009452537E+02 -0.40005204108E+02  0.31117068297E+03  0.32478484941E+03  0.00000000000E+00 0.  1.
         21    1    1    2  505  504 -0.44250062875E+02 -0.34827693926E+00 -0.13877157092E+02  0.46376339337E+02  0.00000000000E+00 0.  1.
         21    1    1    2  506  501 -0.10201584282E+03 -0.54109346635E+01  0.86394693443E+03  0.86996598549E+03  0.00000000000E+00 0.  1.
<scales pt_clust_3="57.58527" pt_clust_4="96.87028" pt_clust_5="44.25143" pt_clust_6="14000.00000"></scales>
<clustering>
<clus scale="   44.251">  2  5  1 -1</clus>
<clus scale="   57.585">  2  3  1 -1</clus>
<clus scale="   96.870">  2  4  1 -1</clus>
<clus scale="   96.870">  1  3  2 -1</clus>
</clustering>
</event>
<event>
 6    0  0.6207838E+002  0.9028592E+02  0.7546771E-02  0.1302161E+00
         21   -1    0    0  506  501  0.00000000000E+00  0.00000000000E+00  0.25212814144E+03  0.25212814144E+03  0.00000000000E+00 0. -1.
         21   -1    0    0  505  502 -0.00000000000E+00 -0.00000000000E+00 -0.13057668611E+03  0.13057668611E+03  0.00000000000E+00 0. -1.
         21    1    1    2  503  501 -0.17166993974E+02 -0.37363946004E+02  0.88691280612E+02  0.97759467059E+02  0.00000000000E+00 0. -1.
         21    1    1    2  504  503 -0.52124026859E+02  0.10042060489E+03  0.10114922942E+03  0.15176422067E+03  0.00000000000E+00 0. -1.
         21    1    1    2  505  504  0.43766729730E+01 -0.34022100348E+02  0.41050839179E+00  0.34304913577E+02  0.00000000000E+00 0. -1.
         21    1    1    2  506  502  0.64914347860E+02 -0.29034558538E+02 -0.68699563090E+02  0.98876226244E+02  0.00000000000E+00 0. -1.
<scales pt_clust_3="42.28588" pt_clust_4="14000.00000" pt_clust_5="34.30246" pt_clust_6="90.28592"></scales>
<clustering>
<clus scale="   34.302">  2  5  1 -1</clus>
<clus scale="   42.286">  1  3  2 -1</clus>
<clus scale="   90.286">  2  6  1 -1</clus>
<clus scale="   42.286">  1  3  2 -1</clus>
</clustering>
</event>
<event>
 6    0  0.6207838E+002  0.2237060E+03  0.7546771E-02  0.1131150E+00
         21   -1    0    0  505  501  0.00000000000E+00  0.00000000000E+00  0.90012398362E+03  0.90012398362E+03  0.00000000000E+00 0.  1.
         21   -1    0    0  503  502 -0.00000000000E+00 -0.00000000000E+00 -0.48003122916E+03  0.48003122916E+03  0.00000000000E+00 0. -1.
         21    1    1    2  503  501  0.12917365118E+03  0.17462036398E+03 -0.36982183307E+03  0.42888960339E+03  0.00000000000E+00 0. -1.
         21    1    1    2  504  506 -0.66898911751E+02 -0.10947691258E+03  0.60874213121E+02  0.14200819907E+03  0.00000000000E+00 0.  1.
         21    1    1    2  505  504 -0.33533343385E+02  0.53446174097E+02  0.67130755894E+03  0.67426613243E+03  0.00000000000E+00 0.  1.
         21    1    1    2  506  502 -0.28741396044E+02 -0.11858962550E+03  0.57732815464E+02  0.13499127788E+03  0.00000000000E+00 0.  1.
<scales pt_clust_3="220.32866" pt_clust_4="37.76647" pt_clust_5="63.09500" pt_clust_6="37.76647"></scales>
<clustering>
<clus scale="   37.766">  4  6 -1 -1</clus>
<clus scale="   63.095">  1  5  2 -1</clus>
<clus scale="  220.329">  2  3  1 -1</clus>
<clus scale="   63.095">  1  3  2 -1</clus>
</clustering>
</event>
<event>
 6    0  0.6207838E+002  0.1059368E+03  0.7546771E-02  0.1268285E+00
         21   -1    0    0  503  501  0.00000000000E+00  0.00000000000E+00  0.23920920895E+03  0.23920920895E+03  0.00000000000E+00 0. -1.
         21   -1    0    0  501  502 -0.00000000000E+00 -0.00000000000E+00 -0.12223846615E+03  0.12223846615E+03  0.00000000000E+00 0. -1.
         21    1    1    2  503  505 -0.20398720362E+02  0.83283175172E+02  0.13112468718E+03  0.15667124385E+03  0.00000000000E+00 0. -1.
         21    1    1    2  504  502  0.12113108544E+02  0.55150413769E+02 -0.74967385606E+01  0.56960483026E+02  0.00000000000E+00 0. -1.
         21    1    1    2  505  506 -0.62022490372E+01 -0.91668310937E+02  0.17007064670E+02  0.93438682417E+02  0.00000000000E+00 0. -1.
         21    1    1    2  506  504  0.14487860855E+02 -0.46765278004E+02 -0.23664270488E+02  0.54377265807E+02  0.00000000000E+00 0. -1.
<scales pt_clust_3="93.00476" pt_clust_4="56.46499" pt_clust_5="37.02570" pt_clust_6="37.02570"></scales>
<clustering>
<clus scale="   37.026">  5  6 -1 -1</clus>
<clus scale="   56.465">  2  4  1 -1</clus>
<clus scale="   93.005">  1  3  2 -1</clus>
<clus scale="   93.005">  1  3  2 -1</clus>
</clustering>
</event>
<event>
 6    0  0.6207838E+002  0.1426382E+03  0.7546771E-02  0.1209823E+00
         21   -1    0    0  503  501  0.00000000000E+00  0.00000000000E+00  0.33232721850E+03  0.33232721850E+03  0.00000000000E+00 0. -1.
         21   -1    0    0  506  502 -0.00000000000E+00 -0.00000000000E+00 -0.13803067970E+03  0.13803067970E+03  0.00000000000E+00 0. -1.
         21    1    1    2  503  505  0.37828949632E+02  0.67190568764E+01  0.26046368835E+02  0.46417545013E+02  0.00000000000E+00 0. -1.
         21    1    1    2  504  501 -0.42872642006E+02  0.16415967109E+02  0.11471529949E+03  0.12356029842E+03  0.00000000000E+00 0. -1.
         21    1    1    2  505  502  0.58068962020E+02  0.12243248512E+03 -0.27908972222E+01  0.13553415389E+03  0.00000000000E+00 0. -1.
         21    1    1    2  506  504 -0.53025269646E+02 -0.14556750911E+03  0.56325767697E+02  0.16484590087E+03  0.00000000000E+00 0. -1.
<scales pt_clust_3="38.42102" pt_clust_4="33.61798" pt_clust_5="142.63818" pt_clust_6="14000.00000"></scales>
<clustering>
<clus scale="   38.421">  1  3  2 -1</clus>
<clus scale="   33.618">  1  4  2 -1</clus>
<clus scale="  142.638">  2  5  1 -1</clus>
<clus scale="   38.421">  1  3  2 -1</clus>
</clustering>
</event>
<event>
 6    0  0.6207838E+002  0.8257926E+02  0.7546771E-02  0.1321887E+00
         21   -1    0    0  506  501  0.00000000000E+00  0.00000000000E+00  0.42972735963E+03  0.42972735963E+03  0.00000000000E+00 0.  1.
         21   -1    0    0  504  502 -0.00000000000E+00 -0.00000000000E+00 -0.49883250051E+03  0.49883250051E+03  0.00000000000E+00 0.  1.
         21    1    1    2  503  505 -0.16537880850E+02  0.85324923346E+02 -0.37738093316E+03  0.38725987755E+03  0.00000000000E+00 0.  1.
         21    1    1    2  504  501  0.57287042014E+02  0.31800201929E+02 -0.29117629987E+02  0.71700030694E+02  0.00000000000E+00 0.  1.
         21    1    1    2  505  502 -0.77045302817E+01 -0.38454619822E+02 -0.55270731480E+02  0.67771463986E+02  0.00000000000E+00 0.  1.
         21    1    1    2  506  503 -0.33044630882E+02 -0.78670505452E+02  0.39266415374E+03  0.40182848791E+03  0.00000000000E+00 0.  1.
<scales pt_clust_3="56.70237" pt_clust_4="82.57926" pt_clust_5="39.21884" pt_clust_6="14000.00000"></scales>
<clustering>
<clus scale="   39.219">  2  5  1 -1</clus>
<clus scale="   56.702">  2  3  1 -1</clus>
<clus scale="   82.579">  2  4  1 -1</clus>
<clus scale="   82.579">  1  3  2 -1</clus>
</clustering>
</event>
<event>
 6    0  0.6207838E+002  0.7018749E+02  0.7546771E-02  0.1359457E+00
         21   -1    0    0  504  501  0.00000000000E+00  0.00000000000E+00  0.12560631657E+04  0.12560631657E+04  0.00000000000E+00 0.  1.
         21   -1    0    0  501  502 -0.00000000000E+00 -0.00000000000E+00 -0.25036157916E+03  0.25036157916E+03  0.00000000000E+00 0.  1.
         21    1    1    2  503  502 -0.67488888878E+02 -0.16521492757E+02 -0.23176951368E+03  0.24196036311E+03  0.00000000000E+00 0.  1.
         21    1    1    2  504  505 -0.19351727882E+02 -0.35701179796E+02  0.50817583361E+03  0.50979578409E+03  0.00000000000E+00 0.  1.
         21    1    1    2  505  506 -0.35985384632E+02  0.46875447367E+02  0.37548363154E+03  0.38010552880E+03  0.00000000000E+00 0.  1.
         21    1    1    2  506  503  0.12282600139E+03  0.53472251858E+01  0.35381163503E+03  0.37456306881E+03  0.00000000000E+00 0.  1.
<scales pt_clust_3="14000.00000" pt_clust_4="40.60866" pt_clust_5="54.08980" pt_clust_6="70.18749"></scales>
<clustering>
<clus scale="   40.609">  1  4  2 -1</clus>
<clus scale="   54.090">  1  5  2 -1</clus>
<clus scale="   70.187">  1  6  2 -1</clus>
<clus scale="   40.609">  1  3  2 -1</clus>
</clustering>
</event>
<event>
 6    0  0.6207838E+002  0.9530667E+02  0.7546771E-02  0.1290487E+00
         21   -1    0    0  504  501  0.00000000000E+00  0.00000000000E+00  0.43033836396E+03  0.43033836396E+03  0.00000000000E+00 0. -1.
         21   -1    0    0  506  502 -0.00000000000E+00 -0.00000000000E+00 -0.80329613849E+03  0.80329613849E+03  0.00000000000E+00 0. -1.
         21    1    1    2  503  501 -0.36178125865E+01 -0.29872317699E+02  0.17482183485E+03  0.17739255304E+03  0.00000000000E+00 0. -1.
         21    1    1    2  504  502 -0.37673300912E+02 -0.87434077814E+02 -0.77766887274E+03  0.78347486953E+03  0.00000000000E+00 0. -1.
         21    1    1    2  505  503  0.33988092409E+02  0.88049764734E+01  0.34908939992E+02  0.49511131351E+02  0.00000000000E+00 0. -1.
         21    1    1    2  506  505  0.73030210899E+01  0.10850141904E+03  0.19498032336E+03  0.22325594852E+03  0.00000000000E+00 0. -1.
<scales pt_clust_3="30.09060" pt_clust_4="95.30667" pt_clust_5="33.60813" pt_clust_6="14000.00000"></scales>
<clustering>
<clus scale="   30.091">  1  3  2 -1</clus>
<clus scale="   33.608">  1  5  2 -1</clus>
<clus scale="   95.307">  2  4  1 -1</clus>
<clus scale="   30.091">  1  3  2 -1</clus>
</clustering>
</event>
<event>
 6    0  0.6207838E+002  0.1239516E+03  0.7546771E-02  0.1236717E+00
         21   -1    0    0  506  501  0.00000000000E+00  0.00000000000E+00  0.89232733526E+02  0.89232733526E+02  0.00000000000E+00 0. -1.
         21   -1    0    0  504  502 -0.00000000000E+00 -0.00000000000E+00 -0.22693161835E+04  0.22693161835E+04  0.00000000000E+00 0. -1.
         21    1    1    2  503  501 -0.39043586584E+02  0.40668741455E+02  0.52263292694E+02  0.76875223239E+02  0.00000000000E+00 0. -1.
         21    1    1    2  504  503 -0.26330809990E+02  0.12451035051E+03 -0.17219994798E+04  0.17266957889E+04  0.00000000000E+00 0. -1.
         21    1    1    2  505  502 -0.27723686235E+02 -0.23734244017E+02 -0.18106925041E+03  0.18471055888E+03  0.00000000000E+00 0. -1.
         21    1    1    2  506  505  0.93098082810E+02 -0.14144484795E+03 -0.32927801242E+03  0.37026734598E+03  0.00000000000E+00 0. -1.
<scales pt_clust_3="56.38951" pt_clust_4="123.95163" pt_clust_5="36.49544" pt_clust_6="14000.00000"></scales>
<clustering>
<clus scale="   36.495">  2  5  1 -1</clus>
<clus scale="   56.390">  1  3  2 -1</clus>
<clus scale="  123.952">  2  4  1 -1</clus>
<clus scale="   56.390">  1  3  2 -1</clus>
</clustering>
</event>
<event>
 6    0  0.6207838E+002  0.7820058E+02  0.7546771E-02  0.1334237E+00
         21   -1    0    0  505  501  0.00000000000E+00  0.00000000000E+00  0.76620682458E+03  0.76620682458E+03  0.00000000000E+00 0. -1.
         21   -1    0    0  504  502 -0.00000000000E+00 -0.00000000000E+00 -0.24953518778E+03  0.24953518778E+03  0.00000000000E+00 0. -1.
         21    1    1    2  503  501  0.48094187469E+02 -0.37494776435E+02  0.18456604657E+03  0.19437987209E+03  0.00000000000E+00 0.  1.
         21    1    1    2  504  503 -0.85120765890E+02 -0.45474229665E+02  0.52117030634E+03  0.53003012986E+03  0.00000000000E+00 0. -1.
         21    1    1    2  505  506  0.97383147700E+01  0.58851159724E+02  0.31722110522E+02  0.67561720459E+02  0.00000000000E+00 0. -1.
         21    1    1    2  506  502  0.27288263651E+02  0.24117846376E+02 -0.22078682663E+03  0.22377028994E+03  0.00000000000E+00 0. -1.
<scales pt_clust_3="62.52069" pt_clust_4="14000.00000" pt_clust_5="78.20058" pt_clust_6="36.41867"></scales>
<clustering>
<clus scale="   36.419">  2  6  1 -1</clus>
<clus scale="   62.521">  1  3  2 -1</clus>
<clus scale="   78.201">  2  5  1 -1</clus>
<clus scale="   62.521">  1  3  2 -1</clus>
</clustering>
</event>
<event>
 6    0  0.6207838E+002  0.9393839E+02  0.7546771E-02  0.1293585E+00
         21   -1    0    0  504  501  0.00000000000E+00  0.00000000000E+00  0.12617524228E+04  0.12617524228E+04  0.00000000000E+00 0. -1.
         21   -1    0    0  505  502 -0.00000000000E+00 -0.00000000000E+00 -0.77104474333E+02  0.77104474333E+02  0.00000000000E+00 0.  1.
         21    1    1    2  503  501 -0.42111969908E+02 -0.19472314428E+02  0.39556616053E+03  0.39827776287E+03  0.00000000000E+00 0. -1.
         21    1    1    2  504  506  0.19453375743E+02 -0.89328074191E+02  0.58448274147E+03  0.59158939624E+03  0.00000000000E+00 0. -1.
         21    1    1    2  505  503  0.28325690826E+02  0.20030634438E+02 -0.60293098464E+02  0.69561690600E+02  0.00000000000E+00 0.  1.
         21    1    1    2  506  502 -0.56670966612E+01  0.88769754181E+02  0.26489214494E+03  0.27942804743E+03  0.00000000000E+00 0. -1.
<scales pt_clust_3="42.60316" pt_clust_4="14000.00000" pt_clust_5="34.69252" pt_clust_6="93.93839"></scales>
<clustering>
<clus scale="   34.693">  2  5  1 -1</clus>
<clus scale="   42.603">  1  3  2 -1</clus>
<clus scale="   93.938">  2  6  1 -1</clus>
<clus scale="   42.603">  1  3  2 -1</clus>
</clustering>
</event>
<event>
 6    0  0.6207838E+002  0.1213230E+03  0.7546771E-02  0.1240930E+00
         21   -1    0    0  503  501  0.00000000000E+00  0.00000000000E+00  0.60238140232E+03  0.60238140232E+03  0.00000000000E+00 0.  1.
         21   -1    0    0  505  502 -0.00000000000E+00 -0.00000000000E+00 -0.85802847302E+02  0.85802847302E+02  0.00000000000E+00 0. -1.
         21    1    1    2  503  504 -0.31232763298E+02 -0.19219843375E+02  0.19893462816E+03  0.20228661390E+03  0.00000000000E+00 0.  1.
         21    1    1    2  504  506 -0.87006266048E+02  0.25317729189E+02  0.17037171001E+03  0.19297045710E+03  0.00000000000E+00 0.  1.
         21    1    1    2  505  501 -0.13012974890E+00  0.53845749209E+02  0.15087570218E+03  0.16019631441E+03  0.00000000000E+00 0.  1.
         21    1    1    2  506  502  0.11836915909E+03 -0.59943635024E+02 -0.36034853422E+01  0.13273086420E+03  0.00000000000E+00 0. -1.
<scales pt_clust_3="36.67271" pt_clust_4="14000.00000" pt_clust_5="47.98753" pt_clust_6="121.32304"></scales>
<clustering>
<clus scale="   36.673">  1  3  2 -1</clus>
<clus scale="   47.988">  1  5  2 -1</clus>
<clus scale="  121.323">  2  6  1 -1</clus>
<clus scale="   36.673">  1  3  2 -1</clus>
</clustering>
</event>
<event>
 6    0  0.6207838E+002  0.1409664E+03  0.7546771E-02  0.1212034E+00
         21   -1    0    0  504  501  0.00000000000E+00  0.00000000000E+00  0.44647730138E+03  0.44647730138E+03  0.00000000000E+00 0.  1.
         21   -1    0    0  505  502 -0.00000000000E+00 -0.00000000000E+00 -0.96474665150E+02  0.96474665150E+02  0.00000000000E+00 0. -1.
         21    1    1    2  503  502  0.60467630928E+02  0.11420228599E+03  0.14283478827E+03  0.19261431218E+03  0.00000000000E+00 0.  1.
         21    1    1    2  504  503 -0.86047867746E+02 -0.12587734989E+03  0.22400448950E+03  0.27097482185E+03  0.00000000000E+00 0. -1.
         21    1    1    2  505  506 -0.81827756498E+01  0.35113054009E+02 -0.38489967787E+01  0.36258780390E+02  0.00000000000E+00 0.  1.
         21    1    1    2  506  501  0.33763012467E+02 -0.23437990112E+02 -0.12987644770E+02  0.43104052107E+02  0.00000000000E+00 0. -1.
<scales pt_clust_3="140.96640" pt_clust_4="14000.00000" pt_clust_5="36.05391" pt_clust_6="32.51949"></scales>
<clustering>
<clus scale="   36.054">  2  5  1 -1</clus>
<clus scale="   32.519">  2  6  1 -1</clus>
<clus scale="  140.966">  2  3  1 -1</clus>
<clus scale="  140.966">  1  3  2 -1</clus>
</clustering>
</event>
<event>
 6    0  0.6207838E+002  0.1046710E+03  0.7546771E-02  0.1270769E+00
         21   -1    0    0  505  501  0.00000000000E+00  0.00000000000E+00  0.84594068938E+02  0.84594068938E+02  0.00000000000E+00 0. -1.
         21   -1    0    0  506  502 -0.00000000000E+00 -0.00000000000E+00 -0.45547059279E+03  0.45547059279E+03  0.00000000000E+00 0. -1.
         21    1    1    2  503  504  0.95535468068E+02 -0.36153000243E+02 -0.13726098679E+03  0.17109834476E+03  0.00000000000E+00 0. -1.
         21    1    1    2  504  501 -0.10729833387E+03 -0.24813130750E+02  0.33726459265E+01  0.11018166203E+03  0.00000000000E+00 0. -1.
         21    1    1    2  505  502 -0.33205590212E+02  0.28433987112E+02 -0.67317378063E+02  0.80266632131E+02  0.00000000000E+00 0. -1.
         21    1    1    2  506  503  0.44968456009E+02  0.32532143882E+02 -0.16967080492E+03  0.17851802280E+03  0.00000000000E+00 0. -1.
<scales pt_clust_3="14000.00000" pt_clust_4="104.67096" pt_clust_5="43.71616" pt_clust_6="54.40388"></scales>
<clustering>
<clus scale="   43.716">  2  5  1 -1</clus>
<clus scale="   54.404">  2  6  1 -1</clus>
<clus scale="  104.671">  1  4  2 -1</clus>
<clus scale="  104.671">  1  3  2 -1</clus>
</clustering>
</event>
<event>
 6    0  0.6207838E+002  0.1147987E+03  0.7546771E-02  0.1251933E+00
         21   -1    0    0  505  501  0.00000000000E+00  0.00000000000E+00  0.17337342519E+03  0.17337342519E+03  0.00000000000E+00 0. -1.
         21   -1    0    0  503  502 -0.00000000000E+00 -0.00000000000E+00 -0.11954314839E+03  0.11954314839E+03  0.00000000000E+00 0. -1.
         21    1    1    2  503  501  0.59041539161E+02  0.82320548704E+02 -0.38509359141E+02  0.10837687404E+03  0.00000000000E+00 0. -1.
         21    1    1    2  504  506 -0.44237177028E+02 -0.60531482575E+02  0.57259201051E+02  0.94337714193E+02  0.00000000000E+00 0. -1.
         21    1    1    2  505  504 -0.18257801443E+02  0.27657512519E+02  0.18386755087E+02  0.37899314966E+02  0.00000000000E+00 0. -1.
         21    1    1    2  506  502  0.34534393101E+01 -0.49446578648E+02  0.16693679802E+02  0.52302670375E+02  0.00000000000E+00 0. -1.
<scales pt_clust_3="104.41670" pt_clust_4="37.12356" pt_clust_5="33.14039" pt_clust_6="37.12356"></scales>
<clustering>
<clus scale="   33.140">  1  5  2 -1</clus>
<clus scale="   37.124">  4  6 -1 -1</clus>
<clus scale="  104.417">  2  3  1 -1</clus>
<clus scale="   33.140">  1  3  2 -1</clus>
</clustering>
</event>
<event>
 6    0  0.6207838E+002  0.9112321E+02  0.7546771E-02  0.1300154E+00
         21   -1    0    0  506  501  0.00000000000E+00  0.00000000000E+00  0.25692167085E+03  0.25692167085E+03  0.00000000000E+00 0.  1.
         21   -1    0    0  505  502 -0.00000000000E+00 -0.00000000000E+00 -0.49924686432E+03  0.49924686432E+03  0.00000000000E+00 0.  1.
         21    1    1    2  503  501 -0.73721095640E+02 -0.10756579090E+03 -0.20145897800E+03  0.23998108078E+03  0.00000000000E+00 0.  1.
         21    1    1    2  504  502 -0.46948923410E+02  0.68540113535E+02 -0.17509297130E+03  0.19380272746E+03  0.00000000000E+00 0.  1.
         21    1    1    2  505  503  0.41758811679E+02 -0.43584303246E+01 -0.79807792994E+02  0.90178035521E+02  0.00000000000E+00 0.  1.
         21    1    1    2  506  504  0.78911207372E+02  0.43384107687E+02  0.21403454882E+03  0.23220669141E+03  0.00000000000E+00 0.  1.
<scales pt_clust_3="91.12321" pt_clust_4="72.38466" pt_clust_5="41.98564" pt_clust_6="14000.00000"></scales>
<clustering>
<clus scale="   41.986">  2  5  1 -1</clus>
<clus scale="   72.385">  2  4  1 -1</clus>
<clus scale="   91.123">  2  3  1 -1</clus>
<clus scale="   91.123">  1  3  2 -1</clus>
</clustering>
</event>
<event>
 6    0  0.6207838E+002  0.2466101E+03  0.7546771E-02  0.1115466E+00
         21   -1    0    0  505  501  0.00000000000E+00  0.00000000000E+00  0.86522168595E+03  0.86522168595E+03  0.00000000000E+00 0.  1.
         21   -1    0    0  506  502 -0.00000000000E+00 -0.00000000000E+00 -0.17078570572E+03  0.17078570572E+03  0.00000000000E+00 0. -1.
         21    1    1    2  503  504  0.10581328462E+03  0.75394244876E+02  0.25326842409E+02  0.13237141802E+03  0.00000000000E+00 0. -1.
         21    1    1    2  504  502  0.12908761833E+03 -0.20667237760E+02 -0.24747528727E+01  0.13075500880E+03  0.00000000000E+00 0. -1.
         21    1    1    2  505  503 -0.21007491125E+03 -0.71601859541E+02  0.69828399967E+03  0.73270651616E+03  0.00000000000E+00 0.  1.
         21    1    1    2  506  501 -0.24825991702E+02  0.16874852426E+02 -0.26700108976E+02  0.40174448692E+02  0.00000000000E+00 0. -1.
<scales pt_clust_3="99.09548" pt_clust_4="99.09548" pt_clust_5="224.22466" pt_clust_6="30.01817"></scales>
<clustering>
<clus scale="   30.018">  2  6  1 -1</clus>
<clus scale="   99.095">  3  4 -1 -1</clus>
<clus scale="  224.225">  1  5  2 -1</clus>
<clus scale="  224.225">  1  3  2 -1</clus>
</clustering>
</event>
<event>
 6    0  0.6207838E+002  0.1053592E+03  0.7546771E-02  0.1269414E+00
         21   -1    0    0  504  501  0.00000000000E+00  0.00000000000E+00  0.17070395196E+03  0.17070395196E+03  0.00000000000E+00 0. -1.
         21   -1    0    0  503  502 -0.00000000000E+00 -0.00000000000E+00 -0.76472992655E+03  0.76472992655E+03  0.00000000000E+00 0. -1.
         21    1    1    2  503  506 -0.51130246673E+02  0.64365097032E+02  0.73433230599E+02  0.11022525662E+03  0.00000000000E+00 0. -1.
         21    1    1    2  504  505  0.10416602992E+03 -0.52257796462E+02 -0.14226493973E+02  0.11740456640E+03  0.00000000000E+00 0. -1.
         21    1    1    2  505  502 -0.88242029801E+02 -0.65363864792E+02 -0.63056808525E+03  0.64005874791E+03  0.00000000000E+00 0. -1.
         21    1    1    2  506  501  0.35206246552E+02  0.53256564222E+02 -0.22664625965E+02  0.67745307580E+02  0.00000000000E+00 0. -1.
<scales pt_clust_3="101.68825" pt_clust_4="14000.00000" pt_clust_5="105.35915" pt_clust_6="63.84153"></scales>
<clustering>
<clus scale="   63.842">  1  6  2 -1</clus>
<clus scale="  101.688">  1  3  2 -1</clus>
<clus scale="  105.359">  2  5  1 -1</clus>
<clus scale="   63.842">  1  3  2 -1</clus>
</clustering>
</event>
<event>
 6    0  0.6207838E+002  0.1175773E+03  0.7546771E-02  0.1247148E+00
         21   -1    0    0  504  501  0.00000000000E+00  0.00000000000E+00  0.73048877899E+03  0.73048877899E+03  0.00000000000E+00 0. -1.
         21   -1    0    0  505  502 -0.00000000000E+00 -0.00000000000E+00 -0.23356670220E+03  0.23356670220E+03  0.00000000000E+00 0. -1.
         21    1    1    2  503  501  0.74950483705E+02  0.81425125680E+02  0.13188491662E+02  0.11145206329E+03  0.00000000000E+00 0.  1.
         21    1    1    2  504  506 -0.90445000273E+02 -0.76465106361E+02  0.63329199596E+03  0.64427165288E+03  0.00000000000E+00 0. -1.
         21    1    1    2  505  503  0.68090927347E+02  0.13878146047E+02 -0.28698188832E+02  0.75183531221E+02  0.00000000000E+00 0.  1.
         21    1    1    2  506  502 -0.52596410780E+02 -0.18838165366E+02 -0.12086022200E+03  0.13314823380E+03  0.00000000000E+00 0. -1.
<scales pt_clust_3="14000.00000" pt_clust_4="117.57730" pt_clust_5="42.71323" pt_clust_6="55.86823"></scales>
<clustering>
<clus scale="   55.868">  2  6  1 -1</clus>
<clus scale="   42.713">  2  5  1 -1</clus>
<clus scale="  117.577">  1  4  2 -1</clus>
<clus scale="  117.577">  1  3  2 -1</clus>
</clustering>
</event>
<event>
 6    0  0.6207838E+002  0.8453276E+02  0.7546771E-02  0.1316659E+00
         21   -1    0    0  504  501  0.00000000000E+00  0.00000000000E+00  0.22018649446E+03  0.22018649446E+03  0.00000000000E+00 0. -1.
         21   -1    0    0  506  502 -0.00000000000E+00 -0.00000000000E+00 -0.24109089037E+04  0.24109089037E+04  0.00000000000E+00 0.  1.
         21    1    1    2  503  502 -0.79859194987E+02  0.64399602133E+02 -0.14702269033E+04  0.14738018683E+04  0.00000000000E+00 0.  1.
         21    1    1    2  504  503  0.34328161980E+02 -0.12069523804E+02  0.19872147557E+03  0.20202554532E+03  0.00000000000E+00 0. -1.
         21    1    1    2  505  501 -0.33385259945E+02 -0.59127469832E+02 -0.54872927070E+02  0.87302184369E+02  0.00000000000E+00 0.  1.
         21    1    1    2  506  505  0.78916292952E+02  0.67973915022E+01 -0.86434405442E+03  0.86796580015E+03  0.00000000000E+00 0.  1.
<scales pt_clust_3="84.53276" pt_clust_4="36.38813" pt_clust_5="69.20757" pt_clust_6="14000.00000"></scales>
<clustering>
<clus scale="   36.388">  1  4  2 -1</clus>
<clus scale="   69.208">  1  5  2 -1</clus>
<clus scale="   84.533">  2  3  1 -1</clus>
<clus scale="   36.388">  1  3  2 -1</clus>
</clustering>
</event>
<event>
 6    0  0.6207838E+002  0.2320047E+03  0.7546771E-02  0.1125237E+00
         21   -1    0    0  504  501  0.00000000000E+00  0.00000000000E+00  0.19039033040E+03  0.19039033040E+03  0.00000000000E+00 0. -1.
         21   -1    0    0  505  502 -0.00000000000E+00 -0.00000000000E+00 -0.69310548224E+03  0.69310548224E+03  0.00000000000E+00 0. -1.
         21    1    1    2  503  502 -0.60674081812E+02  0.10405652136E+03 -0.48127693634E+02  0.12971267762E+03  0.00000000000E+00 0. -1.
         21    1    1    2  504  506  0.67398641376E+02 -0.80668967564E+01  0.68954456911E+02  0.96759334488E+02  0.00000000000E+00 0. -1.
         21    1    1    2  505  501  0.29270496882E+02 -0.22295658310E+03 -0.45677147854E+03  0.50912334806E+03  0.00000000000E+00 0. -1.
         21    1    1    2  506  503 -0.35995056445E+02  0.12696695850E+03 -0.66770436577E+02  0.14790045247E+03  0.00000000000E+00 0. -1.
<scales pt_clust_3="32.40801" pt_clust_4="67.87969" pt_clust_5="229.51139" pt_clust_6="32.40801"></scales>
<clustering>
<clus scale="   32.408">  3  6 -1 -1</clus>
<clus scale="   67.880">  1  4  2 -1</clus>
<clus scale="  229.511">  2  5  1 -1</clus>
<clus scale="   67.880">  1  3  2 -1</clus>
</clustering>
</event>
<event>
 6    0  0.6207838E+002  0.8637983E+02  0.7546771E-02  0.1311863E+00
         21   -1    0    0  504  501  0.00000000000E+00  0.00000000000E+00  0.10610077560E+03  0.10610077560E+03  0.00000000000E+00 0.  1.
         21   -1    0    0  506  502 -0.00000000000E+00 -0.00000000000E+00 -0.94447123649E+03  0.94447123649E+03  0.00000000000E+00 0. -1.
         21    1    1    2  503  502  0.79782206757E+02 -0.26548059336E+02 -0.14553586010E+02  0.85333503592E+02  0.00000000000E+00 0.  1.
         21    1    1    2  504  503  0.14347085374E+02 -0.37421970357E+02  0.22506627657E+02  0.45965106468E+02  0.00000000000E+00 0.  1.
         21    1    1    2  505  501 -0.48709444322E+02 -0.11077383574E+02  0.16035797978E+02  0.52463941997E+02  0.00000000000E+00 0.  1.
         21    1    1    2  506  505 -0.45419847809E+02  0.75047413266E+02 -0.86235930051E+03  0.86680946003E+03  0.00000000000E+00 0. -1.
<scales pt_clust_3="14000.00000" pt_clust_4="40.07796" pt_clust_5="50.88383" pt_clust_6="86.37983"></scales>
<clustering>
<clus scale="   40.078">  1  4  2 -1</clus>
<clus scale="   50.884">  1  5  2 -1</clus>
<clus scale="   86.380">  2  6  1 -1</clus>
<clus scale="   40.078">  1  3  2 -1</clus>
</clustering>
</event>
<event>
 6    0  0.6207838E+002  0.1141668E+03  0.7546771E-02  0.1253042E+00
         21   -1    0    0  505  501  0.00000000000E+00  0.00000000000E+00  0.21758174633E+03  0.21758174633E+03  0.00000000000E+00 0. -1.
         21   -1    0    0  504  502 -0.00000000000E+00 -0.00000000000E+00 -0.41522884514E+03  0.41522884514E+03  0.00000000000E+00 0.  1.
         21    1    1    2  503  501 -0.97243134236E+02  0.17747374968E+02 -0.15920611947E+03  0.18739739846E+03  0.00000000000E+00 0.  1.
         21    1    1    2  504  503 -0.43104863990E+02 -0.57119234559E+02 -0.18826983812E+03  0.20141044710E+03  0.00000000000E+00 0.  1.
         21    1    1    2  505  506  0.10907047141E+03  0.42958613391E+02  0.17008335362E+03  0.20656756129E+03  0.00000000000E+00 0. -1.
         21    1    1    2  506  502  0.31277526814E+02 -0.35867537998E+01 -0.20254494839E+02  0.37435184621E+02  0.00000000000E+00 0.  1.
<scales pt_clust_3="14000.00000" pt_clust_4="64.95825" pt_clust_5="114.16682" pt_clust_6="31.48251"></scales>
<clustering>
<clus scale="   31.483">  2  6  1 -1</clus>
<clus scale="   64.958">  2  4  1 -1</clus>
<clus scale="  114.167">  1  5  2 -1</clus>
<clus scale="  114.167">  1  3  2 -1</clus>
</clustering>
</event>
<event>
 6    0  0.6207838E+002  0.2969735E+03  0.7546771E-02  0.1086763E+00
         21   -1    0    0  504  501  0.00000000000E+00  0.00000000000E+00  0.27586506472E+03  0.27586506472E+03  0.00000000000E+00 0.  1.
         21   -1    0    0  501  502 -0.00000000000E+00 -0.00000000000E+00 -0.11049920282E+04  0.11049920282E+04  0.00000000000E+00 0.  1.
         21    1    1    2  503  502 -0.82315532655E+02 -0.25785717079E+03 -0.84939052723E+03  0.89147654775E+03  0.00000000000E+00 0.  1.
         21    1    1    2  504  505 -0.24349566632E+02 -0.93494797245E+02  0.49784521667E+02  0.10868614035E+03  0.00000000000E+00 0.  1.
         21    1    1    2  505  506  0.11711309736E+03  0.27891436989E+03 -0.20198666662E+01  0.30251079843E+03  0.00000000000E+00 0.  1.
         21    1    1    2  506  503 -0.10447998077E+02  0.72437598142E+02 -0.27501091272E+02  0.78183606399E+02  0.00000000000E+00 0.  1.
<scales pt_clust_3="281.00203" pt_clust_4="96.61355" pt_clust_5="47.25835" pt_clust_6="47.25835"></scales>
<clustering>
<clus scale="   47.258">  5  6 -1 -1</clus>
<clus scale="   96.614">  1  4  2 -1</clus>
<clus scale="  281.002">  2  3  1 -1</clus>
<clus scale="   96.614">  1  3  2 -1</clus>
</clustering>
</event>
<event>
 6    0  0.6207838E+002  0.2549049E+03  0.7546771E-02  0.1110244E+00
         21   -1    0    0  502  501  0.00000000000E+00  0.00000000000E+00  0.42360749960E+03  0.42360749960E+03  0.00000000000E+00 0.  1.
         21   -1    0    0  505  502 -0.00000000000E+00 -0.00000000000E+00 -0.36145848310E+03  0.36145848310E+03  0.00000000000E+00 0. -1.
         21    1    1    2  503  504 -0.21337146934E+03 -0.10164255232E+03  0.10056245993E+03  0.25684898427E+03  0.00000000000E+00 0.  1.
         21    1    1    2  504  501 -0.26424259110E+02  0.42451438383E+02  0.18193345061E+03  0.18868001098E+03  0.00000000000E+00 0.  1.
         21    1    1    2  505  506  0.21226786208E+02  0.27841490092E+02 -0.48107817464E+02  0.59498631282E+02  0.00000000000E+00 0. -1.
         21    1    1    2  506  503  0.21856894224E+03  0.31349623849E+02 -0.17223907658E+03  0.28003835618E+03  0.00000000000E+00 0. -1.
<scales pt_clust_3="243.41216" pt_clust_4="50.00366" pt_clust_5="30.13408" pt_clust_6="30.13408"></scales>
<clustering>
<clus scale="   30.134">  5  6 -1 -1</clus>
<clus scale="   50.004">  1  4  2 -1</clus>
<clus scale="  243.412">  1  3  2 -1</clus>
<clus scale="   50.004">  1  3  2 -1</clus>
</clustering>
</event>
<event>
 6    0  0.6207838E+002  0.1499413E+03  0.7546771E-02  0.1200545E+00
         21   -1    0    0  504  501  0.00000000000E+00  0.00000000000E+00  0.41766046553E+03  0.41766046553E+03  0.00000000000E+00 0. -1.
         21   -1    0    0  506  502 -0.00000000000E+00 -0.00000000000E+00 -0.89594228494E+03  0.89594228494E+03  0.00000000000E+00 0.  1.
         21    1    1    2  503  501 -0.61572814581E+02 -0.66181149953E+02 -0.21877137116E+03  0.23671093963E+03  0.00000000000E+00 0.  1.
         21    1    1    2  504  502  0.12853051524E+03  0.49037591175E+02  0.38730370242E+03  0.41100965512E+03  0.00000000000E+00 0. -1.
         21    1    1    2  505  503 -0.92543351959E+02 -0.18777834507E+02 -0.26102642851E+03  0.27758183558E+03  0.00000000000E+00 0.  1.
         21    1    1    2  506  505  0.25585651302E+02  0.35921393284E+02 -0.38578772216E+03  0.38830032013E+03  0.00000000000E+00 0.  1.
<scales pt_clust_3="54.58434" pt_clust_4="138.42355" pt_clust_5="54.58434" pt_clust_6="44.10184"></scales>
<clustering>
<clus scale="   44.102">  2  6  1 -1</clus>
<clus scale="   54.584">  3  5 -1 -1</clus>
<clus scale="  138.424">  1  4  2 -1</clus>
<clus scale="  138.424">  1  3  2 -1</clus>
</clustering>
</event>
<event>
 6    0  0.6207838E+002  0.8714562E+02  0.7546771E-02  0.1309915E+00
         21   -1    0    0  506  501  0.00000000000E+00  0.00000000000E+00  0.29763294855E+03  0.29763294855E+03  0.00000000000E+00 0. -1.
         21   -1    0    0  503  502 -0.00000000000E+00 -0.00000000000E+00 -0.27567036149E+03  0.27567036149E+03  0.00000000000E+00 0. -1.
         21    1    1    2  503  504  0.18227938966E+02  0.39300574717E+02 -0.12207010840E+03  0.12952954990E+03  0.00000000000E+00 0. -1.
         21    1    1    2  504  501 -0.13355952660E+02 -0.13348205050E+03 -0.79183214228E+02  0.15577490392E+03  0.00000000000E+00 0. -1.
         21    1    1    2  505  502  0.56325761514E+01  0.56979245574E+02 -0.41149893003E+01  0.57404646826E+02  0.00000000000E+00 0. -1.
         21    1    1    2  506  505 -0.10504562457E+02  0.37202230209E+02  0.22733089899E+03  0.23059420938E+03  0.00000000000E+00 0. -1.
<scales pt_clust_3="44.93575" pt_clust_4="14000.00000" pt_clust_5="87.14562" pt_clust_6="38.65685"></scales>
<clustering>
<clus scale="   38.657">  1  6  2 -1</clus>
<clus scale="   44.936">  2  3  1 -1</clus>
<clus scale="   87.146">  1  5  2 -1</clus>
<clus scale="   38.657">  1  3  2 -1</clus>
</clustering>
</event>
<event>
 6    0  0.6207838E+002  0.1103279E+03  0.7546771E-02  0.1259964E+00
         21   -1    0    0  504  501  0.00000000000E+00  0.00000000000E+00  0.14333582882E+04  0.14333582882E+04  0.00000000000E+00 0.  1.
         21   -1    0    0  506  502 -0.00000000000E+00 -0.00000000000E+00 -0.38148170640E+03  0.38148170640E+03  0.00000000000E+00 0.  1.
         21    1    1    2  503  501 -0.48713528524E+02  0.17811407699E+02  0.12286139566E+04  0.12297083022E+04  0.00000000000E+00 0.  1.
         21    1    1    2  504  502  0.10356075660E+03  0.11710577844E+02  0.13421429252E+03  0.16992776188E+03  0.00000000000E+00 0.  1.
         21    1    1    2  505  503  0.55276855299E+02 -0.42178181289E+02  0.14817376793E+02  0.71092083692E+02  0.00000000000E+00 0.  1.
         21    1    1    2  506  505 -0.11012408338E+03  0.12656195746E+02 -0.32576904411E+03  0.34411184684E+03  0.00000000000E+00 0.  1.
<scales pt_clust_3="51.86766" pt_clust_4="14000.00000" pt_clust_5="59.19991" pt_clust_6="110.32791"></scales>
<clustering>
<clus scale="   51.868">  1  3  2 -1</clus>
<clus scale="   59.200">  1  5  2 -1</clus>
<clus scale="  110.328">  2  6  1 -1</clus>
<clus scale="   51.868">  1  3  2 -1</clus>
</clustering>
</event>
<event>
 6    0  0.6207838E+002  0.1126448E+03  0.7546771E-02  0.1255749E+00
         21   -1    0    0  506  501  0.00000000000E+00  0.00000000000E+00  0.71966012180E+03  0.71966012180E+03  0.00000000000E+00 0. -1.
         21   -1    0    0  505  502 -0.00000000000E+00 -0.00000000000E+00 -0.16947986941E+03  0.16947986941E+03  0.00000000000E+00 0. -1.
         21    1    1    2  503  501  0.11125073445E+03 -0.18626444621E+02  0.63147410201E+03  0.64146957205E+03  0.00000000000E+00 0. -1.
         21    1    1    2  504  502  0.26905347349E+02 -0.27010112069E+02 -0.81690263281E+02  0.90148449708E+02  0.00000000000E+00 0. -1.
         21    1    1    2  505  503 -0.27101300847E+02  0.37361351314E+02 -0.33205295869E+00  0.46156920811E+02  0.00000000000E+00 0. -1.
         21    1    1    2  506  504 -0.11105478095E+03  0.82752053767E+01  0.72846661946E+00  0.11136504864E+03  0.00000000000E+00 0. -1.
<scales pt_clust_3="112.64476" pt_clust_4="38.12406" pt_clust_5="35.71713" pt_clust_6="14000.00000"></scales>
<clustering>
<clus scale="   38.124">  2  4  1 -1</clus>
<clus scale="   35.717">  2  5  1 -1</clus>
<clus scale="  112.645">  1  3  2 -1</clus>
<clus scale="  112.645">  1  3  2 -1</clus>
</clustering>
</event>
<event>
 6    0  0.6207838E+002  0.1956258E+03  0.7546771E-02  0.1153483E+00
         21   -1    0    0  505  501  0.00000000000E+00  0.00000000000E+00  0.33308759161E+03  0.33308759161E+03  0.00000000000E+00 0. -1.
         21   -1    0    0  503  502 -0.00000000000E+00 -0.00000000000E+00 -0.28150149362E+03  0.28150149362E+03  0.00000000000E+00 0. -1.
         21    1    1    2  503  506 -0.46118388118E+02 -0.52728767764E+02 -0.66776628736E+01  0.70369168347E+02  0.00000000000E+00 0. -1.
         21    1    1    2  504  501  0.14185693582E+03  0.11230306314E+03  0.16854904440E+03  0.24727342882E+03  0.00000000000E+00 0. -1.
         21    1    1    2  505  502  0.29034879311E+02  0.18307222520E+02 -0.14233086523E+03  0.14641124892E+03  0.00000000000E+00 0. -1.
         21    1    1    2  506  504 -0.12477342701E+03 -0.77881517900E+02  0.32045581688E+02  0.15053523915E+03  0.00000000000E+00 0. -1.
<scales pt_clust_3="30.01960" pt_clust_4="190.72826" pt_clust_5="34.32461" pt_clust_6="30.01960"></scales>
<clustering>
<clus scale="   30.020">  3  6 -1 -1</clus>
<clus scale="   34.325">  2  5  1 -1</clus>
<clus scale="  190.728">  1  4  2 -1</clus>
<clus scale="  190.728">  1  3  2 -1</clus>
</clustering>
</event>
<event>
 6    0  0.6207838E+002  0.1105725E+03  0.7546771E-02  0.1259513E+00
         21   -1    0    0  505  501  0.00000000000E+00  0.00000000000E+00  0.38959556174E+03  0.38959556174E+03  0.00000000000E+00 0. -1.
         21   -1    0    0  506  502 -0.00000000000E+00 -0.00000000000E+00 -0.15840226567E+03  0.15840226567E+03  0.00000000000E+00 0. -1.
         21    1    1    2  503  502 -0.42897763065E+02 -0.49299309146E+02 -0.82000719331E+02  0.10485589125E+03  0.00000000000E+00 0. -1.
         21    1    1    2  504  503 -0.58836145731E+02 -0.49756784566E+02 -0.63630948984E+01  0.77317000921E+02  0.00000000000E+00 0. -1.
         21    1    1    2  505  504  0.66722925656E+02  0.10030464617E+03  0.30492268834E+03  0.32785792154E+03  0.00000000000E+00 0. -1.
         21    1    1    2  506  501  0.35010983140E+02 -0.12485524586E+01  0.14634421956E+02  0.37967013704E+02  0.00000000000E+00 0. -1.
<scales pt_clust_3="54.16678" pt_clust_4="14000.00000" pt_clust_5="110.57249" pt_clust_6="35.03324"></scales>
<clustering>
<clus scale="   35.033">  2  6  1 -1</clus>
<clus scale="   54.167">  2  3  1 -1</clus>
<clus scale="  110.572">  1  5  2 -1</clus>
<clus scale="  110.572">  1  3  2 -1</clus>
</clustering>
</event>
<event>
 6    0  0.6207838E+002  0.1993005E+03  0.7546771E-02  0.1150331E+00
         21   -1    0    0  506  501  0.00000000000E+00  0.00000000000E+00  0.53296610727E+02  0.53296610727E+02  0.00000000000E+00 0.  1.
         21   -1    0    0  503  502 -0.00000000000E+00 -0.00000000000E+00 -0.13139679324E+04  0.13139679324E+04  0.00000000000E+00 0.  1.
         21    1    1    2  503  504 -0.18445085992E+02  0.49442334071E+02 -0.12570456326E+03  0.13633195818E+03  0.00000000000E+00 0.  1.
         21    1    1    2  504  505  0.45984949949E+02  0.12464040256E+03 -0.20086052885E+03  0.24082109048E+03  0.00000000000E+00 0.  1.
         21    1    1    2  505  501  0.42911863249E+02  0.58503113914E+01 -0.79759255645E+01  0.44037138185E+02  0.00000000000E+00 0.  1.
         21    1    1    2  506  502 -0.70451727206E+02 -0.17993304802E+03 -0.92613030404E+03  0.94607435633E+03  0.00000000000E+00 0.  1.
<scales pt_clust_3="42.44910" pt_clust_4="42.44910" pt_clust_5="43.30882" pt_clust_6="187.57473"></scales>
<clustering>
<clus scale="   42.449">  3  4 -1 -1</clus>
<clus scale="   43.309">  1  5  2 -1</clus>
<clus scale="  187.575">  2  6  1 -1</clus>
<clus scale="   43.309">  1  3  2 -1</clus>
</clustering>
</event>
<event>
 6    0  0.6207838E+002  0.1289809E+03  0.7546771E-02  0.1228976E+00
         21   -1    0    0  506  501  0.00000000000E+00  0.00000000000E+00  0.37123820428E+03  0.37123820428E+03  0.00000000000E+00 0. -1.
         21   -1    0    0  505  502 -0.00000000000E+00 -0.00000000000E+00 -0.15654143941E+03  0.15654143941E+03  0.00000000000E+00 0. -1.
         21    1    1    2  503  501 -0.11275340776E+03  0.73852574552E+02  0.21824953098E+03  0.25651586988E+03  0.00000000000E+00 0. -1.
         21    1    1    2  504  502  0.59076537996E+02  0.34800122369E+02 -0.23713552519E+02  0.72549420615E+02  0.00000000000E+00 0. -1.
         21    1    1    2  505  503 -0.48454464593E+02 -0.52013247935E+02 -0.22218460836E+02  0.74477332805E+02  0.00000000000E+00 0. -1.
         21    1    1    2  506  504  0.10213133435E+03 -0.56639448985E+02  0.42379247243E+02  0.12423702039E+03  0.00000000000E+00 0. -1.
<scales pt_clust_3="128.98091" pt_clust_4="68.56446" pt_clust_5="42.66760" pt_clust_6="14000.00000"></scales>
<clustering>
<clus scale="   68.564">  2  4  1 -1</clus>
<clus scale="   42.668">  2  5  1 -1</clus>
<clus scale="  128.981">  1  3  2 -1</clus>
<clus scale="  128.981">  1  3  2 -1</clus>
</clustering>
</event>
<event>
 6    0  0.6207838E+002  0.8108335E+02  0.7546771E-02  0.1326005E+00
         21   -1    0    0  504  501  0.00000000000E+00  0.00000000000E+00  0.86646517389E+02  0.86646517389E+02  0.00000000000E+00 0. -1.
         21   -1    0    0  505  502 -0.00000000000E+00 -0.00000000000E+00 -0.23940055767E+04  0.23940055767E+04  0.00000000000E+00 0.  1.
         21    1    1    2  503  502  0.79490065539E+02  0.97266988963E+01 -0.22011868486E+04  0.22026431444E+04  0.00000000000E+00 0.  1.
         21    1    1    2  504  506 -0.11745454484E+02 -0.29908176533E+02 -0.20631437969E+02  0.38185219093E+02  0.00000000000E+00 0.  1.
         21    1    1    2  505  501  0.38954050998E+02  0.26722751989E+02  0.48948205769E+02  0.68025365938E+02  0.00000000000E+00 0. -1.
         21    1    1    2  506  503 -0.10669866205E+03 -0.65412743522E+01 -0.13448897853E+03  0.17179836466E+03  0.00000000000E+00 0.  1.
<scales pt_clust_3="14000.00000" pt_clust_4="32.13183" pt_clust_5="30.43173" pt_clust_6="81.08335"></scales>
<clustering>
<clus scale="   32.132">  1  4  2 -1</clus>
<clus scale="   30.432">  1  5  2 -1</clus>
<clus scale="   81.083">  1  6  2 -1</clus>
<clus scale="   32.132">  1  3  2 -1</clus>
</clustering>
</event>
<event>
 6    0  0.6207838E+002  0.1227951E+03  0.7546771E-02  0.1238556E+00
         21   -1    0    0  505  501  0.00000000000E+00  0.00000000000E+00  0.13966864962E+04  0.13966864962E+04  0.00000000000E+00 0. -1.
         21   -1    0    0  503  502 -0.00000000000E+00 -0.00000000000E+00 -0.17974169950E+03  0.17974169950E+03  0.00000000000E+00 0.  1.
         21    1    1    2  503  506 -0.49110607226E+02 -0.32607072208E+02 -0.36543374825E+02  0.69357704284E+02  0.00000000000E+00 0.  1.
         21    1    1    2  504  501  0.56280402635E+02 -0.21686509251E+02  0.11790512121E+04  0.11805928803E+04  0.00000000000E+00 0. -1.
         21    1    1    2  505  502  0.76122361352E+02  0.14218426340E+03 -0.32973545771E+02  0.16461541051E+03  0.00000000000E+00 0.  1.
         21    1    1    2  506  504 -0.83292156762E+02 -0.87890681940E+02  0.10741050528E+03  0.16186220063E+03  0.00000000000E+00 0.  1.
<scales pt_clust_3="58.94975" pt_clust_4="60.10747" pt_clust_5="122.79506" pt_clust_6="14000.00000"></scales>
<clustering>
<clus scale="   58.950">  2  3  1 -1</clus>
<clus scale="   60.107">  1  4  2 -1</clus>
<clus scale="  122.795">  2  5  1 -1</clus>
<clus scale="   60.107">  1  3  2 -1</clus>
</clustering>
</event>
<event>
 6    0  0.6207838E+002  0.2107998E+03  0.7546771E-02  0.1140934E+00
         21   -1    0    0  504  501  0.00000000000E+00  0.00000000000E+00  0.14665890356E+04  0.14665890356E+04  0.00000000000E+00 0.  1.
         21   -1    0    0  501  502 -0.00000000000E+00 -0.00000000000E+00 -0.10056784295E+03  0.10056784295E+03  0.00000000000E+00 0. -1.
         21    1    1    2  503  506 -0.14036999224E+03 -0.94423531830E+02  0.57796189269E+02  0.17877342526E+03  0.00000000000E+00 0. -1.
         21    1    1    2  504  505  0.10574600636E+03  0.22753598739E+02  0.87673615518E+03  0.88338339916E+03  0.00000000000E+00 0.  1.
         21    1    1    2  505  503  0.65543815458E+02  0.72814571380E+02  0.45544890021E+03  0.46586656272E+03  0.00000000000E+00 0.  1.
         21    1    1    2  506  502 -0.30919829579E+02 -0.11446382899E+01 -0.23960052011E+02  0.39133491416E+02  0.00000000000E+00 0. -1.
<scales pt_clust_3="192.74752" pt_clust_4="81.11055" pt_clust_5="81.11055" pt_clust_6="30.94101"></scales>
<clustering>
<clus scale="   30.941">  2  6  1 -1</clus>
<clus scale="   81.111">  4  5 -1 -1</clus>
<clus scale="  192.748">  2  3  1 -1</clus>
<clus scale="  210.800">  1  3  2 -1</clus>
</clustering>
</event>
<event>
 6    0  0.6207838E+002  0.7797365E+02  0.7546771E-02  0.1334902E+00
         21   -1    0    0  504  501  0.00000000000E+00  0.00000000000E+00  0.17310785876E+03  0.17310785876E+03  0.00000000000E+00 0. -1.
         21   -1    0    0  503  502 -0.00000000000E+00 -0.00000000000E+00 -0.39910884964E+03  0.39910884964E+03  0.00000000000E+00 0.  1.
         21    1    1    2  503  501  0.32829477932E+02 -0.30305123471E+01 -0.50030816823E+01  0.33346505854E+02  0.00000000000E+00 0. -1.
         21    1    1    2  504  506  0.14916985579E+02  0.91014553394E+02  0.10344505982E+03  0.13858948658E+03  0.00000000000E+00 0. -1.
         21    1    1    2  505  502  0.17755658470E+02 -0.59255744988E+02 -0.32286576498E+03  0.32873820726E+03  0.00000000000E+00 0.  1.
         21    1    1    2  506  505 -0.65502121981E+02 -0.28728296059E+02 -0.15772040446E+01  0.71542508699E+02  0.00000000000E+00 0.  1.
<scales pt_clust_3="32.96906" pt_clust_4="14000.00000" pt_clust_5="62.08905" pt_clust_6="77.97365"></scales>
<clustering>
<clus scale="   32.969">  1  3  2 -1</clus>
<clus scale="   62.089">  2  5  1 -1</clus>
<clus scale="   77.974">  2  6  1 -1</clus>
<clus scale="   32.969">  1  3  2 -1</clus>
</clustering>
</event>
<event>
 6    0  0.6207838E+002  0.1298965E+03  0.7546771E-02  0.1227609E+00
         21   -1    0    0  503  501  0.00000000000E+00  0.00000000000E+00  0.65354959150E+03  0.65354959150E+03  0.00000000000E+00 0.  1.
         21   -1    0    0  504  502 -0.00000000000E+00 -0.00000000000E+00 -0.81755081869E+02  0.81755081869E+02  0.00000000000E+00 0.  1.
         21    1    1    2  503  506  0.31793558196E+02 -0.27750484479E+02  0.21012436105E+03  0.21432024365E+03  0.00000000000E+00 0.  1.
         21    1    1    2  504  501  0.69091501019E+01 -0.34834185196E+02  0.25187045362E+02  0.43537846381E+02  0.00000000000E+00 0.  1.
         21    1    1    2  505  502  0.11061135294E+03  0.73149262681E+02  0.29410913661E+02  0.13583330914E+03  0.00000000000E+00 0.  1.
         21    1    1    2  506  505 -0.14931406124E+03 -0.10564593006E+02  0.30707218955E+03  0.34161327419E+03  0.00000000000E+00 0.  1.
<scales pt_clust_3="43.01809" pt_clust_4="35.51277" pt_clust_5="14000.00000" pt_clust_6="129.89653"></scales>
<clustering>
<clus scale="   35.513">  2  4  1 -1</clus>
<clus scale="   43.018">  1  3  2 -1</clus>
<clus scale="  129.897">  1  6  2 -1</clus>
<clus scale="   43.018">  1  3  2 -1</clus>
</clustering>
</event>
<event>
 6    0  0.6207838E+002  0.6788538E+02  0.7546771E-02  0.1367435E+00
         21   -1    0    0  503  501  0.00000000000E+00  0.00000000000E+00  0.58879019049E+03  0.58879019049E+03  0.00000000000E+00 0.  1.
         21   -1    0    0  505  502 -0.00000000000E+00 -0.00000000000E+00 -0.10127586995E+03  0.10127586995E+03  0.00000000000E+00 0.  1.
         21    1    1    2  503  502  0.10777132437E+02 -0.79937037453E+02  0.38595919038E+03  0.39429756932E+03  0.00000000000E+00 0.  1.
         21    1    1    2  504  506 -0.65323756985E+02  0.16422094159E+01  0.13175959637E+02  0.66659552885E+02  0.00000000000E+00 0.  1.
         21    1    1    2  505  504 -0.34945361156E+01  0.37546487883E+02 -0.56428555399E+02  0.67868493423E+02  0.00000000000E+00 0.  1.
         21    1    1    2  506  501  0.58041160664E+02  0.40748340154E+02  0.14480772592E+03  0.16124044481E+03  0.00000000000E+00 0.  1.
<scales pt_clust_3="14000.00000" pt_clust_4="73.00969" pt_clust_5="37.70876" pt_clust_6="67.88538"></scales>
<clustering>
<clus scale="   37.709">  2  5  1 -1</clus>
<clus scale="   73.010">  2  4  1 -1</clus>
<clus scale="   67.885">  2  6  1 -1</clus>
<clus scale="   67.885">  1  3  2 -1</clus>
</clustering>
</event>
<event>
 6    0  0.6207838E+002  0.1507767E+03  0.7546771E-02  0.1199522E+00
         21   -1    0    0  504  501  0.00000000000E+00  0.00000000000E+00  0.31909030509E+04  0.31909030509E+04  0.00000000000E+00 0. -1.
         21   -1    0    0  503  502 -0.00000000000E+00 -0.00000000000E+00 -0.22737459967E+02  0.22737459967E+02  0.00000000000E+00 0.  1.
         21    1    1    2  503  501  0.74298405875E+01  0.72019822791E+02  0.18127645112E+04  0.18142098088E+04  0.00000000000E+00 0. -1.
         21    1    1    2  504  506 -0.42613074909E+02 -0.69053050335E+01  0.44315755381E+03  0.44525517952E+03  0.00000000000E+00 0.  1.
         21    1    1    2  505  502  0.10794547007E+03 -0.10905245278E+03  0.30929526363E+03  0.34526543713E+03  0.00000000000E+00 0.  1.
         21    1    1    2  506  505 -0.72762235753E+02  0.43937935026E+02  0.60294826226E+03  0.60891008535E+03  0.00000000000E+00 0. -1.
<scales pt_clust_3="72.40205" pt_clust_4="33.76011" pt_clust_5="143.14143" pt_clust_6="33.76011"></scales>
<clustering>
<clus scale="   33.760">  4  6 -1 -1</clus>
<clus scale="   72.402">  1  3  2 -1</clus>
<clus scale="  143.141">  2  5  1 -1</clus>
<clus scale="   72.402">  1  3  2 -1</clus>
</clustering>
</event>
<event>
 6    0  0.6207838E+002  0.1333904E+03  0.7546771E-02  0.1222510E+00
         21   -1    0    0  503  501  0.00000000000E+00  0.00000000000E+00  0.35734571898E+03  0.35734571898E+03  0.00000000000E+00 0.  1.
         21   -1    0    0  505  502 -0.00000000000E+00 -0.00000000000E+00 -0.14130728020E+04  0.14130728020E+04  0.00000000000E+00 0. -1.
         21    1    1    2  503  502 -0.32804638550E+02  0.91433823524E+01 -0.44900008399E+03  0.45028970805E+03  0.00000000000E+00 0. -1.
         21    1    1    2  504  506  0.55727644625E+02  0.29963030737E+02 -0.25520634549E+03  0.26293275255E+03  0.00000000000E+00 0. -1.
         21    1    1    2  505  504  0.82761950783E+02  0.20813535107E+02 -0.69119799648E+03  0.69644627508E+03  0.00000000000E+00 0. -1.
         21    1    1    2  506  501 -0.10568495686E+03 -0.59919948197E+02  0.33967734293E+03  0.36074978530E+03  0.00000000000E+00 0.  1.
<scales pt_clust_3="34.05504" pt_clust_4="50.96844" pt_clust_5="50.96844" pt_clust_6="121.75260"></scales>
<clustering>
<clus scale="   34.055">  2  3  1 -1</clus>
<clus scale="   50.968">  4  5 -1 -1</clus>
<clus scale="  121.753">  1  6  2 -1</clus>
<clus scale="  121.753">  1  3  2 -1</clus>
</clustering>
</event>
<event>
 6    0  0.6207838E+002  0.1105673E+03  0.7546771E-02  0.1259523E+00
         21   -1    0    0  504  501  0.00000000000E+00  0.00000000000E+00  0.74615068144E+03  0.74615068144E+03  0.00000000000E+00 0.  1.
         21   -1    0    0  503  502 -0.00000000000E+00 -0.00000000000E+00 -0.18275134758E+03  0.18275134758E+03  0.00000000000E+00 0.  1.
         21    1    1    2  503  505 -0.54233265562E+02  0.24860422359E+02  0.64706472639E+02  0.88012586002E+02  0.00000000000E+00 0. -1.
         21    1    1    2  504  506  0.51602046915E+02 -0.90894618518E+02  0.29999758669E+02  0.10874092349E+03  0.00000000000E+00 0.  1.
         21    1    1    2  505  501 -0.10839006395E+02  0.11195093506E+03  0.59058530331E+03  0.60120004691E+03  0.00000000000E+00 0.  1.
         21    1    1    2  506  502  0.13470225043E+02 -0.45916738902E+02 -0.12189220076E+03  0.13094847262E+03  0.00000000000E+00 0.  1.
<scales pt_clust_3="53.69122" pt_clust_4="110.56728" pt_clust_5="14000.00000" pt_clust_6="47.85179"></scales>
<clustering>
<clus scale="   47.852">  2  6  1 -1</clus>
<clus scale="   53.691">  2  3  1 -1</clus>
<clus scale="  110.567">  2  4  1 -1</clus>
<clus scale="  110.567">  1  3  2 -1</clus>
</clustering>
</event>
<event>
 6    0  0.6207838E+002  0.8299082E+02  0.7546771E-02  0.1320772E+00
         21   -1    0    0  506  501  0.00000000000E+00  0.00000000000E+00  0.48250705809E+03  0.48250705809E+03  0.00000000000E+00 0.  1.
         21   -1    0    0  503  502 -0.00000000000E+00 -0.00000000000E+00 -0.42216698268E+02  0.42216698268E+02  0.00000000000E+00 0.  1.
         21    1    1    2  503  504 -0.41188785970E+02 -0.38603846189E+02  0.87252955648E+02  0.10392233302E+03  0.00000000000E+00 0.  1.
         21    1    1    2  504  501 -0.63841306462E+02 -0.12074799113E+02  0.88813436766E+02  0.11004244515E+03  0.00000000000E+00 0.  1.
         21    1    1    2  505  502  0.37858530051E+02  0.51365972704E+02  0.36886334292E+02  0.73704362876E+02  0.00000000000E+00 0.  1.
         21    1    1    2  506  505  0.67171562382E+02 -0.68732740167E+00  0.22733763311E+03  0.23705461531E+03  0.00000000000E+00 0.  1.
<scales pt_clust_3="32.04515" pt_clust_4="32.04515" pt_clust_5="63.81012" pt_clust_6="75.53522"></scales>
<clustering>
<clus scale="   32.045">  3  4 -1 -1</clus>
<clus scale="   63.810">  2  5  1 -1</clus>
<clus scale="   75.535">  1  6  2 -1</clus>
<clus scale="   75.535">  1  3  2 -1</clus>
</clustering>
</event>
<event>
 6    0  0.6207838E+002  0.1306958E+03  0.7546771E-02  0.1226427E+00
         21   -1    0    0  503  501  0.00000000000E+00  0.00000000000E+00  0.51973434458E+03  0.51973434458E+03  0.00000000000E+00 0.  1.
         21   -1    0    0  506  502 -0.00000000000E+00 -0.00000000000E+00 -0.98694250218E+02  0.98694250218E+02  0.00000000000E+00 0.  1.
         21    1    1    2  503  502 -0.15469092326E+01  0.13061396916E+03  0.18849464337E+03  0.22933083623E+03  0.00000000000E+00 0.  1.
         21    1    1    2  504  501  0.22552260996E+02 -0.39438962594E+02  0.15866307529E+03  0.16503941259E+03  0.00000000000E+00 0. -1.
         21    1    1    2  505  504  0.20158938301E+02 -0.74517293226E+02  0.13079147431E+03  0.15187369599E+03  0.00000000000E+00 0.  1.
         21    1    1    2  506  505 -0.41164290064E+02 -0.16657713335E+02 -0.56909098605E+02  0.72184649989E+02  0.00000000000E+00 0.  1.
<scales pt_clust_3="123.45722" pt_clust_4="32.90459" pt_clust_5="32.90459" pt_clust_6="44.40696"></scales>
<clustering>
<clus scale="   32.905">  4  5 -1 -1</clus>
<clus scale="   44.407">  2  6  1 -1</clus>
<clus scale="  123.457">  2  3  1 -1</clus>
<clus scale="  130.696">  1  3  2 -1</clus>
</clustering>
</event>
<event>
 6    0  0.6207838E+002  0.1437330E+03  0.7546771E-02  0.1208392E+00
         21   -1    0    0  505  501  0.00000000000E+00  0.00000000000E+00  0.52219696955E+03  0.52219696955E+03  0.00000000000E+00 0. -1.
         21   -1    0    0  506  502 -0.00000000000E+00 -0.00000000000E+00 -0.23236036656E+03  0.23236036656E+03  0.00000000000E+00 0.  1.
         21    1    1    2  503  502  0.13236033966E+03  0.71604372826E+02 -0.43853460649E+02  0.15674683963E+03  0.00000000000E+00 0. -1.
         21    1    1    2  504  501 -0.13852347538E+03 -0.72198162492E+02  0.18711252015E+02  0.15732590012E+03  0.00000000000E+00 0.  1.
         21    1    1    2  505  503  0.36297082219E+02  0.96162349076E+01  0.37278650548E+03  0.37467282903E+03  0.00000000000E+00 0. -1.
         21    1    1    2  506  504 -0.30133946505E+02 -0.90224452410E+01 -0.57807693847E+02  0.65811767321E+02  0.00000000000E+00 0.  1.
<scales pt_clust_3="143.73302" pt_clust_4="14000.00000" pt_clust_5="37.37544" pt_clust_6="31.45567"></scales>
<clustering>
<clus scale="   31.456">  2  6  1 -1</clus>
<clus scale="   37.375">  1  5  2 -1</clus>
<clus scale="  143.733">  2  3  1 -1</clus>
<clus scale="   37.375">  1  3  2 -1</clus>
</clustering>
</event>
<event>
 6    0  0.6207838E+002  0.1450355E+03  0.7546771E-02  0.1206710E+00
         21   -1    0    0  504  501  0.00000000000E+00  0.00000000000E+00  0.21093979563E+03  0.21093979563E+03  0.00000000000E+00 0. -1.
         21   -1    0    0  505  502 -0.00000000000E+00 -0.00000000000E+00 -0.26387287549E+03  0.26387287549E+03  0.00000000000E+00 0. -1.
         21    1    1    2  503  501 -0.22069620727E+02 -0.22780800497E+02  0.58172031968E+02  0.66257213446E+02  0.00000000000E+00 0.  1.
         21    1    1    2  504  502  0.11783281126E+03 -0.67068691094E+02 -0.19952923028E+03  0.24123576532E+03  0.00000000000E+00 0. -1.
         21    1    1    2  505  506 -0.26287622387E+02  0.59557205219E+02  0.30303989227E+02  0.71808297203E+02  0.00000000000E+00 0. -1.
         21    1    1    2  506  503 -0.69475568144E+02  0.30292286373E+02  0.58120129222E+02  0.95511395149E+02  0.00000000000E+00 0. -1.
<scales pt_clust_3="31.71802" pt_clust_4="134.54278" pt_clust_5="46.75750" pt_clust_6="46.75750"></scales>
<clustering>
<clus scale="   31.718">  1  3  2 -1</clus>
<clus scale="   46.757">  5  6 -1 -1</clus>
<clus scale="  134.543">  2  4  1 -1</clus>
<clus scale="   31.718">  1  3  2 -1</clus>
</clustering>
</event>
<event>
 6    0  0.6207838E+002  0.1221328E+03  0.7546771E-02  0.1239619E+00
         21   -1    0    0  506  501  0.00000000000E+00  0.00000000000E+00  0.29845396782E+03  0.29845396782E+03  0.00000000000E+00 0.  1.
         21   -1    0    0  505  502 -0.00000000000E+00 -0.00000000000E+00 -0.46730042262E+03  0.46730042262E+03  0.00000000000E+00 0.  1.
         21    1    1    2  503  501  0.44893276907E+02 -0.15912460700E+01  0.21422898227E+03  0.21888808834E+03  0.00000000000E+00 0.  1.
         21    1    1    2  504  502  0.16748362590E+02  0.73592963099E+02 -0.21288764874E+03  0.22587072155E+03  0.00000000000E+00 0.  1.
         21    1    1    2  505  503 -0.13951232462E+03 -0.99007993454E+02 -0.55674584775E+02  0.17990533866E+03  0.00000000000E+00 0.  1.
         21    1    1    2  506  504  0.77870685122E+02  0.27006276425E+02 -0.11451320355E+03  0.14109024188E+03  0.00000000000E+00 0. -1.
<scales pt_clust_3="44.92147" pt_clust_4="76.22168" pt_clust_5="122.13282" pt_clust_6="14000.00000"></scales>
<clustering>
<clus scale="   44.921">  1  3  2 -1</clus>
<clus scale="   76.222">  2  4  1 -1</clus>
<clus scale="  122.133">  1  5  2 -1</clus>
<clus scale="   44.921">  1  3  2 -1</clus>
</clustering>
</event>
<event>
 6    0  0.6207838E+002  0.8514407E+02  0.7546771E-02  0.1315056E+00
         21   -1    0    0  505  501  0.00000000000E+00  0.00000000000E+00  0.92861702837E+03  0.92861702837E+03  0.00000000000E+00 0. -1.
         21   -1    0    0  503  502 -0.00000000000E+00 -0.00000000000E+00 -0.14572856142E+03  0.14572856142E+03  0.00000000000E+00 0. -1.
         21    1    1    2  503  501 -0.99956132757E+01 -0.71438896545E+02 -0.13623775040E+02  0.73410050203E+02  0.00000000000E+00 0. -1.
         21    1    1    2  504  506  0.60511981382E+02  0.19908955959E+02  0.24129794833E+02  0.68119845984E+02  0.00000000000E+00 0. -1.
         21    1    1    2  505  504  0.24525270270E+02 -0.48470788042E+02  0.80240035203E+03  0.80423704908E+03  0.00000000000E+00 0. -1.
         21    1    1    2  506  502 -0.75041638376E+02  0.10000072863E+03 -0.30017904872E+02  0.12857864453E+03  0.00000000000E+00 0. -1.
<scales pt_clust_3="14000.00000" pt_clust_4="69.57090" pt_clust_5="54.32224" pt_clust_6="85.14407"></scales>
<clustering>
<clus scale="   54.322">  1  5  2 -1</clus>
<clus scale="   69.571">  1  4  2 -1</clus>
<clus scale="   85.144">  1  6  2 -1</clus>
<clus scale="   54.322">  1  3  2 -1</clus>
</clustering>
</event>
<event>
 6    0  0.6207838E+002  0.7313119E+02  0.7546771E-02  0.1349758E+00
         21   -1    0    0  505  501  0.00000000000E+00  0.00000000000E+00  0.14900775779E+04  0.14900775779E+04  0.00000000000E+00 0. -1.
         21   -1    0    0  504  502 -0.00000000000E+00 -0.00000000000E+00 -0.37071201203E+02  0.37071201203E+02  0.00000000000E+00 0. -1.
         21    1    1    2  503  502 -0.61505989464E+02  0.23771039886E+02  0.54151507688E+02  0.85325464324E+02  0.00000000000E+00 0. -1.
         21    1    1    2  504  501 -0.22901317378E+02 -0.10680424899E+03  0.22879683828E+03  0.25353424058E+03  0.00000000000E+00 0.  1.
         21    1    1    2  505  506  0.43334224757E+01  0.69456735146E+02  0.96830353447E+03  0.97080108749E+03  0.00000000000E+00 0. -1.
         21    1    1    2  506  503  0.80073884367E+02  0.13576473955E+02  0.20175449628E+03  0.21748798673E+03  0.00000000000E+00 0. -1.
<scales pt_clust_3="65.93974" pt_clust_4="73.13119" pt_clust_5="14000.00000" pt_clust_6="61.71489"></scales>
<clustering>
<clus scale="   65.940">  2  3  1 -1</clus>
<clus scale="   61.715">  2  6  1 -1</clus>
<clus scale="   73.131">  2  4  1 -1</clus>
<clus scale="   73.131">  1  3  2 -1</clus>
</clustering>
</event>
<event>
 6    0  0.6207838E+002  0.2668104E+03  0.7546771E-02  0.1103119E+00
         21   -1    0    0  506  501  0.00000000000E+00  0.00000000000E+00  0.32019583403E+03  0.32019583403E+03  0.00000000000E+00 0. -1.
         21   -1    0    0  504  502 -0.00000000000E+00 -0.00000000000E+00 -0.34388995791E+03  0.34388995791E+03  0.00000000000E+00 0. -1.
         21    1    1    2  503  502  0.10179992033E+03  0.16711806362E+03 -0.11203992238E+03  0.22548750558E+03  0.00000000000E+00 0. -1.
         21    1    1    2  504  505 -0.27909486680E+02  0.48968186772E+02 -0.70117247046E+02  0.89962498275E+02  0.00000000000E+00 0. -1.
         21    1    1    2  505  501 -0.83692810981E+02 -0.25487231270E+03  0.15132180752E+03  0.30799784386E+03  0.00000000000E+00 0. -1.
         21    1    1    2  506  503  0.98023773353E+01  0.38786062303E+02  0.71412380148E+01  0.40637944224E+02  0.00000000000E+00 0.  1.
<scales pt_clust_3="31.86768" pt_clust_4="56.36331" pt_clust_5="257.33318" pt_clust_6="31.86768"></scales>
<clustering>
<clus scale="   31.868">  3  6 -1 -1</clus>
<clus scale="   56.363">  2  4  1 -1</clus>
<clus scale="  257.333">  1  5  2 -1</clus>
<clus scale="  257.333">  1  3  2 -1</clus>
</clustering>
</event>
<event>
 6    0  0.6207838E+002  0.1176514E+03  0.7546771E-02  0.1247023E+00
         21   -1    0    0  504  501  0.00000000000E+00  0.00000000000E+00  0.12276849985E+03  0.12276849985E+03  0.00000000000E+00 0.  1.
         21   -1    0    0  505  502 -0.00000000000E+00 -0.00000000000E+00 -0.30317698135E+03  0.30317698135E+03  0.00000000000E+00 0.  1.
         21    1    1    2  503  502  0.72144155043E+02 -0.43940108696E+02 -0.34903302432E+02  0.91398866403E+02  0.00000000000E+00 0.  1.
         21    1    1    2  504  503  0.55403061649E+02 -0.34650002385E+02  0.49020347299E+01  0.65529778344E+02  0.00000000000E+00 0.  1.
         21    1    1    2  505  506 -0.69738293845E+02  0.77987210938E+02 -0.17682338501E+03  0.20545545548E+03  0.00000000000E+00 0.  1.
         21    1    1    2  506  501 -0.57808922846E+02  0.60290014280E+00  0.26416171212E+02  0.63561380969E+02  0.00000000000E+00 0.  1.
<scales pt_clust_3="31.48968" pt_clust_4="31.48968" pt_clust_5="112.07156" pt_clust_6="57.81207"></scales>
<clustering>
<clus scale="   31.490">  3  4 -1 -1</clus>
<clus scale="   57.812">  1  6  2 -1</clus>
<clus scale="  112.072">  2  5  1 -1</clus>
<clus scale="   57.812">  1  3  2 -1</clus>
</clustering>
</event>
<event>
 6    0  0.6207838E+002  0.1649936E+03  0.7546771E-02  0.1183172E+00
         21   -1    0    0  505  501  0.00000000000E+00  0.00000000000E+00  0.25921460388E+04  0.25921460388E+04  0.00000000000E+00 0.  1.
         21   -1    0    0  506  502 -0.00000000000E+00 -0.00000000000E+00 -0.38608191942E+03  0.38608191942E+03  0.00000000000E+00 0.  1.
         21    1    1    2  503  501  0.57269003182E+02 -0.57315318365E+02  0.11641837619E+02  0.81855463030E+02  0.00000000000E+00 0.  1.
         21    1    1    2  504  503 -0.70301148677E+02  0.24193795507E+03  0.54913870474E+02  0.25785995963E+03  0.00000000000E+00 0.  1.
         21    1    1    2  505  502 -0.11364840698E+02 -0.34300375528E+02  0.23656213590E+04  0.23658973117E+04  0.00000000000E+00 0.  1.
         21    1    1    2  506  504  0.24396986193E+02 -0.15032226118E+03 -0.22611294772E+03  0.27261522384E+03  0.00000000000E+00 0.  1.
<scales pt_clust_3="84.63798" pt_clust_4="14000.00000" pt_clust_5="36.13413" pt_clust_6="164.99364"></scales>
<clustering>
<clus scale="   36.134">  1  5  2 -1</clus>
<clus scale="   84.638">  1  3  2 -1</clus>
<clus scale="  164.994">  2  6  1 -1</clus>
<clus scale="   36.134">  1  3  2 -1</clus>
</clustering>
</event>
<event>
 6    0  0.6207838E+002  0.1334211E+03  0.7546771E-02  0.1222466E+00
         21   -1    0    0  505  501  0.00000000000E+00  0.00000000000E+00  0.11338335219E+04  0.11338335219E+04  0.00000000000E+00 0. -1.
         21   -1    0    0  506  502 -0.00000000000E+00 -0.00000000000E+00 -0.95846041232E+02  0.95846041232E+02  0.00000000000E+00 0.  1.
         21    1    1    2  503  501  0.22329296654E+02  0.34111916609E+02  0.22928743075E+03  0.23288397593E+03  0.00000000000E+00 0. -1.
         21    1    1    2  504  502 -0.12442755073E+03  0.44445060589E+02 -0.27614495243E+02  0.13498199561E+03  0.00000000000E+00 0.  1.
         21    1    1    2  505  504 -0.35618461178E+02 -0.11613451767E+02  0.61495564892E+02  0.72008690725E+02  0.00000000000E+00 0.  1.
         21    1    1    2  506  503  0.13771671525E+03 -0.66943525431E+02  0.77481898026E+03  0.78980490086E+03  0.00000000000E+00 0. -1.
<scales pt_clust_3="34.81361" pt_clust_4="133.42107" pt_clust_5="37.46394" pt_clust_6="14000.00000"></scales>
<clustering>
<clus scale="   37.464">  1  5  2 -1</clus>
<clus scale="   34.814">  1  3  2 -1</clus>
<clus scale="  133.421">  2  4  1 -1</clus>
<clus scale="   37.464">  1  3  2 -1</clus>
</clustering>
</event>
<event>
 6    0  0.6207838E+002  0.2218372E+03  0.7546771E-02  0.1132521E+00
         21   -1    0    0  503  501  0.00000000000E+00  0.00000000000E+00  0.26280878313E+04  0.26280878313E+04  0.00000000000E+00 0.  1.
         21   -1    0    0  505  502 -0.00000000000E+00 -0.00000000000E+00 -0.67127531668E+02  0.67127531668E+02  0.00000000000E+00 0.  1.
         21    1    1    2  503  506 -0.38757927314E+02  0.29039026944E+02  0.12205176425E+03  0.13130908259E+03  0.00000000000E+00 0.  1.
         21    1    1    2  504  502 -0.34094639703E+02 -0.44757515312E+01 -0.12558759528E+02  0.36608731870E+02  0.00000000000E+00 0.  1.
         21    1    1    2  505  501  0.18847578476E+03 -0.92531905169E+02  0.23493810184E+04  0.23587446756E+04  0.00000000000E+00 0.  1.
         21    1    1    2  506  504 -0.11562321774E+03  0.67968629756E+02  0.10208627644E+03  0.16855287286E+03  0.00000000000E+00 0.  1.
<scales pt_clust_3="45.91843" pt_clust_4="34.38716" pt_clust_5="206.82460" pt_clust_6="45.91843"></scales>
<clustering>
<clus scale="   34.387">  2  4  1 -1</clus>
<clus scale="   45.918">  3  6 -1 -1</clus>
<clus scale="  206.825">  1  5  2 -1</clus>
<clus scale="  206.825">  1  3  2 -1</clus>
</clustering>
</event>
<event>
 6    0  0.6207838E+002  0.9125234E+02  0.7546771E-02  0.1299847E+00
         21   -1    0    0  506  501  0.00000000000E+00  0.00000000000E+00  0.33191173616E+03  0.33191173616E+03  0.00000000000E+00 0.  1.
         21   -1    0    0  505  502 -0.00000000000E+00 -0.00000000000E+00 -0.26327723539E+03  0.26327723539E+03  0.00000000000E+00 0. -1.
         21    1    1    2  503  504  0.43621802595E+02  0.62241862578E+02  0.90460139702E+02  0.11815222382E+03  0.00000000000E+00 0.  1.
         21    1    1    2  504  502 -0.72072644431E+02 -0.55249109339E+02 -0.10379469846E+02  0.91403848674E+02  0.00000000000E+00 0.  1.
         21    1    1    2  505  501  0.27865442333E+02 -0.47268047664E+02 -0.19249235897E+03  0.20016008460E+03  0.00000000000E+00 0. -1.
         21    1    1    2  506  503  0.58539950347E+00  0.40275294425E+02  0.18104618988E+03  0.18547281446E+03  0.00000000000E+00 0.  1.
<scales pt_clust_3="14000.00000" pt_clust_4="91.25234" pt_clust_5="53.98587" pt_clust_6="40.27955"></scales>
<clustering>
<clus scale="   40.280">  1  6  2 -1</clus>
<clus scale="   53.986">  2  5  1 -1</clus>
<clus scale="   91.252">  2  4  1 -1</clus>
<clus scale="   40.280">  1  3  2 -1</clus>
</clustering>
</event>
<event>
 6    0  0.6207838E+002  0.1357765E+03  0.7546771E-02  0.1219128E+00
         21   -1    0    0  506  501  0.00000000000E+00  0.00000000000E+00  0.24440225059E+03  0.24440225059E+03  0.00000000000E+00 0.  1.
         21   -1    0    0  505  502 -0.00000000000E+00 -0.00000000000E+00 -0.41852508148E+03  0.41852508148E+03  0.00000000000E+00 0.  1.
         21    1    1    2  503  502 -0.14566763519E+03 -0.45988930634E+02 -0.32087090000E+03  0.35537610521E+03  0.00000000000E+00 0.  1.
         21    1    1    2  504  503  0.47991201243E+02 -0.37959252466E+02  0.25508505310E+02  0.66292866039E+02  0.00000000000E+00 0.  1.
         21    1    1    2  505  501  0.48920373204E+02  0.98283875131E+02 -0.13754198540E-01  0.10978580607E+03  0.00000000000E+00 0.  1.
         21    1    1    2  506  504  0.48756060745E+02 -0.14335692030E+02  0.12125331800E+03  0.13147255475E+03  0.00000000000E+00 0.  1.
<scales pt_clust_3="135.77654" pt_clust_4="79.85960" pt_clust_5="14000.00000" pt_clust_6="50.81993"></scales>
<clustering>
<clus scale="   50.820">  1  6  2 -1</clus>
<clus scale="   79.860">  1  4  2 -1</clus>
<clus scale="  135.777">  2  3  1 -1</clus>
<clus scale="   50.820">  1  3  2 -1</clus>
</clustering>
</event>
<event>
 6    0  0.6207838E+002  0.8437754E+02  0.7546771E-02  0.1317068E+00
         21   -1    0    0  505  501  0.00000000000E+00  0.00000000000E+00  0.40948741175E+03  0.40948741175E+03  0.00000000000E+00 0. -1.
         21   -1    0    0  503  502 -0.00000000000E+00 -0.00000000000E+00 -0.20337655502E+03  0.20337655502E+03  0.00000000000E+00 0. -1.
         21    1    1    2  503  506  0.27075952103E+02  0.32263798106E+02 -0.61344780431E+02  0.74412646349E+02  0.00000000000E+00 0. -1.
         21    1    1    2  504  501 -0.35805046015E+02 -0.13551720474E+02  0.27536629262E+03  0.27801482974E+03  0.00000000000E+00 0. -1.
         21    1    1    2  505  502  0.10672586280E+03  0.19243610614E+02  0.70472932175E+02  0.12933352431E+03  0.00000000000E+00 0. -1.
         21    1    1    2  506  504 -0.97996768891E+02 -0.37955688246E+02 -0.78383587626E+02  0.13110296638E+03  0.00000000000E+00 0. -1.
<scales pt_clust_3="40.48683" pt_clust_4="38.28381" pt_clust_5="84.37754" pt_clust_6="14000.00000"></scales>
<clustering>
<clus scale="   38.284">  1  4  2 -1</clus>
<clus scale="   40.487">  2  3  1 -1</clus>
<clus scale="   84.378">  1  5  2 -1</clus>
<clus scale="   38.284">  1  3  2 -1</clus>
</clustering>
</event>
<event>
 6    0  0.6207838E+002  0.8687743E+02  0.7546771E-02  0.1310595E+00
         21   -1    0    0  505  501  0.00000000000E+00  0.00000000000E+00  0.26819164140E+03  0.26819164140E+03  0.00000000000E+00 0. -1.
         21   -1    0    0  503  502 -0.00000000000E+00 -0.00000000000E+00 -0.96445934701E+02  0.96445934701E+02  0.00000000000E+00 0.  1.
         21    1    1    2  503  501  0.58711025584E+02 -0.11099935546E+03  0.75611816536E+02  0.14657758437E+03  0.00000000000E+00 0. -1.
         21    1    1    2  504  506 -0.75641450023E+02  0.95390525500E+01  0.57167683769E+02  0.95293056162E+02  0.00000000000E+00 0.  1.
         21    1    1    2  505  504  0.18755746992E+02  0.57045939172E+02  0.48636171246E+02  0.77275444836E+02  0.00000000000E+00 0.  1.
         21    1    1    2  506  502 -0.18253225528E+01  0.44414363743E+02 -0.96699648534E+01  0.45491490736E+02  0.00000000000E+00 0.  1.
<scales pt_clust_3="86.87743" pt_clust_4="14000.00000" pt_clust_5="68.78154" pt_clust_6="44.45186"></scales>
<clustering>
<clus scale="   44.452">  2  6  1 -1</clus>
<clus scale="   68.782">  1  5  2 -1</clus>
<clus scale="   86.877">  2  3  1 -1</clus>
<clus scale="   68.782">  1  3  2 -1</clus>
</clustering>
</event>
<event>
 6    0  0.6207838E+002  0.1794881E+03  0.7546771E-02  0.1168299E+00
         21   -1    0    0  505  501  0.00000000000E+00  0.00000000000E+00  0.27635232048E+03  0.27635232048E+03  0.00000000000E+00 0. -1.
         21   -1    0    0  503  502 -0.00000000000E+00 -0.00000000000E+00 -0.15553845761E+04  0.15553845761E+04  0.00000000000E+00 0.  1.
         21    1    1    2  503  504  0.23573195275E+02 -0.38567125194E+02 -0.79957650135E+03  0.80085310775E+03  0.00000000000E+00 0.  1.
         21    1    1    2  504  501 -0.12482753074E+02  0.16723923532E+03  0.24223750717E+03  0.29462483064E+03  0.00000000000E+00 0. -1.
         21    1    1    2  505  506  0.22353178642E+02 -0.47741902844E+02 -0.18099614577E+03  0.18851673312E+03  0.00000000000E+00 0.  1.
         21    1    1    2  506  502 -0.33443620844E+02 -0.80930207279E+02 -0.54069711571E+03  0.54774222510E+03  0.00000000000E+00 0.  1.
<scales pt_clust_3="45.20087" pt_clust_4="166.31110" pt_clust_5="51.38429" pt_clust_6="51.38429"></scales>
<clustering>
<clus scale="   45.201">  2  3  1 -1</clus>
<clus scale="   51.384">  5  6 -1 -1</clus>
<clus scale="  166.311">  1  4  2 -1</clus>
<clus scale="  166.311">  1  3  2 -1</clus>
</clustering>
</event>
<event>
 6    0  0.6207838E+002  0.7164410E+02  0.7546771E-02  0.1354590E+00
         21   -1    0    0  503  501  0.00000000000E+00  0.00000000000E+00  0.34767922565E+03  0.34767922565E+03  0.00000000000E+00 0.  1.
         21   -1    0    0  504  502 -0.00000000000E+00 -0.00000000000E+00 -0.55445733692E+02  0.55445733692E+02  0.00000000000E+00 0.  1.
         21    1    1    2  503  506 -0.17380145280E+02 -0.51738451749E+02  0.80111309194E+02  0.96936879979E+02  0.00000000000E+00 0.  1.
         21    1    1    2  504  505 -0.43991738755E+02 -0.12380615909E+01  0.20621647742E+02  0.48601010594E+02  0.00000000000E+00 0.  1.
         21    1    1    2  505  501  0.23467162353E+02  0.99978553351E+02  0.15826059756E+03  0.18866063600E+03  0.00000000000E+00 0.  1.
         21    1    1    2  506  502  0.37904721681E+02 -0.47002040012E+02  0.33239937471E+02  0.68926432768E+02  0.00000000000E+00 0.  1.
<scales pt_clust_3="14000.00000" pt_clust_4="44.00916" pt_clust_5="71.64410" pt_clust_6="51.18039"></scales>
<clustering>
<clus scale="   44.009">  2  4  1 -1</clus>
<clus scale="   51.180">  2  6  1 -1</clus>
<clus scale="   71.644">  2  5  1 -1</clus>
<clus scale="   71.644">  1  3  2 -1</clus>
</clustering>
</event>
<event>
 6    0  0.6207838E+002  0.1704846E+03  0.7546771E-02  0.1177343E+00
         21   -1    0    0  505  501  0.00000000000E+00  0.00000000000E+00  0.18569763702E+03  0.18569763702E+03  0.00000000000E+00 0. -1.
         21   -1    0    0  503  502 -0.00000000000E+00 -0.00000000000E+00 -0.11479668581E+04  0.11479668581E+04  0.00000000000E+00 0. -1.
         21    1    1    2  503  504  0.46070832377E+02 -0.94328975844E+01 -0.81391175541E+02  0.94000130897E+02  0.00000000000E+00 0. -1.
         21    1    1    2  504  501 -0.63977757862E+01  0.98404115926E+02 -0.22040992594E+03  0.24146394559E+03  0.00000000000E+00 0. -1.
         21    1    1    2  505  506 -0.11874960500E+03 -0.12941395792E+03  0.11998431029E+03  0.21271030983E+03  0.00000000000E+00 0. -1.
         21    1    1    2  506  502  0.79076548406E+02  0.40442739578E+02 -0.78045242993E+03  0.78549010883E+03  0.00000000000E+00 0. -1.
<scales pt_clust_3="47.02660" pt_clust_4="96.41816" pt_clust_5="14000.00000" pt_clust_6="170.48457"></scales>
<clustering>
<clus scale="   47.027">  2  3  1 -1</clus>
<clus scale="   96.418">  2  4  1 -1</clus>
<clus scale="  170.485">  2  6  1 -1</clus>
<clus scale="  170.485">  1  3  2 -1</clus>
</clustering>
</event>
<event>
 6    0  0.6207838E+002  0.1415234E+03  0.7546771E-02  0.1211294E+00
         21   -1    0    0  506  501  0.00000000000E+00  0.00000000000E+00  0.13634848928E+03  0.13634848928E+03  0.00000000000E+00 0.  1.
         21   -1    0    0  503  502 -0.00000000000E+00 -0.00000000000E+00 -0.65086499469E+03  0.65086499469E+03  0.00000000000E+00 0.  1.
         21    1    1    2  503  505 -0.73771697721E-02  0.41057204911E+02 -0.20250454776E+03  0.20662474681E+03  0.00000000000E+00 0.  1.
         21    1    1    2  504  502 -0.74725114331E+01 -0.29264649409E+02 -0.96518329831E+02  0.10113380308E+03  0.00000000000E+00 0.  1.
         21    1    1    2  505  501 -0.34684715535E+02  0.12506470425E+03 -0.29022536757E+03  0.31792290531E+03  0.00000000000E+00 0.  1.
         21    1    1    2  506  504  0.42164604138E+02 -0.13685725975E+03  0.74731739761E+02  0.16153202876E+03  0.00000000000E+00 0.  1.
<scales pt_clust_3="30.34014" pt_clust_4="30.20361" pt_clust_5="141.52337" pt_clust_6="14000.00000"></scales>
<clustering>
<clus scale="   30.204">  2  4  1 -1</clus>
<clus scale="   30.340">  2  3  1 -1</clus>
<clus scale="  141.523">  2  5  1 -1</clus>
<clus scale="  141.523">  1  3  2 -1</clus>
</clustering>
</event>
<event>
 6    0  0.6207838E+002  0.1386976E+03  0.7546771E-02  0.1215092E+00
         21   -1    0    0  504  501  0.00000000000E+00  0.00000000000E+00  0.62131319322E+02  0.62131319322E+02  0.00000000000E+00 0. -1.
         21   -1    0    0  503  502 -0.00000000000E+00 -0.00000000000E+00 -0.47634011092E+03  0.47634011092E+03  0.00000000000E+00 0. -1.
         21    1    1    2  503  506  0.26705946675E+02 -0.19411281894E+02 -0.16327043569E+03  0.16657503001E+03  0.00000000000E+00 0. -1.
         21    1    1    2  504  502  0.10468113005E+03  0.67797253672E+02 -0.14571544209E+03  0.19180092976E+03  0.00000000000E+00 0. -1.
         21    1    1    2  505  501 -0.47163215250E+02 -0.21395006725E+02 -0.15380564447E+02  0.54024780871E+02  0.00000000000E+00 0. -1.
         21    1    1    2  506  505 -0.84223861473E+02 -0.26990965053E+02 -0.89842349373E+02  0.12607068960E+03  0.00000000000E+00 0. -1.
<scales pt_clust_3="33.01523" pt_clust_4="132.20542" pt_clust_5="32.09147" pt_clust_6="32.09147"></scales>
<clustering>
<clus scale="   32.091">  5  6 -1 -1</clus>
<clus scale="   33.015">  2  3  1 -1</clus>
<clus scale="  132.205">  2  4  1 -1</clus>
<clus scale="  138.698">  1  3  2 -1</clus>
</clustering>
</event>
<event>
 6    0  0.6207838E+002  0.1297061E+03  0.7546771E-02  0.1227892E+00
         21   -1    0    0  506  501  0.00000000000E+00  0.00000000000E+00  0.16919601151E+04  0.16919601151E+04  0.00000000000E+00 0.  1.
         21   -1    0    0  504  502 -0.00000000000E+00 -0.00000000000E+00 -0.12635561759E+04  0.12635561759E+04  0.00000000000E+00 0. -1.
         21    1    1    2  503  501 -0.26671069502E+02 -0.11232899155E+03  0.15910697112E+04  0.15952529500E+04  0.00000000000E+00 0.  1.
         21    1    1    2  504  503 -0.42945280113E+02 -0.28124042458E+02 -0.12667853393E+03  0.13668470949E+03  0.00000000000E+00 0. -1.
         21    1    1    2  505  502 -0.12454177332E+02  0.14550361113E+03 -0.11059904286E+04  0.11155900840E+04  0.00000000000E+00 0. -1.
         21    1    1    2  506  505  0.82070526947E+02 -0.50505771277E+01  0.70003190501E+02  0.10798854755E+03  0.00000000000E+00 0. -1.
<scales pt_clust_3="129.70613" pt_clust_4="51.33477" pt_clust_5="14000.00000" pt_clust_6="81.53715"></scales>
<clustering>
<clus scale="   51.335">  2  4  1 -1</clus>
<clus scale="   81.537">  1  6  2 -1</clus>
<clus scale="  129.706">  1  3  2 -1</clus>
<clus scale="   81.537">  1  3  2 -1</clus>
</clustering>
</event>
<event>
 6    0  0.6207838E+002  0.1063465E+03  0.7546771E-02  0.1267489E+00
         21   -1    0    0  503  501  0.00000000000E+00  0.00000000000E+00  0.57947700253E+03  0.57947700253E+03  0.00000000000E+00 0. -1.
         21   -1    0    0  504  502 -0.00000000000E+00 -0.00000000000E+00 -0.14359967335E+03  0.14359967335E+03  0.00000000000E+00 0.  1.
         21    1    1    2  503  502  0.30315828100E+02 -0.84186485647E+01  0.11411825955E+03  0.11837609657E+03  0.00000000000E+00 0. -1.
         21    1    1    2  504  505  0.36232322828E+02 -0.10137387813E+03 -0.10685103299E+03  0.15167922612E+03  0.00000000000E+00 0.  1.
         21    1    1    2  505  506 -0.21521459779E+02  0.84156105896E+02  0.33445705727E+03  0.34555310236E+03  0.00000000000E+00 0. -1.
         21    1    1    2  506  501 -0.45026691150E+02  0.25636420800E+02  0.94153045351E+02  0.10746825083E+03  0.00000000000E+00 0. -1.
<scales pt_clust_3="31.46304" pt_clust_4="106.34652" pt_clust_5="14000.00000" pt_clust_6="45.20451"></scales>
<clustering>
<clus scale="   31.463">  1  3  2 -1</clus>
<clus scale="   45.205">  1  6  2 -1</clus>
<clus scale="  106.347">  2  4  1 -1</clus>
<clus scale="   31.463">  1  3  2 -1</clus>
</clustering>
</event>
<event>
 6    0  0.6207838E+002  0.1091584E+03  0.7546771E-02  0.1262136E+00
         21   -1    0    0  506  501  0.00000000000E+00  0.00000000000E+00  0.25802219930E+04  0.25802219930E+04  0.00000000000E+00 0. -1.
         21   -1    0    0  504  502 -0.00000000000E+00 -0.00000000000E+00 -0.15868788551E+03  0.15868788551E+03  0.00000000000E+00 0.  1.
         21    1    1    2  503  502 -0.11126809537E+03 -0.85885170807E+02  0.16847363955E+03  0.21940879388E+03  0.00000000000E+00 0. -1.
         21    1    1    2  504  501  0.41163662022E+02  0.36129347085E+02 -0.10192679088E+03  0.11571018749E+03  0.00000000000E+00 0.  1.
         21    1    1    2  505  503  0.96399842472E+02 -0.12994768495E+02  0.75101885044E+02  0.12289054794E+03  0.00000000000E+00 0. -1.
         21    1    1    2  506  505 -0.26295409125E+02  0.62750592217E+02  0.22798853738E+04  0.22809003492E+04  0.00000000000E+00 0. -1.
<scales pt_clust_3="14000.00000" pt_clust_4="54.77022" pt_clust_5="109.15842" pt_clust_6="68.21663"></scales>
<clustering>
<clus scale="   54.770">  2  4  1 -1</clus>
<clus scale="   68.217">  1  6  2 -1</clus>
<clus scale="  109.158">  1  5  2 -1</clus>
<clus scale="   68.217">  1  3  2 -1</clus>
</clustering>
</event>
<event>
 6    0  0.6207838E+002  0.1343558E+03  0.7546771E-02  0.1221132E+00
         21   -1    0    0  506  501  0.00000000000E+00  0.00000000000E+00  0.74260793701E+02  0.74260793701E+02  0.00000000000E+00 0.  1.
         21   -1    0    0  501  502 -0.00000000000E+00 -0.00000000000E+00 -0.74045102807E+03  0.74045102807E+03  0.00000000000E+00 0. -1.
         21    1    1    2  503  504 -0.93848673087E+02  0.60965506824E+01 -0.18292341074E+03  0.20568353256E+03  0.00000000000E+00 0. -1.
         21    1    1    2  504  502 -0.35075118013E+02  0.38682047382E+02 -0.45631325088E+03  0.45929113602E+03  0.00000000000E+00 0. -1.
         21    1    1    2  505  503  0.38896241937E+02  0.44122720071E+00 -0.29720090018E+02  0.48952998569E+02  0.00000000000E+00 0.  1.
         21    1    1    2  506  505  0.90027549164E+02 -0.45219825265E+02  0.27665172700E+01  0.10078415462E+03  0.00000000000E+00 0.  1.
<scales pt_clust_3="122.40596" pt_clust_4="52.21652" pt_clust_5="34.41907" pt_clust_6="34.41907"></scales>
<clustering>
<clus scale="   34.419">  5  6 -1 -1</clus>
<clus scale="   52.217">  2  4  1 -1</clus>
<clus scale="  122.406">  2  3  1 -1</clus>
<clus scale="  134.356">  1  3  2 -1</clus>
</clustering>
</event>
<event>
 6    0  0.6207838E+002  0.1325107E+03  0.7546771E-02  0.1223777E+00
         21   -1    0    0  503  501  0.00000000000E+00  0.00000000000E+00  0.14002730112E+03  0.14002730112E+03  0.00000000000E+00 0. -1.
         21   -1    0    0  505  502 -0.00000000000E+00 -0.00000000000E+00 -0.51552042604E+03  0.51552042604E+03  0.00000000000E+00 0.  1.
         21    1    1    2  503  506 -0.13599005613E+03  0.33840457484E+02  0.65999587658E+02  0.15490131536E+03  0.00000000000E+00 0. -1.
         21    1    1    2  504  501  0.76975923873E+02 -0.80611750747E+02 -0.19499683383E+03  0.22460479162E+03  0.00000000000E+00 0.  1.
         21    1    1    2  505  504  0.84050634657E+02  0.19922487852E+02 -0.15478857777E+03  0.17725946665E+03  0.00000000000E+00 0.  1.
         21    1    1    2  506  502 -0.25036502403E+02  0.26848805410E+02 -0.91707300975E+02  0.98782153533E+02  0.00000000000E+00 0.  1.
<scales pt_clust_3="14000.00000" pt_clust_4="132.51065" pt_clust_5="80.19823" pt_clust_6="36.71083"></scales>
<clustering>
<clus scale="   36.711">  2  6  1 -1</clus>
<clus scale="   80.198">  2  5  1 -1</clus>
<clus scale="  132.511">  2  4  1 -1</clus>
<clus scale="  132.511">  1  3  2 -1</clus>
</clustering>
</event>
<event>
 6    0  0.6207838E+002  0.1531244E+03  0.7546771E-02  0.1196686E+00
         21   -1    0    0  504  501  0.00000000000E+00  0.00000000000E+00  0.60060223392E+03  0.60060223392E+03  0.00000000000E+00 0.  1.
         21   -1    0    0  505  502 -0.00000000000E+00 -0.00000000000E+00 -0.15707763096E+03  0.15707763096E+03  0.00000000000E+00 0.  1.
         21    1    1    2  503  502 -0.15109743548E+02  0.27835249326E+02  0.18916515503E+02  0.36890920480E+02  0.00000000000E+00 0.  1.
         21    1    1    2  504  503  0.23719525236E+02  0.37928055156E+02  0.31659556639E+02  0.54804021494E+02  0.00000000000E+00 0.  1.
         21    1    1    2  505  506  0.13527654407E+03  0.59487238799E+02 -0.71293499600E+02  0.16407692721E+03  0.00000000000E+00 0.  1.
         21    1    1    2  506  501 -0.14388632576E+03 -0.12525054328E+03  0.46424203042E+03  0.50190799570E+03  0.00000000000E+00 0.  1.
<scales pt_clust_3="31.67184" pt_clust_4="46.00286" pt_clust_5="153.12438" pt_clust_6="14000.00000"></scales>
<clustering>
<clus scale="   31.672">  2  3  1 -1</clus>
<clus scale="   46.003">  1  4  2 -1</clus>
<clus scale="  153.124">  2  5  1 -1</clus>
<clus scale="   46.003">  1  3  2 -1</clus>
</clustering>
</event>
<event>
 6    0  0.6207838E+002  0.8600995E+02  0.7546771E-02  0.1312812E+00
         21   -1    0    0  505  501  0.00000000000E+00  0.00000000000E+00  0.27938662523E+03  0.27938662523E+03  0.00000000000E+00 0.  1.
         21   -1    0    0  504  502 -0.00000000000E+00 -0.00000000000E+00 -0.47763536097E+03  0.47763536097E+03  0.00000000000E+00 0.  1.
         21    1    1    2  503  502  0.11506065588E+02 -0.39144476185E+02 -0.22825262928E+03  0.23187052925E+03  0.00000000000E+00 0.  1.
         21    1    1    2  504  506 -0.29940223648E+02  0.52193930042E+02 -0.20979046199E+02  0.63723964917E+02  0.00000000000E+00 0. -1.
         21    1    1    2  505  503  0.25118281285E+02 -0.80484587688E+02 -0.19172066956E+03  0.20944095122E+03  0.00000000000E+00 0.  1.
         21    1    1    2  506  501 -0.66841232252E+01  0.67435133831E+02  0.24270360930E+03  0.25198654080E+03  0.00000000000E+00 0.  1.
<scales pt_clust_3="36.31882" pt_clust_4="60.17162" pt_clust_5="36.31882" pt_clust_6="68.35142"></scales>
<clustering>
<clus scale="   36.319">  3  5 -1 -1</clus>
<clus scale="   60.172">  2  4  1 -1</clus>
<clus scale="   68.351">  1  6  2 -1</clus>
<clus scale="   68.351">  1  3  2 -1</clus>
</clustering>
</event>
<event>
 6    0  0.6207838E+002  0.6796830E+02  0.7546771E-02  0.1367141E+00
         21   -1    0    0  502  501  0.00000000000E+00  0.00000000000E+00  0.18102405383E+03  0.18102405383E+03  0.00000000000E+00 0.  1.
         21   -1    0    0  505  502 -0.00000000000E+00 -0.00000000000E+00 -0.14182767474E+03  0.14182767474E+03  0.00000000000E+00 0.  1.
         21    1    1    2  503  506 -0.37762655853E+02 -0.43630830530E+02 -0.57806394386E+01  0.57992097239E+02  0.00000000000E+00 0.  1.
         21    1    1    2  504  501  0.43226347451E+02 -0.24128966611E+02  0.67415439279E+02  0.83639497828E+02  0.00000000000E+00 0.  1.
         21    1    1    2  505  503  0.28608740185E+02 -0.31294894026E+02 -0.56886772458E+02  0.70950231062E+02  0.00000000000E+00 0.  1.
         21    1    1    2  506  504 -0.34072431783E+02  0.99054691167E+02  0.34448351706E+02  0.11026990244E+03  0.00000000000E+00 0.  1.
<scales pt_clust_3="67.96830" pt_clust_4="53.71207" pt_clust_5="42.40083" pt_clust_6="14000.00000"></scales>
<clustering>
<clus scale="   42.401">  2  5  1 -1</clus>
<clus scale="   53.712">  1  4  2 -1</clus>
<clus scale="   67.968">  2  3  1 -1</clus>
<clus scale="   53.712">  1  3  2 -1</clus>
</clustering>
</event>
<event>
 6    0  0.6207838E+002  0.1197907E+03  0.7546771E-02  0.1243443E+00
         21   -1    0    0  506  501  0.00000000000E+00  0.00000000000E+00  0.21139721157E+03  0.21139721157E+03  0.00000000000E+00 0.  1.
         21   -1    0    0  503  502 -0.00000000000E+00 -0.00000000000E+00 -0.14179632512E+04  0.14179632512E+04  0.00000000000E+00 0. -1.
         21    1    1    2  503  501  0.47181826267E+02  0.88103399288E+00 -0.14778495537E+02  0.49450024076E+02  0.00000000000E+00 0.  1.
         21    1    1    2  504  502  0.18627016377E+02 -0.27998373128E+02 -0.11136479581E+04  0.11141555767E+04  0.00000000000E+00 0. -1.
         21    1    1    2  505  504  0.54828353840E+02  0.56209288475E+02 -0.24530323167E+03  0.25756418222E+03  0.00000000000E+00 0. -1.
         21    1    1    2  506  505 -0.12063719648E+03 -0.29091949340E+02  0.16716364567E+03  0.20819067973E+03  0.00000000000E+00 0.  1.
<scales pt_clust_3="49.19300" pt_clust_4="33.62848" pt_clust_5="119.79069" pt_clust_6="14000.00000"></scales>
<clustering>
<clus scale="   33.628">  2  4  1 -1</clus>
<clus scale="   49.193">  2  3  1 -1</clus>
<clus scale="  119.791">  2  5  1 -1</clus>
<clus scale="  119.791">  1  3  2 -1</clus>
</clustering>
</event>
<event>
 6    0  0.6207838E+002  0.1156472E+03  0.7546771E-02  0.1250456E+00
         21   -1    0    0  506  501  0.00000000000E+00  0.00000000000E+00  0.31927838192E+04  0.31927838192E+04  0.00000000000E+00 0.  1.
         21   -1    0    0  505  502 -0.00000000000E+00 -0.00000000000E+00 -0.84816077680E+02  0.84816077680E+02  0.00000000000E+00 0.  1.
         21    1    1    2  503  501 -0.11581935888E+03 -0.26126861775E+02  0.28480034604E+04  0.28504772315E+04  0.00000000000E+00 0.  1.
         21    1    1    2  504  502  0.85873824678E+02  0.14119806389E+02  0.68591524153E+02  0.11080830241E+03  0.00000000000E+00 0. -1.
         21    1    1    2  505  503  0.33779595242E+02 -0.31620293083E+02 -0.51668882555E+02  0.69358326204E+02  0.00000000000E+00 0.  1.
         21    1    1    2  506  504 -0.38340610366E+01  0.43627348470E+02  0.24304163956E+03  0.24695603681E+03  0.00000000000E+00 0.  1.
<scales pt_clust_3="14000.00000" pt_clust_4="115.64723" pt_clust_5="46.17213" pt_clust_6="43.79550"></scales>
<clustering>
<clus scale="   43.795">  1  6  2 -1</clus>
<clus scale="   46.172">  2  5  1 -1</clus>
<clus scale="  115.647">  2  4  1 -1</clus>
<clus scale="   43.795">  1  3  2 -1</clus>
</clustering>
</event>
<event>
 6    0  0.6207838E+002  0.7060822E+02  0.7546771E-02  0.1358037E+00
         21   -1    0    0  503  501  0.00000000000E+00  0.00000000000E+00  0.10447880909E+03  0.10447880909E+03  0.00000000000E+00 0. -1.
         21   -1    0    0  506  502 -0.00000000000E+00 -0.00000000000E+00 -0.26892775222E+03  0.26892775222E+03  0.00000000000E+00 0. -1.
         21    1    1    2  503  505  0.90615837600E+01  0.55963324090E+02 -0.12132420417E+02  0.57975870572E+02  0.00000000000E+00 0. -1.
         21    1    1    2  504  501  0.45369970886E+02 -0.30560634443E+02 -0.24453099142E+02  0.59919451711E+02  0.00000000000E+00 0. -1.
         21    1    1    2  505  502 -0.44877287600E+02  0.56296127925E+02 -0.15334047511E+03  0.16940049076E+03  0.00000000000E+00 0. -1.
         21    1    1    2  506  504 -0.95542670458E+01 -0.81698817572E+02  0.25477051546E+02  0.86110748266E+02  0.00000000000E+00 0. -1.
<scales pt_clust_3="52.31029" pt_clust_4="54.70271" pt_clust_5="14000.00000" pt_clust_6="70.60822"></scales>
<clustering>
<clus scale="   54.703">  1  4  2 -1</clus>
<clus scale="   52.310">  1  3  2 -1</clus>
<clus scale="   70.608">  1  6  2 -1</clus>
<clus scale="   54.703">  1  3  2 -1</clus>
</clustering>
</event>
<event>
 6    0  0.6207838E+002  0.7726820E+02  0.7546771E-02  0.1336988E+00
         21   -1    0    0  505  501  0.00000000000E+00  0.00000000000E+00  0.80756708149E+02  0.80756708149E+02  0.00000000000E+00 0.  1.
         21   -1    0    0  503  502 -0.00000000000E+00 -0.00000000000E+00 -0.77682544737E+03  0.77682544737E+03  0.00000000000E+00 0.  1.
         21    1    1    2  503  501  0.10233070772E+03 -0.43428882578E+02 -0.10799155182E+03  0.15498327925E+03  0.00000000000E+00 0.  1.
         21    1    1    2  504  506 -0.44669481855E+02  0.27266023262E+02 -0.10902868295E+03  0.12093821703E+03  0.00000000000E+00 0.  1.
         21    1    1    2  505  504 -0.63175798571E+01 -0.37591696866E+02  0.41199493515E+02  0.56128831758E+02  0.00000000000E+00 0.  1.
         21    1    1    2  506  502 -0.51343646009E+02  0.53754556182E+02 -0.52024799798E+03  0.52553182748E+03  0.00000000000E+00 0.  1.
<scales pt_clust_3="77.26820" pt_clust_4="50.13165" pt_clust_5="38.11886" pt_clust_6="14000.00000"></scales>
<clustering>
<clus scale="   38.119">  1  5  2 -1</clus>
<clus scale="   50.132">  1  4  2 -1</clus>
<clus scale="   77.268">  1  3  2 -1</clus>
<clus scale="   38.119">  1  3  2 -1</clus>
</clustering>
</event>
<event>
 6    0  0.6207838E+002  0.1176378E+03  0.7546771E-02  0.1247046E+00
         21   -1    0    0  503  501  0.00000000000E+00  0.00000000000E+00  0.23544042368E+04  0.23544042368E+04  0.00000000000E+00 0. -1.
         21   -1    0    0  504  502 -0.00000000000E+00 -0.00000000000E+00 -0.37017923943E+02  0.37017923943E+02  0.00000000000E+00 0. -1.
         21    1    1    2  503  505  0.23365845885E+02  0.12268287826E+03  0.16842395325E+04  0.16888634800E+04  0.00000000000E+00 0. -1.
         21    1    1    2  504  501  0.87687237771E+02 -0.93794027152E+02  0.37183780700E+03  0.39338241688E+03  0.00000000000E+00 0. -1.
         21    1    1    2  505  506 -0.12233809879E+03  0.19713169571E+01  0.24171702286E+03  0.27091994324E+03  0.00000000000E+00 0. -1.
         21    1    1    2  506  502  0.11285015137E+02 -0.30860168063E+02  0.19591950486E+02  0.38256320567E+02  0.00000000000E+00 0. -1.
<scales pt_clust_3="14000.00000" pt_clust_4="117.63782" pt_clust_5="117.26212" pt_clust_6="32.85881"></scales>
<clustering>
<clus scale="   32.859">  2  6  1 -1</clus>
<clus scale="  117.262">  2  5  1 -1</clus>
<clus scale="  117.638">  2  4  1 -1</clus>
<clus scale="  117.638">  1  3  2 -1</clus>
</clustering>
</event>
<event>
 6    0  0.6207838E+002  0.1411429E+03  0.7546771E-02  0.1211799E+00
         21   -1    0    0  505  501  0.00000000000E+00  0.00000000000E+00  0.15009469918E+03  0.15009469918E+03  0.00000000000E+00 0. -1.
         21   -1    0    0  504  502 -0.00000000000E+00 -0.00000000000E+00 -0.16091051781E+04  0.16091051781E+04  0.00000000000E+00 0.  1.
         21    1    1    2  503  506 -0.62012818351E+02 -0.32177070683E+02 -0.20896962537E+03  0.22033896125E+03  0.00000000000E+00 0.  1.
         21    1    1    2  504  501 -0.33711298005E+01 -0.80736139737E+02 -0.11306305245E+04  0.11335144779E+04  0.00000000000E+00 0.  1.
         21    1    1    2  505  503  0.23294008198E+02  0.14120082480E+03  0.10358084287E+03  0.17666146935E+03  0.00000000000E+00 0. -1.
         21    1    1    2  506  502  0.42089939953E+02 -0.28287614382E+02 -0.22299117193E+03  0.22868496875E+03  0.00000000000E+00 0.  1.
<scales pt_clust_3="66.44775" pt_clust_4="14000.00000" pt_clust_5="141.14287" pt_clust_6="50.71245"></scales>
<clustering>
<clus scale="   50.712">  2  6  1 -1</clus>
<clus scale="   66.448">  2  3  1 -1</clus>
<clus scale="  141.143">  1  5  2 -1</clus>
<clus scale="  141.143">  1  3  2 -1</clus>
</clustering>
</event>
<event>
 6    0  0.6207838E+002  0.1224617E+03  0.7546771E-02  0.1239090E+00
         21   -1    0    0  504  501  0.00000000000E+00  0.00000000000E+00  0.27131320163E+03  0.27131320163E+03  0.00000000000E+00 0. -1.
         21   -1    0    0  505  502 -0.00000000000E+00 -0.00000000000E+00 -0.33820764115E+03  0.33820764115E+03  0.00000000000E+00 0.  1.
         21    1    1    2  503  501 -0.32829181205E+02 -0.42641781105E+02  0.96951018201E+01  0.54681547470E+02  0.00000000000E+00 0. -1.
         21    1    1    2  504  506 -0.99646159954E+02  0.37340500581E+02  0.19862522276E+03  0.22533452752E+03  0.00000000000E+00 0. -1.
         21    1    1    2  505  503  0.83012069992E+02 -0.17612645806E+02 -0.25912571792E+03  0.27266709876E+03  0.00000000000E+00 0.  1.
         21    1    1    2  506  502  0.49463271167E+02  0.22913926330E+02 -0.16089046175E+02  0.56837669034E+02  0.00000000000E+00 0. -1.
<scales pt_clust_3="53.81521" pt_clust_4="122.46165" pt_clust_5="14000.00000" pt_clust_6="50.49228"></scales>
<clustering>
<clus scale="   53.815">  1  3  2 -1</clus>
<clus scale="   50.492">  2  6  1 -1</clus>
<clus scale="  122.462">  1  4  2 -1</clus>
<clus scale="   53.815">  1  3  2 -1</clus>
</clustering>
</event>
<event>
 6    0  0.6207838E+002  0.1762043E+03  0.7546771E-02  0.1171528E+00
         21   -1    0    0  506  501  0.00000000000E+00  0.00000000000E+00  0.16295130718E+03  0.16295130718E+03  0.00000000000E+00 0.  1.
         21   -1    0    0  505  502 -0.00000000000E+00 -0.00000000000E+00 -0.55837662944E+03  0.55837662944E+03  0.00000000000E+00 0.  1.
         21    1    1    2  503  501  0.31098670032E+02 -0.13292004899E+02  0.48305427206E+02  0.58967948663E+02  0.00000000000E+00 0.  1.
         21    1    1    2  504  502 -0.80432740250E+02 -0.15442045672E+03 -0.38387329416E+03  0.42151371167E+03  0.00000000000E+00 0.  1.
         21    1    1    2  505  503  0.34798386390E+02 -0.15978347964E+02 -0.40228214384E+02  0.55538675997E+02  0.00000000000E+00 0.  1.
         21    1    1    2  506  504  0.14535683829E+02  0.18369080958E+03 -0.19629240925E+02  0.18530760030E+03  0.00000000000E+00 0.  1.
<scales pt_clust_3="33.82018" pt_clust_4="176.20426" pt_clust_5="40.65907" pt_clust_6="14000.00000"></scales>
<clustering>
<clus scale="   33.820">  1  3  2 -1</clus>
<clus scale="   40.659">  2  5  1 -1</clus>
<clus scale="  176.204">  2  4  1 -1</clus>
<clus scale="   33.820">  1  3  2 -1</clus>
</clustering>
</event>
<event>
 6    0  0.6207838E+002  0.8377819E+02  0.7546771E-02  0.1318659E+00
         21   -1    0    0  505  501  0.00000000000E+00  0.00000000000E+00  0.26693035975E+02  0.26693035975E+02  0.00000000000E+00 0. -1.
         21   -1    0    0  504  502 -0.00000000000E+00 -0.00000000000E+00 -0.93668151399E+03  0.93668151399E+03  0.00000000000E+00 0.  1.
         21    1    1    2  503  501  0.37986910648E+02 -0.10848452804E+03 -0.20104187729E+03  0.23158094617E+03  0.00000000000E+00 0. -1.
         21    1    1    2  504  503  0.29215135039E+02  0.11468320637E+02 -0.92739439511E+02  0.97906333474E+02  0.00000000000E+00 0. -1.
         21    1    1    2  505  506 -0.45604390823E+02  0.47364371952E+02 -0.14067385755E+03  0.15528128796E+03  0.00000000000E+00 0. -1.
         21    1    1    2  506  502 -0.21597654864E+02  0.49651835448E+02 -0.47553330366E+03  0.47860598236E+03  0.00000000000E+00 0.  1.
<scales pt_clust_3="83.77819" pt_clust_4="31.38545" pt_clust_5="14000.00000" pt_clust_6="56.37964"></scales>
<clustering>
<clus scale="   31.385">  2  4  1 -1</clus>
<clus scale="   56.380">  2  6  1 -1</clus>
<clus scale="   83.778">  2  3  1 -1</clus>
<clus scale="   83.778">  1  3  2 -1</clus>
</clustering>
</event>
<event>
 6    0  0.6207838E+002  0.1146002E+03  0.7546771E-02  0.1252281E+00
         21   -1    0    0  503  501  0.00000000000E+00  0.00000000000E+00  0.11794932721E+03  0.11794932721E+03  0.00000000000E+00 0.  1.
         21   -1    0    0  506  502 -0.00000000000E+00 -0.00000000000E+00 -0.76352854232E+03  0.76352854232E+03  0.00000000000E+00 0.  1.
         21    1    1    2  503  505  0.89211249329E+00  0.37817774699E+02  0.94173202484E+02  0.10148680709E+03  0.00000000000E+00 0.  1.
         21    1    1    2  504  502  0.23872938358E+02 -0.61345101445E+02 -0.18699497919E+03  0.19824293405E+03  0.00000000000E+00 0.  1.
         21    1    1    2  505  504  0.42764531710E+02 -0.51374728701E+02 -0.11966495634E+03  0.13706885021E+03  0.00000000000E+00 0.  1.
         21    1    1    2  506  501 -0.67529582561E+02  0.74902055447E+02 -0.43309248206E+03  0.44467927819E+03  0.00000000000E+00 0.  1.
<scales pt_clust_3="37.82830" pt_clust_4="35.04813" pt_clust_5="35.04813" pt_clust_6="109.02221"></scales>
<clustering>
<clus scale="   35.048">  4  5 -1 -1</clus>
<clus scale="   37.828">  1  3  2 -1</clus>
<clus scale="  109.022">  2  6  1 -1</clus>
<clus scale="   37.828">  1  3  2 -1</clus>
</clustering>
</event>
<event>
 6    0  0.6207838E+002  0.2001055E+03  0.7546771E-02  0.1149650E+00
         21   -1    0    0  504  501  0.00000000000E+00  0.00000000000E+00  0.47922087156E+03  0.47922087156E+03  0.00000000000E+00 0. -1.
         21   -1    0    0  505  502 -0.00000000000E+00 -0.00000000000E+00 -0.68698918214E+03  0.68698918214E+03  0.00000000000E+00 0. -1.
         21    1    1    2  503  501 -0.45211699073E+02 -0.63170859682E+02 -0.12162639881E+03  0.14431783027E+03  0.00000000000E+00 0.  1.
         21    1    1    2  504  506  0.12337339703E+03 -0.15725770230E+03  0.40082516476E+03  0.44789707828E+03  0.00000000000E+00 0. -1.
         21    1    1    2  505  503 -0.40532619758E+02 -0.56163012103E+01 -0.21267626012E+03  0.21657707109E+03  0.00000000000E+00 0. -1.
         21    1    1    2  506  502 -0.37629078195E+02  0.22604486319E+03 -0.27429081641E+03  0.35741807406E+03  0.00000000000E+00 0. -1.
<scales pt_clust_3="86.01648" pt_clust_4="14000.00000" pt_clust_5="40.91987" pt_clust_6="200.10548"></scales>
<clustering>
<clus scale="   40.920">  2  5  1 -1</clus>
<clus scale="   86.016">  2  3  1 -1</clus>
<clus scale="  200.105">  2  6  1 -1</clus>
<clus scale="  200.105">  1  3  2 -1</clus>
</clustering>
</event>
<event>
 6    0  0.6207838E+002  0.8436593E+02  0.7546771E-02  0.1317099E+00
         21   -1    0    0  503  501  0.00000000000E+00  0.00000000000E+00  0.37318560670E+03  0.37318560670E+03  0.00000000000E+00 0. -1.
         21   -1    0    0  506  502 -0.00000000000E+00 -0.00000000000E+00 -0.91791825693E+02  0.91791825693E+02  0.00000000000E+00 0.  1.
         21    1    1    2  503  504 -0.51649830320E+02 -0.65665630721E+01  0.18055550475E+03  0.18791251959E+03  0.00000000000E+00 0. -1.
         21    1    1    2  504  502 -0.89411286860E+02 -0.28080361339E+02  0.34785799444E+02  0.99964677531E+02  0.00000000000E+00 0.  1.
         21    1    1    2  505  501  0.68744582525E+02  0.20727373666E+01  0.69412306623E+02  0.97714800197E+02  0.00000000000E+00 0.  1.
         21    1    1    2  506  505  0.72316534655E+02  0.32574187044E+02 -0.33598298084E+01  0.79385435078E+02  0.00000000000E+00 0.  1.
<scales pt_clust_3="52.06558" pt_clust_4="14000.00000" pt_clust_5="45.91005" pt_clust_6="84.36593"></scales>
<clustering>
<clus scale="   52.066">  1  3  2 -1</clus>
<clus scale="   45.910">  1  5  2 -1</clus>
<clus scale="   84.366">  2  6  1 -1</clus>
<clus scale="   52.066">  1  3  2 -1</clus>
</clustering>
</event>
<event>
 6    0  0.6207838E+002  0.7668862E+02  0.7546771E-02  0.1338720E+00
         21   -1    0    0  506  501  0.00000000000E+00  0.00000000000E+00  0.27463127996E+03  0.27463127996E+03  0.00000000000E+00 0.  1.
         21   -1    0    0  503  502 -0.00000000000E+00 -0.00000000000E+00 -0.18472360550E+03  0.18472360550E+03  0.00000000000E+00 0.  1.
         21    1    1    2  503  501 -0.48238974108E+01 -0.34156699320E+02 -0.12737944671E+03  0.13196769884E+03  0.00000000000E+00 0.  1.
         21    1    1    2  504  505  0.89054867436E+02 -0.30525833172E+02  0.29458660046E+02  0.98642833275E+02  0.00000000000E+00 0.  1.
         21    1    1    2  505  502 -0.59217608965E+02  0.71059151594E+01  0.52066924652E+02  0.79171862960E+02  0.00000000000E+00 0.  1.
         21    1    1    2  506  504 -0.25013361060E+02  0.57576617332E+02  0.13576153646E+03  0.14957249038E+03  0.00000000000E+00 0.  1.
<scales pt_clust_3="34.49565" pt_clust_4="14000.00000" pt_clust_5="76.68862" pt_clust_6="59.12989"></scales>
<clustering>
<clus scale="   34.496">  2  3  1 -1</clus>
<clus scale="   59.130">  1  6  2 -1</clus>
<clus scale="   76.689">  2  5  1 -1</clus>
<clus scale="   59.130">  1  3  2 -1</clus>
</clustering>
</event>
<event>
 6    0  0.6207838E+002  0.1955145E+03  0.7546771E-02  0.1153580E+00
         21   -1    0    0  506  501  0.00000000000E+00  0.00000000000E+00  0.16024439500E+04  0.16024439500E+04  0.00000000000E+00 0. -1.
         21   -1    0    0  505  502 -0.00000000000E+00 -0.00000000000E+00 -0.94607910414E+02  0.94607910414E+02  0.00000000000E+00 0. -1.
         21    1    1    2  503  504  0.59020407060E+02 -0.31773561469E+02  0.25582452858E+03  0.26446012380E+03  0.00000000000E+00 0. -1.
         21    1    1    2  504  502 -0.73488467110E+02 -0.27114638074E+02 -0.45099914516E+02  0.90386728481E+02  0.00000000000E+00 0. -1.
         21    1    1    2  505  501 -0.12238462180E+03  0.82587726064E+02  0.28859114667E+03  0.32416597305E+03  0.00000000000E+00 0. -1.
         21    1    1    2  506  503  0.13685268185E+03 -0.23699526521E+02  0.10085202788E+04  0.10180390351E+04  0.00000000000E+00 0. -1.
<scales pt_clust_3="48.09409" pt_clust_4="78.33108" pt_clust_5="182.84730" pt_clust_6="48.09409"></scales>
<clustering>
<clus scale="   48.094">  3  6 -1 -1</clus>
<clus scale="   78.331">  2  4  1 -1</clus>
<clus scale="  182.847">  2  5  1 -1</clus>
<clus scale="  195.514">  1  3  2 -1</clus>
</clustering>
</event>
<event>
 6    0  0.6207838E+002  0.6120109E+02  0.7546771E-02  0.1392859E+00
         21   -1    0    0  506  501  0.00000000000E+00  0.00000000000E+00  0.52688723324E+03  0.52688723324E+03  0.00000000000E+00 0.  1.
         21   -1    0    0  503  502 -0.00000000000E+00 -0.00000000000E+00 -0.95502622595E+03  0.95502622595E+03  0.00000000000E+00 0. -1.
         21    1    1    2  503  504 -0.34063117639E+02  0.44617727928E+02 -0.66716233559E+03  0.66951969325E+03  0.00000000000E+00 0. -1.
         21    1    1    2  504  505  0.62775824853E+02 -0.96464388062E+02 -0.25302875296E+03  0.27797433726E+03  0.00000000000E+00 0. -1.
         21    1    1    2  505  501  0.96939871974E+01  0.40307199211E+02  0.72953356970E+00  0.41462946292E+02  0.00000000000E+00 0. -1.
         21    1    1    2  506  502 -0.38406694411E+02  0.11539460923E+02  0.49132256226E+03  0.49295648238E+03  0.00000000000E+00 0.  1.
<scales pt_clust_3="61.20109" pt_clust_4="14000.00000" pt_clust_5="49.23551" pt_clust_6="40.10278"></scales>
<clustering>
<clus scale="   40.103">  1  6  2 -1</clus>
<clus scale="   49.236">  1  5  2 -1</clus>
<clus scale="   61.201">  2  3  1 -1</clus>
<clus scale="   40.103">  1  3  2 -1</clus>
</clustering>
</event>
<event>
 6    0  0.6207838E+002  0.2369912E+03  0.7546771E-02  0.1121814E+00
         21   -1    0    0  502  501  0.00000000000E+00  0.00000000000E+00  0.11092802310E+03  0.11092802310E+03  0.00000000000E+00 0.  1.
         21   -1    0    0  506  502 -0.00000000000E+00 -0.00000000000E+00 -0.97860601900E+03  0.97860601900E+03  0.00000000000E+00 0. -1.
         21    1    1    2  503  504 -0.14738679865E+03 -0.65754855616E+01 -0.36053690862E+03  0.38955483298E+03  0.00000000000E+00 0. -1.
         21    1    1    2  504  505 -0.75322442800E+02 -0.19887786788E+02 -0.27038675325E+03  0.28138583971E+03  0.00000000000E+00 0. -1.
         21    1    1    2  505  501  0.22885541609E+03  0.55999084915E+02 -0.65277348410E+02  0.24448278304E+03  0.00000000000E+00 0.  1.
         21    1    1    2  506  503 -0.61461746448E+01 -0.29535812565E+02 -0.17147698562E+03  0.17411058637E+03  0.00000000000E+00 0. -1.
<scales pt_clust_3="31.37148" pt_clust_4="31.37148" pt_clust_5="233.16908" pt_clust_6="30.16852"></scales>
<clustering>
<clus scale="   30.169">  2  6  1 -1</clus>
<clus scale="   31.371">  3  4 -1 -1</clus>
<clus scale="  233.169">  1  5  2 -1</clus>
<clus scale="  233.169">  1  3  2 -1</clus>
</clustering>
</event>
<event>
 6    0  0.6207838E+002  0.1750054E+03  0.7546771E-02  0.1172726E+00
         21   -1    0    0  506  501  0.00000000000E+00  0.00000000000E+00  0.20431708229E+03  0.20431708229E+03  0.00000000000E+00 0.  1.
         21   -1    0    0  501  502 -0.00000000000E+00 -0.00000000000E+00 -0.44111502549E+03  0.44111502549E+03  0.00000000000E+00 0.  1.
         21    1    1    2  503  502 -0.41367127924E+02  0.22375370149E+02 -0.29006548793E+03  0.29385350729E+03  0.00000000000E+00 0.  1.
         21    1    1    2  504  505 -0.41769183657E+02 -0.46011695825E+02  0.22252468982E+02  0.66006918060E+02  0.00000000000E+00 0.  1.
         21    1    1    2  505  503  0.17129869908E+03  0.66107451030E+02  0.37854985176E+02  0.18747383628E+03  0.00000000000E+00 0.  1.
         21    1    1    2  506  504 -0.88162387496E+02 -0.42471125354E+02 -0.68399094286E+01  0.98097846147E+02  0.00000000000E+00 0.  1.
<scales pt_clust_3="47.03080" pt_clust_4="35.47167" pt_clust_5="169.24976" pt_clust_6="35.47167"></scales>
<clustering>
<clus scale="   35.472">  4  6 -1 -1</clus>
<clus scale="   47.031">  2  3  1 -1</clus>
<clus scale="  169.250">  2  5  1 -1</clus>
<clus scale="  175.005">  1  3  2 -1</clus>
</clustering>
</event>
<event>
 6    0  0.6207838E+002  0.1306327E+03  0.7546771E-02  0.1226520E+00
         21   -1    0    0  504  501  0.00000000000E+00  0.00000000000E+00  0.18510139818E+03  0.18510139818E+03  0.00000000000E+00 0.  1.
         21   -1    0    0  505  502 -0.00000000000E+00 -0.00000000000E+00 -0.15541073878E+04  0.15541073878E+04  0.00000000000E+00 0. -1.
         21    1    1    2  503  502  0.35256404060E+02  0.16841020697E-01 -0.11641031594E+04  0.11646369305E+04  0.00000000000E+00 0. -1.
         21    1    1    2  504  503 -0.32250171240E+02 -0.72755383749E+02 -0.46745392935E+02  0.92295997585E+02  0.00000000000E+00 0.  1.
         21    1    1    2  505  506  0.12784169555E+03  0.61870973306E+02 -0.27306783675E+03  0.30779467170E+03  0.00000000000E+00 0.  1.
         21    1    1    2  506  501 -0.13084792837E+03  0.10867569422E+02  0.11491039944E+03  0.17448118615E+03  0.00000000000E+00 0.  1.
<scales pt_clust_3="35.25641" pt_clust_4="77.24566" pt_clust_5="14000.00000" pt_clust_6="130.63271"></scales>
<clustering>
<clus scale="   35.256">  2  3  1 -1</clus>
<clus scale="   77.246">  2  4  1 -1</clus>
<clus scale="  130.633">  1  6  2 -1</clus>
<clus scale="  130.633">  1  3  2 -1</clus>
</clustering>
</event>
<event>
 6    0  0.6207838E+002  0.1008978E+03  0.7546771E-02  0.1278419E+00
         21   -1    0    0  506  501  0.00000000000E+00  0.00000000000E+00  0.36755870170E+03  0.36755870170E+03  0.00000000000E+00 0. -1.
         21   -1    0    0  504  502 -0.00000000000E+00 -0.00000000000E+00 -0.24040275633E+03  0.24040275633E+03  0.00000000000E+00 0. -1.
         21    1    1    2  503  501 -0.57664036143E+02  0.76570406965E+02  0.23209759309E+03  0.25111244694E+03  0.00000000000E+00 0. -1.
         21    1    1    2  504  503 -0.33501496073E+02  0.46293872613E+02  0.31095989002E+01  0.57228860604E+02  0.00000000000E+00 0. -1.
         21    1    1    2  505  502 -0.61520206967E+02 -0.59492638848E+02 -0.10342386740E+03  0.13424085179E+03  0.00000000000E+00 0. -1.
         21    1    1    2  506  505  0.15268573918E+03 -0.63371640730E+02 -0.46273792202E+01  0.16537929870E+03  0.00000000000E+00 0. -1.
<scales pt_clust_3="100.89783" pt_clust_4="57.14432" pt_clust_5="86.97747" pt_clust_6="14000.00000"></scales>
<clustering>
<clus scale="   57.144">  2  4  1 -1</clus>
<clus scale="   86.977">  2  5  1 -1</clus>
<clus scale="  100.898">  1  3  2 -1</clus>
<clus scale="  100.898">  1  3  2 -1</clus>
</clustering>
</event>
<event>
 6    0  0.6207838E+002  0.1178248E+03  0.7546771E-02  0.1246729E+00
         21   -1    0    0  504  501  0.00000000000E+00  0.00000000000E+00  0.50507713126E+03  0.50507713126E+03  0.00000000000E+00 0.  1.
         21   -1    0    0  503  502 -0.00000000000E+00 -0.00000000000E+00 -0.86753937920E+02  0.86753937920E+02  0.00000000000E+00 0.  1.
         21    1    1    2  503  501  0.15754940603E+01  0.30008656019E+02  0.34635917992E+03  0.34766029847E+03  0.00000000000E+00 0.  1.
         21    1    1    2  504  506  0.36737066219E+02 -0.50543562383E+02  0.35348431648E+02  0.71789799782E+02  0.00000000000E+00 0.  1.
         21    1    1    2  505  502 -0.92957214298E+02  0.50652748137E+02  0.26985964702E+02  0.10924736553E+03  0.00000000000E+00 0.  1.
         21    1    1    2  506  505  0.54644654019E+02 -0.30117841773E+02  0.96296170697E+01  0.63133605401E+02  0.00000000000E+00 0.  1.
<scales pt_clust_3="30.04999" pt_clust_4="34.91267" pt_clust_5="112.06369" pt_clust_6="34.91267"></scales>
<clustering>
<clus scale="   30.050">  1  3  2 -1</clus>
<clus scale="   34.913">  4  6 -1 -1</clus>
<clus scale="  112.064">  2  5  1 -1</clus>
<clus scale="   30.050">  1  3  2 -1</clus>
</clustering>
</event>
<event>
 6    0  0.6207838E+002  0.1211849E+03  0.7546771E-02  0.1241155E+00
         21   -1    0    0  506  501  0.00000000000E+00  0.00000000000E+00  0.23217765883E+03  0.23217765883E+03  0.00000000000E+00 0.  1.
         21   -1    0    0  504  502 -0.00000000000E+00 -0.00000000000E+00 -0.33987453315E+03  0.33987453315E+03  0.00000000000E+00 0. -1.
         21    1    1    2  503  505  0.15138421037E+02  0.96685482843E+02 -0.80967733230E+00  0.97866797033E+02  0.00000000000E+00 0.  1.
         21    1    1    2  504  503 -0.66275909812E+02  0.39633022453E+01 -0.26537609268E+02  0.71501389440E+02  0.00000000000E+00 0. -1.
         21    1    1    2  505  501  0.35410816461E+02 -0.13448537108E+03  0.12920904574E+03  0.18982944571E+03  0.00000000000E+00 0.  1.
         21    1    1    2  506  502  0.15726672314E+02  0.33836585992E+02 -0.20955863345E+03  0.21285455980E+03  0.00000000000E+00 0. -1.
<scales pt_clust_3="121.18486" pt_clust_4="62.59614" pt_clust_5="14000.00000" pt_clust_6="37.31277"></scales>
<clustering>
<clus scale="   37.313">  2  6  1 -1</clus>
<clus scale="   62.596">  2  4  1 -1</clus>
<clus scale="  121.185">  2  3  1 -1</clus>
<clus scale="  121.185">  1  3  2 -1</clus>
</clustering>
</event>
<event>
 6    0  0.6207838E+002  0.8243512E+02  0.7546771E-02  0.1322280E+00
         21   -1    0    0  505  501  0.00000000000E+00  0.00000000000E+00  0.21004242543E+04  0.21004242543E+04  0.00000000000E+00 0. -1.
         21   -1    0    0  506  502 -0.00000000000E+00 -0.00000000000E+00 -0.24166592913E+02  0.24166592913E+02  0.00000000000E+00 0. -1.
         21    1    1    2  503  501 -0.31153712235E+02  0.45149463737E+02  0.94025169924E+03  0.94185045829E+03  0.00000000000E+00 0.  1.
         21    1    1    2  504  503 -0.15900413730E+02 -0.11596962425E+03  0.96379910549E+03  0.97088129688E+03  0.00000000000E+00 0. -1.
         21    1    1    2  505  502  0.27597537735E+02  0.36707349111E+02  0.12784097750E+02  0.47670606489E+02  0.00000000000E+00 0. -1.
         21    1    1    2  506  504  0.19456588230E+02  0.34112811402E+02  0.15942275890E+03  0.16418848554E+03  0.00000000000E+00 0.  1.
<scales pt_clust_3="55.49464" pt_clust_4="14000.00000" pt_clust_5="82.43512" pt_clust_6="39.27140"></scales>
<clustering>
<clus scale="   39.271">  2  6  1 -1</clus>
<clus scale="   55.495">  1  3  2 -1</clus>
<clus scale="   82.435">  2  5  1 -1</clus>
<clus scale="   55.495">  1  3  2 -1</clus>
</clustering>
</event>
<event>
 6    0  0.6207838E+002  0.1389907E+03  0.7546771E-02  0.1214694E+00
         21   -1    0    0  504  501  0.00000000000E+00  0.00000000000E+00  0.32851817795E+03  0.32851817795E+03  0.00000000000E+00 0. -1.
         21   -1    0    0  501  502 -0.00000000000E+00 -0.00000000000E+00 -0.11267460410E+03  0.11267460410E+03  0.00000000000E+00 0. -1.
         21    1    1    2  503  502  0.41970675133E+01  0.32665292103E+02 -0.16862171069E+02  0.36999587795E+02  0.00000000000E+00 0. -1.
         21    1    1    2  504  506  0.13242032574E+03  0.10990150780E+00  0.22147401300E+03  0.25804242516E+03  0.00000000000E+00 0. -1.
         21    1    1    2  505  503 -0.87534078515E+02 -0.87789570715E+01 -0.77459352394E+01  0.88313557858E+02  0.00000000000E+00 0. -1.
         21    1    1    2  506  505 -0.49083314735E+02 -0.23996236539E+02  0.18977667151E+02  0.57837211239E+02  0.00000000000E+00 0. -1.
<scales pt_clust_3="32.93382" pt_clust_4="133.50295" pt_clust_5="30.47438" pt_clust_6="30.47438"></scales>
<clustering>
<clus scale="   30.474">  5  6 -1 -1</clus>
<clus scale="   32.934">  2  3  1 -1</clus>
<clus scale="  133.503">  1  4  2 -1</clus>
<clus scale="  133.503">  1  3  2 -1</clus>
</clustering>
</event>
<event>
 6    0  0.6207838E+002  0.8382050E+02  0.7546771E-02  0.1318546E+00
         21   -1    0    0  505  501  0.00000000000E+00  0.00000000000E+00  0.40594192375E+02  0.40594192375E+02  0.00000000000E+00 0.  1.
         21   -1    0    0  506  502 -0.00000000000E+00 -0.00000000000E+00 -0.57219036640E+03  0.57219036640E+03  0.00000000000E+00 0.  1.
         21    1    1    2  503  502  0.36148310547E+02 -0.10205037038E+03 -0.18858000423E+03  0.21744745675E+03  0.00000000000E+00 0.  1.
         21    1    1    2  504  501  0.26396517126E+02  0.62225580767E+02 -0.25154333682E+03  0.26046659924E+03  0.00000000000E+00 0.  1.
         21    1    1    2  505  503 -0.46093032344E+02  0.33452732597E+01 -0.15047995319E+02  0.48602475728E+02  0.00000000000E+00 0.  1.
         21    1    1    2  506  504 -0.16451795329E+02  0.36479516354E+02 -0.76424837652E+02  0.86268027061E+02  0.00000000000E+00 0.  1.
<scales pt_clust_3="14000.00000" pt_clust_4="83.82050" pt_clust_5="47.50421" pt_clust_6="40.01770"></scales>
<clustering>
<clus scale="   40.018">  2  6  1 -1</clus>
<clus scale="   47.504">  1  5  2 -1</clus>
<clus scale="   83.820">  2  4  1 -1</clus>
<clus scale="   47.504">  1  3  2 -1</clus>
</clustering>
</event>
<event>
 6    0  0.6207838E+002  0.1833436E+03  0.7546771E-02  0.1164606E+00
         21   -1    0    0  504  501  0.00000000000E+00  0.00000000000E+00  0.13711644316E+03  0.13711644316E+03  0.00000000000E+00 0.  1.
         21   -1    0    0  503  502 -0.00000000000E+00 -0.00000000000E+00 -0.49624609319E+03  0.49624609319E+03  0.00000000000E+00 0.  1.
         21    1    1    2  503  506 -0.47070602729E+02 -0.98877613633E+02 -0.16572177933E+03  0.19863567722E+03  0.00000000000E+00 0.  1.
         21    1    1    2  504  505  0.87876513968E+02 -0.51253342674E+02 -0.73491150986E+02  0.12549954628E+03  0.00000000000E+00 0.  1.
         21    1    1    2  505  502  0.39171288758E+02 -0.26595308304E+02 -0.10439098087E+03  0.11462624994E+03  0.00000000000E+00 0.  1.
         21    1    1    2  506  501 -0.79977199997E+02  0.17672626461E+03 -0.15525738848E+02  0.19460106292E+03  0.00000000000E+00 0.  1.
<scales pt_clust_3="109.50993" pt_clust_4="42.14702" pt_clust_5="42.14702" pt_clust_6="172.62123"></scales>
<clustering>
<clus scale="   42.147">  4  5 -1 -1</clus>
<clus scale="  109.510">  2  3  1 -1</clus>
<clus scale="  172.621">  1  6  2 -1</clus>
<clus scale="  172.621">  1  3  2 -1</clus>
</clustering>
</event>
<event>
 6    0  0.6207838E+002  0.8754136E+02  0.7546771E-02  0.1308917E+00
         21   -1    0    0  506  501  0.00000000000E+00  0.00000000000E+00  0.17653552044E+04  0.17653552044E+04  0.00000000000E+00 0. -1.
         21   -1    0    0  505  502 -0.00000000000E+00 -0.00000000000E+00 -0.86033643398E+03  0.86033643398E+03  0.00000000000E+00 0.  1.
         21    1    1    2  503  502  0.23771021329E+02  0.19799261514E+02 -0.12230644285E+02  0.33266512759E+02  0.00000000000E+00 0.  1.
         21    1    1    2  504  501 -0.88931603776E+02 -0.93233994680E+01 -0.17158695430E+03  0.19348860125E+03  0.00000000000E+00 0.  1.
         21    1    1    2  505  504 -0.14187692699E+02 -0.47495894803E+02 -0.65301106370E+03  0.65488976169E+03  0.00000000000E+00 0.  1.
         21    1    1    2  506  503  0.79348275146E+02  0.37020032757E+02  0.17418474327E+04  0.17440467627E+04  0.00000000000E+00 0. -1.
<scales pt_clust_3="30.93658" pt_clust_4="14000.00000" pt_clust_5="32.33442" pt_clust_6="87.54136"></scales>
<clustering>
<clus scale="   30.937">  2  3  1 -1</clus>
<clus scale="   32.334">  2  5  1 -1</clus>
<clus scale="   87.541">  1  6  2 -1</clus>
<clus scale="   87.541">  1  3  2 -1</clus>
</clustering>
</event>
<event>
 6    0  0.6207838E+002  0.1887730E+03  0.7546771E-02  0.1159573E+00
         21   -1    0    0  504  501  0.00000000000E+00  0.00000000000E+00  0.78694310706E+03  0.78694310706E+03  0.00000000000E+00 0. -1.
         21   -1    0    0  505  502 -0.00000000000E+00 -0.00000000000E+00 -0.94183270478E+03  0.94183270478E+03  0.00000000000E+00 0.  1.
         21    1    1    2  503  501 -0.81005913294E+02 -0.17660899619E+03  0.23305009296E+03  0.30342221632E+03  0.00000000000E+00 0. -1.
         21    1    1    2  504  502 -0.95353704281E+02  0.14280720864E+03  0.28130126836E+03  0.32957037388E+03  0.00000000000E+00 0. -1.
         21    1    1    2  505  506 -0.74387423158E+02  0.12328022200E+03 -0.79030650937E+03  0.80331555482E+03  0.00000000000E+00 0.  1.
         21    1    1    2  506  503  0.25074704073E+03 -0.89478434452E+02  0.12106555032E+03  0.29246766683E+03  0.00000000000E+00 0. -1.
<scales pt_clust_3="177.00859" pt_clust_4="14000.00000" pt_clust_5="143.98438" pt_clust_6="188.77298"></scales>
<clustering>
<clus scale="  143.984">  2  5  1 -1</clus>
<clus scale="  177.009">  1  3  2 -1</clus>
<clus scale="  188.773">  2  6  1 -1</clus>
<clus scale="  177.009">  1  3  2 -1</clus>
</clustering>
</event>
<event>
 6    0  0.6207838E+002  0.1346775E+03  0.7546771E-02  0.1220676E+00
         21   -1    0    0  502  501  0.00000000000E+00  0.00000000000E+00  0.72122083026E+02  0.72122083026E+02  0.00000000000E+00 0.  1.
         21   -1    0    0  503  502 -0.00000000000E+00 -0.00000000000E+00 -0.24826337101E+03  0.24826337101E+03  0.00000000000E+00 0.  1.
         21    1    1    2  503  505  0.44463012204E+02  0.36765399224E+02 -0.82587401822E+02  0.10074389795E+03  0.00000000000E+00 0.  1.
         21    1    1    2  504  501 -0.76614508007E+02 -0.39566171498E+02 -0.26246683798E+02  0.90134084422E+02  0.00000000000E+00 0.  1.
         21    1    1    2  505  506  0.43033387090E+02  0.47394933358E+02 -0.31832586022E+02  0.71494514791E+02  0.00000000000E+00 0.  1.
         21    1    1    2  506  504 -0.10881891287E+02 -0.44594161083E+02 -0.35474616346E+02  0.58012956877E+02  0.00000000000E+00 0. -1.
<scales pt_clust_3="40.67279" pt_clust_4="42.54014" pt_clust_5="128.74058" pt_clust_6="42.54014"></scales>
<clustering>
<clus scale="   40.673">  3  5 -1 -1</clus>
<clus scale="   42.540">  4  6 -1 -1</clus>
<clus scale="  128.741">  2  3  1 -1</clus>
<clus scale="  134.677">  1  3  2 -1</clus>
</clustering>
</event>
<event>
 6    0  0.6207838E+002  0.1226872E+03  0.7546771E-02  0.1238729E+00
         21   -1    0    0  506  501  0.00000000000E+00  0.00000000000E+00  0.18156360815E+03  0.18156360815E+03  0.00000000000E+00 0.  1.
         21   -1    0    0  505  502 -0.00000000000E+00 -0.00000000000E+00 -0.22798790629E+03  0.22798790629E+03  0.00000000000E+00 0. -1.
         21    1    1    2  503  502 -0.36513428868E+02 -0.26743105385E+02  0.43331494934E+02  0.62658140944E+02  0.00000000000E+00 0.  1.
         21    1    1    2  504  503 -0.15872452713E+02 -0.48180559015E+02  0.31105999430E+02  0.59505329364E+02  0.00000000000E+00 0.  1.
         21    1    1    2  505  501  0.31754951180E+02  0.12087132953E+03 -0.17396307544E+03  0.21419945575E+03  0.00000000000E+00 0. -1.
         21    1    1    2  506  504  0.20630930401E+02 -0.45947665132E+02  0.53101282931E+02  0.73188588381E+02  0.00000000000E+00 0.  1.
<scales pt_clust_3="30.24289" pt_clust_4="30.24289" pt_clust_5="118.43571" pt_clust_6="50.36689"></scales>
<clustering>
<clus scale="   30.243">  3  4 -1 -1</clus>
<clus scale="   50.367">  1  6  2 -1</clus>
<clus scale="  118.436">  2  5  1 -1</clus>
<clus scale="   50.367">  1  3  2 -1</clus>
</clustering>
</event>
<event>
 6    0  0.6207838E+002  0.8795171E+02  0.7546771E-02  0.1307889E+00
         21   -1    0    0  504  501  0.00000000000E+00  0.00000000000E+00  0.45767796002E+02  0.45767796002E+02  0.00000000000E+00 0.  1.
         21   -1    0    0  505  502 -0.00000000000E+00 -0.00000000000E+00 -0.86257801786E+03  0.86257801786E+03  0.00000000000E+00 0. -1.
         21    1    1    2  503  502  0.18778808705E+02  0.10662236358E+03 -0.60100008205E+03  0.61067345669E+03  0.00000000000E+00 0. -1.
         21    1    1    2  504  506  0.45352893779E+02 -0.18047969084E+02 -0.35383217707E+01  0.48940105058E+02  0.00000000000E+00 0. -1.
         21    1    1    2  505  501 -0.66045789502E+02 -0.32625864083E+02 -0.12007184358E+03  0.14086781371E+03  0.00000000000E+00 0.  1.
         21    1    1    2  506  503  0.19140870178E+01 -0.55948530410E+02 -0.92199974450E+02  0.10786443841E+03  0.00000000000E+00 0. -1.
<scales pt_clust_3="14000.00000" pt_clust_4="48.81203" pt_clust_5="61.16390" pt_clust_6="87.95171"></scales>
<clustering>
<clus scale="   48.812">  1  4  2 -1</clus>
<clus scale="   61.164">  1  5  2 -1</clus>
<clus scale="   87.952">  1  6  2 -1</clus>
<clus scale="   48.812">  1  3  2 -1</clus>
</clustering>
</event>
<event>
 6    0  0.6207838E+002  0.1140936E+03  0.7546771E-02  0.1253172E+00
         21   -1    0    0  504  501  0.00000000000E+00  0.00000000000E+00  0.32234264247E+03  0.32234264247E+03  0.00000000000E+00 0.  1.
         21   -1    0    0  503  502 -0.00000000000E+00 -0.00000000000E+00 -0.46340918162E+03  0.46340918162E+03  0.00000000000E+00 0.  1.
         21    1    1    2  503  501 -0.11786906512E+02 -0.59590472639E+02 -0.19438990043E+03  0.20365998375E+03  0.00000000000E+00 0.  1.
         21    1    1    2  504  506 -0.28886890950E+02  0.35947368222E+02  0.20558053866E+03  0.21068940084E+03  0.00000000000E+00 0.  1.
         21    1    1    2  505  502  0.93208474502E+02 -0.35622848790E+02 -0.23594715250E+03  0.25617936265E+03  0.00000000000E+00 0.  1.
         21    1    1    2  506  505 -0.52534677039E+02  0.59265953208E+02  0.83689975122E+02  0.11522307684E+03  0.00000000000E+00 0.  1.
<scales pt_clust_3="59.55856" pt_clust_4="46.11579" pt_clust_5="114.09359" pt_clust_6="14000.00000"></scales>
<clustering>
<clus scale="   46.116">  1  4  2 -1</clus>
<clus scale="   59.559">  2  3  1 -1</clus>
<clus scale="  114.094">  2  5  1 -1</clus>
<clus scale="   46.116">  1  3  2 -1</clus>
</clustering>
</event>
<event>
 6    0  0.6207838E+002  0.2190989E+03  0.7546771E-02  0.1134557E+00
         21   -1    0    0  503  501  0.00000000000E+00  0.00000000000E+00  0.43661328389E+03  0.43661328389E+03  0.00000000000E+00 0. -1.
         21   -1    0    0  506  502 -0.00000000000E+00 -0.00000000000E+00 -0.71670866827E+03  0.71670866827E+03  0.00000000000E+00 0.  1.
         21    1    1    2  503  504 -0.19110835580E+03 -0.79639592218E+02  0.86646150654E+01  0.20721955472E+03  0.00000000000E+00 0.  1.
         21    1    1    2  504  502  0.27483910639E+02 -0.58864009100E+02 -0.57759177523E+03  0.58123368427E+03  0.00000000000E+00 0.  1.
         21    1    1    2  505  501  0.51716184972E+02  0.24299018462E+02  0.11666041765E+03  0.12990249856E+03  0.00000000000E+00 0. -1.
         21    1    1    2  506  505  0.11190826019E+03  0.11420458286E+03  0.17217135814E+03  0.23496621461E+03  0.00000000000E+00 0. -1.
<scales pt_clust_3="210.36908" pt_clust_4="64.96412" pt_clust_5="36.60350" pt_clust_6="36.60350"></scales>
<clustering>
<clus scale="   36.604">  5  6 -1 -1</clus>
<clus scale="   64.964">  2  4  1 -1</clus>
<clus scale="  210.369">  2  3  1 -1</clus>
<clus scale="  219.099">  1  3  2 -1</clus>
</clustering>
</event>
<event>
 6    0  0.6207838E+002  0.1548043E+03  0.7546771E-02  0.1194691E+00
         21   -1    0    0  505  501  0.00000000000E+00  0.00000000000E+00  0.69095304409E+03  0.69095304409E+03  0.00000000000E+00 0. -1.
         21   -1    0    0  503  502 -0.00000000000E+00 -0.00000000000E+00 -0.86886565717E+03  0.86886565717E+03  0.00000000000E+00 0.  1.
         21    1    1    2  503  501  0.19873142926E+02  0.81457984042E+02 -0.80289884936E+03  0.80726507869E+03  0.00000000000E+00 0.  1.
         21    1    1    2  504  506 -0.64621884950E+02 -0.27245444455E+02  0.19633750350E+03  0.20848673228E+03  0.00000000000E+00 0. -1.
         21    1    1    2  505  504 -0.80454358445E+02  0.21700424341E+02  0.38112497534E+03  0.39012825972E+03  0.00000000000E+00 0. -1.
         21    1    1    2  506  502  0.12520310047E+03 -0.75912963928E+02  0.47523757438E+02  0.15393863057E+03  0.00000000000E+00 0.  1.
<scales pt_clust_3="83.84715" pt_clust_4="56.54529" pt_clust_5="56.54529" pt_clust_6="142.00437"></scales>
<clustering>
<clus scale="   56.545">  4  5 -1 -1</clus>
<clus scale="   83.847">  2  3  1 -1</clus>
<clus scale="  142.004">  2  6  1 -1</clus>
<clus scale="  154.804">  1  3  2 -1</clus>
</clustering>
</event>
<event>
 6    0  0.6765868E+002  0.7612317E+02  0.7546771E-02  0.1340428E+00
         21   -1    0    0  504  501  0.00000000000E+00  0.00000000000E+00  0.13206297518E+03  0.13206297518E+03  0.00000000000E+00 0.  1.
         21   -1    0    0  505  502 -0.00000000000E+00 -0.00000000000E+00 -0.18467646229E+04  0.18467646229E+04  0.00000000000E+00 0.  1.
         21    1    1    2  503  501  0.35790625226E+02  0.30462073592E+02 -0.64102576152E+02  0.79486143767E+02  0.00000000000E+00 0.  1.
         21    1    1    2  504  506  0.42043564904E+02  0.17520345314E+02  0.11381928179E+03  0.12259466855E+03  0.00000000000E+00 0.  1.
         21    1    1    2  505  503 -0.11694207327E+03 -0.38122307353E+02 -0.16638850784E+04  0.16684250996E+04  0.00000000000E+00 0.  1.
         21    1    1    2  506  502  0.39107883141E+02 -0.98601115528E+01 -0.10053327497E+03  0.10832168620E+03  0.00000000000E+00 0.  1.
<scales pt_clust_3="76.12317" pt_clust_4="45.62944" pt_clust_5="14000.00000" pt_clust_6="40.33173"></scales>
<clustering>
<clus scale="   40.332">  2  6  1 -1</clus>
<clus scale="   45.629">  1  4  2 -1</clus>
<clus scale="   76.123">  1  3  2 -1</clus>
<clus scale="   45.629">  1  3  2 -1</clus>
</clustering>
</event>
<event>
 6    0  0.6207838E+002  0.1413184E+03  0.7546771E-02  0.1211566E+00
         21   -1    0    0  506  501  0.00000000000E+00  0.00000000000E+00  0.28669377667E+03  0.28669377667E+03  0.00000000000E+00 0. -1.
         21   -1    0    0  505  502 -0.00000000000E+00 -0.00000000000E+00 -0.33163250215E+03  0.33163250215E+03  0.00000000000E+00 0.  1.
         21    1    1    2  503  501 -0.86952962236E+02  0.18254766895E+01  0.11387424064E+03  0.14328814566E+03  0.00000000000E+00 0. -1.
         21    1    1    2  504  503 -0.43393516754E+02 -0.41683307019E+02  0.93307630054E+02  0.11102616451E+03  0.00000000000E+00 0. -1.
         21    1    1    2  505  504  0.15385195992E+02  0.34646664215E+02 -0.24585683482E+03  0.24876229382E+03  0.00000000000E+00 0.  1.
         21    1    1    2  506  502  0.11496128300E+03  0.52111661143E+01 -0.62637613558E+01  0.11524967482E+03  0.00000000000E+00 0. -1.
<scales pt_clust_3="46.02201" pt_clust_4="46.02201" pt_clust_5="37.90904" pt_clust_6="129.60823"></scales>
<clustering>
<clus scale="   37.909">  2  5  1 -1</clus>
<clus scale="   46.022">  3  4 -1 -1</clus>
<clus scale="  129.608">  2  6  1 -1</clus>
<clus scale="  141.318">  1  3  2 -1</clus>
</clustering>
</event>
<event>
 6    0  0.6207838E+002  0.1714468E+03  0.7546771E-02  0.1176347E+00
         21   -1    0    0  504  501  0.00000000000E+00  0.00000000000E+00  0.19842538443E+04  0.19842538443E+04  0.00000000000E+00 0. -1.
         21   -1    0    0  503  502 -0.00000000000E+00 -0.00000000000E+00 -0.48711016195E+02  0.48711016195E+02  0.00000000000E+00 0. -1.
         21    1    1    2  503  501 -0.16528684754E+03  0.84262030495E+02  0.24668618868E+03  0.30866471687E+03  0.00000000000E+00 0. -1.
         21    1    1    2  504  506 -0.60174696711E+01  0.42212865756E+02  0.69216793191E+03  0.69348005158E+03  0.00000000000E+00 0. -1.
         21    1    1    2  505  502  0.72247544968E+02 -0.14476402291E+03  0.64588808151E+03  0.66584363324E+03  0.00000000000E+00 0. -1.
         21    1    1    2  506  505  0.99056772244E+02  0.18289126654E+02  0.35080062599E+03  0.36497645879E+03  0.00000000000E+00 0. -1.
<scales pt_clust_3="14000.00000" pt_clust_4="42.63961" pt_clust_5="171.44681" pt_clust_6="101.90140"></scales>
<clustering>
<clus scale="   42.640">  1  4  2 -1</clus>
<clus scale="  101.901">  1  6  2 -1</clus>
<clus scale="  171.447">  1  5  2 -1</clus>
<clus scale="   42.640">  1  3  2 -1</clus>
</clustering>
</event>
<event>
 6    0  0.1236819E+003  0.1155981E+03  0.7546771E-02  0.1250541E+00
         21   -1    0    0  504  501  0.00000000000E+00  0.00000000000E+00  0.54139146417E+03  0.54139146417E+03  0.00000000000E+00 0.  1.
         21   -1    0    0  503  502 -0.00000000000E+00 -0.00000000000E+00 -0.49024593368E+03  0.49024593368E+03  0.00000000000E+00 0. -1.
         21    1    1    2  503  506 -0.53936189797E+01 -0.10089152391E+03  0.40126335119E+03  0.41378795020E+03  0.00000000000E+00 0.  1.
         21    1    1    2  504  505 -0.18034494175E+02 -0.28502025086E+02  0.36786782359E+02  0.49908674301E+02  0.00000000000E+00 0.  1.
         21    1    1    2  505  502  0.43998509222E+02  0.10727541986E+03 -0.46760869036E+03  0.48176941769E+03  0.00000000000E+00 0. -1.
         21    1    1    2  506  501 -0.20570396067E+02  0.22118129131E+02  0.80704087296E+02  0.86171355664E+02  0.00000000000E+00 0.  1.
<scales pt_clust_3="115.59813" pt_clust_4="33.11599" pt_clust_5="14000.00000" pt_clust_6="30.20518"></scales>
<clustering>
<clus scale="   30.205">  1  6  2 -1</clus>
<clus scale="   33.116">  1  4  2 -1</clus>
<clus scale="  115.598">  1  3  2 -1</clus>
<clus scale="   30.205">  1  3  2 -1</clus>
</clustering>
</event>
<event>
 6    0  0.6207838E+002  0.7939999E+02  0.7546771E-02  0.1330763E+00
         21   -1    0    0  504  501  0.00000000000E+00  0.00000000000E+00  0.82165499002E+02  0.82165499002E+02  0.00000000000E+00 0.  1.
         21   -1    0    0  505  502 -0.00000000000E+00 -0.00000000000E+00 -0.41445670243E+03  0.41445670243E+03  0.00000000000E+00 0.  1.
         21    1    1    2  503  502  0.19198961889E+02  0.50586643604E+02 -0.25491336108E+03  0.26059246019E+03  0.00000000000E+00 0.  1.
         21    1    1    2  504  506  0.21831724808E+02 -0.33331792685E+02  0.17454507118E+02  0.43500487703E+02  0.00000000000E+00 0.  1.
         21    1    1    2  505  501 -0.99386446262E+02  0.15232741628E+02 -0.52154398480E+02  0.11326863378E+03  0.00000000000E+00 0.  1.
         21    1    1    2  506  503  0.58355759565E+02 -0.32487592548E+02 -0.42677950980E+02  0.79260619754E+02  0.00000000000E+00 0.  1.
<scales pt_clust_3="52.85066" pt_clust_4="39.84511" pt_clust_5="79.39999" pt_clust_6="14000.00000"></scales>
<clustering>
<clus scale="   39.845">  1  4  2 -1</clus>
<clus scale="   52.851">  2  3  1 -1</clus>
<clus scale="   79.400">  1  5  2 -1</clus>
<clus scale="   39.845">  1  3  2 -1</clus>
</clustering>
</event>
<event>
 6    0  0.6207838E+002  0.1233074E+03  0.7546771E-02  0.1237738E+00
         21   -1    0    0  505  501  0.00000000000E+00  0.00000000000E+00  0.54467467537E+02  0.54467467537E+02  0.00000000000E+00 0. -1.
         21   -1    0    0  506  502 -0.00000000000E+00 -0.00000000000E+00 -0.14449047271E+04  0.14449047271E+04  0.00000000000E+00 0. -1.
         21    1    1    2  503  502 -0.13475089829E+02  0.27779155409E+02 -0.11817668990E+03  0.12214331565E+03  0.00000000000E+00 0.  1.
         21    1    1    2  504  503  0.11312420065E+03  0.16250268893E+02 -0.75622956986E+03  0.76481652593E+03  0.00000000000E+00 0. -1.
         21    1    1    2  505  504  0.41252190988E+02 -0.28560101813E+01  0.27333486591E+02  0.49568332074E+02  0.00000000000E+00 0. -1.
         21    1    1    2  506  501 -0.14090130181E+03 -0.41173414121E+02 -0.54336448639E+03  0.56284402098E+03  0.00000000000E+00 0. -1.
<scales pt_clust_3="30.87490" pt_clust_4="14000.00000" pt_clust_5="41.22263" pt_clust_6="123.30740"></scales>
<clustering>
<clus scale="   30.875">  2  3  1 -1</clus>
<clus scale="   41.223">  1  5  2 -1</clus>
<clus scale="  123.307">  1  6  2 -1</clus>
<clus scale="   41.223">  1  3  2 -1</clus>
</clustering>
</event>
<event>
 6    0  0.6207838E+002  0.8262952E+02  0.7546771E-02  0.1321751E+00
         21   -1    0    0  504  501  0.00000000000E+00  0.00000000000E+00  0.38773136931E+03  0.38773136931E+03  0.00000000000E+00 0. -1.
         21   -1    0    0  503  502 -0.00000000000E+00 -0.00000000000E+00 -0.78843832593E+02  0.78843832593E+02  0.00000000000E+00 0. -1.
         21    1    1    2  503  506 -0.46349259569E+02  0.54518298583E+02  0.82388113994E+02  0.10912515783E+03  0.00000000000E+00 0. -1.
         21    1    1    2  504  505 -0.17078572421E+02 -0.11423056322E+03  0.17955540785E+03  0.21349576974E+03  0.00000000000E+00 0. -1.
         21    1    1    2  505  502  0.48570989633E+02  0.31940386604E+02 -0.26615694554E+02  0.63935315178E+02  0.00000000000E+00 0. -1.
         21    1    1    2  506  501  0.14856842357E+02  0.27771878029E+02  0.73559709426E+02  0.80018959159E+02  0.00000000000E+00 0. -1.
<scales pt_clust_3="14000.00000" pt_clust_4="82.62952" pt_clust_5="59.79945" pt_clust_6="31.49608"></scales>
<clustering>
<clus scale="   31.496">  1  6  2 -1</clus>
<clus scale="   59.799">  2  5  1 -1</clus>
<clus scale="   82.630">  1  4  2 -1</clus>
<clus scale="   31.496">  1  3  2 -1</clus>
</clustering>
</event>
<event>
 6    0  0.6207838E+002  0.9920154E+02  0.7546771E-02  0.1281984E+00
         21   -1    0    0  506  501  0.00000000000E+00  0.00000000000E+00  0.32176132978E+03  0.32176132978E+03  0.00000000000E+00 0. -1.
         21   -1    0    0  505  502 -0.00000000000E+00 -0.00000000000E+00 -0.13744480220E+04  0.13744480220E+04  0.00000000000E+00 0.  1.
         21    1    1    2  503  502  0.47460619260E+02 -0.55445327931E+02 -0.28481604102E+03  0.29401848920E+03  0.00000000000E+00 0.  1.
         21    1    1    2  504  503 -0.65527426842E+02 -0.89631757757E+02 -0.97707868563E+03  0.98336689673E+03  0.00000000000E+00 0.  1.
         21    1    1    2  505  501 -0.64727197826E+01  0.48991669056E+02 -0.90511956426E+02  0.10312368299E+03  0.00000000000E+00 0.  1.
         21    1    1    2  506  504  0.24539527364E+02  0.96085416632E+02  0.29971999085E+03  0.31570028287E+03  0.00000000000E+00 0. -1.
<scales pt_clust_3="63.89190" pt_clust_4="99.20154" pt_clust_5="49.41740" pt_clust_6="14000.00000"></scales>
<clustering>
<clus scale="   49.417">  2  5  1 -1</clus>
<clus scale="   63.892">  2  3  1 -1</clus>
<clus scale="   99.202">  2  4  1 -1</clus>
<clus scale="   99.202">  1  3  2 -1</clus>
</clustering>
</event>
<event>
 6    0  0.6207838E+002  0.9109280E+02  0.7546771E-02  0.1300227E+00
         21   -1    0    0  503  501  0.00000000000E+00  0.00000000000E+00  0.15046761129E+03  0.15046761129E+03  0.00000000000E+00 0.  1.
         21   -1    0    0  501  502 -0.00000000000E+00 -0.00000000000E+00 -0.66828179797E+03  0.66828179797E+03  0.00000000000E+00 0. -1.
         21    1    1    2  503  504  0.33677147264E+02  0.47135100584E+01  0.10352281746E+03  0.10896486204E+03  0.00000000000E+00 0.  1.
         21    1    1    2  504  505  0.68355621682E+02  0.37463515752E+00 -0.39585526365E+02  0.78991425261E+02  0.00000000000E+00 0. -1.
         21    1    1    2  505  506 -0.11424760855E+03 -0.43688574541E+02 -0.13484315402E+03  0.18205461760E+03  0.00000000000E+00 0. -1.
         21    1    1    2  506  502  0.12214839606E+02  0.38600429325E+02 -0.44690832376E+03  0.44873850436E+03  0.00000000000E+00 0. -1.
<scales pt_clust_3="34.00540" pt_clust_4="14000.00000" pt_clust_5="91.09280" pt_clust_6="40.79515"></scales>
<clustering>
<clus scale="   34.005">  1  3  2 -1</clus>
<clus scale="   40.795">  2  6  1 -1</clus>
<clus scale="   91.093">  2  5  1 -1</clus>
<clus scale="   34.005">  1  3  2 -1</clus>
</clustering>
</event>
<event>
 6    0  0.6207838E+002  0.1217352E+03  0.7546771E-02  0.1240262E+00
         21   -1    0    0  504  501  0.00000000000E+00  0.00000000000E+00  0.20570951410E+03  0.20570951410E+03  0.00000000000E+00 0. -1.
         21   -1    0    0  505  502 -0.00000000000E+00 -0.00000000000E+00 -0.11601259025E+04  0.11601259025E+04  0.00000000000E+00 0. -1.
         21    1    1    2  503  502  0.30917802424E+02  0.18396317788E+02 -0.40201161005E+03  0.40361822262E+03  0.00000000000E+00 0. -1.
         21    1    1    2  504  503 -0.51335913016E+02  0.11237360926E+03  0.17767974487E+03  0.21641001770E+03  0.00000000000E+00 0. -1.
         21    1    1    2  505  506  0.18506062274E+02 -0.56950086451E+02 -0.15783091446E+03  0.16880872089E+03  0.00000000000E+00 0. -1.
         21    1    1    2  506  501  0.19120483181E+01 -0.73819840599E+02 -0.57225360878E+03  0.57699845542E+03  0.00000000000E+00 0. -1.
<scales pt_clust_3="35.97687" pt_clust_4="14000.00000" pt_clust_5="58.65911" pt_clust_6="121.73519"></scales>
<clustering>
<clus scale="   35.977">  2  3  1 -1</clus>
<clus scale="   58.659">  2  5  1 -1</clus>
<clus scale="  121.735">  2  6  1 -1</clus>
<clus scale="  121.735">  1  3  2 -1</clus>
</clustering>
</event>
<event>
 6    0  0.6207838E+002  0.8284327E+02  0.7546771E-02  0.1321171E+00
         21   -1    0    0  505  501  0.00000000000E+00  0.00000000000E+00  0.83019985874E+02  0.83019985874E+02  0.00000000000E+00 0. -1.
         21   -1    0    0  503  502 -0.00000000000E+00 -0.00000000000E+00 -0.22010631614E+04  0.22010631614E+04  0.00000000000E+00 0. -1.
         21    1    1    2  503  506  0.81466163209E+02  0.13368171653E+02 -0.19978271824E+04  0.19995321689E+04  0.00000000000E+00 0. -1.
         21    1    1    2  504  502 -0.92408491747E+01 -0.76426634516E+02 -0.34860672674E+01  0.77062159468E+02  0.00000000000E+00 0. -1.
         21    1    1    2  505  504  0.31413806122E+02 -0.93185846018E+01  0.36004592982E+01  0.32964018887E+02  0.00000000000E+00 0. -1.
         21    1    1    2  506  501 -0.10363912016E+03  0.72377047464E+02 -0.12033038515E+03  0.17452480001E+03  0.00000000000E+00 0. -1.
<scales pt_clust_3="14000.00000" pt_clust_4="82.17440" pt_clust_5="32.76680" pt_clust_6="82.84327"></scales>
<clustering>
<clus scale="   32.767">  1  5  2 -1</clus>
<clus scale="   82.174">  1  4  2 -1</clus>
<clus scale="   82.843">  1  6  2 -1</clus>
<clus scale="   32.767">  1  3  2 -1</clus>
</clustering>
</event>
<event>
 6    0  0.6207838E+002  0.1489479E+03  0.7546771E-02  0.1201772E+00
         21   -1    0    0  504  501  0.00000000000E+00  0.00000000000E+00  0.10976505490E+03  0.10976505490E+03  0.00000000000E+00 0.  1.
         21   -1    0    0  503  502 -0.00000000000E+00 -0.00000000000E+00 -0.61444878134E+03  0.61444878134E+03  0.00000000000E+00 0. -1.
         21    1    1    2  503  506 -0.12430249163E+03  0.27556865050E+02 -0.60423510437E+02  0.14093080164E+03  0.00000000000E+00 0.  1.
         21    1    1    2  504  505  0.74354413186E+02  0.48935558959E+01 -0.63370382324E+02  0.97817846048E+02  0.00000000000E+00 0. -1.
         21    1    1    2  505  502  0.10637045484E+03 -0.61826461547E+02 -0.40044207776E+03  0.41891651036E+03  0.00000000000E+00 0. -1.
         21    1    1    2  506  501 -0.56422376404E+02  0.29376040601E+02  0.19552244089E+02  0.66548678194E+02  0.00000000000E+00 0.  1.
<scales pt_clust_3="52.29847" pt_clust_4="74.51527" pt_clust_5="129.27118" pt_clust_6="52.29847"></scales>
<clustering>
<clus scale="   52.298">  3  6 -1 -1</clus>
<clus scale="   74.515">  1  4  2 -1</clus>
<clus scale="  129.271">  2  5  1 -1</clus>
<clus scale="   74.515">  1  3  2 -1</clus>
</clustering>
</event>
<event>
 6    0  0.6207838E+002  0.1111760E+03  0.7546771E-02  0.1258407E+00
         21   -1    0    0  504  501  0.00000000000E+00  0.00000000000E+00  0.22040780632E+03  0.22040780632E+03  0.00000000000E+00 0.  1.
         21   -1    0    0  506  502 -0.00000000000E+00 -0.00000000000E+00 -0.37130402927E+03  0.37130402927E+03  0.00000000000E+00 0.  1.
         21    1    1    2  503  505 -0.15480228728E+02 -0.86451505007E+02  0.11268813813E+03  0.14287097912E+03  0.00000000000E+00 0.  1.
         21    1    1    2  504  503  0.41973098726E+02  0.55675860797E+01  0.19092069892E+02  0.46446164149E+02  0.00000000000E+00 0.  1.
         21    1    1    2  505  502 -0.32775001857E+02 -0.18270987648E+02  0.45807324973E+02  0.59214362765E+02  0.00000000000E+00 0.  1.
         21    1    1    2  506  501  0.62821318589E+01  0.99154906575E+02 -0.32848375594E+03  0.34318032956E+03  0.00000000000E+00 0.  1.
<scales pt_clust_3="32.17026" pt_clust_4="42.34075" pt_clust_5="32.17026" pt_clust_6="99.68852"></scales>
<clustering>
<clus scale="   32.170">  3  5 -1 -1</clus>
<clus scale="   42.341">  1  4  2 -1</clus>
<clus scale="   99.689">  2  6  1 -1</clus>
<clus scale="   42.341">  1  3  2 -1</clus>
</clustering>
</event>
<event>
 6    0  0.6207838E+002  0.3222934E+03  0.7546771E-02  0.1074599E+00
         21   -1    0    0  505  501  0.00000000000E+00  0.00000000000E+00  0.13894813675E+04  0.13894813675E+04  0.00000000000E+00 0. -1.
         21   -1    0    0  506  502 -0.00000000000E+00 -0.00000000000E+00 -0.72573230772E+02  0.72573230772E+02  0.00000000000E+00 0. -1.
         21    1    1    2  503  502  0.12076091547E+03  0.62364360205E+02  0.21872108528E+03  0.25751004889E+03  0.00000000000E+00 0. -1.
         21    1    1    2  504  503  0.47937316631E+02  0.33661191240E+02  0.17224338866E+03  0.18193088539E+03  0.00000000000E+00 0. -1.
         21    1    1    2  505  504  0.11884620858E+03  0.48457666185E+01  0.16923641318E+03  0.20685469851E+03  0.00000000000E+00 0. -1.
         21    1    1    2  506  501 -0.28754444069E+03 -0.10087131806E+03  0.75670724964E+03  0.81575896552E+03  0.00000000000E+00 0. -1.
<scales pt_clust_3="64.59422" pt_clust_4="33.31378" pt_clust_5="64.59422" pt_clust_6="304.72418"></scales>
<clustering>
<clus scale="   33.314">  3  4 -1 -1</clus>
<clus scale="   64.594">  3  5 -1 -1</clus>
<clus scale="  304.724">  1  6  2 -1</clus>
<clus scale="  304.724">  1  3  2 -1</clus>
</clustering>
</event>
<event>
 6    0  0.6207838E+002  0.1802061E+03  0.7546771E-02  0.1167604E+00
         21   -1    0    0  506  501  0.00000000000E+00  0.00000000000E+00  0.12726239790E+04  0.12726239790E+04  0.00000000000E+00 0. -1.
         21   -1    0    0  505  502 -0.00000000000E+00 -0.00000000000E+00 -0.54079497775E+02  0.54079497775E+02  0.00000000000E+00 0. -1.
         21    1    1    2  503  504 -0.56643730817E+01 -0.78540870503E+02  0.14583860017E+03  0.16573970786E+03  0.00000000000E+00 0. -1.
         21    1    1    2  504  501  0.40014051224E+02 -0.34042100229E+02  0.61962008393E+03  0.62184325782E+03  0.00000000000E+00 0. -1.
         21    1    1    2  505  503  0.46846893303E+01 -0.80355656219E+02  0.63123570656E+02  0.10229155866E+03  0.00000000000E+00 0. -1.
         21    1    1    2  506  502 -0.39034367473E+02  0.19293862695E+03  0.38996222644E+03  0.43682895241E+03  0.00000000000E+00 0. -1.
<scales pt_clust_3="53.61859" pt_clust_4="52.53560" pt_clust_5="53.61859" pt_clust_6="171.89452"></scales>
<clustering>
<clus scale="   52.536">  1  4  2 -1</clus>
<clus scale="   53.619">  3  5 -1 -1</clus>
<clus scale="  171.895">  1  6  2 -1</clus>
<clus scale="   52.536">  1  3  2 -1</clus>
</clustering>
</event>
<event>
 6    0  0.9103294E+002  0.1668972E+03  0.7546771E-02  0.1181123E+00
         21   -1    0    0  506  501  0.00000000000E+00  0.00000000000E+00  0.67305535564E+03  0.67305535564E+03  0.00000000000E+00 0. -1.
         21   -1    0    0  504  502 -0.00000000000E+00 -0.00000000000E+00 -0.40262037946E+03  0.40262037946E+03  0.00000000000E+00 0. -1.
         21    1    1    2  503  502  0.15838961025E+03  0.56719497551E+02 -0.35775825718E+03  0.39534205521E+03  0.00000000000E+00 0. -1.
         21    1    1    2  504  501 -0.33021971322E+00  0.38380603030E+02  0.28193544139E+02  0.47624108024E+02  0.00000000000E+00 0. -1.
         21    1    1    2  505  503 -0.12127967058E+03 -0.80343172189E+02  0.34158237179E+03  0.37127119539E+03  0.00000000000E+00 0. -1.
         21    1    1    2  506  505 -0.36779719965E+02 -0.14756928392E+02  0.25841731744E+03  0.26143837647E+03  0.00000000000E+00 0. -1.
<scales pt_clust_3="14000.00000" pt_clust_4="38.38202" pt_clust_5="166.89723" pt_clust_6="36.92708"></scales>
<clustering>
<clus scale="   38.382">  1  4  2 -1</clus>
<clus scale="   36.927">  1  6  2 -1</clus>
<clus scale="  166.897">  1  5  2 -1</clus>
<clus scale="   38.382">  1  3  2 -1</clus>
</clustering>
</event>
<event>
 6    0  0.6207838E+002  0.8174482E+02  0.7546771E-02  0.1324172E+00
         21   -1    0    0  506  501  0.00000000000E+00  0.00000000000E+00  0.89292973737E+03  0.89292973737E+03  0.00000000000E+00 0. -1.
         21   -1    0    0  504  502 -0.00000000000E+00 -0.00000000000E+00 -0.96032597752E+03  0.96032597752E+03  0.00000000000E+00 0. -1.
         21    1    1    2  503  502 -0.14908992019E+02 -0.82559833677E+02 -0.86003855270E+03  0.86412077646E+03  0.00000000000E+00 0. -1.
         21    1    1    2  504  505  0.54274511420E+02 -0.16245435716E+02  0.46393678146E+02  0.73225747818E+02  0.00000000000E+00 0.  1.
         21    1    1    2  505  501  0.33441775583E+01  0.30376415223E+02  0.81155066747E+03  0.81212584985E+03  0.00000000000E+00 0. -1.
         21    1    1    2  506  503 -0.42709696959E+02  0.68428854170E+02 -0.65302033064E+02  0.10378334076E+03  0.00000000000E+00 0.  1.
<scales pt_clust_3="14000.00000" pt_clust_4="57.07432" pt_clust_5="30.55994" pt_clust_6="81.74482"></scales>
<clustering>
<clus scale="   30.560">  1  5  2 -1</clus>
<clus scale="   57.074">  1  4  2 -1</clus>
<clus scale="   81.745">  1  6  2 -1</clus>
<clus scale="   30.560">  1  3  2 -1</clus>
</clustering>
</event>
<event>
 6    0  0.6207838E+002  0.1394185E+03  0.7546771E-02  0.1214114E+00
         21   -1    0    0  506  501  0.00000000000E+00  0.00000000000E+00  0.88676173657E+03  0.88676173657E+03  0.00000000000E+00 0.  1.
         21   -1    0    0  503  502 -0.00000000000E+00 -0.00000000000E+00 -0.13907194889E+04  0.13907194889E+04  0.00000000000E+00 0. -1.
         21    1    1    2  503  505  0.89142722772E+02 -0.12841700439E+02 -0.12122261470E+04  0.12155671787E+04  0.00000000000E+00 0. -1.
         21    1    1    2  504  502 -0.34779889466E+01 -0.11230380382E+03 -0.10791966324E+03  0.15579118869E+03  0.00000000000E+00 0. -1.
         21    1    1    2  505  501 -0.60144793251E+02  0.14647075723E+03  0.96000778368E+02  0.18516810829E+03  0.00000000000E+00 0. -1.
         21    1    1    2  506  504 -0.25519940574E+02 -0.21325252973E+02  0.72018727952E+03  0.72095474987E+03  0.00000000000E+00 0.  1.
<scales pt_clust_3="89.83995" pt_clust_4="139.41849" pt_clust_5="14000.00000" pt_clust_6="33.25709"></scales>
<clustering>
<clus scale="   33.257">  1  6  2 -1</clus>
<clus scale="   89.840">  2  3  1 -1</clus>
<clus scale="  139.418">  2  4  1 -1</clus>
<clus scale="   33.257">  1  3  2 -1</clus>
</clustering>
</event>
<event>
 6    0  0.6207838E+002  0.1039525E+03  0.7546771E-02  0.1272197E+00
         21   -1    0    0  503  501  0.00000000000E+00  0.00000000000E+00  0.22809946187E+03  0.22809946187E+03  0.00000000000E+00 0.  1.
         21   -1    0    0  506  502 -0.00000000000E+00 -0.00000000000E+00 -0.77147018288E+02  0.77147018288E+02  0.00000000000E+00 0.  1.
         21    1    1    2  503  505 -0.46194935749E+02  0.17604577573E+02  0.66846324846E+02  0.83140389618E+02  0.00000000000E+00 0.  1.
         21    1    1    2  504  502  0.95910750969E+01  0.34578576052E+02  0.33478253088E+02  0.49076064157E+02  0.00000000000E+00 0. -1.
         21    1    1    2  505  504 -0.29941567256E+02  0.40689137549E+02  0.22871901132E+02  0.55454731318E+02  0.00000000000E+00 0.  1.
         21    1    1    2  506  501  0.66545427908E+02 -0.92872291174E+02  0.27755964516E+02  0.11757529506E+03  0.00000000000E+00 0.  1.
<scales pt_clust_3="49.43575" pt_clust_4="34.46207" pt_clust_5="34.46207" pt_clust_6="95.57271"></scales>
<clustering>
<clus scale="   34.462">  4  5 -1 -1</clus>
<clus scale="   49.436">  1  3  2 -1</clus>
<clus scale="   95.573">  2  6  1 -1</clus>
<clus scale="   49.436">  1  3  2 -1</clus>
</clustering>
</event>
<event>
 6    0  0.6207838E+002  0.9270796E+02  0.7546771E-02  0.1296423E+00
         21   -1    0    0  504  501  0.00000000000E+00  0.00000000000E+00  0.14731861242E+03  0.14731861242E+03  0.00000000000E+00 0. -1.
         21   -1    0    0  503  502 -0.00000000000E+00 -0.00000000000E+00 -0.16407319207E+03  0.16407319207E+03  0.00000000000E+00 0. -1.
         21    1    1    2  503  505  0.10110779809E+02 -0.62639713139E+02 -0.37345705822E+02  0.73625153812E+02  0.00000000000E+00 0. -1.
         21    1    1    2  504  502  0.42396403141E+02 -0.54223795945E+02  0.62809729518E+02  0.93181206089E+02  0.00000000000E+00 0. -1.
         21    1    1    2  505  506 -0.36119586447E+02  0.23441266764E+02 -0.82843905955E+01  0.43849157804E+02  0.00000000000E+00 0. -1.
         21    1    1    2  506  501 -0.16387596503E+02  0.93422242321E+02 -0.33934212756E+02  0.10073628678E+03  0.00000000000E+00 0. -1.
<scales pt_clust_3="63.45047" pt_clust_4="76.72228" pt_clust_5="35.06547" pt_clust_6="35.06547"></scales>
<clustering>
<clus scale="   35.065">  5  6 -1 -1</clus>
<clus scale="   63.450">  2  3  1 -1</clus>
<clus scale="   76.722">  1  4  2 -1</clus>
<clus scale="   76.722">  1  3  2 -1</clus>
</clustering>
</event>
<event>
 6    0  0.6207838E+002  0.1095721E+03  0.7546771E-02  0.1261364E+00
         21   -1    0    0  505  501  0.00000000000E+00  0.00000000000E+00  0.88532672057E+03  0.88532672057E+03  0.00000000000E+00 0.  1.
         21   -1    0    0  503  502 -0.00000000000E+00 -0.00000000000E+00 -0.16713806014E+03  0.16713806014E+03  0.00000000000E+00 0.  1.
         21    1    1    2  503  504  0.55462597488E+02  0.28139769899E+02 -0.50402467035E+02  0.80052202051E+02  0.00000000000E+00 0.  1.
         21    1    1    2  504  506  0.15449437982E+02  0.97039858418E+02 -0.50332004731E+02  0.11040258129E+03  0.00000000000E+00 0.  1.
         21    1    1    2  505  502 -0.32003666301E+02 -0.22095169760E+02  0.33569271621E+01  0.39034601873E+02  0.00000000000E+00 0. -1.
         21    1    1    2  506  501 -0.38908369169E+02 -0.10308445856E+03  0.81556620504E+03  0.82297539550E+03  0.00000000000E+00 0.  1.
<scales pt_clust_3="45.41352" pt_clust_4="109.57213" pt_clust_5="38.88999" pt_clust_6="14000.00000"></scales>
<clustering>
<clus scale="   38.890">  2  5  1 -1</clus>
<clus scale="   45.414">  2  3  1 -1</clus>
<clus scale="  109.572">  2  4  1 -1</clus>
<clus scale="  109.572">  1  3  2 -1</clus>
</clustering>
</event>
<event>
 6    0  0.6207838E+002  0.2817247E+03  0.7546771E-02  0.1094751E+00
         21   -1    0    0  505  501  0.00000000000E+00  0.00000000000E+00  0.62691341732E+03  0.62691341732E+03  0.00000000000E+00 0. -1.
         21   -1    0    0  503  502 -0.00000000000E+00 -0.00000000000E+00 -0.34543787231E+03  0.34543787231E+03  0.00000000000E+00 0. -1.
         21    1    1    2  503  504 -0.29124302624E+02  0.10034309436E+02 -0.10288127654E+03  0.10739399160E+03  0.00000000000E+00 0. -1.
         21    1    1    2  504  506 -0.13898081141E+02 -0.38283018450E+02 -0.56873273761E+02  0.69952236772E+02  0.00000000000E+00 0. -1.
         21    1    1    2  505  502  0.46582415336E+02 -0.25992246022E+03 -0.46400759187E+01  0.26410440559E+03  0.00000000000E+00 0. -1.
         21    1    1    2  506  501 -0.35600315700E+01  0.28817116923E+03  0.44587017122E+03  0.53090065567E+03  0.00000000000E+00 0. -1.
<scales pt_clust_3="30.80442" pt_clust_4="41.66189" pt_clust_5="281.72468" pt_clust_6="14000.00000"></scales>
<clustering>
<clus scale="   30.804">  2  3  1 -1</clus>
<clus scale="   41.662">  2  4  1 -1</clus>
<clus scale="  281.725">  2  5  1 -1</clus>
<clus scale="  281.725">  1  3  2 -1</clus>
</clustering>
</event>
<event>
 6    0  0.6207838E+002  0.8078609E+02  0.7546771E-02  0.1326835E+00
         21   -1    0    0  504  501  0.00000000000E+00  0.00000000000E+00  0.27460096871E+03  0.27460096871E+03  0.00000000000E+00 0.  1.
         21   -1    0    0  506  502 -0.00000000000E+00 -0.00000000000E+00 -0.27711971617E+03  0.27711971617E+03  0.00000000000E+00 0.  1.
         21    1    1    2  503  502  0.32618219488E+02 -0.74885350149E+02 -0.21482474961E+03  0.22982914731E+03  0.00000000000E+00 0.  1.
         21    1    1    2  504  503 -0.59629278494E+02 -0.50564332023E+01  0.10085389621E+02  0.60687177017E+02  0.00000000000E+00 0.  1.
         21    1    1    2  505  501  0.83996837594E+02  0.29997961852E+02  0.11793650148E+03  0.14786603674E+03  0.00000000000E+00 0.  1.
         21    1    1    2  506  505 -0.56985778588E+02  0.49943821500E+02  0.84284111048E+02  0.11333832380E+03  0.00000000000E+00 0.  1.
<scales pt_clust_3="80.78609" pt_clust_4="59.84328" pt_clust_5="57.67862" pt_clust_6="14000.00000"></scales>
<clustering>
<clus scale="   59.843">  1  4  2 -1</clus>
<clus scale="   57.679">  1  5  2 -1</clus>
<clus scale="   80.786">  2  3  1 -1</clus>
<clus scale="   59.843">  1  3  2 -1</clus>
</clustering>
</event>
<event>
 6    0  0.6207838E+002  0.2296502E+03  0.7546771E-02  0.1126886E+00
         21   -1    0    0  505  501  0.00000000000E+00  0.00000000000E+00  0.41609942135E+03  0.41609942135E+03  0.00000000000E+00 0.  1.
         21   -1    0    0  506  502 -0.00000000000E+00 -0.00000000000E+00 -0.19672134834E+03  0.19672134834E+03  0.00000000000E+00 0.  1.
         21    1    1    2  503  501  0.12057208403E+03 -0.85679418588E+02  0.14478730119E+03  0.20698297709E+03  0.00000000000E+00 0.  1.
         21    1    1    2  504  502 -0.17965135862E+03  0.13000788393E+03 -0.49003794082E+02  0.22710797514E+03  0.00000000000E+00 0.  1.
         21    1    1    2  505  504 -0.18231202180E+02 -0.33533079122E+02  0.81610633444E+02  0.90095169790E+02  0.00000000000E+00 0.  1.
         21    1    1    2  506  503  0.77310476768E+02 -0.10795386221E+02  0.41983932464E+02  0.88634647666E+02  0.00000000000E+00 0.  1.
<scales pt_clust_3="44.91978" pt_clust_4="220.67582" pt_clust_5="38.16863" pt_clust_6="44.91978"></scales>
<clustering>
<clus scale="   38.169">  1  5  2 -1</clus>
<clus scale="   44.920">  3  6 -1 -1</clus>
<clus scale="  220.676">  2  4  1 -1</clus>
<clus scale="   38.169">  1  3  2 -1</clus>
</clustering>
</event>
<event>
 6    0  0.6207838E+002  0.1140784E+03  0.7546771E-02  0.1253198E+00
         21   -1    0    0  502  501  0.00000000000E+00  0.00000000000E+00  0.96368177192E+03  0.96368177192E+03  0.00000000000E+00 0.  1.
         21   -1    0    0  503  502 -0.00000000000E+00 -0.00000000000E+00 -0.12859821871E+03  0.12859821871E+03  0.00000000000E+00 0. -1.
         21    1    1    2  503  505 -0.27910789264E+02 -0.12825051531E+02 -0.11203020146E+03  0.11616479735E+03  0.00000000000E+00 0. -1.
         21    1    1    2  504  501 -0.96895212412E+02  0.91454430280E+01  0.52107353125E+03  0.53008484819E+03  0.00000000000E+00 0.  1.
         21    1    1    2  505  506  0.56118399104E+02  0.16903772211E+02  0.24584899863E+03  0.25273848610E+03  0.00000000000E+00 0.  1.
         21    1    1    2  506  504  0.68687602573E+02 -0.13224163708E+02  0.18019122480E+03  0.19329185898E+03  0.00000000000E+00 0.  1.
<scales pt_clust_3="30.71635" pt_clust_4="105.69370" pt_clust_5="39.99021" pt_clust_6="39.99021"></scales>
<clustering>
<clus scale="   30.716">  2  3  1 -1</clus>
<clus scale="   39.990">  5  6 -1 -1</clus>
<clus scale="  105.694">  1  4  2 -1</clus>
<clus scale="  105.694">  1  3  2 -1</clus>
</clustering>
</event>
<event>
 6    0  0.6207838E+002  0.1262738E+03  0.7546771E-02  0.1233092E+00
         21   -1    0    0  504  501  0.00000000000E+00  0.00000000000E+00  0.69977832809E+02  0.69977832809E+02  0.00000000000E+00 0. -1.
         21   -1    0    0  506  502 -0.00000000000E+00 -0.00000000000E+00 -0.51912809800E+03  0.51912809800E+03  0.00000000000E+00 0. -1.
         21    1    1    2  503  502 -0.33145977294E+02  0.47822912879E+02 -0.12519223577E+03  0.13805355013E+03  0.00000000000E+00 0. -1.
         21    1    1    2  504  503 -0.33726853249E+02  0.59250779392E+02 -0.58334389561E+02  0.89727679643E+02  0.00000000000E+00 0. -1.
         21    1    1    2  505  501  0.77352483231E+02  0.13463552321E+02 -0.10824673519E+02  0.79258106588E+02  0.00000000000E+00 0. -1.
         21    1    1    2  506  505 -0.10479652687E+02 -0.12053724459E+03 -0.25479896634E+03  0.28206659445E+03  0.00000000000E+00 0. -1.
<scales pt_clust_3="43.97188" pt_clust_4="43.97188" pt_clust_5="78.51544" pt_clust_6="116.95966"></scales>
<clustering>
<clus scale="   43.972">  3  4 -1 -1</clus>
<clus scale="   78.515">  1  5  2 -1</clus>
<clus scale="  116.960">  2  6  1 -1</clus>
<clus scale="   78.515">  1  3  2 -1</clus>
</clustering>
</event>
<event>
 6    0  0.6207838E+002  0.1382702E+03  0.7546771E-02  0.1215676E+00
         21   -1    0    0  505  501  0.00000000000E+00  0.00000000000E+00  0.51481573489E+03  0.51481573489E+03  0.00000000000E+00 0. -1.
         21   -1    0    0  506  502 -0.00000000000E+00 -0.00000000000E+00 -0.86919748299E+02  0.86919748299E+02  0.00000000000E+00 0. -1.
         21    1    1    2  503  501  0.81462777633E+02 -0.47647463850E+02  0.14442897536E+03  0.17252882042E+03  0.00000000000E+00 0. -1.
         21    1    1    2  504  503  0.62340370771E+02 -0.27695252932E+02  0.17693701528E+03  0.18963136934E+03  0.00000000000E+00 0. -1.
         21    1    1    2  505  502 -0.22843254700E+02  0.35605621406E+02  0.10395123036E+03  0.11222937608E+03  0.00000000000E+00 0.  1.
         21    1    1    2  506  504 -0.12095989370E+03  0.39737095377E+02  0.25787655892E+01  0.12734591735E+03  0.00000000000E+00 0. -1.
<scales pt_clust_3="33.23391" pt_clust_4="33.23391" pt_clust_5="42.30336" pt_clust_6="132.62957"></scales>
<clustering>
<clus scale="   33.234">  3  4 -1 -1</clus>
<clus scale="   42.303">  1  5  2 -1</clus>
<clus scale="  132.630">  2  6  1 -1</clus>
<clus scale="   42.303">  1  3  2 -1</clus>
</clustering>
</event>
<event>
 6    0  0.6207838E+002  0.1248582E+03  0.7546771E-02  0.1235291E+00
         21   -1    0    0  505  501  0.00000000000E+00  0.00000000000E+00  0.12620794238E+04  0.12620794238E+04  0.00000000000E+00 0. -1.
         21   -1    0    0  504  502 -0.00000000000E+00 -0.00000000000E+00 -0.47766561544E+02  0.47766561544E+02  0.00000000000E+00 0.  1.
         21    1    1    2  503  506 -0.28988386145E+02 -0.11466706712E+03  0.17946184266E+03  0.21493118849E+03  0.00000000000E+00 0.  1.
         21    1    1    2  504  501  0.78597145771E+02  0.65899443413E+02  0.89622225925E+03  0.90207238398E+03  0.00000000000E+00 0. -1.
         21    1    1    2  505  503 -0.39175295487E+02 -0.21761840722E+02  0.10469287090E+03  0.11388098483E+03  0.00000000000E+00 0.  1.
         21    1    1    2  506  502 -0.10433464138E+02  0.70529464427E+02  0.33935889435E+02  0.78961428039E+02  0.00000000000E+00 0.  1.
<scales pt_clust_3="39.48338" pt_clust_4="107.12222" pt_clust_5="39.48338" pt_clust_6="71.29700"></scales>
<clustering>
<clus scale="   39.483">  3  5 -1 -1</clus>
<clus scale="   71.297">  2  6  1 -1</clus>
<clus scale="  107.122">  1  4  2 -1</clus>
<clus scale="  107.122">  1  3  2 -1</clus>
</clustering>
</event>
<event>
 6    0  0.6207838E+002  0.9424888E+02  0.7546771E-02  0.1292877E+00
         21   -1    0    0  504  501  0.00000000000E+00  0.00000000000E+00  0.79044099383E+02  0.79044099383E+02  0.00000000000E+00 0.  1.
         21   -1    0    0  505  502 -0.00000000000E+00 -0.00000000000E+00 -0.70247190537E+03  0.70247190537E+03  0.00000000000E+00 0. -1.
         21    1    1    2  503  502 -0.98026827974E+02  0.68021488357E+01 -0.37864944989E+03  0.39119168464E+03  0.00000000000E+00 0. -1.
         21    1    1    2  504  503  0.83073566466E+02 -0.12437061508E+01 -0.80494646078E+02  0.11568125301E+03  0.00000000000E+00 0.  1.
         21    1    1    2  505  506  0.50921109251E+02  0.49363915388E+02 -0.19101645148E+03  0.20375730722E+03  0.00000000000E+00 0. -1.
         21    1    1    2  506  501 -0.35967847744E+02 -0.54922358073E+02  0.26732741462E+02  0.70885759879E+02  0.00000000000E+00 0.  1.
<scales pt_clust_3="94.24888" pt_clust_4="14000.00000" pt_clust_5="57.50495" pt_clust_6="65.65174"></scales>
<clustering>
<clus scale="   65.652">  1  6  2 -1</clus>
<clus scale="   57.505">  1  5  2 -1</clus>
<clus scale="   94.249">  2  3  1 -1</clus>
<clus scale="   65.652">  1  3  2 -1</clus>
</clustering>
</event>
<event>
 6    0  0.6207838E+002  0.1655916E+03  0.7546771E-02  0.1182525E+00
         21   -1    0    0  504  501  0.00000000000E+00  0.00000000000E+00  0.42868629593E+03  0.42868629593E+03  0.00000000000E+00 0. -1.
         21   -1    0    0  505  502 -0.00000000000E+00 -0.00000000000E+00 -0.37486098343E+03  0.37486098343E+03  0.00000000000E+00 0.  1.
         21    1    1    2  503  502 -0.70557771186E+02  0.59338444605E+01 -0.39060602768E+02  0.80866187455E+02  0.00000000000E+00 0. -1.
         21    1    1    2  504  503 -0.10759974865E+03  0.11164427344E+03  0.13790101746E+03  0.20750624164E+03  0.00000000000E+00 0. -1.
         21    1    1    2  505  506  0.20434295022E+03 -0.94077901126E+02 -0.23302913529E+03  0.32389700629E+03  0.00000000000E+00 0.  1.
         21    1    1    2  506  501 -0.26185430384E+02 -0.23500216779E+02  0.18801403311E+03  0.19127784398E+03  0.00000000000E+00 0. -1.
<scales pt_clust_3="72.95074" pt_clust_4="14000.00000" pt_clust_5="165.59160" pt_clust_6="35.18433"></scales>
<clustering>
<clus scale="   35.184">  1  6  2 -1</clus>
<clus scale="   72.951">  2  3  1 -1</clus>
<clus scale="  165.592">  2  5  1 -1</clus>
<clus scale="   35.184">  1  3  2 -1</clus>
</clustering>
</event>
<event>
 6    0  0.6207838E+002  0.2183799E+03  0.7546771E-02  0.1135097E+00
         21   -1    0    0  503  501  0.00000000000E+00  0.00000000000E+00  0.77838003784E+03  0.77838003784E+03  0.00000000000E+00 0.  1.
         21   -1    0    0  506  502 -0.00000000000E+00 -0.00000000000E+00 -0.39315248869E+03  0.39315248869E+03  0.00000000000E+00 0.  1.
         21    1    1    2  503  505  0.43106976956E+01  0.38134172322E+02  0.57066788159E+03  0.57195684128E+03  0.00000000000E+00 0.  1.
         21    1    1    2  504  501  0.99393372649E+02 -0.21798842871E+03 -0.13231619330E+02  0.23994389621E+03  0.00000000000E+00 0.  1.
         21    1    1    2  505  502 -0.66418165616E+02  0.18943205905E+03 -0.18971295396E+02  0.20163280430E+03  0.00000000000E+00 0.  1.
         21    1    1    2  506  504 -0.37285904729E+02 -0.95778026652E+01 -0.15323741771E+03  0.15799898475E+03  0.00000000000E+00 0.  1.
<scales pt_clust_3="38.37704" pt_clust_4="14000.00000" pt_clust_5="218.37987" pt_clust_6="38.34153"></scales>
<clustering>
<clus scale="   38.377">  1  3  2 -1</clus>
<clus scale="   38.342">  2  6  1 -1</clus>
<clus scale="  218.380">  2  5  1 -1</clus>
<clus scale="   38.377">  1  3  2 -1</clus>
</clustering>
</event>
<event>
 6    0  0.6207838E+002  0.9864886E+02  0.7546771E-02  0.1283163E+00
         21   -1    0    0  506  501  0.00000000000E+00  0.00000000000E+00  0.23438813842E+03  0.23438813842E+03  0.00000000000E+00 0.  1.
         21   -1    0    0  503  502 -0.00000000000E+00 -0.00000000000E+00 -0.37739878199E+03  0.37739878199E+03  0.00000000000E+00 0. -1.
         21    1    1    2  503  504 -0.39429069137E+02 -0.32194171869E+02 -0.11882824125E+03  0.12927206625E+03  0.00000000000E+00 0. -1.
         21    1    1    2  504  501 -0.97843685186E+02  0.24228257740E+02 -0.17445111726E+03  0.20147850386E+03  0.00000000000E+00 0. -1.
         21    1    1    2  505  502  0.66763106527E+02 -0.16601032596E+01 -0.40033395969E+02  0.77863605932E+02  0.00000000000E+00 0. -1.
         21    1    1    2  506  505  0.70509647796E+02  0.96260173887E+01  0.19030211090E+03  0.20317274438E+03  0.00000000000E+00 0.  1.
<scales pt_clust_3="47.54271" pt_clust_4="47.54271" pt_clust_5="66.78374" pt_clust_6="72.49624"></scales>
<clustering>
<clus scale="   47.543">  3  4 -1 -1</clus>
<clus scale="   66.784">  2  5  1 -1</clus>
<clus scale="   72.496">  1  6  2 -1</clus>
<clus scale="   72.496">  1  3  2 -1</clus>
</clustering>
</event>
<event>
 6    0  0.6207838E+002  0.1075425E+03  0.7546771E-02  0.1265190E+00
         21   -1    0    0  503  501  0.00000000000E+00  0.00000000000E+00  0.56169733429E+03  0.56169733429E+03  0.00000000000E+00 0.  1.
         21   -1    0    0  505  502 -0.00000000000E+00 -0.00000000000E+00 -0.20735248069E+03  0.20735248069E+03  0.00000000000E+00 0.  1.
         21    1    1    2  503  506 -0.54393646128E+02  0.49723954162E+02  0.85902565187E+01  0.74195234777E+02  0.00000000000E+00 0.  1.
         21    1    1    2  504  502 -0.93625925910E+02 -0.39133555010E+02 -0.82801538805E+02  0.13097077521E+03  0.00000000000E+00 0.  1.
         21    1    1    2  505  501  0.24277236125E+02 -0.27994207676E+02  0.43706618150E+03  0.43863413783E+03  0.00000000000E+00 0.  1.
         21    1    1    2  506  504  0.12374233591E+03  0.17403808525E+02 -0.85100456127E+01  0.12524966716E+03  0.00000000000E+00 0.  1.
<scales pt_clust_3="61.41128" pt_clust_4="107.54245" pt_clust_5="37.05482" pt_clust_6="14000.00000"></scales>
<clustering>
<clus scale="   37.055">  1  5  2 -1</clus>
<clus scale="   61.411">  1  3  2 -1</clus>
<clus scale="  107.542">  2  4  1 -1</clus>
<clus scale="   37.055">  1  3  2 -1</clus>
</clustering>
</event>
<event>
 6    0  0.6207838E+002  0.9872227E+02  0.7546771E-02  0.1283006E+00
         21   -1    0    0  505  501  0.00000000000E+00  0.00000000000E+00  0.27143630058E+03  0.27143630058E+03  0.00000000000E+00 0. -1.
         21   -1    0    0  503  502 -0.00000000000E+00 -0.00000000000E+00 -0.49428450659E+03  0.49428450659E+03  0.00000000000E+00 0. -1.
         21    1    1    2  503  506 -0.22078821017E+02 -0.31886387091E+02 -0.34838367174E+02  0.52133749592E+02  0.00000000000E+00 0. -1.
         21    1    1    2  504  502  0.86895394936E+02 -0.56211937810E+02 -0.26483811819E+03  0.28434102845E+03  0.00000000000E+00 0. -1.
         21    1    1    2  505  504 -0.65049584725E+02 -0.27829722135E+02  0.22800863711E+03  0.23873391151E+03  0.00000000000E+00 0. -1.
         21    1    1    2  506  501  0.23301080600E+00  0.11592804704E+03 -0.15118035776E+03  0.19051211761E+03  0.00000000000E+00 0. -1.
<scales pt_clust_3="38.78422" pt_clust_4="98.72227" pt_clust_5="71.14378" pt_clust_6="14000.00000"></scales>
<clustering>
<clus scale="   38.784">  2  3  1 -1</clus>
<clus scale="   71.144">  1  5  2 -1</clus>
<clus scale="   98.722">  2  4  1 -1</clus>
<clus scale="   71.144">  1  3  2 -1</clus>
</clustering>
</event>
<event>
 6    0  0.6207838E+002  0.8877888E+02  0.7546771E-02  0.1305836E+00
         21   -1    0    0  506  501  0.00000000000E+00  0.00000000000E+00  0.32477771516E+03  0.32477771516E+03  0.00000000000E+00 0.  1.
         21   -1    0    0  503  502 -0.00000000000E+00 -0.00000000000E+00 -0.34025301953E+03  0.34025301953E+03  0.00000000000E+00 0.  1.
         21    1    1    2  503  504  0.13885548212E+03 -0.36164398912E+02  0.13424861887E+03  0.19649783799E+03  0.00000000000E+00 0.  1.
         21    1    1    2  504  501 -0.15814459477E+02 -0.72771972469E+02  0.87181698014E+02  0.11465821198E+03  0.00000000000E+00 0.  1.
         21    1    1    2  505  502 -0.78640814423E+02  0.35993727954E+02 -0.25264925039E+03  0.26704226233E+03  0.00000000000E+00 0.  1.
         21    1    1    2  506  505 -0.44400208225E+02  0.72942643427E+02  0.15743629139E+02  0.86832422395E+02  0.00000000000E+00 0.  1.
<scales pt_clust_3="88.77888" pt_clust_4="74.47051" pt_clust_5="14000.00000" pt_clust_6="73.97669"></scales>
<clustering>
<clus scale="   74.471">  1  4  2 -1</clus>
<clus scale="   73.977">  1  6  2 -1</clus>
<clus scale="   88.779">  1  3  2 -1</clus>
<clus scale="   74.471">  1  3  2 -1</clus>
</clustering>
</event>
<event>
 6    0  0.6207838E+002  0.1185959E+03  0.7546771E-02  0.1245432E+00
         21   -1    0    0  504  501  0.00000000000E+00  0.00000000000E+00  0.30239044501E+02  0.30239044501E+02  0.00000000000E+00 0.  1.
         21   -1    0    0  501  502 -0.00000000000E+00 -0.00000000000E+00 -0.12085473841E+04  0.12085473841E+04  0.00000000000E+00 0.  1.
         21    1    1    2  503  505 -0.10928939850E+02 -0.42396336605E+02 -0.18290593657E+03  0.18807305155E+03  0.00000000000E+00 0.  1.
         21    1    1    2  504  503 -0.48827662099E+02  0.89027857046E+02 -0.95288692431E+02  0.13924810527E+03  0.00000000000E+00 0.  1.
         21    1    1    2  505  506  0.46932281723E+02 -0.88170116717E+02 -0.61639778170E+03  0.62443801441E+03  0.00000000000E+00 0.  1.
         21    1    1    2  506  502  0.12824320227E+02  0.41538596276E+02 -0.28371592884E+03  0.28702725733E+03  0.00000000000E+00 0.  1.
<scales pt_clust_3="35.92274" pt_clust_4="105.45628" pt_clust_5="35.92274" pt_clust_6="43.47319"></scales>
<clustering>
<clus scale="   35.923">  3  5 -1 -1</clus>
<clus scale="   43.473">  2  6  1 -1</clus>
<clus scale="  105.456">  1  4  2 -1</clus>
<clus scale="  105.456">  1  3  2 -1</clus>
</clustering>
</event>
<event>
 6    0  0.6207838E+002  0.1055551E+03  0.7546771E-02  0.1269030E+00
         21   -1    0    0  503  501  0.00000000000E+00  0.00000000000E+00  0.32736801394E+03  0.32736801394E+03  0.00000000000E+00 0. -1.
         21   -1    0    0  505  502 -0.00000000000E+00 -0.00000000000E+00 -0.59595264080E+03  0.59595264080E+03  0.00000000000E+00 0.  1.
         21    1    1    2  503  506 -0.17714851459E+01 -0.44488454681E+02  0.11431715276E+02  0.45967867839E+02  0.00000000000E+00 0. -1.
         21    1    1    2  504  501 -0.91142890892E+02 -0.48036353875E+02  0.20204857442E+03  0.22679978898E+03  0.00000000000E+00 0. -1.
         21    1    1    2  505  504  0.10111456767E+03  0.98418396243E+01  0.49165548772E+02  0.11286393928E+03  0.00000000000E+00 0. -1.
         21    1    1    2  506  502 -0.82001916349E+01  0.82682968932E+02 -0.53123046533E+03  0.53768905865E+03  0.00000000000E+00 0.  1.
<scales pt_clust_3="44.52371" pt_clust_4="14000.00000" pt_clust_5="105.55507" pt_clust_6="82.61185"></scales>
<clustering>
<clus scale="   44.524">  1  3  2 -1</clus>
<clus scale="   82.612">  2  6  1 -1</clus>
<clus scale="  105.555">  2  5  1 -1</clus>
<clus scale="   44.524">  1  3  2 -1</clus>
</clustering>
</event>
<event>
 6    0  0.6207838E+002  0.1435426E+03  0.7546771E-02  0.1208640E+00
         21   -1    0    0  504  501  0.00000000000E+00  0.00000000000E+00  0.16104989944E+03  0.16104989944E+03  0.00000000000E+00 0. -1.
         21   -1    0    0  501  502 -0.00000000000E+00 -0.00000000000E+00 -0.22697345992E+03  0.22697345992E+03  0.00000000000E+00 0. -1.
         21    1    1    2  503  505  0.10671092124E+03 -0.31380274836E+02 -0.65359442946E+02  0.12901084894E+03  0.00000000000E+00 0. -1.
         21    1    1    2  504  503 -0.12249059215E+03 -0.17717909995E+01  0.36976021224E+02  0.12796214501E+03  0.00000000000E+00 0. -1.
         21    1    1    2  505  506  0.23834292874E+02 -0.40708356743E+02  0.13448711387E+01  0.47191657143E+02  0.00000000000E+00 0. -1.
         21    1    1    2  506  502 -0.80546219620E+01  0.73860422578E+02 -0.38885009898E+02  0.83858708272E+02  0.00000000000E+00 0. -1.
<scales pt_clust_3="44.69661" pt_clust_4="126.07084" pt_clust_5="44.69661" pt_clust_6="74.29831"></scales>
<clustering>
<clus scale="   44.697">  3  5 -1 -1</clus>
<clus scale="   74.298">  2  6  1 -1</clus>
<clus scale="  126.071">  1  4  2 -1</clus>
<clus scale="  126.071">  1  3  2 -1</clus>
</clustering>
</event>
<event>
 6    0  0.6207838E+002  0.1086449E+03  0.7546771E-02  0.1263100E+00
         21   -1    0    0  506  501  0.00000000000E+00  0.00000000000E+00  0.21788140768E+03  0.21788140768E+03  0.00000000000E+00 0. -1.
         21   -1    0    0  503  502 -0.00000000000E+00 -0.00000000000E+00 -0.11416576565E+04  0.11416576565E+04  0.00000000000E+00 0. -1.
         21    1    1    2  503  501 -0.99500624459E+02  0.13899674262E+03  0.83983799061E+02  0.19045668072E+03  0.00000000000E+00 0. -1.
         21    1    1    2  504  505 -0.20662627937E+00 -0.78761093224E+02  0.34039371126E+02  0.85802280197E+02  0.00000000000E+00 0. -1.
         21    1    1    2  505  502  0.58133580493E+02 -0.22554377887E+02 -0.10218185087E+04  0.10237193355E+04  0.00000000000E+00 0. -1.
         21    1    1    2  506  504  0.41573670245E+02 -0.37681271512E+02 -0.19980910314E+02  0.59560767770E+02  0.00000000000E+00 0. -1.
<scales pt_clust_3="108.64494" pt_clust_4="14000.00000" pt_clust_5="62.60696" pt_clust_6="56.10925"></scales>
<clustering>
<clus scale="   56.109">  1  6  2 -1</clus>
<clus scale="   62.607">  2  5  1 -1</clus>
<clus scale="  108.645">  1  3  2 -1</clus>
<clus scale="   56.109">  1  3  2 -1</clus>
</clustering>
</event>
<event>
 6    0  0.6207838E+002  0.3163773E+03  0.7546771E-02  0.1077329E+00
         21   -1    0    0  503  501  0.00000000000E+00  0.00000000000E+00  0.30185820755E+03  0.30185820755E+03  0.00000000000E+00 0. -1.
         21   -1    0    0  504  502 -0.00000000000E+00 -0.00000000000E+00 -0.31688286472E+03  0.31688286472E+03  0.00000000000E+00 0. -1.
         21    1    1    2  503  505  0.40602313960E+02  0.52308104474E+02  0.33808923855E+00  0.66217822351E+02  0.00000000000E+00 0. -1.
         21    1    1    2  504  501 -0.13552736090E+03 -0.24547401638E+03  0.74142738652E+02  0.29003845257E+03  0.00000000000E+00 0. -1.
         21    1    1    2  505  506  0.79469972445E+02  0.34456261901E+02 -0.22313094207E+02  0.89445987488E+02  0.00000000000E+00 0. -1.
         21    1    1    2  506  502  0.15455074498E+02  0.15870965001E+03 -0.67192390854E+02  0.17303880987E+03  0.00000000000E+00 0. -1.
<scales pt_clust_3="37.12507" pt_clust_4="280.40178" pt_clust_5="127.99873" pt_clust_6="127.99873"></scales>
<clustering>
<clus scale="   37.125">  3  5 -1 -1</clus>
<clus scale="  127.999">  3  6 -1 -1</clus>
<clus scale="  280.402">  1  4  2 -1</clus>
<clus scale="  280.402">  1  3  2 -1</clus>
</clustering>
</event>
<event>
 6    0  0.6207838E+002  0.7809120E+02  0.7546771E-02  0.1334557E+00
         21   -1    0    0  503  501  0.00000000000E+00  0.00000000000E+00  0.92885220406E+02  0.92885220406E+02  0.00000000000E+00 0. -1.
         21   -1    0    0  506  502 -0.00000000000E+00 -0.00000000000E+00 -0.62096136419E+03  0.62096136419E+03  0.00000000000E+00 0. -1.
         21    1    1    2  503  502  0.22658889064E+02 -0.28753820321E+02  0.60693303308E+02  0.70879365848E+02  0.00000000000E+00 0. -1.
         21    1    1    2  504  505  0.67027008281E+02  0.93878064806E+02 -0.33742619970E+03  0.35659802458E+03  0.00000000000E+00 0. -1.
         21    1    1    2  505  501 -0.34240276814E+02 -0.51307888026E+02 -0.57674460479E+02  0.84446665544E+02  0.00000000000E+00 0. -1.
         21    1    1    2  506  504 -0.55445620531E+02 -0.13816356459E+02 -0.19366878690E+03  0.20192252862E+03  0.00000000000E+00 0. -1.
<scales pt_clust_3="36.60884" pt_clust_4="78.09120" pt_clust_5="14000.00000" pt_clust_6="55.08664"></scales>
<clustering>
<clus scale="   36.609">  1  3  2 -1</clus>
<clus scale="   55.087">  2  6  1 -1</clus>
<clus scale="   78.091">  2  4  1 -1</clus>
<clus scale="   36.609">  1  3  2 -1</clus>
</clustering>
</event>
<event>
 6    0  0.6207838E+002  0.7371735E+02  0.7546771E-02  0.1347890E+00
         21   -1    0    0  503  501  0.00000000000E+00  0.00000000000E+00  0.14184546816E+04  0.14184546816E+04  0.00000000000E+00 0. -1.
         21   -1    0    0  504  502 -0.00000000000E+00 -0.00000000000E+00 -0.19186316724E+03  0.19186316724E+03  0.00000000000E+00 0. -1.
         21    1    1    2  503  506  0.38011878638E+02 -0.28463572506E+02  0.26065926447E+03  0.26494967453E+03  0.00000000000E+00 0. -1.
         21    1    1    2  504  501 -0.57184296811E+02 -0.30293272038E+02  0.20968189218E+03  0.21944070278E+03  0.00000000000E+00 0.  1.
         21    1    1    2  505  502  0.73149300344E+02  0.12111811844E+02 -0.17598495412E+03  0.19096654211E+03  0.00000000000E+00 0. -1.
         21    1    1    2  506  505 -0.53976882172E+02  0.46645032701E+02  0.93223531188E+03  0.93496092945E+03  0.00000000000E+00 0. -1.
<scales pt_clust_3="47.48766" pt_clust_4="73.71735" pt_clust_5="14000.00000" pt_clust_6="33.17810"></scales>
<clustering>
<clus scale="   47.488">  1  3  2 -1</clus>
<clus scale="   33.178">  1  6  2 -1</clus>
<clus scale="   73.717">  1  4  2 -1</clus>
<clus scale="   47.488">  1  3  2 -1</clus>
</clustering>
</event>
<event>
 6    0  0.6207838E+002  0.1476985E+03  0.7546771E-02  0.1203330E+00
         21   -1    0    0  505  501  0.00000000000E+00  0.00000000000E+00  0.24106540556E+04  0.24106540556E+04  0.00000000000E+00 0. -1.
         21   -1    0    0  503  502 -0.00000000000E+00 -0.00000000000E+00 -0.74148076448E+03  0.74148076448E+03  0.00000000000E+00 0.  1.
         21    1    1    2  503  501 -0.30739089270E+02 -0.57686800927E+02  0.10569668090E+04  0.10589860688E+04  0.00000000000E+00 0. -1.
         21    1    1    2  504  506  0.17574332703E+03 -0.72467042718E+01  0.75459238736E+01  0.17605445943E+03  0.00000000000E+00 0.  1.
         21    1    1    2  505  504 -0.11692229895E+03  0.43713428839E+02  0.12573125952E+04  0.12634938266E+04  0.00000000000E+00 0.  1.
         21    1    1    2  506  502 -0.28081938808E+02  0.21220076360E+02 -0.65265203690E+03  0.65360046527E+03  0.00000000000E+00 0.  1.
<scales pt_clust_3="65.30369" pt_clust_4="147.69848" pt_clust_5="14000.00000" pt_clust_6="35.19783"></scales>
<clustering>
<clus scale="   35.198">  2  6  1 -1</clus>
<clus scale="   65.304">  1  3  2 -1</clus>
<clus scale="  147.698">  2  4  1 -1</clus>
<clus scale="   65.304">  1  3  2 -1</clus>
</clustering>
</event>
<event>
 6    0  0.6207838E+002  0.9041370E+02  0.7546771E-02  0.1301853E+00
         21   -1    0    0  506  501  0.00000000000E+00  0.00000000000E+00  0.64575388704E+02  0.64575388704E+02  0.00000000000E+00 0.  1.
         21   -1    0    0  504  502 -0.00000000000E+00 -0.00000000000E+00 -0.50902426225E+03  0.50902426225E+03  0.00000000000E+00 0.  1.
         21    1    1    2  503  501  0.30105480298E+02  0.67213624322E+01 -0.29273034399E+02  0.42525606402E+02  0.00000000000E+00 0. -1.
         21    1    1    2  504  503  0.33810842833E+02 -0.83386997364E+02 -0.20948570413E+03  0.22799303642E+03  0.00000000000E+00 0.  1.
         21    1    1    2  505  502 -0.38300082827E+02 -0.10190519864E+02 -0.20874558060E+03  0.21247461133E+03  0.00000000000E+00 0.  1.
         21    1    1    2  506  505 -0.25616240303E+02  0.86856154796E+02  0.30554455819E+01  0.90606396800E+02  0.00000000000E+00 0.  1.
<scales pt_clust_3="30.84666" pt_clust_4="14000.00000" pt_clust_5="38.64094" pt_clust_6="90.41370"></scales>
<clustering>
<clus scale="   30.847">  1  3  2 -1</clus>
<clus scale="   38.641">  2  5  1 -1</clus>
<clus scale="   90.414">  1  6  2 -1</clus>
<clus scale="   30.847">  1  3  2 -1</clus>
</clustering>
</event>
<event>
 6    0  0.6207838E+002  0.8965557E+02  0.7546771E-02  0.1303688E+00
         21   -1    0    0  505  501  0.00000000000E+00  0.00000000000E+00  0.12004784804E+03  0.12004784804E+03  0.00000000000E+00 0.  1.
         21   -1    0    0  504  502 -0.00000000000E+00 -0.00000000000E+00 -0.12665976341E+04  0.12665976341E+04  0.00000000000E+00 0. -1.
         21    1    1    2  503  501  0.47676522435E+02  0.34781411487E+02  0.74219617302E+02  0.94822723906E+02  0.00000000000E+00 0.  1.
         21    1    1    2  504  503  0.77143068658E+01 -0.12300463371E+03 -0.35708419029E+03  0.37775490652E+03  0.00000000000E+00 0. -1.
         21    1    1    2  505  506 -0.39124210968E+02  0.57865868353E+02 -0.24271280129E+02  0.73947668275E+02  0.00000000000E+00 0.  1.
         21    1    1    2  506  502 -0.16266618333E+02  0.30357353873E+02 -0.83941393289E+03  0.84012018339E+03  0.00000000000E+00 0. -1.
<scales pt_clust_3="59.13561" pt_clust_4="14000.00000" pt_clust_5="89.65557" pt_clust_6="34.44085"></scales>
<clustering>
<clus scale="   34.441">  2  6  1 -1</clus>
<clus scale="   59.136">  1  3  2 -1</clus>
<clus scale="   89.656">  1  5  2 -1</clus>
<clus scale="   59.136">  1  3  2 -1</clus>
</clustering>
</event>
<event>
 6    0  0.6207838E+002  0.1199047E+03  0.7546771E-02  0.1243254E+00
         21   -1    0    0  504  501  0.00000000000E+00  0.00000000000E+00  0.92682157428E+02  0.92682157428E+02  0.00000000000E+00 0. -1.
         21   -1    0    0  506  502 -0.00000000000E+00 -0.00000000000E+00 -0.14117093944E+04  0.14117093944E+04  0.00000000000E+00 0. -1.
         21    1    1    2  503  505  0.10099565561E+03  0.10774526965E+02 -0.24422902049E+03  0.26450714042E+03  0.00000000000E+00 0. -1.
         21    1    1    2  504  503 -0.35877380402E+02 -0.33106179201E+02  0.53247125892E+02  0.72238922622E+02  0.00000000000E+00 0. -1.
         21    1    1    2  505  502  0.69287125132E+02  0.91194484339E+02 -0.77838716986E+03  0.78676789836E+03  0.00000000000E+00 0. -1.
         21    1    1    2  506  501 -0.13440540034E+03 -0.68862832103E+02 -0.34965817251E+03  0.38087759042E+03  0.00000000000E+00 0. -1.
<scales pt_clust_3="88.84665" pt_clust_4="48.81809" pt_clust_5="119.90466" pt_clust_6="14000.00000"></scales>
<clustering>
<clus scale="   48.818">  1  4  2 -1</clus>
<clus scale="   88.847">  1  3  2 -1</clus>
<clus scale="  119.905">  2  5  1 -1</clus>
<clus scale="   48.818">  1  3  2 -1</clus>
</clustering>
</event>
<event>
 6    0  0.6207838E+002  0.1037613E+03  0.7546771E-02  0.1272580E+00
         21   -1    0    0  502  501  0.00000000000E+00  0.00000000000E+00  0.65349593118E+03  0.65349593118E+03  0.00000000000E+00 0.  1.
         21   -1    0    0  504  502 -0.00000000000E+00 -0.00000000000E+00 -0.57901536832E+02  0.57901536832E+02  0.00000000000E+00 0.  1.
         21    1    1    2  503  506  0.58217715663E+02  0.37811395347E+02  0.18762534096E+03  0.20005567376E+03  0.00000000000E+00 0. -1.
         21    1    1    2  504  505 -0.60425563022E+01 -0.84492889960E+02  0.93559972901E+01  0.85223797297E+02  0.00000000000E+00 0.  1.
         21    1    1    2  505  503  0.32106073722E+02  0.55623857218E+02  0.20343787832E+03  0.21333490993E+03  0.00000000000E+00 0.  1.
         21    1    1    2  506  501 -0.84281233083E+02 -0.89423626050E+01  0.19517517779E+03  0.21278308702E+03  0.00000000000E+00 0.  1.
<scales pt_clust_3="31.50439" pt_clust_4="84.70868" pt_clust_5="31.50439" pt_clust_6="98.45611"></scales>
<clustering>
<clus scale="   31.504">  3  5 -1 -1</clus>
<clus scale="   84.709">  2  4  1 -1</clus>
<clus scale="   98.456">  1  6  2 -1</clus>
<clus scale="   98.456">  1  3  2 -1</clus>
</clustering>
</event>
<event>
 6    0  0.6207838E+002  0.9478395E+02  0.7546771E-02  0.1291663E+00
         21   -1    0    0  506  501  0.00000000000E+00  0.00000000000E+00  0.92649067410E+02  0.92649067410E+02  0.00000000000E+00 0. -1.
         21   -1    0    0  504  502 -0.00000000000E+00 -0.00000000000E+00 -0.20592283140E+03  0.20592283140E+03  0.00000000000E+00 0. -1.
         21    1    1    2  503  502 -0.57302678765E+02 -0.61798321739E+02 -0.58083426851E+02  0.10235386675E+03  0.00000000000E+00 0. -1.
         21    1    1    2  504  505  0.68666942938E+02  0.15322505807E+02 -0.50805405596E+02  0.86782011238E+02  0.00000000000E+00 0. -1.
         21    1    1    2  505  501  0.29038323014E+02  0.59799136380E+02  0.14656702030E+01  0.66492925221E+02  0.00000000000E+00 0. -1.
         21    1    1    2  506  503 -0.40402587187E+02 -0.13323320449E+02 -0.58506017446E+01  0.42943095603E+02  0.00000000000E+00 0. -1.
<scales pt_clust_3="30.42743" pt_clust_4="84.55726" pt_clust_5="66.47677" pt_clust_6="30.42743"></scales>
<clustering>
<clus scale="   30.427">  3  6 -1 -1</clus>
<clus scale="   66.477">  1  5  2 -1</clus>
<clus scale="   84.557">  2  4  1 -1</clus>
<clus scale="   66.477">  1  3  2 -1</clus>
</clustering>
</event>
<event>
 6    0  0.6207838E+002  0.1146133E+03  0.7546771E-02  0.1252258E+00
         21   -1    0    0  503  501  0.00000000000E+00  0.00000000000E+00  0.77028053427E+03  0.77028053427E+03  0.00000000000E+00 0.  1.
         21   -1    0    0  505  502 -0.00000000000E+00 -0.00000000000E+00 -0.13981110092E+03  0.13981110092E+03  0.00000000000E+00 0. -1.
         21    1    1    2  503  506  0.10637667642E+03 -0.59101477554E+02  0.66155011056E+03  0.67264963444E+03  0.00000000000E+00 0.  1.
         21    1    1    2  504  502 -0.84019006470E+02 -0.12444614016E+02 -0.52192560592E+02  0.99690146190E+02  0.00000000000E+00 0. -1.
         21    1    1    2  505  501  0.34409303428E+02  0.76872098714E+01 -0.22497320800E+02  0.41823710992E+02  0.00000000000E+00 0.  1.
         21    1    1    2  506  504 -0.56766973378E+02  0.63858881698E+02  0.43609204194E+02  0.95928143570E+02  0.00000000000E+00 0. -1.
<scales pt_clust_3="114.61331" pt_clust_4="60.15641" pt_clust_5="35.25753" pt_clust_6="14000.00000"></scales>
<clustering>
<clus scale="   35.258">  2  5  1 -1</clus>
<clus scale="   60.156">  2  4  1 -1</clus>
<clus scale="  114.613">  1  3  2 -1</clus>
<clus scale="  114.613">  1  3  2 -1</clus>
</clustering>
</event>
<event>
 6    0  0.6207838E+002  0.1453831E+03  0.7546771E-02  0.1206264E+00
         21   -1    0    0  502  501  0.00000000000E+00  0.00000000000E+00  0.36805917414E+03  0.36805917414E+03  0.00000000000E+00 0. -1.
         21   -1    0    0  506  502 -0.00000000000E+00 -0.00000000000E+00 -0.35094217352E+03  0.35094217352E+03  0.00000000000E+00 0.  1.
         21    1    1    2  503  505  0.69048139551E+02  0.29105281103E+02  0.61993106147E+02  0.97251777225E+02  0.00000000000E+00 0. -1.
         21    1    1    2  504  503 -0.99812373478E+02 -0.64643035389E+02  0.91876189399E+02  0.15027463559E+03  0.00000000000E+00 0. -1.
         21    1    1    2  505  501  0.61813919781E+02  0.30518953537E+02  0.15939407800E+03  0.17366300500E+03  0.00000000000E+00 0. -1.
         21    1    1    2  506  504 -0.31049685854E+02  0.50188007494E+01 -0.29614637293E+03  0.29781192983E+03  0.00000000000E+00 0.  1.
<scales pt_clust_3="60.45828" pt_clust_4="132.03656" pt_clust_5="60.45828" pt_clust_6="31.45268"></scales>
<clustering>
<clus scale="   31.453">  2  6  1 -1</clus>
<clus scale="   60.458">  3  5 -1 -1</clus>
<clus scale="  132.037">  2  4  1 -1</clus>
<clus scale="  145.383">  1  3  2 -1</clus>
</clustering>
</event>
<event>
 6    0  0.6207838E+002  0.7419807E+02  0.7546771E-02  0.1346372E+00
         21   -1    0    0  506  501  0.00000000000E+00  0.00000000000E+00  0.61292058722E+02  0.61292058722E+02  0.00000000000E+00 0. -1.
         21   -1    0    0  504  502 -0.00000000000E+00 -0.00000000000E+00 -0.21374213905E+04  0.21374213905E+04  0.00000000000E+00 0.  1.
         21    1    1    2  503  505  0.26304820470E+02  0.62596106699E+02 -0.28780503588E+03  0.29570585863E+03  0.00000000000E+00 0. -1.
         21    1    1    2  504  501 -0.10870895929E+03 -0.30689395006E+02 -0.24443875563E+03  0.26927640456E+03  0.00000000000E+00 0. -1.
         21    1    1    2  505  502  0.69595203760E+02  0.17066284389E+02 -0.15734691859E+04  0.15751000061E+04  0.00000000000E+00 0.  1.
         21    1    1    2  506  503  0.12808935063E+02 -0.48972996082E+02  0.29583645636E+02  0.58631179860E+02  0.00000000000E+00 0. -1.
<scales pt_clust_3="59.08581" pt_clust_4="14000.00000" pt_clust_5="74.19807" pt_clust_6="50.62038"></scales>
<clustering>
<clus scale="   50.620">  1  6  2 -1</clus>
<clus scale="   59.086">  1  3  2 -1</clus>
<clus scale="   74.198">  2  5  1 -1</clus>
<clus scale="   50.620">  1  3  2 -1</clus>
</clustering>
</event>
<event>
 6    0  0.6207838E+002  0.1398606E+03  0.7546771E-02  0.1213517E+00
         21   -1    0    0  505  501  0.00000000000E+00  0.00000000000E+00  0.38958278484E+02  0.38958278484E+02  0.00000000000E+00 0. -1.
         21   -1    0    0  503  502 -0.00000000000E+00 -0.00000000000E+00 -0.17365531277E+04  0.17365531277E+04  0.00000000000E+00 0. -1.
         21    1    1    2  503  501  0.30471800699E+02  0.31514210444E+02 -0.57855317426E+03  0.58021155757E+03  0.00000000000E+00 0.  1.
         21    1    1    2  504  506  0.12720611753E+03 -0.44624619402E+02 -0.18381294897E+03  0.22794725970E+03  0.00000000000E+00 0. -1.
         21    1    1    2  505  504  0.47600667606E+01  0.64424026529E+02 -0.14148861467E+03  0.15553823167E+03  0.00000000000E+00 0. -1.
         21    1    1    2  506  502 -0.16243798499E+03 -0.51313617571E+02 -0.79374011135E+03  0.81181435728E+03  0.00000000000E+00 0. -1.
<scales pt_clust_3="43.83693" pt_clust_4="14000.00000" pt_clust_5="69.01547" pt_clust_6="139.86062"></scales>
<clustering>
<clus scale="   43.837">  2  3  1 -1</clus>
<clus scale="   69.015">  1  5  2 -1</clus>
<clus scale="  139.861">  2  6  1 -1</clus>
<clus scale="   69.015">  1  3  2 -1</clus>
</clustering>
</event>
<event>
 6    0  0.1103977E+003  0.9385934E+02  0.7546771E-02  0.1293766E+00
         21   -1    0    0  503  501  0.00000000000E+00  0.00000000000E+00  0.20108848854E+03  0.20108848854E+03  0.00000000000E+00 0.  1.
         21   -1    0    0  505  502 -0.00000000000E+00 -0.00000000000E+00 -0.26535405317E+04  0.26535405317E+04  0.00000000000E+00 0. -1.
         21    1    1    2  503  506 -0.12460365923E+02 -0.57514435253E+02  0.85163517498E+02  0.10351809356E+03  0.00000000000E+00 0.  1.
         21    1    1    2  504  501  0.10273476945E+03  0.49887437796E+01  0.76153012719E+02  0.12797891140E+03  0.00000000000E+00 0.  1.
         21    1    1    2  505  504 -0.45613244909E+02  0.30386675150E+02 -0.16516771023E+03  0.17402382205E+03  0.00000000000E+00 0.  1.
         21    1    1    2  506  502 -0.44661158614E+02  0.22139016324E+02 -0.24486008632E+04  0.24491081933E+04  0.00000000000E+00 0. -1.
<scales pt_clust_3="58.34284" pt_clust_4="14000.00000" pt_clust_5="93.85934" pt_clust_6="49.84732"></scales>
<clustering>
<clus scale="   49.847">  2  6  1 -1</clus>
<clus scale="   58.343">  1  3  2 -1</clus>
<clus scale="   93.859">  2  5  1 -1</clus>
<clus scale="   58.343">  1  3  2 -1</clus>
</clustering>
</event>
<event>
 6    0  0.6207838E+002  0.1805761E+03  0.7546771E-02  0.1167247E+00
         21   -1    0    0  503  501  0.00000000000E+00  0.00000000000E+00  0.56048664747E+03  0.56048664747E+03  0.00000000000E+00 0. -1.
         21   -1    0    0  505  502 -0.00000000000E+00 -0.00000000000E+00 -0.13331799269E+04  0.13331799269E+04  0.00000000000E+00 0.  1.
         21    1    1    2  503  502 -0.14063180046E+03  0.37009146052E+02  0.27586718453E+03  0.31184881544E+03  0.00000000000E+00 0. -1.
         21    1    1    2  504  506  0.21797969619E+03 -0.84946890187E+02  0.18308152861E+03  0.29706896206E+03  0.00000000000E+00 0. -1.
         21    1    1    2  505  504 -0.60403686952E+02  0.20548248406E+02 -0.12473045257E+04  0.12489353129E+04  0.00000000000E+00 0.  1.
         21    1    1    2  506  501 -0.16944208776E+02  0.27389495730E+02  0.15662533177E+02  0.35813483954E+02  0.00000000000E+00 0.  1.
<scales pt_clust_3="14000.00000" pt_clust_4="180.57614" pt_clust_5="63.84102" pt_clust_6="32.20700"></scales>
<clustering>
<clus scale="   32.207">  1  6  2 -1</clus>
<clus scale="   63.841">  2  5  1 -1</clus>
<clus scale="  180.576">  2  4  1 -1</clus>
<clus scale="   32.207">  1  3  2 -1</clus>
</clustering>
</event>
<event>
 6    0  0.6207838E+002  0.1656595E+03  0.7546771E-02  0.1182451E+00
         21   -1    0    0  504  501  0.00000000000E+00  0.00000000000E+00  0.18978624735E+03  0.18978624735E+03  0.00000000000E+00 0. -1.
         21   -1    0    0  503  502 -0.00000000000E+00 -0.00000000000E+00 -0.48142782382E+03  0.48142782382E+03  0.00000000000E+00 0.  1.
         21    1    1    2  503  501 -0.10509323763E+03  0.12033870968E+03  0.11009787183E+03  0.19402972717E+03  0.00000000000E+00 0. -1.
         21    1    1    2  504  506  0.68715546249E+02 -0.47051003275E+02 -0.45933193786E+02  0.95107736262E+02  0.00000000000E+00 0.  1.
         21    1    1    2  505  502  0.32692219087E+02 -0.15535096228E+02 -0.29831686888E+03  0.30050469990E+03  0.00000000000E+00 0.  1.
         21    1    1    2  506  505  0.36854722949E+01 -0.57752610182E+02 -0.57489385627E+02  0.81571907840E+02  0.00000000000E+00 0.  1.
<scales pt_clust_3="152.14893" pt_clust_4="53.88827" pt_clust_5="36.19559" pt_clust_6="53.88827"></scales>
<clustering>
<clus scale="   36.196">  2  5  1 -1</clus>
<clus scale="   53.888">  4  6 -1 -1</clus>
<clus scale="  152.149">  1  3  2 -1</clus>
<clus scale="  152.149">  1  3  2 -1</clus>
</clustering>
</event>
<event>
 6    0  0.6207838E+002  0.7996612E+02  0.7546771E-02  0.1329148E+00
         21   -1    0    0  503  501  0.00000000000E+00  0.00000000000E+00  0.81057461428E+03  0.81057461428E+03  0.00000000000E+00 0.  1.
         21   -1    0    0  504  502 -0.00000000000E+00 -0.00000000000E+00 -0.33513262045E+03  0.33513262045E+03  0.00000000000E+00 0.  1.
         21    1    1    2  503  506  0.63651157780E+02  0.47922553857E+02  0.76186285015E+03  0.76601765221E+03  0.00000000000E+00 0.  1.
         21    1    1    2  504  505  0.30176146170E+02 -0.20036521204E+02 -0.18854509509E+03  0.19199300733E+03  0.00000000000E+00 0.  1.
         21    1    1    2  505  501  0.25491992746E+02 -0.25876735535E+02 -0.53999618103E+01  0.36723381158E+02  0.00000000000E+00 0.  1.
         21    1    1    2  506  502 -0.11931929670E+03 -0.20092971180E+01 -0.92475799421E+02  0.15097319404E+03  0.00000000000E+00 0.  1.
<scales pt_clust_3="79.96612" pt_clust_4="36.22240" pt_clust_5="41.49249" pt_clust_6="14000.00000"></scales>
<clustering>
<clus scale="   36.222">  2  4  1 -1</clus>
<clus scale="   41.492">  2  5  1 -1</clus>
<clus scale="   79.966">  1  3  2 -1</clus>
<clus scale="   79.966">  1  3  2 -1</clus>
</clustering>
</event>
<event>
 6    0  0.6207838E+002  0.1251088E+03  0.7546771E-02  0.1234899E+00
         21   -1    0    0  504  501  0.00000000000E+00  0.00000000000E+00  0.45978964911E+03  0.45978964911E+03  0.00000000000E+00 0. -1.
         21   -1    0    0  503  502 -0.00000000000E+00 -0.00000000000E+00 -0.77831278575E+03  0.77831278575E+03  0.00000000000E+00 0. -1.
         21    1    1    2  503  506  0.56305805782E+02  0.72313554995E+02  0.22166501657E+02  0.94291822532E+02  0.00000000000E+00 0. -1.
         21    1    1    2  504  502 -0.36956612604E+00  0.44258117731E+02 -0.73036800984E+03  0.73170782924E+03  0.00000000000E+00 0. -1.
         21    1    1    2  505  501 -0.11756315939E+02 -0.61558135206E+02  0.20670375972E+03  0.21599550749E+03  0.00000000000E+00 0. -1.
         21    1    1    2  506  505 -0.44179923717E+02 -0.55013537520E+02  0.18297461183E+03  0.19610727560E+03  0.00000000000E+00 0. -1.
<scales pt_clust_3="119.96071" pt_clust_4="44.25966" pt_clust_5="33.47578" pt_clust_6="33.47578"></scales>
<clustering>
<clus scale="   33.476">  5  6 -1 -1</clus>
<clus scale="   44.260">  2  4  1 -1</clus>
<clus scale="  119.961">  2  3  1 -1</clus>
<clus scale="  125.109">  1  3  2 -1</clus>
</clustering>
</event>
<event>
 6    0  0.6207838E+002  0.1304481E+03  0.7546771E-02  0.1226792E+00
         21   -1    0    0  504  501  0.00000000000E+00  0.00000000000E+00  0.35105229610E+02  0.35105229610E+02  0.00000000000E+00 0.  1.
         21   -1    0    0  501  502 -0.00000000000E+00 -0.00000000000E+00 -0.11588558772E+04  0.11588558772E+04  0.00000000000E+00 0.  1.
         21    1    1    2  503  506 -0.51234122335E+02  0.13705529158E+03 -0.50084746543E+03  0.52178278226E+03  0.00000000000E+00 0.  1.
         21    1    1    2  504  505 -0.50039633083E+02 -0.16162788031E+02 -0.50552389673E+02  0.72943434918E+02  0.00000000000E+00 0.  1.
         21    1    1    2  505  503  0.97500817821E+02 -0.87057282984E+02 -0.33747161456E+03  0.36190118904E+03  0.00000000000E+00 0.  1.
         21    1    1    2  506  502  0.37729375977E+01 -0.33835220564E+02 -0.23487917794E+03  0.23733370060E+03  0.00000000000E+00 0.  1.
<scales pt_clust_3="130.44808" pt_clust_4="53.08779" pt_clust_5="14000.00000" pt_clust_6="34.04493"></scales>
<clustering>
<clus scale="   34.045">  2  6  1 -1</clus>
<clus scale="   53.088">  1  4  2 -1</clus>
<clus scale="  130.448">  2  3  1 -1</clus>
<clus scale="   53.088">  1  3  2 -1</clus>
</clustering>
</event>
<event>
 6    0  0.6207838E+002  0.8704971E+02  0.7546771E-02  0.1310158E+00
         21   -1    0    0  504  501  0.00000000000E+00  0.00000000000E+00  0.55127171244E+03  0.55127171244E+03  0.00000000000E+00 0. -1.
         21   -1    0    0  505  502 -0.00000000000E+00 -0.00000000000E+00 -0.75674859214E+02  0.75674859214E+02  0.00000000000E+00 0. -1.
         21    1    1    2  503  506 -0.53755290312E+02  0.41701615754E+02  0.93714093060E+02  0.11580581691E+03  0.00000000000E+00 0. -1.
         21    1    1    2  504  503  0.24737619804E+02 -0.81384820486E+02  0.11041677212E+03  0.13938185823E+03  0.00000000000E+00 0. -1.
         21    1    1    2  505  501  0.15134685172E+02  0.89638606200E+02  0.29937709861E+03  0.31287503190E+03  0.00000000000E+00 0. -1.
         21    1    1    2  506  502  0.13882985335E+02 -0.49955401467E+02 -0.27911110564E+02  0.58883864603E+02  0.00000000000E+00 0. -1.
<scales pt_clust_3="54.83501" pt_clust_4="87.04971" pt_clust_5="14000.00000" pt_clust_6="51.84862"></scales>
<clustering>
<clus scale="   51.849">  2  6  1 -1</clus>
<clus scale="   54.835">  2  3  1 -1</clus>
<clus scale="   87.050">  2  4  1 -1</clus>
<clus scale="   87.050">  1  3  2 -1</clus>
</clustering>
</event>
<event>
 6    0  0.6207838E+002  0.1525721E+03  0.7546771E-02  0.1197348E+00
         21   -1    0    0  505  501  0.00000000000E+00  0.00000000000E+00  0.23768903144E+03  0.23768903144E+03  0.00000000000E+00 0. -1.
         21   -1    0    0  503  502 -0.00000000000E+00 -0.00000000000E+00 -0.41188776902E+03  0.41188776902E+03  0.00000000000E+00 0.  1.
         21    1    1    2  503  506 -0.28676629055E+02  0.91332590433E+02  0.74282860002E+01  0.96016511924E+02  0.00000000000E+00 0. -1.
         21    1    1    2  504  501 -0.36699603524E+01  0.44225564764E+02  0.80569028713E+02  0.91982267723E+02  0.00000000000E+00 0. -1.
         21    1    1    2  505  502  0.98354883274E+02 -0.14999117727E+03 -0.32378953050E+03  0.37014955948E+03  0.00000000000E+00 0.  1.
         21    1    1    2  506  504 -0.66008293866E+02  0.14433022071E+02  0.61593478206E+02  0.91428461339E+02  0.00000000000E+00 0. -1.
<scales pt_clust_3="14000.00000" pt_clust_4="44.37758" pt_clust_5="152.57208" pt_clust_6="77.18923"></scales>
<clustering>
<clus scale="   44.378">  1  4  2 -1</clus>
<clus scale="   77.189">  1  6  2 -1</clus>
<clus scale="  152.572">  2  5  1 -1</clus>
<clus scale="   44.378">  1  3  2 -1</clus>
</clustering>
</event>
<event>
 6    0  0.6207838E+002  0.1336292E+03  0.7546771E-02  0.1222168E+00
         21   -1    0    0  506  501  0.00000000000E+00  0.00000000000E+00  0.31060018901E+03  0.31060018901E+03  0.00000000000E+00 0.  1.
         21   -1    0    0  504  502 -0.00000000000E+00 -0.00000000000E+00 -0.23995376536E+03  0.23995376536E+03  0.00000000000E+00 0. -1.
         21    1    1    2  503  501  0.10744884175E+01  0.40841207570E+02  0.10429462941E+03  0.11201128731E+03  0.00000000000E+00 0.  1.
         21    1    1    2  504  505  0.50700867534E+02 -0.62874050294E+00 -0.15568398903E+03  0.16373294636E+03  0.00000000000E+00 0. -1.
         21    1    1    2  505  503 -0.68894571990E+02  0.64918623745E+02  0.13775051273E+03  0.16714093908E+03  0.00000000000E+00 0.  1.
         21    1    1    2  506  502  0.17119216039E+02 -0.10513109081E+03 -0.15714729475E+02  0.10766878162E+03  0.00000000000E+00 0. -1.
<scales pt_clust_3="39.17251" pt_clust_4="50.70477" pt_clust_5="39.17251" pt_clust_6="119.58823"></scales>
<clustering>
<clus scale="   39.173">  3  5 -1 -1</clus>
<clus scale="   50.705">  2  4  1 -1</clus>
<clus scale="  119.588">  2  6  1 -1</clus>
<clus scale="  133.629">  1  3  2 -1</clus>
</clustering>
</event>
<event>
 6    0  0.6207838E+002  0.8743111E+02  0.7546771E-02  0.1309195E+00
         21   -1    0    0  504  501  0.00000000000E+00  0.00000000000E+00  0.26494288907E+03  0.26494288907E+03  0.00000000000E+00 0.  1.
         21   -1    0    0  505  502 -0.00000000000E+00 -0.00000000000E+00 -0.12776302722E+03  0.12776302722E+03  0.00000000000E+00 0.  1.
         21    1    1    2  503  502  0.36693037240E+02 -0.69001756278E+01 -0.47832718295E+02  0.60679159067E+02  0.00000000000E+00 0.  1.
         21    1    1    2  504  506  0.49680456219E+02  0.58082470665E+02  0.10252054435E+03  0.12787565501E+03  0.00000000000E+00 0.  1.
         21    1    1    2  505  501  0.45593202563E+02 -0.12004818709E+02  0.86388244178E+01  0.47932088203E+02  0.00000000000E+00 0.  1.
         21    1    1    2  506  503 -0.13196669602E+03 -0.39177476329E+02  0.73853211371E+02  0.15621901402E+03  0.00000000000E+00 0.  1.
<scales pt_clust_3="37.33619" pt_clust_4="87.43111" pt_clust_5="57.10512" pt_clust_6="14000.00000"></scales>
<clustering>
<clus scale="   37.336">  2  3  1 -1</clus>
<clus scale="   57.105">  2  5  1 -1</clus>
<clus scale="   87.431">  1  4  2 -1</clus>
<clus scale="   87.431">  1  3  2 -1</clus>
</clustering>
</event>
<event>
 6    0  0.7473710E+002  0.8944510E+02  0.7546771E-02  0.1304201E+00
         21   -1    0    0  506  501  0.00000000000E+00  0.00000000000E+00  0.24344582047E+04  0.24344582047E+04  0.00000000000E+00 0. -1.
         21   -1    0    0  504  502 -0.00000000000E+00 -0.00000000000E+00 -0.97889097569E+03  0.97889097569E+03  0.00000000000E+00 0. -1.
         21    1    1    2  503  501 -0.31230950014E+02 -0.80975975606E+01  0.37455947746E+02  0.49435729453E+02  0.00000000000E+00 0. -1.
         21    1    1    2  504  503 -0.50498248017E+02 -0.31263136732E+01 -0.96814509846E+03  0.96946623384E+03  0.00000000000E+00 0. -1.
         21    1    1    2  505  502  0.44761663064E+02  0.94562996487E+02  0.11001732736E+04  0.11051366425E+04  0.00000000000E+00 0. -1.
         21    1    1    2  506  505  0.36967534966E+02 -0.83339085253E+02  0.12860831062E+04  0.12893105746E+04  0.00000000000E+00 0. -1.
<scales pt_clust_3="32.26365" pt_clust_4="50.60368" pt_clust_5="89.44510" pt_clust_6="14000.00000"></scales>
<clustering>
<clus scale="   32.264">  1  3  2 -1</clus>
<clus scale="   50.604">  2  4  1 -1</clus>
<clus scale="   89.445">  2  5  1 -1</clus>
<clus scale="   32.264">  1  3  2 -1</clus>
</clustering>
</event>
<event>
 6    0  0.6207838E+002  0.1073172E+03  0.7546771E-02  0.1265620E+00
         21   -1    0    0  505  501  0.00000000000E+00  0.00000000000E+00  0.11051236954E+04  0.11051236954E+04  0.00000000000E+00 0.  1.
         21   -1    0    0  503  502 -0.00000000000E+00 -0.00000000000E+00 -0.15922304407E+03  0.15922304407E+03  0.00000000000E+00 0.  1.
         21    1    1    2  503  501  0.10157864658E+03 -0.92588934906E+02  0.47300401079E+03  0.49256849933E+03  0.00000000000E+00 0.  1.
         21    1    1    2  504  502 -0.17986389563E+02  0.56390967452E+02 -0.13382622456E+03  0.14633150652E+03  0.00000000000E+00 0.  1.
         21    1    1    2  505  506 -0.29177896825E+02 -0.23501278326E+02  0.42416417886E+03  0.42581558259E+03  0.00000000000E+00 0.  1.
         21    1    1    2  506  504 -0.54414360195E+02  0.59699245780E+02  0.18255868620E+03  0.19963115100E+03  0.00000000000E+00 0.  1.
<scales pt_clust_3="107.31720" pt_clust_4="59.06651" pt_clust_5="37.46545" pt_clust_6="14000.00000"></scales>
<clustering>
<clus scale="   37.465">  1  5  2 -1</clus>
<clus scale="   59.067">  2  4  1 -1</clus>
<clus scale="  107.317">  2  3  1 -1</clus>
<clus scale="   37.465">  1  3  2 -1</clus>
</clustering>
</event>
<event>
 6    0  0.6207838E+002  0.7260766E+02  0.7546771E-02  0.1351444E+00
         21   -1    0    0  505  501  0.00000000000E+00  0.00000000000E+00  0.55540086308E+02  0.55540086308E+02  0.00000000000E+00 0. -1.
         21   -1    0    0  504  502 -0.00000000000E+00 -0.00000000000E+00 -0.59358092811E+03  0.59358092811E+03  0.00000000000E+00 0.  1.
         21    1    1    2  503  502 -0.49249811140E+02  0.15808249907E+01 -0.32968668569E+03  0.33334869675E+03  0.00000000000E+00 0.  1.
         21    1    1    2  504  501 -0.52910011972E+02  0.17466436113E+02 -0.61945502964E+02  0.83317411715E+02  0.00000000000E+00 0.  1.
         21    1    1    2  505  506  0.60331136648E+02 -0.82373911327E+02 -0.64400691668E+02  0.12071767229E+03  0.00000000000E+00 0. -1.
         21    1    1    2  506  503  0.41828686465E+02  0.63326650223E+02 -0.82007961484E+02  0.11173723366E+03  0.00000000000E+00 0.  1.
<scales pt_clust_3="49.27518" pt_clust_4="72.60766" pt_clust_5="14000.00000" pt_clust_6="68.13720"></scales>
<clustering>
<clus scale="   49.275">  2  3  1 -1</clus>
<clus scale="   68.137">  2  6  1 -1</clus>
<clus scale="   72.608">  1  4  2 -1</clus>
<clus scale="   72.608">  1  3  2 -1</clus>
</clustering>
</event>
<event>
 6    0  0.6207838E+002  0.1902377E+03  0.7546771E-02  0.1158247E+00
         21   -1    0    0  506  501  0.00000000000E+00  0.00000000000E+00  0.61999911645E+02  0.61999911645E+02  0.00000000000E+00 0.  1.
         21   -1    0    0  503  502 -0.00000000000E+00 -0.00000000000E+00 -0.10742073565E+04  0.10742073565E+04  0.00000000000E+00 0.  1.
         21    1    1    2  503  505 -0.74387712361E+02  0.18890773042E+02 -0.10205384983E+03  0.12769252649E+03  0.00000000000E+00 0.  1.
         21    1    1    2  504  502 -0.16582555936E+02 -0.50754721767E+02 -0.48483879570E+03  0.48777011057E+03  0.00000000000E+00 0.  1.
         21    1    1    2  505  501 -0.73796334543E+02  0.93181128700E+02 -0.22312355562E+03  0.25280969682E+03  0.00000000000E+00 0.  1.
         21    1    1    2  506  504  0.16476660284E+03 -0.61317179975E+02 -0.20219124374E+03  0.26793493430E+03  0.00000000000E+00 0.  1.
<scales pt_clust_3="57.09275" pt_clust_4="53.39497" pt_clust_5="57.09275" pt_clust_6="177.95335"></scales>
<clustering>
<clus scale="   53.395">  2  4  1 -1</clus>
<clus scale="   57.093">  3  5 -1 -1</clus>
<clus scale="  177.953">  1  6  2 -1</clus>
<clus scale="  177.953">  1  3  2 -1</clus>
</clustering>
</event>
<event>
 6    0  0.6207838E+002  0.1223109E+03  0.7546771E-02  0.1239333E+00
         21   -1    0    0  503  501  0.00000000000E+00  0.00000000000E+00  0.20471258355E+03  0.20471258355E+03  0.00000000000E+00 0.  1.
         21   -1    0    0  501  502 -0.00000000000E+00 -0.00000000000E+00 -0.53557287546E+03  0.53557287546E+03  0.00000000000E+00 0.  1.
         21    1    1    2  503  505  0.13636751292E+03  0.23969984604E+02  0.89080998332E+02  0.16463925111E+03  0.00000000000E+00 0.  1.
         21    1    1    2  504  506 -0.67816442906E+02 -0.47904909528E+02 -0.59572604731E+02  0.10219024180E+03  0.00000000000E+00 0.  1.
         21    1    1    2  505  504 -0.10298183826E+03  0.31061145106E+02  0.37636664685E+01  0.10763000944E+03  0.00000000000E+00 0.  1.
         21    1    1    2  506  502  0.34430768251E+02 -0.71262201817E+01 -0.36413235198E+03  0.36582595667E+03  0.00000000000E+00 0.  1.
<scales pt_clust_3="122.31092" pt_clust_4="72.67361" pt_clust_5="14000.00000" pt_clust_6="35.16050"></scales>
<clustering>
<clus scale="   35.161">  2  6  1 -1</clus>
<clus scale="   72.674">  2  4  1 -1</clus>
<clus scale="  122.311">  1  3  2 -1</clus>
<clus scale="  122.311">  1  3  2 -1</clus>
</clustering>
</event>
<event>
 6    0  0.6207838E+002  0.1154195E+03  0.7546771E-02  0.1250851E+00
         21   -1    0    0  506  501  0.00000000000E+00  0.00000000000E+00  0.77129392494E+03  0.77129392494E+03  0.00000000000E+00 0.  1.
         21   -1    0    0  503  502 -0.00000000000E+00 -0.00000000000E+00 -0.41341240408E+02  0.41341240408E+02  0.00000000000E+00 0.  1.
         21    1    1    2  503  505  0.40235534941E+02  0.15735089639E+02  0.53916507004E+02  0.69090383162E+02  0.00000000000E+00 0.  1.
         21    1    1    2  504  501  0.58568618193E+02 -0.66846384879E+02  0.35574602278E+03  0.36667963528E+03  0.00000000000E+00 0.  1.
         21    1    1    2  505  504  0.36284946281E+02  0.49720949970E+02  0.12589058727E+03  0.14013283040E+03  0.00000000000E+00 0.  1.
         21    1    1    2  506  502 -0.13508909942E+03  0.13903452710E+01  0.19439956747E+03  0.23673231650E+03  0.00000000000E+00 0.  1.
<scales pt_clust_3="30.25182" pt_clust_4="88.87476" pt_clust_5="30.25182" pt_clust_6="109.62561"></scales>
<clustering>
<clus scale="   30.252">  3  5 -1 -1</clus>
<clus scale="   88.875">  1  4  2 -1</clus>
<clus scale="  109.626">  1  6  2 -1</clus>
<clus scale="   88.875">  1  3  2 -1</clus>
</clustering>
</event>
<event>
 6    0  0.6207838E+002  0.7883220E+02  0.7546771E-02  0.1332399E+00
         21   -1    0    0  505  501  0.00000000000E+00  0.00000000000E+00  0.13844178944E+03  0.13844178944E+03  0.00000000000E+00 0. -1.
         21   -1    0    0  503  502 -0.00000000000E+00 -0.00000000000E+00 -0.26529233840E+03  0.26529233840E+03  0.00000000000E+00 0. -1.
         21    1    1    2  503  501 -0.74180327883E+02  0.47203759712E+02  0.60311972772E+02  0.10662293391E+03  0.00000000000E+00 0. -1.
         21    1    1    2  504  506  0.76316489714E+02 -0.26034017377E+02 -0.93760580108E+02  0.12366496289E+03  0.00000000000E+00 0. -1.
         21    1    1    2  505  504  0.49288464926E+02 -0.43963703420E+02 -0.19444823030E+01  0.66075267722E+02  0.00000000000E+00 0. -1.
         21    1    1    2  506  502 -0.51424626757E+02  0.22793961085E+02 -0.91457459321E+02  0.10737096332E+03  0.00000000000E+00 0. -1.
<scales pt_clust_3="78.83220" pt_clust_4="44.03472" pt_clust_5="14000.00000" pt_clust_6="56.24995"></scales>
<clustering>
<clus scale="   56.250">  2  6  1 -1</clus>
<clus scale="   44.035">  2  4  1 -1</clus>
<clus scale="   78.832">  1  3  2 -1</clus>
<clus scale="   78.832">  1  3  2 -1</clus>
</clustering>
</event>
<event>
 6    0  0.6207838E+002  0.1439878E+03  0.7546771E-02  0.1208062E+00
         21   -1    0    0  503  501  0.00000000000E+00  0.00000000000E+00  0.65787365710E+03  0.65787365710E+03  0.00000000000E+00 0.  1.
         21   -1    0    0  504  502 -0.00000000000E+00 -0.00000000000E+00 -0.19605819732E+03  0.19605819732E+03  0.00000000000E+00 0. -1.
         21    1    1    2  503  502 -0.15274989927E+02  0.41634145617E+02  0.56954642045E+02  0.72184199442E+02  0.00000000000E+00 0.  1.
         21    1    1    2  504  506 -0.11522256280E+03  0.82667207977E+02 -0.13694461782E+03  0.19713937862E+03  0.00000000000E+00 0. -1.
         21    1    1    2  505  501  0.20749624538E+02  0.25675708803E+02  0.99959509813E+02  0.10526961833E+03  0.00000000000E+00 0.  1.
         21    1    1    2  506  505  0.10974792819E+03 -0.14997706240E+03  0.44184592574E+03  0.47933865803E+03  0.00000000000E+00 0.  1.
<scales pt_clust_3="46.43671" pt_clust_4="143.98777" pt_clust_5="33.01195" pt_clust_6="14000.00000"></scales>
<clustering>
<clus scale="   33.012">  1  5  2 -1</clus>
<clus scale="   46.437">  1  3  2 -1</clus>
<clus scale="  143.988">  2  4  1 -1</clus>
<clus scale="   33.012">  1  3  2 -1</clus>
</clustering>
</event>
<event>
 6    0  0.6207838E+002  0.8412485E+02  0.7546771E-02  0.1317737E+00
         21   -1    0    0  504  501  0.00000000000E+00  0.00000000000E+00  0.43147268497E+02  0.43147268497E+02  0.00000000000E+00 0.  1.
         21   -1    0    0  503  502 -0.00000000000E+00 -0.00000000000E+00 -0.62561577615E+03  0.62561577615E+03  0.00000000000E+00 0.  1.
         21    1    1    2  503  505 -0.32729012243E+02 -0.18261975243E+02 -0.11685671807E+03  0.12271992723E+03  0.00000000000E+00 0.  1.
         21    1    1    2  504  506 -0.21572111908E+02  0.70530922258E+02 -0.46579119972E+02  0.87232914798E+02  0.00000000000E+00 0.  1.
         21    1    1    2  505  501  0.62324303487E+02 -0.98742651472E+02 -0.17578377396E+03  0.21103166874E+03  0.00000000000E+00 0.  1.
         21    1    1    2  506  502 -0.80231793367E+01  0.46473704457E+02 -0.24324889565E+03  0.24777853387E+03  0.00000000000E+00 0.  1.
<scales pt_clust_3="37.47917" pt_clust_4="84.12485" pt_clust_5="14000.00000" pt_clust_6="44.56610"></scales>
<clustering>
<clus scale="   37.479">  2  3  1 -1</clus>
<clus scale="   44.566">  2  6  1 -1</clus>
<clus scale="   84.125">  1  4  2 -1</clus>
<clus scale="   84.125">  1  3  2 -1</clus>
</clustering>
</event>
<event>
 6    0  0.6207838E+002  0.1144395E+03  0.7546771E-02  0.1252563E+00
         21   -1    0    0  504  501  0.00000000000E+00  0.00000000000E+00  0.31813263190E+03  0.31813263190E+03  0.00000000000E+00 0.  1.
         21   -1    0    0  505  502 -0.00000000000E+00 -0.00000000000E+00 -0.39267312434E+03  0.39267312434E+03  0.00000000000E+00 0.  1.
         21    1    1    2  503  506  0.11824631913E+03  0.45892108973E+02 -0.13095819221E+03  0.18231381122E+03  0.00000000000E+00 0.  1.
         21    1    1    2  504  503 -0.62503925796E+02 -0.14448204263E+02  0.19303989275E+03  0.20342047965E+03  0.00000000000E+00 0.  1.
         21    1    1    2  505  501  0.54350575816E+02 -0.91124510087E+02  0.35793223884E+02  0.11197685612E+03  0.00000000000E+00 0.  1.
         21    1    1    2  506  502 -0.11009296916E+03  0.59680605377E+02 -0.17241541687E+03  0.21309460925E+03  0.00000000000E+00 0.  1.
<scales pt_clust_3="14000.00000" pt_clust_4="64.15210" pt_clust_5="101.27328" pt_clust_6="114.43954"></scales>
<clustering>
<clus scale="   64.152">  1  4  2 -1</clus>
<clus scale="  101.273">  1  5  2 -1</clus>
<clus scale="  114.440">  2  6  1 -1</clus>
<clus scale="   64.152">  1  3  2 -1</clus>
</clustering>
</event>
<event>
 6    0  0.6207838E+002  0.9384810E+02  0.7546771E-02  0.1293792E+00
         21   -1    0    0  505  501  0.00000000000E+00  0.00000000000E+00  0.18066521415E+04  0.18066521415E+04  0.00000000000E+00 0.  1.
         21   -1    0    0  503  502 -0.00000000000E+00 -0.00000000000E+00 -0.70382729629E+02  0.70382729629E+02  0.00000000000E+00 0.  1.
         21    1    1    2  503  506 -0.48431108123E+00 -0.81075803075E+02  0.68806631565E+02  0.10633848292E+03  0.00000000000E+00 0.  1.
         21    1    1    2  504  502 -0.28091970676E+02 -0.14600262931E+02 -0.35663962500E+02  0.47689041879E+02  0.00000000000E+00 0.  1.
         21    1    1    2  505  504  0.81546032225E+02  0.15687213758E+02  0.19646198323E+03  0.21329124432E+03  0.00000000000E+00 0.  1.
         21    1    1    2  506  501 -0.52969750468E+02  0.79988852248E+02  0.15066647596E+04  0.15097161020E+04  0.00000000000E+00 0.  1.
<scales pt_clust_3="93.84810" pt_clust_4="31.65954" pt_clust_5="74.19366" pt_clust_6="14000.00000"></scales>
<clustering>
<clus scale="   31.660">  2  4  1 -1</clus>
<clus scale="   74.194">  2  5  1 -1</clus>
<clus scale="   93.848">  2  3  1 -1</clus>
<clus scale="   93.848">  1  3  2 -1</clus>
</clustering>
</event>
<event>
 6    0  0.6207838E+002  0.1733548E+03  0.7546771E-02  0.1174394E+00
         21   -1    0    0  504  501  0.00000000000E+00  0.00000000000E+00  0.30315453031E+03  0.30315453031E+03  0.00000000000E+00 0.  1.
         21   -1    0    0  505  502 -0.00000000000E+00 -0.00000000000E+00 -0.50756491288E+03  0.50756491288E+03  0.00000000000E+00 0.  1.
         21    1    1    2  503  501  0.52300802915E+01 -0.84123598156E+02  0.43395933851E+02  0.94801585331E+02  0.00000000000E+00 0.  1.
         21    1    1    2  504  506  0.10879105674E+03 -0.58953263727E+02  0.15660506130E+03  0.19958989593E+03  0.00000000000E+00 0.  1.
         21    1    1    2  505  503  0.31033175139E+02 -0.27984738637E+01 -0.26728540897E+03  0.26909548355E+03  0.00000000000E+00 0.  1.
         21    1    1    2  506  502 -0.14505431217E+03  0.14587533575E+03 -0.13712596875E+03  0.24723247838E+03  0.00000000000E+00 0.  1.
<scales pt_clust_3="84.85716" pt_clust_4="14000.00000" pt_clust_5="31.15910" pt_clust_6="173.35476"></scales>
<clustering>
<clus scale="   31.159">  2  5  1 -1</clus>
<clus scale="   84.857">  1  3  2 -1</clus>
<clus scale="  173.355">  2  6  1 -1</clus>
<clus scale="   84.857">  1  3  2 -1</clus>
</clustering>
</event>
<event>
 6    0  0.7188313E+002  0.1104602E+03  0.7546771E-02  0.1259720E+00
         21   -1    0    0  503  501  0.00000000000E+00  0.00000000000E+00  0.68392433834E+03  0.68392433834E+03  0.00000000000E+00 0.  1.
         21   -1    0    0  505  502 -0.00000000000E+00 -0.00000000000E+00 -0.98961777818E+03  0.98961777818E+03  0.00000000000E+00 0.  1.
         21    1    1    2  503  506  0.58226696362E+01  0.37654757207E+02  0.74603390412E+02  0.83770221934E+02  0.00000000000E+00 0.  1.
         21    1    1    2  504  501 -0.72914156529E+02 -0.83203471942E+02  0.98003485045E+02  0.14779707388E+03  0.00000000000E+00 0.  1.
         21    1    1    2  505  504 -0.53807583773E+02  0.75455550555E+02 -0.94979653902E+03  0.95430721558E+03  0.00000000000E+00 0.  1.
         21    1    1    2  506  502  0.12089907067E+03 -0.29906835819E+02  0.47149622371E+03  0.48766760513E+03  0.00000000000E+00 0.  1.
<scales pt_clust_3="38.10229" pt_clust_4="14000.00000" pt_clust_5="92.77754" pt_clust_6="110.46017"></scales>
<clustering>
<clus scale="   38.102">  1  3  2 -1</clus>
<clus scale="   92.778">  2  5  1 -1</clus>
<clus scale="  110.460">  1  6  2 -1</clus>
<clus scale="   38.102">  1  3  2 -1</clus>
</clustering>
</event>
<event>
 6    0  0.6207838E+002  0.8829928E+02  0.7546771E-02  0.1307023E+00
         21   -1    0    0  502  501  0.00000000000E+00  0.00000000000E+00  0.40840504184E+03  0.40840504184E+03  0.00000000000E+00 0. -1.
         21   -1    0    0  503  502 -0.00000000000E+00 -0.00000000000E+00 -0.20656109138E+03  0.20656109138E+03  0.00000000000E+00 0. -1.
         21    1    1    2  503  504 -0.12943574054E+02  0.88321075562E+02 -0.11911210054E+03  0.14884838256E+03  0.00000000000E+00 0. -1.
         21    1    1    2  504  505  0.33367457274E+02 -0.81233507373E+02 -0.17478981008E+02  0.89542083414E+02  0.00000000000E+00 0.  1.
         21    1    1    2  505  506 -0.59405747507E+02  0.28024867640E+01  0.32041679932E+02  0.67554171017E+02  0.00000000000E+00 0.  1.
         21    1    1    2  506  501  0.38981864287E+02 -0.98900549528E+01  0.30639335207E+03  0.30902149622E+03  0.00000000000E+00 0. -1.
<scales pt_clust_3="14000.00000" pt_clust_4="88.29928" pt_clust_5="40.18238" pt_clust_6="40.21690"></scales>
<clustering>
<clus scale="   40.217">  1  6  2 -1</clus>
<clus scale="   40.182">  1  5  2 -1</clus>
<clus scale="   88.299">  1  4  2 -1</clus>
<clus scale="   40.217">  1  3  2 -1</clus>
</clustering>
</event>
<event>
 6    0  0.6207838E+002  0.8674097E+02  0.7546771E-02  0.1310941E+00
         21   -1    0    0  505  501  0.00000000000E+00  0.00000000000E+00  0.13251650617E+03  0.13251650617E+03  0.00000000000E+00 0. -1.
         21   -1    0    0  503  502 -0.00000000000E+00 -0.00000000000E+00 -0.35046419008E+03  0.35046419008E+03  0.00000000000E+00 0. -1.
         21    1    1    2  503  501 -0.53755904077E+02  0.10414623314E+03 -0.41283461848E+02  0.12425964479E+03  0.00000000000E+00 0. -1.
         21    1    1    2  504  506 -0.92571761668E+01 -0.69065091140E+02 -0.11346825209E+01  0.69691962443E+02  0.00000000000E+00 0. -1.
         21    1    1    2  505  504  0.20490392653E+02 -0.23569559230E+02  0.50155706084E+02  0.59084474832E+02  0.00000000000E+00 0. -1.
         21    1    1    2  506  502  0.42522687591E+02 -0.11511582772E+02 -0.22568524563E+03  0.22994461418E+03  0.00000000000E+00 0. -1.
<scales pt_clust_3="14000.00000" pt_clust_4="86.74097" pt_clust_5="31.23108" pt_clust_6="44.76498"></scales>
<clustering>
<clus scale="   31.231">  1  5  2 -1</clus>
<clus scale="   44.765">  2  6  1 -1</clus>
<clus scale="   86.741">  1  4  2 -1</clus>
<clus scale="   31.231">  1  3  2 -1</clus>
</clustering>
</event>
<event>
 6    0  0.6207838E+002  0.1979103E+03  0.7546771E-02  0.1151514E+00
         21   -1    0    0  505  501  0.00000000000E+00  0.00000000000E+00  0.74168794399E+03  0.74168794399E+03  0.00000000000E+00 0.  1.
         21   -1    0    0  506  502 -0.00000000000E+00 -0.00000000000E+00 -0.18203944860E+03  0.18203944860E+03  0.00000000000E+00 0. -1.
         21    1    1    2  503  502 -0.24326126850E+02 -0.19532039648E+03 -0.10057987389E+03  0.22103874946E+03  0.00000000000E+00 0. -1.
         21    1    1    2  504  503  0.25246642599E+02  0.70922263680E+02  0.26483745235E+03  0.27532932393E+03  0.00000000000E+00 0.  1.
         21    1    1    2  505  504 -0.26669812349E+02  0.45740180659E+02  0.28227338572E+03  0.28719628706E+03  0.00000000000E+00 0.  1.
         21    1    1    2  506  501  0.25749296599E+02  0.78657952145E+02  0.11311753122E+03  0.14016303215E+03  0.00000000000E+00 0.  1.
<scales pt_clust_3="188.88050" pt_clust_4="49.56268" pt_clust_5="49.56268" pt_clust_6="82.76533"></scales>
<clustering>
<clus scale="   49.563">  4  5 -1 -1</clus>
<clus scale="   82.765">  1  6  2 -1</clus>
<clus scale="  188.880">  2  3  1 -1</clus>
<clus scale="   82.765">  1  3  2 -1</clus>
</clustering>
</event>
<event>
 6    0  0.6207838E+002  0.1081087E+03  0.7546771E-02  0.1264113E+00
         21   -1    0    0  505  501  0.00000000000E+00  0.00000000000E+00  0.10623493470E+04  0.10623493470E+04  0.00000000000E+00 0. -1.
         21   -1    0    0  501  502 -0.00000000000E+00 -0.00000000000E+00 -0.32091059069E+03  0.32091059069E+03  0.00000000000E+00 0. -1.
         21    1    1    2  503  504 -0.59065190878E+02  0.90423204060E+02 -0.14992956009E+03  0.18478075006E+03  0.00000000000E+00 0. -1.
         21    1    1    2  504  506 -0.57498948197E+02 -0.11083224134E+02 -0.10372098010E+03  0.11910922976E+03  0.00000000000E+00 0.  1.
         21    1    1    2  505  503  0.94217226012E+02 -0.53428173263E+02  0.10269322393E+04  0.10326283356E+04  0.00000000000E+00 0. -1.
         21    1    1    2  506  502  0.22346913063E+02 -0.25911806663E+02 -0.31842942798E+02  0.46741622287E+02  0.00000000000E+00 0. -1.
<scales pt_clust_3="14000.00000" pt_clust_4="53.12966" pt_clust_5="108.10872" pt_clust_6="34.21705"></scales>
<clustering>
<clus scale="   34.217">  2  6  1 -1</clus>
<clus scale="   53.130">  2  4  1 -1</clus>
<clus scale="  108.109">  1  5  2 -1</clus>
<clus scale="  108.109">  1  3  2 -1</clus>
</clustering>
</event>
<event>
 6    0  0.6207838E+002  0.5829471E+02  0.7546771E-02  0.1405131E+00
         21   -1    0    0  506  501  0.00000000000E+00  0.00000000000E+00  0.94443944586E+03  0.94443944586E+03  0.00000000000E+00 0. -1.
         21   -1    0    0  504  502 -0.00000000000E+00 -0.00000000000E+00 -0.64969754681E+03  0.64969754681E+03  0.00000000000E+00 0.  1.
         21    1    1    2  503  502 -0.46900824911E+02 -0.19785477594E+02 -0.32082863677E+03  0.32484175636E+03  0.00000000000E+00 0.  1.
         21    1    1    2  504  501  0.10763384189E+02 -0.37044993938E+02 -0.27242422732E+00  0.38577924128E+02  0.00000000000E+00 0. -1.
         21    1    1    2  505  503  0.55643415400E+00  0.10291936042E+03 -0.29787077374E+03  0.31515028513E+03  0.00000000000E+00 0.  1.
         21    1    1    2  506  505  0.35581006568E+02 -0.46088888889E+02  0.91371373379E+03  0.91556702705E+03  0.00000000000E+00 0. -1.
<scales pt_clust_3="56.70374" pt_clust_4="38.57696" pt_clust_5="58.29471" pt_clust_6="14000.00000"></scales>
<clustering>
<clus scale="   38.577">  2  4  1 -1</clus>
<clus scale="   56.704">  2  3  1 -1</clus>
<clus scale="   58.295">  2  5  1 -1</clus>
<clus scale="   58.295">  1  3  2 -1</clus>
</clustering>
</event>
<event>
 6    0  0.6207838E+002  0.1422981E+03  0.7546771E-02  0.1210270E+00
         21   -1    0    0  505  501  0.00000000000E+00  0.00000000000E+00  0.19767041195E+03  0.19767041195E+03  0.00000000000E+00 0. -1.
         21   -1    0    0  506  502 -0.00000000000E+00 -0.00000000000E+00 -0.17030143512E+03  0.17030143512E+03  0.00000000000E+00 0. -1.
         21    1    1    2  503  501 -0.20553658100E+02 -0.33242457241E+02  0.48760003648E+02  0.62490413508E+02  0.00000000000E+00 0.  1.
         21    1    1    2  504  503 -0.23285996036E+02 -0.84278814219E+02  0.24774233034E+02  0.90878593519E+02  0.00000000000E+00 0. -1.
         21    1    1    2  505  502  0.90846175753E+02  0.13051227329E+03 -0.47031410040E+02  0.16582651977E+03  0.00000000000E+00 0. -1.
         21    1    1    2  506  504 -0.47006521617E+02 -0.12991001834E+02  0.86615018654E+00  0.48776320273E+02  0.00000000000E+00 0. -1.
<scales pt_clust_3="32.62755" pt_clust_4="32.62755" pt_clust_5="133.66804" pt_clust_6="48.76863"></scales>
<clustering>
<clus scale="   32.628">  3  4 -1 -1</clus>
<clus scale="   48.769">  2  6  1 -1</clus>
<clus scale="  133.668">  2  5  1 -1</clus>
<clus scale="  142.298">  1  3  2 -1</clus>
</clustering>
</event>
<event>
 6    0  0.6207838E+002  0.8273874E+02  0.7546771E-02  0.1321454E+00
         21   -1    0    0  505  501  0.00000000000E+00  0.00000000000E+00  0.58789101141E+03  0.58789101141E+03  0.00000000000E+00 0.  1.
         21   -1    0    0  503  502 -0.00000000000E+00 -0.00000000000E+00 -0.29517524212E+03  0.29517524212E+03  0.00000000000E+00 0.  1.
         21    1    1    2  503  504 -0.17912522976E+02 -0.70843834665E+02  0.40674010259E+02  0.83630631350E+02  0.00000000000E+00 0.  1.
         21    1    1    2  504  501 -0.16911661809E+02  0.60519393741E+02  0.23993435880E+03  0.24802640557E+03  0.00000000000E+00 0.  1.
         21    1    1    2  505  506  0.92298167167E+02  0.15795358392E+02  0.27070612150E+03  0.28644414678E+03  0.00000000000E+00 0.  1.
         21    1    1    2  506  502 -0.57473982381E+02 -0.54709174673E+01 -0.25859872127E+03  0.26496506983E+03  0.00000000000E+00 0.  1.
<scales pt_clust_3="82.73874" pt_clust_4="64.44250" pt_clust_5="14000.00000" pt_clust_6="57.73378"></scales>
<clustering>
<clus scale="   57.734">  2  6  1 -1</clus>
<clus scale="   64.443">  1  4  2 -1</clus>
<clus scale="   82.739">  2  3  1 -1</clus>
<clus scale="   64.443">  1  3  2 -1</clus>
</clustering>
</event>
<event>
 6    0  0.6207838E+002  0.9811158E+02  0.7546771E-02  0.1284318E+00
         21   -1    0    0  505  501  0.00000000000E+00  0.00000000000E+00  0.11159763748E+03  0.11159763748E+03  0.00000000000E+00 0. -1.
         21   -1    0    0  506  502 -0.00000000000E+00 -0.00000000000E+00 -0.13032519297E+04  0.13032519297E+04  0.00000000000E+00 0.  1.
         21    1    1    2  503  501  0.26164818826E+02 -0.23409158901E+02  0.86229366615E+02  0.93102578543E+02  0.00000000000E+00 0. -1.
         21    1    1    2  504  503 -0.40838455015E+02  0.22405689618E+02 -0.12810047723E+03  0.13630673718E+03  0.00000000000E+00 0. -1.
         21    1    1    2  505  502  0.53905833715E+02 -0.83099560528E+02 -0.10258017599E+04  0.10305729603E+04  0.00000000000E+00 0.  1.
         21    1    1    2  506  504 -0.39232197526E+02  0.84103029811E+02 -0.12398142170E+03  0.15486729117E+03  0.00000000000E+00 0. -1.
<scales pt_clust_3="35.10821" pt_clust_4="40.21028" pt_clust_5="14000.00000" pt_clust_6="98.11158"></scales>
<clustering>
<clus scale="   35.108">  1  3  2 -1</clus>
<clus scale="   40.210">  1  4  2 -1</clus>
<clus scale="   98.112">  1  6  2 -1</clus>
<clus scale="   35.108">  1  3  2 -1</clus>
</clustering>
</event>
<event>
 6    0  0.6207838E+002  0.1077688E+03  0.7546771E-02  0.1264758E+00
         21   -1    0    0  506  501  0.00000000000E+00  0.00000000000E+00  0.17517127902E+04  0.17517127902E+04  0.00000000000E+00 0. -1.
         21   -1    0    0  503  502 -0.00000000000E+00 -0.00000000000E+00 -0.54450349763E+03  0.54450349763E+03  0.00000000000E+00 0.  1.
         21    1    1    2  503  501  0.44723925477E+02 -0.35304315735E+02  0.25639073655E+02  0.62481887915E+02  0.00000000000E+00 0.  1.
         21    1    1    2  504  502 -0.10260566455E+03  0.35831443471E+02 -0.51532401130E+03  0.52665990103E+03  0.00000000000E+00 0.  1.
         21    1    1    2  505  504  0.70758649481E+02  0.35686924222E+02  0.32080017386E+03  0.33044378430E+03  0.00000000000E+00 0. -1.
         21    1    1    2  506  505 -0.12876910405E+02 -0.36214051959E+02  0.13760940564E+04  0.13766307146E+04  0.00000000000E+00 0. -1.
<scales pt_clust_3="58.58268" pt_clust_4="107.76879" pt_clust_5="14000.00000" pt_clust_6="38.43530"></scales>
<clustering>
<clus scale="   38.435">  1  6  2 -1</clus>
<clus scale="   58.583">  1  3  2 -1</clus>
<clus scale="  107.769">  2  4  1 -1</clus>
<clus scale="   38.435">  1  3  2 -1</clus>
</clustering>
</event>
<event>
 6    0  0.6207838E+002  0.1564856E+03  0.7546771E-02  0.1192723E+00
         21   -1    0    0  503  501  0.00000000000E+00  0.00000000000E+00  0.85985628864E+03  0.85985628864E+03  0.00000000000E+00 0. -1.
         21   -1    0    0  506  502 -0.00000000000E+00 -0.00000000000E+00 -0.93621677313E+03  0.93621677313E+03  0.00000000000E+00 0. -1.
         21    1    1    2  503  505  0.27450396448E+02 -0.29905835362E+03  0.71087951252E+03  0.77171180143E+03  0.00000000000E+00 0. -1.
         21    1    1    2  504  501 -0.61965993001E+01  0.14449247096E+03  0.30008091063E+02  0.14770564490E+03  0.00000000000E+00 0. -1.
         21    1    1    2  505  502  0.92867348386E+02  0.67332496279E+02 -0.12497560323E+03  0.16963758680E+03  0.00000000000E+00 0. -1.
         21    1    1    2  506  504 -0.11412114553E+03  0.87233386383E+02 -0.69227248485E+03  0.70701802865E+03  0.00000000000E+00 0. -1.
<scales pt_clust_3="14000.00000" pt_clust_4="149.51693" pt_clust_5="114.70837" pt_clust_6="156.48562"></scales>
<clustering>
<clus scale="  114.708">  2  5  1 -1</clus>
<clus scale="  149.517">  1  4  2 -1</clus>
<clus scale="  156.486">  2  6  1 -1</clus>
<clus scale="  149.517">  1  3  2 -1</clus>
</clustering>
</event>
<event>
 6    0  0.6207838E+002  0.1133769E+03  0.7546771E-02  0.1254441E+00
         21   -1    0    0  505  501  0.00000000000E+00  0.00000000000E+00  0.13365596795E+03  0.13365596795E+03  0.00000000000E+00 0.  1.
         21   -1    0    0  504  502 -0.00000000000E+00 -0.00000000000E+00 -0.31002211155E+03  0.31002211155E+03  0.00000000000E+00 0.  1.
         21    1    1    2  503  506 -0.16269675390E+02 -0.36162724710E+02 -0.26247988109E+02  0.47554199347E+02  0.00000000000E+00 0.  1.
         21    1    1    2  504  503  0.41244456879E+02 -0.88181556487E+02 -0.31913667801E+02  0.10244791028E+03  0.00000000000E+00 0.  1.
         21    1    1    2  505  502  0.44937660368E+02  0.58233161245E+02 -0.16940205579E+03  0.18468229719E+03  0.00000000000E+00 0.  1.
         21    1    1    2  506  501 -0.69912441858E+02  0.66111119952E+02  0.51197568102E+02  0.10899367269E+03  0.00000000000E+00 0.  1.
<scales pt_clust_3="35.14663" pt_clust_4="35.14663" pt_clust_5="73.55606" pt_clust_6="99.10458"></scales>
<clustering>
<clus scale="   35.147">  3  4 -1 -1</clus>
<clus scale="   73.556">  2  5  1 -1</clus>
<clus scale="   99.105">  1  6  2 -1</clus>
<clus scale="   99.105">  1  3  2 -1</clus>
</clustering>
</event>
<event>
 6    0  0.6207838E+002  0.2874588E+03  0.7546771E-02  0.1091683E+00
         21   -1    0    0  503  501  0.00000000000E+00  0.00000000000E+00  0.78005144906E+03  0.78005144906E+03  0.00000000000E+00 0. -1.
         21   -1    0    0  505  502 -0.00000000000E+00 -0.00000000000E+00 -0.18899216448E+03  0.18899216448E+03  0.00000000000E+00 0. -1.
         21    1    1    2  503  504 -0.44383847279E+00  0.31586703541E+03  0.32687796271E+03  0.45455624905E+03  0.00000000000E+00 0. -1.
         21    1    1    2  504  502  0.58197468609E+02  0.26310066059E+02  0.37896719682E+02  0.74265242820E+02  0.00000000000E+00 0. -1.
         21    1    1    2  505  506 -0.39785837035E+02 -0.81180827183E+02 -0.56744557519E+01  0.90583878140E+02  0.00000000000E+00 0.  1.
         21    1    1    2  506  501 -0.17967793101E+02 -0.26099627428E+03  0.23195905794E+03  0.34963824353E+03  0.00000000000E+00 0. -1.
<scales pt_clust_3="14000.00000" pt_clust_4="63.86834" pt_clust_5="77.38597" pt_clust_6="287.45883"></scales>
<clustering>
<clus scale="   63.868">  2  4  1 -1</clus>
<clus scale="   77.386">  2  5  1 -1</clus>
<clus scale="  287.459">  1  6  2 -1</clus>
<clus scale="  287.459">  1  3  2 -1</clus>
</clustering>
</event>
<event>
 6    0  0.6207838E+002  0.9608165E+02  0.7546771E-02  0.1288758E+00
         21   -1    0    0  505  501  0.00000000000E+00  0.00000000000E+00  0.18229897080E+04  0.18229897080E+04  0.00000000000E+00 0. -1.
         21   -1    0    0  506  502 -0.00000000000E+00 -0.00000000000E+00 -0.42070929512E+03  0.42070929512E+03  0.00000000000E+00 0.  1.
         21    1    1    2  503  504  0.29425451531E+02 -0.82407292385E+02 -0.11841563162E+03  0.14723817727E+03  0.00000000000E+00 0. -1.
         21    1    1    2  504  502  0.11606452380E+02 -0.28414239521E+02 -0.24847241386E+03  0.25036097778E+03  0.00000000000E+00 0.  1.
         21    1    1    2  505  503 -0.73764212248E+02  0.61879255515E+02  0.17830164729E+04  0.17856141643E+04  0.00000000000E+00 0. -1.
         21    1    1    2  506  501  0.32732308338E+02  0.48942276391E+02 -0.13848014560E+02  0.60485683717E+02  0.00000000000E+00 0. -1.
<scales pt_clust_3="96.08165" pt_clust_4="30.69330" pt_clust_5="14000.00000" pt_clust_6="55.42996"></scales>
<clustering>
<clus scale="   30.693">  2  4  1 -1</clus>
<clus scale="   55.430">  2  6  1 -1</clus>
<clus scale="   96.082">  2  3  1 -1</clus>
<clus scale="   96.082">  1  3  2 -1</clus>
</clustering>
</event>
<event>
 6    0  0.6207838E+002  0.8528435E+02  0.7546771E-02  0.1314691E+00
         21   -1    0    0  504  501  0.00000000000E+00  0.00000000000E+00  0.17323875497E+04  0.17323875497E+04  0.00000000000E+00 0.  1.
         21   -1    0    0  505  502 -0.00000000000E+00 -0.00000000000E+00 -0.27888135372E+03  0.27888135372E+03  0.00000000000E+00 0.  1.
         21    1    1    2  503  501 -0.28053777632E+02 -0.14356477967E+02  0.47388452641E+02  0.56910353564E+02  0.00000000000E+00 0. -1.
         21    1    1    2  504  502  0.58884664648E+02 -0.66607158710E+02  0.15923596869E+04  0.15948395812E+04  0.00000000000E+00 0.  1.
         21    1    1    2  505  506  0.36366345650E+02  0.23385839968E+02 -0.24791489064E+03  0.25165691249E+03  0.00000000000E+00 0.  1.
         21    1    1    2  506  503 -0.67197232665E+02  0.57577796709E+02  0.61672947038E+02  0.10786205611E+03  0.00000000000E+00 0. -1.
<scales pt_clust_3="31.51385" pt_clust_4="85.28435" pt_clust_5="43.20174" pt_clust_6="14000.00000"></scales>
<clustering>
<clus scale="   31.514">  1  3  2 -1</clus>
<clus scale="   43.202">  2  5  1 -1</clus>
<clus scale="   85.284">  1  4  2 -1</clus>
<clus scale="   31.514">  1  3  2 -1</clus>
</clustering>
</event>
<event>
 6    0  0.6207838E+002  0.8924940E+02  0.7546771E-02  0.1304680E+00
         21   -1    0    0  504  501  0.00000000000E+00  0.00000000000E+00  0.86825185055E+02  0.86825185055E+02  0.00000000000E+00 0.  1.
         21   -1    0    0  501  502 -0.00000000000E+00 -0.00000000000E+00 -0.63213488252E+03  0.63213488252E+03  0.00000000000E+00 0. -1.
         21    1    1    2  503  506 -0.38830722519E+02  0.10637148798E+02 -0.71808572717E+02  0.82325239517E+02  0.00000000000E+00 0.  1.
         21    1    1    2  504  505 -0.42344003998E+02 -0.79794682367E+02  0.46908019862E+02  0.10178687703E+03  0.00000000000E+00 0.  1.
         21    1    1    2  505  503  0.82117292926E+02  0.37387179932E+02 -0.41766620236E+03  0.42730095672E+03  0.00000000000E+00 0. -1.
         21    1    1    2  506  502 -0.94256640836E+00  0.31770353638E+02 -0.10274294225E+03  0.10754699430E+03  0.00000000000E+00 0.  1.
<scales pt_clust_3="41.85841" pt_clust_4="14000.00000" pt_clust_5="89.24940" pt_clust_6="31.78433"></scales>
<clustering>
<clus scale="   31.784">  2  6  1 -1</clus>
<clus scale="   41.858">  2  3  1 -1</clus>
<clus scale="   89.249">  2  5  1 -1</clus>
<clus scale="   89.249">  1  3  2 -1</clus>
</clustering>
</event>
<event>
 6    0  0.6207838E+002  0.1936846E+03  0.7546771E-02  0.1155179E+00
         21   -1    0    0  506  501  0.00000000000E+00  0.00000000000E+00  0.25479024139E+03  0.25479024139E+03  0.00000000000E+00 0.  1.
         21   -1    0    0  505  502 -0.00000000000E+00 -0.00000000000E+00 -0.22624544669E+03  0.22624544669E+03  0.00000000000E+00 0.  1.
         21    1    1    2  503  504  0.44474458435E+02  0.37293231801E+02 -0.18453591840E+02  0.60904003506E+02  0.00000000000E+00 0.  1.
         21    1    1    2  504  502  0.11704364110E+03 -0.27242867566E+01  0.94522570015E+01  0.11745629324E+03  0.00000000000E+00 0. -1.
         21    1    1    2  505  501 -0.19003871721E+03 -0.50297097977E+02 -0.55357740798E+02  0.20422779334E+03  0.00000000000E+00 0.  1.
         21    1    1    2  506  503  0.28520617682E+02  0.15728152932E+02  0.92903870340E+02  0.98447598000E+02  0.00000000000E+00 0.  1.
<scales pt_clust_3="46.44928" pt_clust_4="46.44928" pt_clust_5="181.83910" pt_clust_6="32.56993"></scales>
<clustering>
<clus scale="   32.570">  1  6  2 -1</clus>
<clus scale="   46.449">  3  4 -1 -1</clus>
<clus scale="  181.839">  2  5  1 -1</clus>
<clus scale="   32.570">  1  3  2 -1</clus>
</clustering>
</event>
<event>
 6    0  0.6207838E+002  0.1214761E+03  0.7546771E-02  0.1240682E+00
         21   -1    0    0  505  501  0.00000000000E+00  0.00000000000E+00  0.26845048830E+03  0.26845048830E+03  0.00000000000E+00 0.  1.
         21   -1    0    0  504  502 -0.00000000000E+00 -0.00000000000E+00 -0.40720490509E+03  0.40720490509E+03  0.00000000000E+00 0.  1.
         21    1    1    2  503  501 -0.82369354922E+02  0.39534831050E+02  0.11817193992E+03  0.14937309290E+03  0.00000000000E+00 0.  1.
         21    1    1    2  504  503 -0.56202251648E+02  0.54378951715E+02  0.15322024596E+02  0.79690199633E+02  0.00000000000E+00 0. -1.
         21    1    1    2  505  506  0.62260250718E+02  0.15721963208E+02  0.60380340254E+02  0.88143657944E+02  0.00000000000E+00 0.  1.
         21    1    1    2  506  502  0.76311355852E+02 -0.10963574597E+03 -0.33262872156E+03  0.35844844292E+03  0.00000000000E+00 0.  1.
<scales pt_clust_3="63.99456" pt_clust_4="121.47613" pt_clust_5="64.21463" pt_clust_6="14000.00000"></scales>
<clustering>
<clus scale="   64.215">  1  5  2 -1</clus>
<clus scale="   63.995">  1  3  2 -1</clus>
<clus scale="  121.476">  1  4  2 -1</clus>
<clus scale="   64.215">  1  3  2 -1</clus>
</clustering>
</event>
<event>
 6    0  0.6207838E+002  0.1365954E+03  0.7546771E-02  0.1217985E+00
         21   -1    0    0  502  501  0.00000000000E+00  0.00000000000E+00  0.28476498337E+03  0.28476498337E+03  0.00000000000E+00 0.  1.
         21   -1    0    0  505  502 -0.00000000000E+00 -0.00000000000E+00 -0.13508852100E+04  0.13508852100E+04  0.00000000000E+00 0.  1.
         21    1    1    2  503  506 -0.10872345275E+03 -0.21877171089E+02 -0.46663119976E+02  0.12031976795E+03  0.00000000000E+00 0.  1.
         21    1    1    2  504  501  0.34535587890E+02  0.89183966152E+01  0.19767569817E+03  0.20086793242E+03  0.00000000000E+00 0.  1.
         21    1    1    2  505  503  0.13097481434E+03 -0.53093888448E+02 -0.12191672051E+04  0.12273312662E+04  0.00000000000E+00 0.  1.
         21    1    1    2  506  504 -0.56786949483E+02  0.66052662921E+02  0.20344002293E+01  0.87131226864E+02  0.00000000000E+00 0.  1.
<scales pt_clust_3="14000.00000" pt_clust_4="35.66854" pt_clust_5="136.59543" pt_clust_6="80.63907"></scales>
<clustering>
<clus scale="   35.669">  1  4  2 -1</clus>
<clus scale="   80.639">  1  6  2 -1</clus>
<clus scale="  136.595">  2  5  1 -1</clus>
<clus scale="   35.669">  1  3  2 -1</clus>
</clustering>
</event>
<event>
 6    0  0.6207838E+002  0.1061932E+03  0.7546771E-02  0.1267786E+00
         21   -1    0    0  504  501  0.00000000000E+00  0.00000000000E+00  0.67772137961E+03  0.67772137961E+03  0.00000000000E+00 0.  1.
         21   -1    0    0  506  502 -0.00000000000E+00 -0.00000000000E+00 -0.69143258369E+03  0.69143258369E+03  0.00000000000E+00 0.  1.
         21    1    1    2  503  505  0.78624786647E+01 -0.66628726494E+02 -0.30862360856E+01  0.67161973006E+02  0.00000000000E+00 0.  1.
         21    1    1    2  504  503 -0.97604661527E+02 -0.42293701896E+02  0.63026822708E+03  0.63918187180E+03  0.00000000000E+00 0.  1.
         21    1    1    2  505  502  0.27219327887E+02  0.17405127420E+02 -0.35047273774E+03  0.35195876203E+03  0.00000000000E+00 0. -1.
         21    1    1    2  506  501  0.62522854975E+02  0.91517300970E+02 -0.29042045734E+03  0.31085135646E+03  0.00000000000E+00 0.  1.
<scales pt_clust_3="65.70441" pt_clust_4="14000.00000" pt_clust_5="32.30836" pt_clust_6="106.19317"></scales>
<clustering>
<clus scale="   32.308">  2  5  1 -1</clus>
<clus scale="   65.704">  2  3  1 -1</clus>
<clus scale="  106.193">  2  6  1 -1</clus>
<clus scale="  106.193">  1  3  2 -1</clus>
</clustering>
</event>
<event>
 6    0  0.6207838E+002  0.1910090E+03  0.7546771E-02  0.1157554E+00
         21   -1    0    0  503  501  0.00000000000E+00  0.00000000000E+00  0.93846502766E+03  0.93846502766E+03  0.00000000000E+00 0.  1.
         21   -1    0    0  504  502 -0.00000000000E+00 -0.00000000000E+00 -0.20124727929E+03  0.20124727929E+03  0.00000000000E+00 0. -1.
         21    1    1    2  503  502 -0.41333914448E+02 -0.71715039746E+01  0.83545741548E+02  0.93486971732E+02  0.00000000000E+00 0. -1.
         21    1    1    2  504  506 -0.73711277754E+02 -0.10481279798E+03 -0.61130997073E+02  0.14197208842E+03  0.00000000000E+00 0. -1.
         21    1    1    2  505  501  0.84826086615E+01  0.21297872176E+03  0.72635362047E+03  0.75698181784E+03  0.00000000000E+00 0.  1.
         21    1    1    2  506  505  0.10656258354E+03 -0.10099441981E+03 -0.11550616580E+02  0.14727142896E+03  0.00000000000E+00 0. -1.
<scales pt_clust_3="41.95144" pt_clust_4="129.55438" pt_clust_5="191.00896" pt_clust_6="14000.00000"></scales>
<clustering>
<clus scale="   41.951">  1  3  2 -1</clus>
<clus scale="  129.554">  2  4  1 -1</clus>
<clus scale="  191.009">  1  5  2 -1</clus>
<clus scale="   41.951">  1  3  2 -1</clus>
</clustering>
</event>
<event>
 6    0  0.6207838E+002  0.7701630E+02  0.7546771E-02  0.1337739E+00
         21   -1    0    0  504  501  0.00000000000E+00  0.00000000000E+00  0.14243898525E+04  0.14243898525E+04  0.00000000000E+00 0.  1.
         21   -1    0    0  503  502 -0.00000000000E+00 -0.00000000000E+00 -0.58881707278E+02  0.58881707278E+02  0.00000000000E+00 0.  1.
         21    1    1    2  503  505 -0.48539693731E+02  0.58595088904E+02 -0.16607639557E+02  0.77880035971E+02  0.00000000000E+00 0.  1.
         21    1    1    2  504  506 -0.27362362466E+02 -0.14219424309E+02  0.25965614816E+03  0.26148079505E+03  0.00000000000E+00 0. -1.
         21    1    1    2  505  501  0.13667666001E+03 -0.21865347104E+02  0.94305930561E+03  0.95316286998E+03  0.00000000000E+00 0.  1.
         21    1    1    2  506  502 -0.60774603813E+02 -0.22510317490E+02  0.17940033103E+03  0.19074785880E+03  0.00000000000E+00 0.  1.
<scales pt_clust_3="77.01630" pt_clust_4="30.83652" pt_clust_5="14000.00000" pt_clust_6="69.67786"></scales>
<clustering>
<clus scale="   30.837">  1  4  2 -1</clus>
<clus scale="   69.678">  1  6  2 -1</clus>
<clus scale="   77.016">  2  3  1 -1</clus>
<clus scale="   30.837">  1  3  2 -1</clus>
</clustering>
</event>
<event>
 6    0  0.6207838E+002  0.1091946E+03  0.7546771E-02  0.1262069E+00
         21   -1    0    0  505  501  0.00000000000E+00  0.00000000000E+00  0.71997297394E+03  0.71997297394E+03  0.00000000000E+00 0. -1.
         21   -1    0    0  506  502 -0.00000000000E+00 -0.00000000000E+00 -0.19550222477E+03  0.19550222477E+03  0.00000000000E+00 0.  1.
         21    1    1    2  503  502  0.60171903938E+02  0.24635921003E+02 -0.13978327193E+03  0.15416533248E+03  0.00000000000E+00 0.  1.
         21    1    1    2  504  501 -0.78813564167E+02 -0.63545633445E+02  0.96342854687E+02  0.13975539731E+03  0.00000000000E+00 0.  1.
         21    1    1    2  505  503  0.57078850138E+02  0.65166932553E+02  0.56843866265E+03  0.57500194559E+03  0.00000000000E+00 0. -1.
         21    1    1    2  506  504 -0.38437189909E+02 -0.26257220111E+02 -0.52749623463E+00  0.46552523329E+02  0.00000000000E+00 0.  1.
<scales pt_clust_3="65.01989" pt_clust_4="41.34488" pt_clust_5="90.58534" pt_clust_6="41.34488"></scales>
<clustering>
<clus scale="   41.345">  4  6 -1 -1</clus>
<clus scale="   65.020">  2  3  1 -1</clus>
<clus scale="   90.585">  1  5  2 -1</clus>
<clus scale="   90.585">  1  3  2 -1</clus>
</clustering>
</event>
<event>
 6    0  0.6207838E+002  0.1579712E+03  0.7546771E-02  0.1191007E+00
         21   -1    0    0  506  501  0.00000000000E+00  0.00000000000E+00  0.16422094317E+04  0.16422094317E+04  0.00000000000E+00 0. -1.
         21   -1    0    0  503  502 -0.00000000000E+00 -0.00000000000E+00 -0.42924846014E+03  0.42924846014E+03  0.00000000000E+00 0.  1.
         21    1    1    2  503  501 -0.12014855402E+02 -0.61945545608E+02 -0.25694053642E+03  0.26457521922E+03  0.00000000000E+00 0.  1.
         21    1    1    2  504  502  0.33878406020E+02  0.22015805981E+02 -0.45781675787E+02  0.61060657918E+02  0.00000000000E+00 0.  1.
         21    1    1    2  505  504  0.60588515152E+02  0.15172742327E+03 -0.52417596222E+02  0.17158025391E+03  0.00000000000E+00 0. -1.
         21    1    1    2  506  505 -0.82452065771E+02 -0.11179768364E+03  0.15681007799E+04  0.15742417607E+04  0.00000000000E+00 0. -1.
<scales pt_clust_3="63.09998" pt_clust_4="36.43504" pt_clust_5="36.43504" pt_clust_6="139.95322"></scales>
<clustering>
<clus scale="   36.435">  4  5 -1 -1</clus>
<clus scale="   63.100">  2  3  1 -1</clus>
<clus scale="  139.953">  1  6  2 -1</clus>
<clus scale="  139.953">  1  3  2 -1</clus>
</clustering>
</event>
<event>
 6    0  0.6207838E+002  0.7082733E+02  0.7546771E-02  0.1357302E+00
         21   -1    0    0  504  501  0.00000000000E+00  0.00000000000E+00  0.49225452966E+03  0.49225452966E+03  0.00000000000E+00 0.  1.
         21   -1    0    0  503  502 -0.00000000000E+00 -0.00000000000E+00 -0.61342572991E+03  0.61342572991E+03  0.00000000000E+00 0. -1.
         21    1    1    2  503  505 -0.65669872587E+02  0.28598619040E+02 -0.57874766863E+03  0.58316316510E+03  0.00000000000E+00 0. -1.
         21    1    1    2  504  502 -0.39937385012E+02  0.15148564150E+02  0.96642465914E+02  0.10566096694E+03  0.00000000000E+00 0. -1.
         21    1    1    2  505  506  0.34957295104E+02 -0.55607501575E+02  0.20267188896E+02  0.68738385624E+02  0.00000000000E+00 0.  1.
         21    1    1    2  506  501  0.70649962495E+02  0.11860318385E+02  0.34066681358E+03  0.34811774190E+03  0.00000000000E+00 0.  1.
<scales pt_clust_3="70.82733" pt_clust_4="42.71386" pt_clust_5="14000.00000" pt_clust_6="43.52038"></scales>
<clustering>
<clus scale="   42.714">  1  4  2 -1</clus>
<clus scale="   43.520">  1  6  2 -1</clus>
<clus scale="   70.827">  2  3  1 -1</clus>
<clus scale="   42.714">  1  3  2 -1</clus>
</clustering>
</event>
<event>
 6    0  0.2076884E+003  0.1160755E+03  0.7546771E-02  0.1249715E+00
         21   -1    0    0  505  501  0.00000000000E+00  0.00000000000E+00  0.33062673555E+03  0.33062673555E+03  0.00000000000E+00 0. -1.
         21   -1    0    0  503  502 -0.00000000000E+00 -0.00000000000E+00 -0.73638039906E+03  0.73638039906E+03  0.00000000000E+00 0. -1.
         21    1    1    2  503  506 -0.10092047479E+03  0.57619250498E+02 -0.67514150068E+03  0.68507004474E+03  0.00000000000E+00 0. -1.
         21    1    1    2  504  501 -0.35862376982E+02  0.21747670603E+01 -0.87715261243E+01  0.36983501255E+02  0.00000000000E+00 0. -1.
         21    1    1    2  505  502  0.93992980962E+02 -0.53465177961E+02  0.28151419439E+03  0.30156831294E+03  0.00000000000E+00 0. -1.
         21    1    1    2  506  504  0.42789870806E+02 -0.63288395975E+01 -0.33548311081E+01  0.43385275682E+02  0.00000000000E+00 0. -1.
<scales pt_clust_3="14000.00000" pt_clust_4="35.92826" pt_clust_5="116.07546" pt_clust_6="40.99236"></scales>
<clustering>
<clus scale="   35.928">  1  4  2 -1</clus>
<clus scale="   40.992">  1  6  2 -1</clus>
<clus scale="  116.075">  1  5  2 -1</clus>
<clus scale="   35.928">  1  3  2 -1</clus>
</clustering>
</event>
<event>
 6    0  0.6207838E+002  0.7217652E+02  0.7546771E-02  0.1352844E+00
         21   -1    0    0  506  501  0.00000000000E+00  0.00000000000E+00  0.72706788195E+03  0.72706788195E+03  0.00000000000E+00 0. -1.
         21   -1    0    0  505  502 -0.00000000000E+00 -0.00000000000E+00 -0.51098702200E+02  0.51098702200E+02  0.00000000000E+00 0. -1.
         21    1    1    2  503  502 -0.30818662134E+02 -0.44698498494E+02  0.47835706535E+02  0.72360213675E+02  0.00000000000E+00 0. -1.
         21    1    1    2  504  501 -0.93898679613E+02  0.16366088641E+02  0.35342237495E+03  0.36604943109E+03  0.00000000000E+00 0. -1.
         21    1    1    2  505  504  0.89468761650E+02  0.27911646473E+02  0.39145124626E+02  0.10156800728E+03  0.00000000000E+00 0. -1.
         21    1    1    2  506  503  0.35248580097E+02  0.42076337989E+00  0.23556597364E+03  0.23818893211E+03  0.00000000000E+00 0. -1.
<scales pt_clust_3="51.91768" pt_clust_4="14000.00000" pt_clust_5="72.17652" pt_clust_6="35.25109"></scales>
<clustering>
<clus scale="   35.251">  1  6  2 -1</clus>
<clus scale="   51.918">  2  3  1 -1</clus>
<clus scale="   72.177">  2  5  1 -1</clus>
<clus scale="   35.251">  1  3  2 -1</clus>
</clustering>
</event>
<event>
 6    0  0.6207838E+002  0.9659579E+02  0.7546771E-02  0.1287622E+00
         21   -1    0    0  504  501  0.00000000000E+00  0.00000000000E+00  0.35911782676E+02  0.35911782676E+02  0.00000000000E+00 0. -1.
         21   -1    0    0  505  502 -0.00000000000E+00 -0.00000000000E+00 -0.10542129328E+04  0.10542129328E+04  0.00000000000E+00 0. -1.
         21    1    1    2  503  501 -0.66188103999E+02  0.33131118766E+02 -0.23193696768E+03  0.24346107105E+03  0.00000000000E+00 0. -1.
         21    1    1    2  504  502  0.10009227642E+03 -0.37623230796E+02 -0.80693936800E+02  0.13396075071E+03  0.00000000000E+00 0. -1.
         21    1    1    2  505  506 -0.83921537907E+01 -0.30583005406E+02 -0.88501745794E+02  0.94012272994E+02  0.00000000000E+00 0. -1.
         21    1    1    2  506  503 -0.25512018632E+02  0.35075117435E+02 -0.61716849990E+03  0.61869062077E+03  0.00000000000E+00 0. -1.
<scales pt_clust_3="14000.00000" pt_clust_4="96.59579" pt_clust_5="31.71354" pt_clust_6="34.54480"></scales>
<clustering>
<clus scale="   31.714">  2  5  1 -1</clus>
<clus scale="   34.545">  2  6  1 -1</clus>
<clus scale="   96.596">  1  4  2 -1</clus>
<clus scale="   96.596">  1  3  2 -1</clus>
</clustering>
</event>
<event>
 6    0  0.6207838E+002  0.8364943E+02  0.7546771E-02  0.1319003E+00
         21   -1    0    0  503  501  0.00000000000E+00  0.00000000000E+00  0.20163291280E+03  0.20163291280E+03  0.00000000000E+00 0.  1.
         21   -1    0    0  505  502 -0.00000000000E+00 -0.00000000000E+00 -0.12033572662E+03  0.12033572662E+03  0.00000000000E+00 0.  1.
         21    1    1    2  503  504  0.31770221110E+02 -0.10613593935E+02  0.21291511823E+02  0.39690348969E+02  0.00000000000E+00 0.  1.
         21    1    1    2  504  506  0.24546374911E+02  0.34853575445E+02  0.31501002185E+02  0.53005748568E+02  0.00000000000E+00 0.  1.
         21    1    1    2  505  501 -0.11789040183E+03 -0.63274696888E+02  0.63849949016E+02  0.14825198177E+03  0.00000000000E+00 0.  1.
         21    1    1    2  506  502  0.61573805808E+02  0.39034715378E+02 -0.35345276838E+02  0.81020560113E+02  0.00000000000E+00 0.  1.
<scales pt_clust_3="33.49620" pt_clust_4="45.69573" pt_clust_5="83.64943" pt_clust_6="14000.00000"></scales>
<clustering>
<clus scale="   33.496">  1  3  2 -1</clus>
<clus scale="   45.696">  1  4  2 -1</clus>
<clus scale="   83.649">  1  5  2 -1</clus>
<clus scale="   33.496">  1  3  2 -1</clus>
</clustering>
</event>
<event>
 6    0  0.6207838E+002  0.1519210E+03  0.7546771E-02  0.1198132E+00
         21   -1    0    0  505  501  0.00000000000E+00  0.00000000000E+00  0.21772227098E+03  0.21772227098E+03  0.00000000000E+00 0.  1.
         21   -1    0    0  504  502 -0.00000000000E+00 -0.00000000000E+00 -0.24877545735E+03  0.24877545735E+03  0.00000000000E+00 0.  1.
         21    1    1    2  503  501  0.50904313381E+02  0.12819376961E+03  0.79176787587E+02  0.15904042058E+03  0.00000000000E+00 0.  1.
         21    1    1    2  504  503 -0.77978834817E+02  0.51427764937E+02 -0.67182176958E+02  0.11506067350E+03  0.00000000000E+00 0.  1.
         21    1    1    2  505  506  0.88081542580E+01 -0.61772997311E+02  0.75462171670E+01  0.62852463529E+02  0.00000000000E+00 0.  1.
         21    1    1    2  506  502  0.18266367178E+02 -0.11784853724E+03 -0.50594014165E+02  0.12954417072E+03  0.00000000000E+00 0.  1.
<scales pt_clust_3="144.61519" pt_clust_4="93.41046" pt_clust_5="33.66797" pt_clust_6="33.66797"></scales>
<clustering>
<clus scale="   33.668">  5  6 -1 -1</clus>
<clus scale="   93.410">  2  4  1 -1</clus>
<clus scale="  144.615">  1  3  2 -1</clus>
<clus scale="  144.615">  1  3  2 -1</clus>
</clustering>
</event>
<event>
 6    0  0.6207838E+002  0.2478459E+03  0.7546771E-02  0.1114674E+00
         21   -1    0    0  505  501  0.00000000000E+00  0.00000000000E+00  0.75713038982E+03  0.75713038982E+03  0.00000000000E+00 0. -1.
         21   -1    0    0  506  502 -0.00000000000E+00 -0.00000000000E+00 -0.36669065480E+03  0.36669065480E+03  0.00000000000E+00 0.  1.
         21    1    1    2  503  502 -0.40476134540E+02  0.12731560341E+03 -0.16867601844E+03  0.21517244140E+03  0.00000000000E+00 0.  1.
         21    1    1    2  504  503  0.84835800432E+02  0.15255599287E+03 -0.56489230517E+02  0.18347064386E+03  0.00000000000E+00 0.  1.
         21    1    1    2  505  504 -0.13788043246E+03 -0.24845500181E+03  0.44058316818E+03  0.52426560984E+03  0.00000000000E+00 0. -1.
         21    1    1    2  506  501  0.93520766568E+02 -0.31416594460E+02  0.17502181580E+03  0.20091234953E+03  0.00000000000E+00 0. -1.
<scales pt_clust_3="131.25482" pt_clust_4="14000.00000" pt_clust_5="247.84595" pt_clust_6="98.65666"></scales>
<clustering>
<clus scale="   98.657">  1  6  2 -1</clus>
<clus scale="  131.255">  2  3  1 -1</clus>
<clus scale="  247.846">  1  5  2 -1</clus>
<clus scale="   98.657">  1  3  2 -1</clus>
</clustering>
</event>
<event>
 6    0  0.6207838E+002  0.1312569E+03  0.7546771E-02  0.1225603E+00
         21   -1    0    0  505  501  0.00000000000E+00  0.00000000000E+00  0.76732314115E+03  0.76732314115E+03  0.00000000000E+00 0. -1.
         21   -1    0    0  503  502 -0.00000000000E+00 -0.00000000000E+00 -0.24779031814E+02  0.24779031814E+02  0.00000000000E+00 0. -1.
         21    1    1    2  503  504 -0.28021509407E+02 -0.38650738846E+02  0.80881715277E+02  0.93919840657E+02  0.00000000000E+00 0. -1.
         21    1    1    2  504  501  0.22914707979E+02 -0.80222704035E+02  0.15411234631E+03  0.17524663012E+03  0.00000000000E+00 0. -1.
         21    1    1    2  505  506 -0.11498380046E+02  0.58062948141E+02  0.30903914478E+03  0.31465649794E+03  0.00000000000E+00 0. -1.
         21    1    1    2  506  502  0.16605181474E+02  0.60810494740E+02  0.19851090297E+03  0.20827920425E+03  0.00000000000E+00 0. -1.
<scales pt_clust_3="41.92223" pt_clust_4="41.92223" pt_clust_5="39.92658" pt_clust_6="125.91544"></scales>
<clustering>
<clus scale="   39.927">  5  6 -1 -1</clus>
<clus scale="   41.922">  3  4 -1 -1</clus>
<clus scale="  125.915">  1  5  2 -1</clus>
<clus scale="  125.915">  1  3  2 -1</clus>
</clustering>
</event>
<event>
 6    0  0.6207838E+002  0.2047402E+03  0.7546771E-02  0.1145800E+00
         21   -1    0    0  503  501  0.00000000000E+00  0.00000000000E+00  0.43403176649E+03  0.43403176649E+03  0.00000000000E+00 0. -1.
         21   -1    0    0  506  502 -0.00000000000E+00 -0.00000000000E+00 -0.12762066940E+04  0.12762066940E+04  0.00000000000E+00 0. -1.
         21    1    1    2  503  502  0.89315364415E+02 -0.15991985640E+03 -0.23921437776E+03  0.30128908596E+03  0.00000000000E+00 0. -1.
         21    1    1    2  504  501  0.49784255780E+02  0.29751456670E+02  0.39007441197E+03  0.39436235643E+03  0.00000000000E+00 0. -1.
         21    1    1    2  505  504 -0.10373145655E+03  0.60387871414E+02 -0.74196937673E+03  0.75161523807E+03  0.00000000000E+00 0. -1.
         21    1    1    2  506  505 -0.35368163644E+02  0.69780528314E+02 -0.25106558497E+03  0.26297178002E+03  0.00000000000E+00 0. -1.
<scales pt_clust_3="186.92960" pt_clust_4="57.99674" pt_clust_5="68.75074" pt_clust_6="68.75074"></scales>
<clustering>
<clus scale="   57.997">  1  4  2 -1</clus>
<clus scale="   68.751">  5  6 -1 -1</clus>
<clus scale="  186.930">  1  3  2 -1</clus>
<clus scale="   57.997">  1  3  2 -1</clus>
</clustering>
</event>
<event>
 6    0  0.6207838E+002  0.1197533E+03  0.7546771E-02  0.1243505E+00
         21   -1    0    0  503  501  0.00000000000E+00  0.00000000000E+00  0.14203086084E+03  0.14203086084E+03  0.00000000000E+00 0.  1.
         21   -1    0    0  504  502 -0.00000000000E+00 -0.00000000000E+00 -0.35820202156E+03  0.35820202156E+03  0.00000000000E+00 0.  1.
         21    1    1    2  503  505 -0.27004265119E+02 -0.83855821329E+02 -0.15781559932E+03  0.18073957091E+03  0.00000000000E+00 0.  1.
         21    1    1    2  504  506  0.29399607942E+02 -0.44095334403E+02 -0.30986716128E+02  0.61391465528E+02  0.00000000000E+00 0.  1.
         21    1    1    2  505  502 -0.57808534946E+02  0.13716176405E+02 -0.96659527940E+02  0.11345935197E+03  0.00000000000E+00 0.  1.
         21    1    1    2  506  501  0.55413192123E+02  0.11423497933E+03  0.69290682661E+02  0.14464249399E+03  0.00000000000E+00 0.  1.
<scales pt_clust_3="119.75329" pt_clust_4="52.99750" pt_clust_5="47.92260" pt_clust_6="14000.00000"></scales>
<clustering>
<clus scale="   52.998">  2  4  1 -1</clus>
<clus scale="   47.923">  2  5  1 -1</clus>
<clus scale="  119.753">  2  3  1 -1</clus>
<clus scale="  119.753">  1  3  2 -1</clus>
</clustering>
</event>
<event>
 6    0  0.6207838E+002  0.1831592E+03  0.7546771E-02  0.1164780E+00
         21   -1    0    0  505  501  0.00000000000E+00  0.00000000000E+00  0.70735019191E+03  0.70735019191E+03  0.00000000000E+00 0.  1.
         21   -1    0    0  506  502 -0.00000000000E+00 -0.00000000000E+00 -0.25937910284E+04  0.25937910284E+04  0.00000000000E+00 0. -1.
         21    1    1    2  503  502 -0.53792553387E+01  0.14276325723E+03 -0.19359590065E+04  0.19412232120E+04  0.00000000000E+00 0. -1.
         21    1    1    2  504  501 -0.24154184460E+01  0.38002410343E+02  0.52460436104E+03  0.52598455591E+03  0.00000000000E+00 0.  1.
         21    1    1    2  505  503 -0.76710367754E+02 -0.20360252439E+03  0.10898168417E+03  0.24334230200E+03  0.00000000000E+00 0.  1.
         21    1    1    2  506  504  0.84505041539E+02  0.22836856814E+02 -0.58406787526E+03  0.59059115045E+03  0.00000000000E+00 0.  1.
<scales pt_clust_3="183.15925" pt_clust_4="38.07909" pt_clust_5="14000.00000" pt_clust_6="87.67481"></scales>
<clustering>
<clus scale="   38.079">  1  4  2 -1</clus>
<clus scale="   87.675">  2  6  1 -1</clus>
<clus scale="  183.159">  2  3  1 -1</clus>
<clus scale="   38.079">  1  3  2 -1</clus>
</clustering>
</event>
<event>
 6    0  0.6207838E+002  0.1655122E+03  0.7546771E-02  0.1182610E+00
         21   -1    0    0  504  501  0.00000000000E+00  0.00000000000E+00  0.35198104512E+03  0.35198104512E+03  0.00000000000E+00 0.  1.
         21   -1    0    0  503  502 -0.00000000000E+00 -0.00000000000E+00 -0.23710572685E+03  0.23710572685E+03  0.00000000000E+00 0.  1.
         21    1    1    2  503  501 -0.15377782384E+02  0.34127161478E+02  0.20340223429E+02  0.42601221001E+02  0.00000000000E+00 0.  1.
         21    1    1    2  504  505  0.27141523692E+02  0.33346101562E+02  0.38038032733E+02  0.57406591363E+02  0.00000000000E+00 0.  1.
         21    1    1    2  505  506  0.15409488775E+03 -0.37759687096E+02  0.20860308754E+03  0.26208066799E+03  0.00000000000E+00 0.  1.
         21    1    1    2  506  502 -0.16585862906E+03 -0.29713575944E+02 -0.15210602543E+03  0.22699829163E+03  0.00000000000E+00 0.  1.
<scales pt_clust_3="37.43180" pt_clust_4="45.76335" pt_clust_5="165.51219" pt_clust_6="14000.00000"></scales>
<clustering>
<clus scale="   37.432">  1  3  2 -1</clus>
<clus scale="   45.763">  1  4  2 -1</clus>
<clus scale="  165.512">  1  5  2 -1</clus>
<clus scale="   37.432">  1  3  2 -1</clus>
</clustering>
</event>
<event>
 6    0  0.6207838E+002  0.9595799E+02  0.7546771E-02  0.1289033E+00
         21   -1    0    0  506  501  0.00000000000E+00  0.00000000000E+00  0.10108690311E+03  0.10108690311E+03  0.00000000000E+00 0.  1.
         21   -1    0    0  504  502 -0.00000000000E+00 -0.00000000000E+00 -0.18252943338E+04  0.18252943338E+04  0.00000000000E+00 0.  1.
         21    1    1    2  503  501 -0.25819603202E+02  0.33684083820E+02  0.10361212150E+02  0.43687802983E+02  0.00000000000E+00 0. -1.
         21    1    1    2  504  503 -0.51326714547E+02  0.80770877942E+02 -0.17057128792E+04  0.17083953854E+04  0.00000000000E+00 0.  1.
         21    1    1    2  505  502  0.92674281341E+02 -0.63370731976E+02 -0.41036813117E+02  0.11953406261E+03  0.00000000000E+00 0.  1.
         21    1    1    2  506  505 -0.15527963592E+02 -0.51084229785E+02  0.12181049547E+02  0.54763985923E+02  0.00000000000E+00 0.  1.
<scales pt_clust_3="42.44136" pt_clust_4="95.95799" pt_clust_5="14000.00000" pt_clust_6="45.00749"></scales>
<clustering>
<clus scale="   42.441">  1  3  2 -1</clus>
<clus scale="   45.007">  1  6  2 -1</clus>
<clus scale="   95.958">  2  4  1 -1</clus>
<clus scale="   42.441">  1  3  2 -1</clus>
</clustering>
</event>
<event>
 6    0  0.6207838E+002  0.1113572E+03  0.7546771E-02  0.1258077E+00
         21   -1    0    0  505  501  0.00000000000E+00  0.00000000000E+00  0.20476862548E+03  0.20476862548E+03  0.00000000000E+00 0. -1.
         21   -1    0    0  504  502 -0.00000000000E+00 -0.00000000000E+00 -0.30695002400E+03  0.30695002400E+03  0.00000000000E+00 0.  1.
         21    1    1    2  503  506  0.43397998022E+02 -0.56277893292E+02 -0.19370871574E+03  0.20633384129E+03  0.00000000000E+00 0.  1.
         21    1    1    2  504  501 -0.28918524595E+02  0.25141928963E+02 -0.31930422909E+01  0.38452479449E+02  0.00000000000E+00 0.  1.
         21    1    1    2  505  503 -0.10610499718E+02  0.92543227710E+02  0.15497404164E+03  0.18081422865E+03  0.00000000000E+00 0. -1.
         21    1    1    2  506  502 -0.38689737094E+01 -0.61407263382E+02 -0.60253682133E+02  0.86118100096E+02  0.00000000000E+00 0.  1.
<scales pt_clust_3="14000.00000" pt_clust_4="38.31968" pt_clust_5="111.35724" pt_clust_6="59.95761"></scales>
<clustering>
<clus scale="   38.320">  1  4  2 -1</clus>
<clus scale="   59.958">  2  6  1 -1</clus>
<clus scale="  111.357">  1  5  2 -1</clus>
<clus scale="   38.320">  1  3  2 -1</clus>
</clustering>
</event>
<event>
 6    0  0.6207838E+002  0.8119576E+02  0.7546771E-02  0.1325692E+00
         21   -1    0    0  505  501  0.00000000000E+00  0.00000000000E+00  0.16902239149E+03  0.16902239149E+03  0.00000000000E+00 0. -1.
         21   -1    0    0  503  502 -0.00000000000E+00 -0.00000000000E+00 -0.46253404491E+03  0.46253404491E+03  0.00000000000E+00 0. -1.
         21    1    1    2  503  504 -0.33154089051E+02 -0.20055883736E+02 -0.32542767941E+03  0.32772642039E+03  0.00000000000E+00 0. -1.
         21    1    1    2  504  506 -0.48463721288E+02  0.24746231370E+02 -0.30862283174E+02  0.62558682617E+02  0.00000000000E+00 0. -1.
         21    1    1    2  505  502  0.47529516573E+02  0.74646883150E+02 -0.48110803146E+02  0.10072666722E+03  0.00000000000E+00 0. -1.
         21    1    1    2  506  501  0.34088293766E+02 -0.79337230784E+02  0.11088911231E+03  0.14054466617E+03  0.00000000000E+00 0. -1.
<scales pt_clust_3="38.74832" pt_clust_4="62.46099" pt_clust_5="81.19576" pt_clust_6="14000.00000"></scales>
<clustering>
<clus scale="   38.748">  2  3  1 -1</clus>
<clus scale="   62.461">  2  4  1 -1</clus>
<clus scale="   81.196">  2  5  1 -1</clus>
<clus scale="   81.196">  1  3  2 -1</clus>
</clustering>
</event>
<event>
 6    0  0.6207838E+002  0.1238946E+03  0.7546771E-02  0.1236807E+00
         21   -1    0    0  503  501  0.00000000000E+00  0.00000000000E+00  0.82093342572E+02  0.82093342572E+02  0.00000000000E+00 0.  1.
         21   -1    0    0  505  502 -0.00000000000E+00 -0.00000000000E+00 -0.34941848706E+03  0.34941848706E+03  0.00000000000E+00 0.  1.
         21    1    1    2  503  502 -0.25388527565E+02  0.41329235941E+02 -0.62449864535E+02  0.79073817764E+02  0.00000000000E+00 0.  1.
         21    1    1    2  504  506 -0.91828149396E+02 -0.10474323989E+03 -0.10420393836E+03  0.17395981172E+03  0.00000000000E+00 0.  1.
         21    1    1    2  505  504  0.31187201949E+02 -0.10366538570E+02 -0.32501314410E+02  0.46221662948E+02  0.00000000000E+00 0.  1.
         21    1    1    2  506  501  0.86029475012E+02  0.73780542521E+02 -0.68170027182E+02  0.13225653720E+03  0.00000000000E+00 0.  1.
<scales pt_clust_3="43.03452" pt_clust_4="123.89465" pt_clust_5="32.86498" pt_clust_6="14000.00000"></scales>
<clustering>
<clus scale="   32.865">  2  5  1 -1</clus>
<clus scale="   43.035">  2  3  1 -1</clus>
<clus scale="  123.895">  2  4  1 -1</clus>
<clus scale="  123.895">  1  3  2 -1</clus>
</clustering>
</event>
<event>
 6    0  0.6207838E+002  0.1098885E+03  0.7546771E-02  0.1260777E+00
         21   -1    0    0  505  501  0.00000000000E+00  0.00000000000E+00  0.10089969954E+03  0.10089969954E+03  0.00000000000E+00 0. -1.
         21   -1    0    0  503  502 -0.00000000000E+00 -0.00000000000E+00 -0.22255615198E+03  0.22255615198E+03  0.00000000000E+00 0. -1.
         21    1    1    2  503  506  0.71398336638E+02 -0.71778141434E+02 -0.53501412038E+02  0.11450862480E+03  0.00000000000E+00 0. -1.
         21    1    1    2  504  501 -0.52412794274E+02  0.72423234142E+01  0.16406639109E+02  0.55396119529E+02  0.00000000000E+00 0. -1.
         21    1    1    2  505  502  0.38040680777E+02  0.42818235486E+02 -0.70674624476E+02  0.90969210335E+02  0.00000000000E+00 0. -1.
         21    1    1    2  506  504 -0.57026223141E+02  0.21717582534E+02 -0.13887055043E+02  0.62581896860E+02  0.00000000000E+00 0. -1.
<scales pt_clust_3="104.77878" pt_clust_4="30.83980" pt_clust_5="57.27560" pt_clust_6="30.83980"></scales>
<clustering>
<clus scale="   30.840">  4  6 -1 -1</clus>
<clus scale="   57.276">  2  5  1 -1</clus>
<clus scale="  104.779">  2  3  1 -1</clus>
<clus scale="  109.888">  1  3  2 -1</clus>
</clustering>
</event>
<event>
 6    0  0.6207838E+002  0.1949578E+03  0.7546771E-02  0.1154064E+00
         21   -1    0    0  506  501  0.00000000000E+00  0.00000000000E+00  0.69607010471E+03  0.69607010471E+03  0.00000000000E+00 0. -1.
         21   -1    0    0  503  502 -0.00000000000E+00 -0.00000000000E+00 -0.20840209667E+03  0.20840209667E+03  0.00000000000E+00 0. -1.
         21    1    1    2  503  504  0.11156085670E+03 -0.82115850105E+02  0.32659745747E+03  0.35476011164E+03  0.00000000000E+00 0. -1.
         21    1    1    2  504  501  0.91610052644E+02 -0.90322797049E+02  0.16958376505E+03  0.21285972559E+03  0.00000000000E+00 0. -1.
         21    1    1    2  505  502 -0.14253553143E+03  0.99716252881E+02 -0.10376126246E+03  0.20254902714E+03  0.00000000000E+00 0. -1.
         21    1    1    2  506  505 -0.60635377914E+02  0.72722394273E+02  0.95248047992E+02  0.13430333700E+03  0.00000000000E+00 0. -1.
<scales pt_clust_3="68.02764" pt_clust_4="68.02764" pt_clust_5="181.72944" pt_clust_6="94.68472"></scales>
<clustering>
<clus scale="   68.028">  3  4 -1 -1</clus>
<clus scale="   94.685">  1  6  2 -1</clus>
<clus scale="  181.729">  2  5  1 -1</clus>
<clus scale="   94.685">  1  3  2 -1</clus>
</clustering>
</event>
<event>
 6    0  0.6207838E+002  0.6441159E+02  0.7546771E-02  0.1380199E+00
         21   -1    0    0  503  501  0.00000000000E+00  0.00000000000E+00  0.16949063652E+03  0.16949063652E+03  0.00000000000E+00 0.  1.
         21   -1    0    0  506  502 -0.00000000000E+00 -0.00000000000E+00 -0.17078067979E+04  0.17078067979E+04  0.00000000000E+00 0.  1.
         21    1    1    2  503  502  0.13243212644E+02 -0.31042352061E+02 -0.55830658307E+02  0.65238582983E+02  0.00000000000E+00 0.  1.
         21    1    1    2  504  501 -0.62075491548E+02 -0.16815289071E+02  0.15401388233E+03  0.16690235632E+03  0.00000000000E+00 0.  1.
         21    1    1    2  505  504  0.83848035555E+02 -0.22493399536E+02 -0.69921983217E+03  0.70458840452E+03  0.00000000000E+00 0.  1.
         21    1    1    2  506  505 -0.35015756651E+02  0.70351040669E+02 -0.93727955320E+03  0.94056809057E+03  0.00000000000E+00 0.  1.
<scales pt_clust_3="33.74923" pt_clust_4="64.41159" pt_clust_5="14000.00000" pt_clust_6="59.39060"></scales>
<clustering>
<clus scale="   33.749">  2  3  1 -1</clus>
<clus scale="   59.391">  2  6  1 -1</clus>
<clus scale="   64.412">  1  4  2 -1</clus>
<clus scale="   64.412">  1  3  2 -1</clus>
</clustering>
</event>
<event>
 6    0  0.6207838E+002  0.6925728E+02  0.7546771E-02  0.1362637E+00
         21   -1    0    0  506  501  0.00000000000E+00  0.00000000000E+00  0.18158160237E+04  0.18158160237E+04  0.00000000000E+00 0.  1.
         21   -1    0    0  504  502 -0.00000000000E+00 -0.00000000000E+00 -0.20525030514E+02  0.20525030514E+02  0.00000000000E+00 0.  1.
         21    1    1    2  503  501  0.24990279098E+02  0.44092580336E+02  0.78210388668E+03  0.78374432008E+03  0.00000000000E+00 0.  1.
         21    1    1    2  504  505 -0.16784350116E+02 -0.71749385477E+02  0.75327395818E+02  0.10537506957E+03  0.00000000000E+00 0.  1.
         21    1    1    2  505  503 -0.63183076832E+02 -0.87011867297E+01  0.56416537630E+03  0.56775908946E+03  0.00000000000E+00 0.  1.
         21    1    1    2  506  502  0.54977147850E+02  0.36357991871E+02  0.37369433439E+03  0.37946257512E+03  0.00000000000E+00 0.  1.
<scales pt_clust_3="50.68205" pt_clust_4="14000.00000" pt_clust_5="51.84813" pt_clust_6="69.25728"></scales>
<clustering>
<clus scale="   50.682">  1  3  2 -1</clus>
<clus scale="   51.848">  1  5  2 -1</clus>
<clus scale="   69.257">  1  6  2 -1</clus>
<clus scale="   50.682">  1  3  2 -1</clus>
</clustering>
</event>
<event>
 6    0  0.6207838E+002  0.1230682E+03  0.7546771E-02  0.1238120E+00
         21   -1    0    0  506  501  0.00000000000E+00  0.00000000000E+00  0.20524127283E+03  0.20524127283E+03  0.00000000000E+00 0. -1.
         21   -1    0    0  504  502 -0.00000000000E+00 -0.00000000000E+00 -0.22695571142E+03  0.22695571142E+03  0.00000000000E+00 0. -1.
         21    1    1    2  503  501 -0.30372542576E+02  0.13193752715E+03  0.43675497124E+02  0.14225874828E+03  0.00000000000E+00 0. -1.
         21    1    1    2  504  503 -0.30870913380E+02 -0.49178252551E+02 -0.14722530025E+02  0.59902142759E+02  0.00000000000E+00 0. -1.
         21    1    1    2  505  502 -0.48756133246E+02 -0.12668674539E+02 -0.81682340533E+02  0.95966976605E+02  0.00000000000E+00 0. -1.
         21    1    1    2  506  505  0.10999958920E+03 -0.70090600063E+02  0.31014934847E+02  0.13406911660E+03  0.00000000000E+00 0. -1.
<scales pt_clust_3="123.06819" pt_clust_4="68.60329" pt_clust_5="50.37515" pt_clust_6="14000.00000"></scales>
<clustering>
<clus scale="   50.375">  2  5  1 -1</clus>
<clus scale="   68.603">  2  4  1 -1</clus>
<clus scale="  123.068">  1  3  2 -1</clus>
<clus scale="  123.068">  1  3  2 -1</clus>
</clustering>
</event>
<event>
 6    0  0.6207838E+002  0.1883542E+03  0.7546771E-02  0.1159954E+00
         21   -1    0    0  504  501  0.00000000000E+00  0.00000000000E+00  0.85649649159E+02  0.85649649159E+02  0.00000000000E+00 0. -1.
         21   -1    0    0  503  502 -0.00000000000E+00 -0.00000000000E+00 -0.15042868506E+04  0.15042868506E+04  0.00000000000E+00 0. -1.
         21    1    1    2  503  506 -0.32711029181E+02 -0.17083097062E+03 -0.65325418442E+03  0.67601350682E+03  0.00000000000E+00 0. -1.
         21    1    1    2  504  502  0.93963574129E+02  0.19223929140E+03 -0.65775652562E+03  0.69168543820E+03  0.00000000000E+00 0. -1.
         21    1    1    2  505  501  0.97379089094E+01 -0.62816986577E+02  0.23258905099E+02  0.67688827283E+02  0.00000000000E+00 0. -1.
         21    1    1    2  506  505 -0.70990453858E+02  0.41408665789E+02 -0.13088539655E+03  0.15454872750E+03  0.00000000000E+00 0. -1.
<scales pt_clust_3="188.35423" pt_clust_4="14000.00000" pt_clust_5="63.56729" pt_clust_6="71.87162"></scales>
<clustering>
<clus scale="   63.567">  1  5  2 -1</clus>
<clus scale="   71.872">  1  6  2 -1</clus>
<clus scale="  188.354">  2  3  1 -1</clus>
<clus scale="   63.567">  1  3  2 -1</clus>
</clustering>
</event>
<event>
 6    0  0.6207838E+002  0.1647540E+03  0.7546771E-02  0.1183432E+00
         21   -1    0    0  503  501  0.00000000000E+00  0.00000000000E+00  0.31712429912E+03  0.31712429912E+03  0.00000000000E+00 0. -1.
         21   -1    0    0  504  502 -0.00000000000E+00 -0.00000000000E+00 -0.19095469902E+03  0.19095469902E+03  0.00000000000E+00 0. -1.
         21    1    1    2  503  506  0.10763531406E+03 -0.13634418767E+03 -0.20568381622E+02  0.17492328794E+03  0.00000000000E+00 0. -1.
         21    1    1    2  504  505 -0.10884179071E+03  0.10853920743E+03  0.10696756431E+03  0.18726813602E+03  0.00000000000E+00 0. -1.
         21    1    1    2  505  501  0.36431038320E+02  0.48804731632E+02  0.71583279726E+02  0.93985575059E+02  0.00000000000E+00 0.  1.
         21    1    1    2  506  502 -0.35224561668E+02 -0.20999751400E+02 -0.31812862312E+02  0.51901999115E+02  0.00000000000E+00 0. -1.
<scales pt_clust_3="164.75401" pt_clust_4="14000.00000" pt_clust_5="58.06727" pt_clust_6="41.00926"></scales>
<clustering>
<clus scale="   41.009">  2  6  1 -1</clus>
<clus scale="   58.067">  1  5  2 -1</clus>
<clus scale="  164.754">  2  3  1 -1</clus>
<clus scale="   58.067">  1  3  2 -1</clus>
</clustering>
</event>
<event>
 6    0  0.6207838E+002  0.1132158E+03  0.7546771E-02  0.1254728E+00
         21   -1    0    0  506  501  0.00000000000E+00  0.00000000000E+00  0.14760738663E+04  0.14760738663E+04  0.00000000000E+00 0.  1.
         21   -1    0    0  503  502 -0.00000000000E+00 -0.00000000000E+00 -0.12316714655E+03  0.12316714655E+03  0.00000000000E+00 0. -1.
         21    1    1    2  503  505 -0.36259650772E+02  0.17913259486E+02 -0.61843635927E+02  0.73893723984E+02  0.00000000000E+00 0. -1.
         21    1    1    2  504  502  0.11235108645E+03  0.17918214748E+02  0.32935199338E+02  0.11844220701E+03  0.00000000000E+00 0. -1.
         21    1    1    2  505  501 -0.89601351323E+01  0.57638632082E+02  0.74905432457E+02  0.94938505051E+02  0.00000000000E+00 0.  1.
         21    1    1    2  506  504 -0.67131300548E+02 -0.93470106315E+02  0.13069097238E+04  0.13119665768E+04  0.00000000000E+00 0.  1.
<scales pt_clust_3="40.44313" pt_clust_4="14000.00000" pt_clust_5="62.83236" pt_clust_6="113.21582"></scales>
<clustering>
<clus scale="   40.443">  2  3  1 -1</clus>
<clus scale="   62.832">  2  5  1 -1</clus>
<clus scale="  113.216">  1  6  2 -1</clus>
<clus scale="  113.216">  1  3  2 -1</clus>
</clustering>
</event>
<event>
 6    0  0.1022293E+003  0.1322032E+03  0.7546771E-02  0.1224223E+00
         21   -1    0    0  503  501  0.00000000000E+00  0.00000000000E+00  0.20856917267E+04  0.20856917267E+04  0.00000000000E+00 0.  1.
         21   -1    0    0  506  502 -0.00000000000E+00 -0.00000000000E+00 -0.22098031999E+03  0.22098031999E+03  0.00000000000E+00 0. -1.
         21    1    1    2  503  504  0.64420225414E+02 -0.16726053946E+01  0.15612846479E+03  0.16890488616E+03  0.00000000000E+00 0. -1.
         21    1    1    2  504  502 -0.11370845710E+03  0.24049783539E+02 -0.18614360007E+03  0.21944804659E+03  0.00000000000E+00 0. -1.
         21    1    1    2  505  501  0.50471237103E+02 -0.69659143036E+02  0.18537379858E+04  0.18557328100E+04  0.00000000000E+00 0.  1.
         21    1    1    2  506  505 -0.11830054119E+01  0.47281964892E+02  0.40988556182E+02  0.62586303963E+02  0.00000000000E+00 0. -1.
<scales pt_clust_3="64.38470" pt_clust_4="132.20317" pt_clust_5="14000.00000" pt_clust_6="47.29676"></scales>
<clustering>
<clus scale="   47.297">  2  6  1 -1</clus>
<clus scale="   64.385">  1  3  2 -1</clus>
<clus scale="  132.203">  2  4  1 -1</clus>
<clus scale="   64.385">  1  3  2 -1</clus>
</clustering>
</event>
<event>
 6    0  0.6207838E+002  0.1471975E+03  0.7546771E-02  0.1203960E+00
         21   -1    0    0  504  501  0.00000000000E+00  0.00000000000E+00  0.30253713776E+03  0.30253713776E+03  0.00000000000E+00 0. -1.
         21   -1    0    0  503  502 -0.00000000000E+00 -0.00000000000E+00 -0.31933498249E+03  0.31933498249E+03  0.00000000000E+00 0. -1.
         21    1    1    2  503  501 -0.47413185953E+02 -0.47175130192E+02 -0.13864725952E+03  0.15393688864E+03  0.00000000000E+00 0. -1.
         21    1    1    2  504  505 -0.61655555528E+02  0.12985966023E+03  0.24186290576E+03  0.28135849741E+03  0.00000000000E+00 0. -1.
         21    1    1    2  505  506  0.62300609522E+02 -0.35480535234E+02 -0.38394579202E+02  0.81328826620E+02  0.00000000000E+00 0. -1.
         21    1    1    2  506  502  0.46768131959E+02 -0.47203994802E+02 -0.81618911762E+02  0.10524790758E+03  0.00000000000E+00 0. -1.
<scales pt_clust_3="66.88425" pt_clust_4="141.39368" pt_clust_5="39.39992" pt_clust_6="39.39992"></scales>
<clustering>
<clus scale="   39.400">  5  6 -1 -1</clus>
<clus scale="   66.884">  2  3  1 -1</clus>
<clus scale="  141.394">  1  4  2 -1</clus>
<clus scale="  141.394">  1  3  2 -1</clus>
</clustering>
</event>
<event>
 6    0  0.6207838E+002  0.8566059E+02  0.7546771E-02  0.1313714E+00
         21   -1    0    0  504  501  0.00000000000E+00  0.00000000000E+00  0.15105704410E+04  0.15105704410E+04  0.00000000000E+00 0. -1.
         21   -1    0    0  505  502 -0.00000000000E+00 -0.00000000000E+00 -0.49623902374E+02  0.49623902374E+02  0.00000000000E+00 0. -1.
         21    1    1    2  503  502  0.47786868584E+02 -0.73991549923E+02 -0.79163757544E+00  0.88084964433E+02  0.00000000000E+00 0. -1.
         21    1    1    2  504  506 -0.26686738510E+02 -0.14554884642E+02  0.54053307186E+03  0.54138713362E+03  0.00000000000E+00 0. -1.
         21    1    1    2  505  501  0.26443370345E+02  0.79918682595E+02  0.55677063606E+03  0.56309838292E+03  0.00000000000E+00 0. -1.
         21    1    1    2  506  503 -0.47543500420E+02  0.86277519696E+01  0.36443446828E+03  0.36762386240E+03  0.00000000000E+00 0. -1.
<scales pt_clust_3="14000.00000" pt_clust_4="30.39781" pt_clust_5="85.66059" pt_clust_6="57.70291"></scales>
<clustering>
<clus scale="   30.398">  1  4  2 -1</clus>
<clus scale="   57.703">  1  6  2 -1</clus>
<clus scale="   85.661">  1  5  2 -1</clus>
<clus scale="   30.398">  1  3  2 -1</clus>
</clustering>
</event>
<event>
 6    0  0.6207838E+002  0.1342472E+03  0.7546771E-02  0.1221286E+00
         21   -1    0    0  506  501  0.00000000000E+00  0.00000000000E+00  0.31004298757E+03  0.31004298757E+03  0.00000000000E+00 0. -1.
         21   -1    0    0  503  502 -0.00000000000E+00 -0.00000000000E+00 -0.30777643600E+03  0.30777643600E+03  0.00000000000E+00 0. -1.
         21    1    1    2  503  501 -0.43269946436E+02 -0.80349904686E+02 -0.71215512254E+01  0.91537489257E+02  0.00000000000E+00 0. -1.
         21    1    1    2  504  505 -0.10581045585E+03 -0.10426386420E+02  0.63818203391E+02  0.12400534337E+03  0.00000000000E+00 0. -1.
         21    1    1    2  505  502  0.13144722428E+03  0.53018204958E+02 -0.20321761501E+03  0.24776339899E+03  0.00000000000E+00 0. -1.
         21    1    1    2  506  504  0.17633178005E+02  0.37758086148E+02  0.14878751442E+03  0.15451319194E+03  0.00000000000E+00 0. -1.
<scales pt_clust_3="80.17586" pt_clust_4="134.24720" pt_clust_5="14000.00000" pt_clust_6="41.67256"></scales>
<clustering>
<clus scale="   41.673">  1  6  2 -1</clus>
<clus scale="   80.176">  1  3  2 -1</clus>
<clus scale="  134.247">  1  4  2 -1</clus>
<clus scale="   41.673">  1  3  2 -1</clus>
</clustering>
</event>
<event>
 6    0  0.6207838E+002  0.1639216E+03  0.7546771E-02  0.1184339E+00
         21   -1    0    0  504  501  0.00000000000E+00  0.00000000000E+00  0.63679926706E+03  0.63679926706E+03  0.00000000000E+00 0. -1.
         21   -1    0    0  506  502 -0.00000000000E+00 -0.00000000000E+00 -0.62078091241E+03  0.62078091241E+03  0.00000000000E+00 0.  1.
         21    1    1    2  503  502  0.55756600608E+02 -0.12226515540E+03  0.67423095052E+01  0.13454748408E+03  0.00000000000E+00 0.  1.
         21    1    1    2  504  503  0.16032359782E+01 -0.33762056810E+02  0.32269651736E+02  0.46730902718E+02  0.00000000000E+00 0.  1.
         21    1    1    2  505  501 -0.39709561919E+02  0.57948737493E+01  0.51545215723E+03  0.51701194983E+03  0.00000000000E+00 0. -1.
         21    1    1    2  506  505 -0.17650274668E+02  0.15023233846E+03 -0.53844576383E+03  0.55928984284E+03  0.00000000000E+00 0.  1.
<scales pt_clust_3="30.52844" pt_clust_4="30.52844" pt_clust_5="40.13016" pt_clust_6="152.20053"></scales>
<clustering>
<clus scale="   30.528">  3  4 -1 -1</clus>
<clus scale="   40.130">  1  5  2 -1</clus>
<clus scale="  152.201">  2  6  1 -1</clus>
<clus scale="   40.130">  1  3  2 -1</clus>
</clustering>
</event>
<event>
 6    0  0.6207838E+002  0.1016881E+03  0.7546771E-02  0.1276786E+00
         21   -1    0    0  504  501  0.00000000000E+00  0.00000000000E+00  0.51990292079E+02  0.51990292079E+02  0.00000000000E+00 0.  1.
         21   -1    0    0  506  502 -0.00000000000E+00 -0.00000000000E+00 -0.74770804697E+03  0.74770804697E+03  0.00000000000E+00 0.  1.
         21    1    1    2  503  502 -0.36862149291E+02 -0.20540902917E+02 -0.42062733319E+03  0.42273880845E+03  0.00000000000E+00 0.  1.
         21    1    1    2  504  505 -0.64296710031E+02  0.63592833324E+02 -0.36483660584E+02  0.97514987877E+02  0.00000000000E+00 0.  1.
         21    1    1    2  505  503  0.87902891453E+02 -0.71574728641E+02 -0.19701877852E+03  0.22730213197E+03  0.00000000000E+00 0.  1.
         21    1    1    2  506  501  0.13255967869E+02  0.28522798234E+02 -0.41587982593E+02  0.52142410756E+02  0.00000000000E+00 0.  1.
<scales pt_clust_3="41.62550" pt_clust_4="14000.00000" pt_clust_5="101.68811" pt_clust_6="31.45267"></scales>
<clustering>
<clus scale="   31.453">  1  6  2 -1</clus>
<clus scale="   41.626">  2  3  1 -1</clus>
<clus scale="  101.688">  2  5  1 -1</clus>
<clus scale="   31.453">  1  3  2 -1</clus>
</clustering>
</event>
<event>
 6    0  0.6207838E+002  0.6361863E+02  0.7546771E-02  0.1383244E+00
         21   -1    0    0  503  501  0.00000000000E+00  0.00000000000E+00  0.21159061398E+03  0.21159061398E+03  0.00000000000E+00 0.  1.
         21   -1    0    0  505  502 -0.00000000000E+00 -0.00000000000E+00 -0.83495704640E+03  0.83495704640E+03  0.00000000000E+00 0. -1.
         21    1    1    2  503  502 -0.45486893400E+01  0.90806894314E+02  0.13913987984E+03  0.16621218004E+03  0.00000000000E+00 0.  1.
         21    1    1    2  504  501  0.27800554791E+02 -0.44949759887E+02  0.17269898345E+02  0.55602168568E+02  0.00000000000E+00 0. -1.
         21    1    1    2  505  506  0.46676429114E+01  0.51719140029E+02 -0.68144006881E+03  0.68341584977E+03  0.00000000000E+00 0. -1.
         21    1    1    2  506  504 -0.27919508363E+02 -0.97576274457E+02 -0.98336141800E+02  0.14131746201E+03  0.00000000000E+00 0.  1.
<scales pt_clust_3="14000.00000" pt_clust_4="47.79437" pt_clust_5="51.92934" pt_clust_6="63.61863"></scales>
<clustering>
<clus scale="   51.929">  2  5  1 -1</clus>
<clus scale="   47.794">  1  4  2 -1</clus>
<clus scale="   63.619">  2  6  1 -1</clus>
<clus scale="   47.794">  1  3  2 -1</clus>
</clustering>
</event>
<event>
 6    0  0.6207838E+002  0.2615628E+03  0.7546771E-02  0.1106208E+00
         21   -1    0    0  503  501  0.00000000000E+00  0.00000000000E+00  0.26031650752E+04  0.26031650752E+04  0.00000000000E+00 0.  1.
         21   -1    0    0  504  502 -0.00000000000E+00 -0.00000000000E+00 -0.60492661432E+02  0.60492661432E+02  0.00000000000E+00 0.  1.
         21    1    1    2  503  506  0.73079244486E+02  0.69896682943E+02  0.14160317617E+04  0.14196380075E+04  0.00000000000E+00 0.  1.
         21    1    1    2  504  501 -0.11583272528E+03  0.20752733473E+03  0.58662420327E+03  0.63293978447E+03  0.00000000000E+00 0.  1.
         21    1    1    2  505  502  0.38512078910E+02 -0.10680483878E+03  0.18286758202E+03  0.21524638525E+03  0.00000000000E+00 0.  1.
         21    1    1    2  506  505  0.42414018857E+01 -0.17061917889E+03  0.35714886675E+03  0.39583355936E+03  0.00000000000E+00 0.  1.
<scales pt_clust_3="101.12429" pt_clust_4="255.74618" pt_clust_5="44.74003" pt_clust_6="44.74003"></scales>
<clustering>
<clus scale="   44.740">  5  6 -1 -1</clus>
<clus scale="  101.124">  1  3  2 -1</clus>
<clus scale="  255.746">  1  4  2 -1</clus>
<clus scale="  101.124">  1  3  2 -1</clus>
</clustering>
</event>
<event>
 6    0  0.6207838E+002  0.1357624E+03  0.7546771E-02  0.1219147E+00
         21   -1    0    0  502  501  0.00000000000E+00  0.00000000000E+00  0.18800426893E+03  0.18800426893E+03  0.00000000000E+00 0.  1.
         21   -1    0    0  506  502 -0.00000000000E+00 -0.00000000000E+00 -0.15475679997E+04  0.15475679997E+04  0.00000000000E+00 0.  1.
         21    1    1    2  503  505  0.73518276452E-01 -0.13271909107E+03 -0.40094048023E+03  0.42233592226E+03  0.00000000000E+00 0.  1.
         21    1    1    2  504  501  0.55608759441E+02 -0.22124107696E+02  0.12752567702E+03  0.14087089325E+03  0.00000000000E+00 0.  1.
         21    1    1    2  505  504  0.75939191668E+02  0.63038816562E+02 -0.28663007677E+02  0.10277266774E+03  0.00000000000E+00 0.  1.
         21    1    1    2  506  503 -0.13162146939E+03  0.91804382208E+02 -0.10574859199E+04  0.10695927854E+04  0.00000000000E+00 0.  1.
<scales pt_clust_3="14000.00000" pt_clust_4="59.84823" pt_clust_5="123.83392" pt_clust_6="135.76241"></scales>
<clustering>
<clus scale="   59.848">  1  4  2 -1</clus>
<clus scale="  123.834">  1  5  2 -1</clus>
<clus scale="  135.762">  2  6  1 -1</clus>
<clus scale="   59.848">  1  3  2 -1</clus>
</clustering>
</event>
<event>
 6    0  0.6207838E+002  0.8428746E+02  0.7546771E-02  0.1317306E+00
         21   -1    0    0  504  501  0.00000000000E+00  0.00000000000E+00  0.19450082963E+04  0.19450082963E+04  0.00000000000E+00 0.  1.
         21   -1    0    0  505  502 -0.00000000000E+00 -0.00000000000E+00 -0.10698388660E+02  0.10698388660E+02  0.00000000000E+00 0.  1.
         21    1    1    2  503  502 -0.72424906718E+02 -0.23793837888E+02  0.25250348729E+03  0.26376035511E+03  0.00000000000E+00 0.  1.
         21    1    1    2  504  506  0.10588003028E+02  0.46451977126E+02  0.62692446518E+03  0.62873219818E+03  0.00000000000E+00 0.  1.
         21    1    1    2  505  501  0.23897942000E+02 -0.68812550202E+02  0.54646630460E+03  0.55130000976E+03  0.00000000000E+00 0.  1.
         21    1    1    2  506  503  0.37938961690E+02  0.46154410964E+02  0.50841565053E+03  0.51191412186E+03  0.00000000000E+00 0.  1.
<scales pt_clust_3="77.19026" pt_clust_4="30.23057" pt_clust_5="72.84421" pt_clust_6="30.23057"></scales>
<clustering>
<clus scale="   30.231">  4  6 -1 -1</clus>
<clus scale="   72.844">  1  5  2 -1</clus>
<clus scale="   77.190">  2  3  1 -1</clus>
<clus scale="   72.844">  1  3  2 -1</clus>
</clustering>
</event>
<event>
 6    0  0.6207838E+002  0.1286397E+03  0.7546771E-02  0.1229488E+00
         21   -1    0    0  505  501  0.00000000000E+00  0.00000000000E+00  0.43512745492E+03  0.43512745492E+03  0.00000000000E+00 0.  1.
         21   -1    0    0  506  502 -0.00000000000E+00 -0.00000000000E+00 -0.90343170844E+03  0.90343170844E+03  0.00000000000E+00 0. -1.
         21    1    1    2  503  501 -0.39633687140E+02  0.47108169001E+01  0.39650130963E+03  0.39850509343E+03  0.00000000000E+00 0.  1.
         21    1    1    2  504  503  0.63091005712E+02  0.87043616329E+02 -0.40022337524E+03  0.41441020286E+03  0.00000000000E+00 0. -1.
         21    1    1    2  505  502 -0.19116878841E+02 -0.13527457641E+03 -0.13123378149E+03  0.18943856915E+03  0.00000000000E+00 0. -1.
         21    1    1    2  506  504 -0.43404397310E+01  0.43520143180E+02 -0.33334840643E+03  0.33620529792E+03  0.00000000000E+00 0.  1.
<scales pt_clust_3="39.91267" pt_clust_4="128.63967" pt_clust_5="14000.00000" pt_clust_6="44.08819"></scales>
<clustering>
<clus scale="   39.913">  1  3  2 -1</clus>
<clus scale="   44.088">  2  6  1 -1</clus>
<clus scale="  128.640">  2  4  1 -1</clus>
<clus scale="   39.913">  1  3  2 -1</clus>
</clustering>
</event>
<event>
 6    0  0.6207838E+002  0.2763975E+03  0.7546771E-02  0.1097673E+00
         21   -1    0    0  504  501  0.00000000000E+00  0.00000000000E+00  0.14968183611E+03  0.14968183611E+03  0.00000000000E+00 0. -1.
         21   -1    0    0  506  502 -0.00000000000E+00 -0.00000000000E+00 -0.13912585745E+04  0.13912585745E+04  0.00000000000E+00 0. -1.
         21    1    1    2  503  501 -0.19737723750E+03 -0.26602227390E+02  0.17626779154E+02  0.19994038043E+03  0.00000000000E+00 0. -1.
         21    1    1    2  504  502  0.26013857089E+03  0.65989764448E+02 -0.10513400167E+04  0.10850541719E+04  0.00000000000E+00 0. -1.
         21    1    1    2  505  503 -0.68584185567E+02  0.56991969150E+01 -0.35009480027E+02  0.77213567766E+02  0.00000000000E+00 0. -1.
         21    1    1    2  506  505  0.58228521674E+01 -0.45086733973E+02 -0.17285402076E+03  0.17873229054E+03  0.00000000000E+00 0. -1.
<scales pt_clust_3="42.95522" pt_clust_4="266.56305" pt_clust_5="42.95522" pt_clust_6="45.46118"></scales>
<clustering>
<clus scale="   42.955">  3  5 -1 -1</clus>
<clus scale="   45.461">  2  6  1 -1</clus>
<clus scale="  266.563">  2  4  1 -1</clus>
<clus scale="  276.398">  1  3  2 -1</clus>
</clustering>
</event>
<event>
 6    0  0.6207838E+002  0.1771199E+03  0.7546771E-02  0.1170620E+00
         21   -1    0    0  503  501  0.00000000000E+00  0.00000000000E+00  0.11008026795E+03  0.11008026795E+03  0.00000000000E+00 0. -1.
         21   -1    0    0  504  502 -0.00000000000E+00 -0.00000000000E+00 -0.19804739394E+04  0.19804739394E+04  0.00000000000E+00 0. -1.
         21    1    1    2  503  505 -0.18191888915E+03  0.68911053964E+01  0.19590177719E+01  0.18205990034E+03  0.00000000000E+00 0. -1.
         21    1    1    2  504  506  0.60656657883E+02  0.38529848136E+02 -0.29744179383E+03  0.30599901971E+03  0.00000000000E+00 0. -1.
         21    1    1    2  505  502 -0.19060274134E+01  0.94759532202E+02 -0.79212274514E+03  0.79777280302E+03  0.00000000000E+00 0. -1.
         21    1    1    2  506  501  0.12316825868E+03 -0.14018048573E+03 -0.78278815020E+03  0.80472248423E+03  0.00000000000E+00 0. -1.
<scales pt_clust_3="177.11989" pt_clust_4="71.85944" pt_clust_5="116.14312" pt_clust_6="14000.00000"></scales>
<clustering>
<clus scale="   71.859">  2  4  1 -1</clus>
<clus scale="  116.143">  2  5  1 -1</clus>
<clus scale="  177.120">  1  3  2 -1</clus>
<clus scale="  177.120">  1  3  2 -1</clus>
</clustering>
</event>
<event>
 6    0  0.6207838E+002  0.9986059E+02  0.7546771E-02  0.1280589E+00
         21   -1    0    0  504  501  0.00000000000E+00  0.00000000000E+00  0.27018890295E+03  0.27018890295E+03  0.00000000000E+00 0. -1.
         21   -1    0    0  505  502 -0.00000000000E+00 -0.00000000000E+00 -0.17661142932E+03  0.17661142932E+03  0.00000000000E+00 0. -1.
         21    1    1    2  503  506 -0.22385109540E+02 -0.69164647318E+02 -0.36138746540E+02  0.81184053664E+02  0.00000000000E+00 0. -1.
         21    1    1    2  504  503  0.62114891837E+00  0.12390887481E+03  0.13570406849E+03  0.18376449408E+03  0.00000000000E+00 0. -1.
         21    1    1    2  505  501  0.35132546743E+02 -0.21359609503E+02  0.79281698077E+02  0.89309105968E+02  0.00000000000E+00 0. -1.
         21    1    1    2  506  502 -0.13368586121E+02 -0.33384617988E+02 -0.85269546391E+02  0.92542678559E+02  0.00000000000E+00 0. -1.
<scales pt_clust_3="99.86059" pt_clust_4="14000.00000" pt_clust_5="41.50403" pt_clust_6="35.96181"></scales>
<clustering>
<clus scale="   35.962">  2  6  1 -1</clus>
<clus scale="   41.504">  1  5  2 -1</clus>
<clus scale="   99.861">  2  3  1 -1</clus>
<clus scale="   41.504">  1  3  2 -1</clus>
</clustering>
</event>
<event>
 6    0  0.6207838E+002  0.1848259E+03  0.7546771E-02  0.1163213E+00
         21   -1    0    0  504  501  0.00000000000E+00  0.00000000000E+00  0.78603023448E+03  0.78603023448E+03  0.00000000000E+00 0.  1.
         21   -1    0    0  503  502 -0.00000000000E+00 -0.00000000000E+00 -0.16825251621E+03  0.16825251621E+03  0.00000000000E+00 0. -1.
         21    1    1    2  503  506  0.20540616290E+02  0.59289420092E+02  0.10492524555E+03  0.12225571318E+03  0.00000000000E+00 0.  1.
         21    1    1    2  504  505 -0.14571764448E+03  0.29458793226E+02  0.44080804292E+03  0.46520230343E+03  0.00000000000E+00 0.  1.
         21    1    1    2  505  502  0.13855049836E+03 -0.13445029264E+03 -0.78888549763E+02  0.20855820547E+03  0.00000000000E+00 0. -1.
         21    1    1    2  506  501 -0.13373470172E+02  0.45702079319E+02  0.15093297956E+03  0.15826652861E+03  0.00000000000E+00 0.  1.
<scales pt_clust_3="115.01868" pt_clust_4="14000.00000" pt_clust_5="184.82594" pt_clust_6="40.43780"></scales>
<clustering>
<clus scale="   40.438">  3  6 -1 -1</clus>
<clus scale="  115.019">  1  3  2 -1</clus>
<clus scale="  184.826">  2  5  1 -1</clus>
<clus scale="  115.019">  1  3  2 -1</clus>
</clustering>
</event>
<event>
 6    0  0.6207838E+002  0.1507064E+03  0.7546771E-02  0.1199608E+00
         21   -1    0    0  504  501  0.00000000000E+00  0.00000000000E+00  0.67541788796E+02  0.67541788796E+02  0.00000000000E+00 0.  1.
         21   -1    0    0  505  502 -0.00000000000E+00 -0.00000000000E+00 -0.22438662103E+04  0.22438662103E+04  0.00000000000E+00 0.  1.
         21    1    1    2  503  501  0.65097052738E+02  0.13471722442E+03 -0.39556529774E+02  0.15476135137E+03  0.00000000000E+00 0.  1.
         21    1    1    2  504  506 -0.22933378246E+02 -0.17251579064E+03 -0.13597123179E+04  0.13708045905E+04  0.00000000000E+00 0.  1.
         21    1    1    2  505  503 -0.15256668665E+02  0.60885129639E+02 -0.67283028390E+03  0.67575169691E+03  0.00000000000E+00 0.  1.
         21    1    1    2  506  502 -0.26907005827E+02 -0.23086563425E+02 -0.10422528987E+03  0.11009036026E+03  0.00000000000E+00 0.  1.
<scales pt_clust_3="14000.00000" pt_clust_4="150.70640" pt_clust_5="58.62488" pt_clust_6="35.45386"></scales>
<clustering>
<clus scale="   35.454">  2  6  1 -1</clus>
<clus scale="   58.625">  2  5  1 -1</clus>
<clus scale="  150.706">  2  4  1 -1</clus>
<clus scale="  150.706">  1  3  2 -1</clus>
</clustering>
</event>
<event>
 6    0  0.6207838E+002  0.1015365E+03  0.7546771E-02  0.1277098E+00
         21   -1    0    0  505  501  0.00000000000E+00  0.00000000000E+00  0.52657154856E+02  0.52657154856E+02  0.00000000000E+00 0. -1.
         21   -1    0    0  503  502 -0.00000000000E+00 -0.00000000000E+00 -0.18789079575E+04  0.18789079575E+04  0.00000000000E+00 0.  1.
         21    1    1    2  503  506 -0.10560879392E+03  0.52728757736E+02 -0.67822710912E+03  0.68842250892E+03  0.00000000000E+00 0.  1.
         21    1    1    2  504  501  0.12393349513E+02 -0.49566160048E+02  0.21364275417E+02  0.55378981556E+02  0.00000000000E+00 0. -1.
         21    1    1    2  505  502 -0.55299305791E+00 -0.41798954585E+02 -0.88228710872E+03  0.88327685390E+03  0.00000000000E+00 0.  1.
         21    1    1    2  506  504  0.93768437467E+02  0.38636356897E+02 -0.28710086024E+03  0.30448676800E+03  0.00000000000E+00 0.  1.
<scales pt_clust_3="101.53646" pt_clust_4="51.78244" pt_clust_5="41.80261" pt_clust_6="14000.00000"></scales>
<clustering>
<clus scale="   41.803">  2  5  1 -1</clus>
<clus scale="   51.782">  1  4  2 -1</clus>
<clus scale="  101.536">  2  3  1 -1</clus>
<clus scale="   51.782">  1  3  2 -1</clus>
</clustering>
</event>
<event>
 6    0  0.6207838E+002  0.1582810E+03  0.7546771E-02  0.1190651E+00
         21   -1    0    0  503  501  0.00000000000E+00  0.00000000000E+00  0.90283543236E+03  0.90283543236E+03  0.00000000000E+00 0. -1.
         21   -1    0    0  506  502 -0.00000000000E+00 -0.00000000000E+00 -0.16346308443E+03  0.16346308443E+03  0.00000000000E+00 0. -1.
         21    1    1    2  503  504  0.10681271445E+03  0.82453620527E+02  0.56814419960E+03  0.58394810304E+03  0.00000000000E+00 0. -1.
         21    1    1    2  504  505  0.24442307470E+02 -0.19225101674E+03  0.17660503088E+03  0.26219690456E+03  0.00000000000E+00 0. -1.
         21    1    1    2  505  502 -0.67189319518E+02  0.11839631008E+03 -0.46133428131E+02  0.14373720496E+03  0.00000000000E+00 0. -1.
         21    1    1    2  506  501 -0.64065702404E+02 -0.85989138740E+01  0.40756545593E+02  0.76416304235E+02  0.00000000000E+00 0.  1.
<scales pt_clust_3="131.91027" pt_clust_4="14000.00000" pt_clust_5="158.28096" pt_clust_6="64.64020"></scales>
<clustering>
<clus scale="   64.640">  2  6  1 -1</clus>
<clus scale="  131.910">  1  3  2 -1</clus>
<clus scale="  158.281">  2  5  1 -1</clus>
<clus scale="  131.910">  1  3  2 -1</clus>
</clustering>
</event>
<event>
 6    0  0.6207838E+002  0.9740791E+02  0.7546771E-02  0.1285843E+00
         21   -1    0    0  506  501  0.00000000000E+00  0.00000000000E+00  0.62377830006E+02  0.62377830006E+02  0.00000000000E+00 0.  1.
         21   -1    0    0  503  502 -0.00000000000E+00 -0.00000000000E+00 -0.42026382283E+03  0.42026382283E+03  0.00000000000E+00 0.  1.
         21    1    1    2  503  505  0.43542776983E+02 -0.11248257229E+03 -0.19430147223E+03  0.22869491601E+03  0.00000000000E+00 0.  1.
         21    1    1    2  504  502  0.31311732411E+02  0.18774583863E+01 -0.39566626911E+02  0.50492250907E+02  0.00000000000E+00 0.  1.
         21    1    1    2  505  501 -0.45299460433E+02  0.79171638384E+02 -0.23688015639E+02  0.94240710549E+02  0.00000000000E+00 0.  1.
         21    1    1    2  506  504 -0.29555048961E+02  0.31433475523E+02 -0.10032987805E+03  0.10921377538E+03  0.00000000000E+00 0.  1.
<scales pt_clust_3="14000.00000" pt_clust_4="31.36797" pt_clust_5="97.40791" pt_clust_6="38.13719"></scales>
<clustering>
<clus scale="   31.368">  2  4  1 -1</clus>
<clus scale="   38.137">  2  6  1 -1</clus>
<clus scale="   97.408">  1  5  2 -1</clus>
<clus scale="   97.408">  1  3  2 -1</clus>
</clustering>
</event>
<event>
 6    0  0.6207838E+002  0.9289384E+02  0.7546771E-02  0.1295991E+00
         21   -1    0    0  506  501  0.00000000000E+00  0.00000000000E+00  0.78846259156E+03  0.78846259156E+03  0.00000000000E+00 0.  1.
         21   -1    0    0  504  502 -0.00000000000E+00 -0.00000000000E+00 -0.69037117763E+02  0.69037117763E+02  0.00000000000E+00 0.  1.
         21    1    1    2  503  505 -0.58780519302E+02  0.12610514964E+03  0.35868123287E+03  0.38472052847E+03  0.00000000000E+00 0.  1.
         21    1    1    2  504  501 -0.26531034387E+02 -0.27867751549E+02  0.53742186595E+02  0.66096368902E+02  0.00000000000E+00 0.  1.
         21    1    1    2  505  502  0.38776354600E+02 -0.59786087090E+02 -0.20113346304E+02  0.74044098922E+02  0.00000000000E+00 0.  1.
         21    1    1    2  506  503  0.46535199090E+02 -0.38451310997E+02  0.32711540064E+03  0.33263871303E+03  0.00000000000E+00 0.  1.
<scales pt_clust_3="92.89384" pt_clust_4="38.47736" pt_clust_5="14000.00000" pt_clust_6="60.27070"></scales>
<clustering>
<clus scale="   38.477">  2  4  1 -1</clus>
<clus scale="   60.271">  1  6  2 -1</clus>
<clus scale="   92.894">  1  3  2 -1</clus>
<clus scale="   60.271">  1  3  2 -1</clus>
</clustering>
</event>
<event>
 6    0  0.6207838E+002  0.9144160E+02  0.7546771E-02  0.1299398E+00
         21   -1    0    0  502  501  0.00000000000E+00  0.00000000000E+00  0.17041891941E+02  0.17041891941E+02  0.00000000000E+00 0. -1.
         21   -1    0    0  505  502 -0.00000000000E+00 -0.00000000000E+00 -0.22147215903E+04  0.22147215903E+04  0.00000000000E+00 0. -1.
         21    1    1    2  503  501 -0.26796348512E+02  0.91899410890E+02 -0.17026583606E+03  0.19533049159E+03  0.00000000000E+00 0. -1.
         21    1    1    2  504  503 -0.43253908717E+02 -0.85512898175E+02 -0.70616096346E+03  0.71263361041E+03  0.00000000000E+00 0. -1.
         21    1    1    2  505  506  0.33435667558E+02  0.17393930603E+02 -0.70035418692E+03  0.70136757825E+03  0.00000000000E+00 0. -1.
         21    1    1    2  506  504  0.36614589671E+02 -0.23780443317E+02 -0.62089871197E+03  0.62243180204E+03  0.00000000000E+00 0. -1.
<scales pt_clust_3="91.44160" pt_clust_4="14000.00000" pt_clust_5="37.68942" pt_clust_6="53.02284"></scales>
<clustering>
<clus scale="   37.689">  2  5  1 -1</clus>
<clus scale="   53.023">  2  6  1 -1</clus>
<clus scale="   91.442">  1  3  2 -1</clus>
<clus scale="   91.442">  1  3  2 -1</clus>
</clustering>
</event>
<event>
 6    0  0.6207838E+002  0.9546489E+02  0.7546771E-02  0.1290132E+00
         21   -1    0    0  503  501  0.00000000000E+00  0.00000000000E+00  0.81598115682E+03  0.81598115682E+03  0.00000000000E+00 0. -1.
         21   -1    0    0  504  502 -0.00000000000E+00 -0.00000000000E+00 -0.26626952895E+03  0.26626952895E+03  0.00000000000E+00 0. -1.
         21    1    1    2  503  506  0.29628204111E+02 -0.51621018511E+01  0.75486185539E+03  0.75546071936E+03  0.00000000000E+00 0. -1.
         21    1    1    2  504  505 -0.86911016876E+02  0.21492354733E+02 -0.91337924604E+02  0.12789864205E+03  0.00000000000E+00 0. -1.
         21    1    1    2  505  501 -0.47556514096E+02 -0.20937026922E+02 -0.13426471749E+02  0.53667972507E+02  0.00000000000E+00 0. -1.
         21    1    1    2  506  502  0.10483932686E+03  0.46067740403E+01 -0.10038583117E+03  0.14522335185E+03  0.00000000000E+00 0. -1.
<scales pt_clust_3="30.07454" pt_clust_4="95.46489" pt_clust_5="44.02508" pt_clust_6="14000.00000"></scales>
<clustering>
<clus scale="   30.075">  1  3  2 -1</clus>
<clus scale="   44.025">  1  5  2 -1</clus>
<clus scale="   95.465">  2  4  1 -1</clus>
<clus scale="   30.075">  1  3  2 -1</clus>
</clustering>
</event>
<event>
 6    0  0.6207838E+002  0.9230186E+02  0.7546771E-02  0.1297371E+00
         21   -1    0    0  503  501  0.00000000000E+00  0.00000000000E+00  0.16358001789E+03  0.16358001789E+03  0.00000000000E+00 0.  1.
         21   -1    0    0  506  502 -0.00000000000E+00 -0.00000000000E+00 -0.50330298960E+03  0.50330298960E+03  0.00000000000E+00 0. -1.
         21    1    1    2  503  505 -0.52407472916E+02 -0.82575877608E+02 -0.10986263819E+03  0.14708881008E+03  0.00000000000E+00 0. -1.
         21    1    1    2  504  501  0.37067813050E+02  0.15157786392E+02  0.12461678375E+03  0.13089355998E+03  0.00000000000E+00 0.  1.
         21    1    1    2  505  502 -0.80452457798E+01 -0.35173829936E+02 -0.19176226282E+03  0.19512736798E+03  0.00000000000E+00 0. -1.
         21    1    1    2  506  504  0.23384905646E+02  0.10259192115E+03 -0.16271485445E+03  0.19377326946E+03  0.00000000000E+00 0.  1.
<scales pt_clust_3="92.30186" pt_clust_4="39.83809" pt_clust_5="36.08219" pt_clust_6="14000.00000"></scales>
<clustering>
<clus scale="   36.082">  2  5  1 -1</clus>
<clus scale="   39.838">  1  4  2 -1</clus>
<clus scale="   92.302">  1  3  2 -1</clus>
<clus scale="   39.838">  1  3  2 -1</clus>
</clustering>
</event>
<event>
 6    0  0.6207838E+002  0.7346660E+02  0.7546771E-02  0.1348686E+00
         21   -1    0    0  504  501  0.00000000000E+00  0.00000000000E+00  0.37206787862E+03  0.37206787862E+03  0.00000000000E+00 0.  1.
         21   -1    0    0  505  502 -0.00000000000E+00 -0.00000000000E+00 -0.92980210652E+02  0.92980210652E+02  0.00000000000E+00 0.  1.
         21    1    1    2  503  501 -0.74071534663E+02  0.54576678980E+01  0.12256763706E+03  0.14331505169E+03  0.00000000000E+00 0.  1.
         21    1    1    2  504  502  0.21382015923E+02 -0.55303258044E+02  0.47186167411E+02  0.75777142663E+02  0.00000000000E+00 0.  1.
         21    1    1    2  505  506 -0.67955290367E+01 -0.64744284160E+02 -0.14898323216E+02  0.66782943788E+02  0.00000000000E+00 0.  1.
         21    1    1    2  506  503  0.59485047777E+02  0.11458987431E+03  0.12423218672E+03  0.17917295114E+03  0.00000000000E+00 0.  1.
<scales pt_clust_3="67.42601" pt_clust_4="59.29284" pt_clust_5="14000.00000" pt_clust_6="73.46660"></scales>
<clustering>
<clus scale="   59.293">  1  4  2 -1</clus>
<clus scale="   67.426">  1  3  2 -1</clus>
<clus scale="   73.467">  1  6  2 -1</clus>
<clus scale="   59.293">  1  3  2 -1</clus>
</clustering>
</event>
<event>
 6    0  0.6207838E+002  0.1187195E+03  0.7546771E-02  0.1245225E+00
         21   -1    0    0  503  501  0.00000000000E+00  0.00000000000E+00  0.86775394144E+02  0.86775394144E+02  0.00000000000E+00 0. -1.
         21   -1    0    0  505  502 -0.00000000000E+00 -0.00000000000E+00 -0.49808372021E+03  0.49808372021E+03  0.00000000000E+00 0. -1.
         21    1    1    2  503  504  0.10851058508E+03 -0.76534270791E+01 -0.55921244264E+00  0.10878159191E+03  0.00000000000E+00 0. -1.
         21    1    1    2  504  502  0.10154705277E+02  0.31485465966E+02 -0.10996154109E+03  0.11483027965E+03  0.00000000000E+00 0. -1.
         21    1    1    2  505  506 -0.11559181807E+03  0.38186249021E+02 -0.25962435315E+03  0.28674808241E+03  0.00000000000E+00 0. -1.
         21    1    1    2  506  501 -0.30734722855E+01 -0.62018287908E+02 -0.41163219388E+02  0.74499160380E+02  0.00000000000E+00 0.  1.
<scales pt_clust_3="14000.00000" pt_clust_4="33.08251" pt_clust_5="118.71952" pt_clust_6="57.31825"></scales>
<clustering>
<clus scale="   33.083">  2  4  1 -1</clus>
<clus scale="   57.318">  1  6  2 -1</clus>
<clus scale="  118.720">  2  5  1 -1</clus>
<clus scale="   57.318">  1  3  2 -1</clus>
</clustering>
</event>
<event>
 6    0  0.6207838E+002  0.1147933E+03  0.7546771E-02  0.1251942E+00
         21   -1    0    0  506  501  0.00000000000E+00  0.00000000000E+00  0.94707056053E+03  0.94707056053E+03  0.00000000000E+00 0.  1.
         21   -1    0    0  503  502 -0.00000000000E+00 -0.00000000000E+00 -0.13635269255E+03  0.13635269255E+03  0.00000000000E+00 0.  1.
         21    1    1    2  503  501  0.21009189846E+02 -0.54340864435E+02 -0.11520459206E+03  0.12909846489E+03  0.00000000000E+00 0.  1.
         21    1    1    2  504  505 -0.84690413976E+02  0.25078501720E+02  0.41225943950E+03  0.42161504115E+03  0.00000000000E+00 0.  1.
         21    1    1    2  505  502 -0.30498335930E+02  0.23453472264E+02  0.78337412742E+02  0.87275220372E+02  0.00000000000E+00 0.  1.
         21    1    1    2  506  504  0.94179560060E+02  0.58088904515E+01  0.43532560780E+03  0.44543452667E+03  0.00000000000E+00 0.  1.
<scales pt_clust_3="58.26076" pt_clust_4="34.04061" pt_clust_5="34.04061" pt_clust_6="102.55382"></scales>
<clustering>
<clus scale="   34.041">  4  5 -1 -1</clus>
<clus scale="   58.261">  2  3  1 -1</clus>
<clus scale="  102.554">  1  6  2 -1</clus>
<clus scale="  102.554">  1  3  2 -1</clus>
</clustering>
</event>
<event>
 6    0  0.6207838E+002  0.1131852E+03  0.7546771E-02  0.1254783E+00
         21   -1    0    0  504  501  0.00000000000E+00  0.00000000000E+00  0.28639247771E+03  0.28639247771E+03  0.00000000000E+00 0. -1.
         21   -1    0    0  503  502 -0.00000000000E+00 -0.00000000000E+00 -0.19983965811E+03  0.19983965811E+03  0.00000000000E+00 0. -1.
         21    1    1    2  503  505  0.15589964518E+02 -0.28510553465E+02 -0.12806600283E+02  0.34927176573E+02  0.00000000000E+00 0. -1.
         21    1    1    2  504  506 -0.60296177426E+02 -0.88183581824E+02  0.18530425621E+03  0.21389165595E+03  0.00000000000E+00 0. -1.
         21    1    1    2  505  501  0.89205440373E+02  0.14372529203E+03 -0.68517686318E+02  0.18250820118E+03  0.00000000000E+00 0. -1.
         21    1    1    2  506  502 -0.44499227465E+02 -0.27031156740E+02 -0.17427150018E+02  0.54905102107E+02  0.00000000000E+00 0. -1.
<scales pt_clust_3="32.49459" pt_clust_4="14000.00000" pt_clust_5="113.18521" pt_clust_6="52.79287"></scales>
<clustering>
<clus scale="   32.495">  2  3  1 -1</clus>
<clus scale="   52.793">  2  6  1 -1</clus>
<clus scale="  113.185">  2  5  1 -1</clus>
<clus scale="  113.185">  1  3  2 -1</clus>
</clustering>
</event>
<event>
 6    0  0.6207838E+002  0.1286635E+03  0.7546771E-02  0.1229452E+00
         21   -1    0    0  506  501  0.00000000000E+00  0.00000000000E+00  0.75892728826E+03  0.75892728826E+03  0.00000000000E+00 0.  1.
         21   -1    0    0  504  502 -0.00000000000E+00 -0.00000000000E+00 -0.30692006016E+03  0.30692006016E+03  0.00000000000E+00 0. -1.
         21    1    1    2  503  502 -0.26949392341E+02  0.76051474891E+02  0.30299448432E+03  0.31355343103E+03  0.00000000000E+00 0. -1.
         21    1    1    2  504  505  0.43725665042E+01 -0.12295776697E+03 -0.26784847113E+03  0.29475504285E+03  0.00000000000E+00 0. -1.
         21    1    1    2  505  501  0.18085104582E+02 -0.51178293363E+02  0.38249669951E+02  0.66402755746E+02  0.00000000000E+00 0.  1.
         21    1    1    2  506  503  0.44917212544E+01  0.98084585442E+02  0.37861154495E+03  0.39113611880E+03  0.00000000000E+00 0.  1.
<scales pt_clust_3="31.04514" pt_clust_4="124.02190" pt_clust_5="54.27973" pt_clust_6="31.04514"></scales>
<clustering>
<clus scale="   31.045">  3  6 -1 -1</clus>
<clus scale="   54.280">  1  5  2 -1</clus>
<clus scale="  124.022">  2  4  1 -1</clus>
<clus scale="   54.280">  1  3  2 -1</clus>
</clustering>
</event>
<event>
 6    0  0.6207838E+002  0.2145018E+03  0.7546771E-02  0.1138050E+00
         21   -1    0    0  504  501  0.00000000000E+00  0.00000000000E+00  0.10313483280E+03  0.10313483280E+03  0.00000000000E+00 0.  1.
         21   -1    0    0  505  502 -0.00000000000E+00 -0.00000000000E+00 -0.69894718116E+03  0.69894718116E+03  0.00000000000E+00 0.  1.
         21    1    1    2  503  506  0.10266756946E+03 -0.56053897395E+02 -0.13318773153E+03  0.17726150474E+03  0.00000000000E+00 0.  1.
         21    1    1    2  504  503 -0.16738106802E+03  0.11180194560E+03 -0.89537393627E+02  0.22030216029E+03  0.00000000000E+00 0.  1.
         21    1    1    2  505  501  0.29929586778E+02  0.33000484857E+02 -0.21779153666E+03  0.22230151958E+03  0.00000000000E+00 0.  1.
         21    1    1    2  506  502  0.34783911781E+02 -0.88748533060E+02 -0.15529568655E+03  0.18221682936E+03  0.00000000000E+00 0.  1.
<scales pt_clust_3="67.33243" pt_clust_4="199.67399" pt_clust_5="44.55123" pt_clust_6="67.33243"></scales>
<clustering>
<clus scale="   44.551">  2  5  1 -1</clus>
<clus scale="   67.332">  3  6 -1 -1</clus>
<clus scale="  199.674">  1  4  2 -1</clus>
<clus scale="  199.674">  1  3  2 -1</clus>
</clustering>
</event>
<event>
 6    0  0.6207838E+002  0.1328498E+03  0.7546771E-02  0.1223287E+00
         21   -1    0    0  505  501  0.00000000000E+00  0.00000000000E+00  0.16321058757E+03  0.16321058757E+03  0.00000000000E+00 0.  1.
         21   -1    0    0  504  502 -0.00000000000E+00 -0.00000000000E+00 -0.52295937085E+03  0.52295937085E+03  0.00000000000E+00 0. -1.
         21    1    1    2  503  506 -0.19192455942E+02 -0.94318735804E+02 -0.22960052166E+03  0.24895938190E+03  0.00000000000E+00 0. -1.
         21    1    1    2  504  501  0.38238281095E+02  0.17053525247E+02 -0.44127024240E+02  0.60829130626E+02  0.00000000000E+00 0. -1.
         21    1    1    2  505  503 -0.32411945015E+02  0.11542662030E+03  0.11810245177E+03  0.16829149701E+03  0.00000000000E+00 0.  1.
         21    1    1    2  506  502  0.13366119862E+02 -0.38161409738E+02 -0.20412368915E+03  0.20808994888E+03  0.00000000000E+00 0. -1.
<scales pt_clust_3="36.62140" pt_clust_4="41.86871" pt_clust_5="120.23560" pt_clust_6="36.62140"></scales>
<clustering>
<clus scale="   36.621">  3  6 -1 -1</clus>
<clus scale="   41.869">  2  4  1 -1</clus>
<clus scale="  120.236">  1  5  2 -1</clus>
<clus scale="  120.236">  1  3  2 -1</clus>
</clustering>
</event>
<event>
 6    0  0.6207838E+002  0.1397538E+03  0.7546771E-02  0.1213661E+00
         21   -1    0    0  504  501  0.00000000000E+00  0.00000000000E+00  0.23714603304E+04  0.23714603304E+04  0.00000000000E+00 0.  1.
         21   -1    0    0  503  502 -0.00000000000E+00 -0.00000000000E+00 -0.60324695333E+03  0.60324695333E+03  0.00000000000E+00 0.  1.
         21    1    1    2  503  505 -0.67889736236E+02 -0.54851542792E+01 -0.46770631024E+03  0.47263971039E+03  0.00000000000E+00 0.  1.
         21    1    1    2  504  502  0.70295152993E+02 -0.28780160286E+02  0.21926247630E+04  0.21939400761E+04  0.00000000000E+00 0.  1.
         21    1    1    2  505  506 -0.10334967089E+03 -0.14709360742E+02 -0.87208109454E+02  0.13602490258E+03  0.00000000000E+00 0.  1.
         21    1    1    2  506  501  0.10094425413E+03  0.48974675307E+02  0.13050303370E+03  0.17210259461E+03  0.00000000000E+00 0. -1.
<scales pt_clust_3="68.11096" pt_clust_4="75.65851" pt_clust_5="14000.00000" pt_clust_6="139.75379"></scales>
<clustering>
<clus scale="   68.111">  2  3  1 -1</clus>
<clus scale="   75.659">  1  4  2 -1</clus>
<clus scale="  139.754">  1  6  2 -1</clus>
<clus scale="   75.659">  1  3  2 -1</clus>
</clustering>
</event>
<event>
 6    0  0.6207838E+002  0.1323921E+03  0.7546771E-02  0.1223949E+00
         21   -1    0    0  503  501  0.00000000000E+00  0.00000000000E+00  0.10676624986E+04  0.10676624986E+04  0.00000000000E+00 0.  1.
         21   -1    0    0  505  502 -0.00000000000E+00 -0.00000000000E+00 -0.23415271897E+02  0.23415271897E+02  0.00000000000E+00 0.  1.
         21    1    1    2  503  504 -0.97186173589E+02  0.53129744478E+01  0.41721273248E+03  0.42841550412E+03  0.00000000000E+00 0.  1.
         21    1    1    2  504  506 -0.47080976883E+02  0.35076686734E+01  0.86140554607E+02  0.98229920451E+02  0.00000000000E+00 0.  1.
         21    1    1    2  505  501  0.37839743282E+02  0.38706501022E+01  0.27705275818E+03  0.27965167427E+03  0.00000000000E+00 0. -1.
         21    1    1    2  506  502  0.10642740719E+03 -0.12691293223E+02  0.26384118143E+03  0.28478067164E+03  0.00000000000E+00 0.  1.
<scales pt_clust_3="41.45994" pt_clust_4="41.45994" pt_clust_5="38.03719" pt_clust_6="120.11503"></scales>
<clustering>
<clus scale="   38.037">  1  5  2 -1</clus>
<clus scale="   41.460">  3  4 -1 -1</clus>
<clus scale="  120.115">  2  6  1 -1</clus>
<clus scale="   38.037">  1  3  2 -1</clus>
</clustering>
</event>
<event>
 6    0  0.6207838E+002  0.1208681E+03  0.7546771E-02  0.1241672E+00
         21   -1    0    0  506  501  0.00000000000E+00  0.00000000000E+00  0.25738655650E+03  0.25738655650E+03  0.00000000000E+00 0. -1.
         21   -1    0    0  505  502 -0.00000000000E+00 -0.00000000000E+00 -0.82822658630E+03  0.82822658630E+03  0.00000000000E+00 0.  1.
         21    1    1    2  503  502 -0.23849575873E+02  0.54670275084E+02 -0.17466158614E+03  0.18456519423E+03  0.00000000000E+00 0.  1.
         21    1    1    2  504  503  0.67484903945E+02  0.28266873398E+02 -0.25784560456E+03  0.26802534243E+03  0.00000000000E+00 0.  1.
         21    1    1    2  505  501  0.39570238788E+01  0.32635453406E+02 -0.36911065928E+03  0.37057173348E+03  0.00000000000E+00 0.  1.
         21    1    1    2  506  504 -0.47592351951E+02 -0.11557260189E+03  0.23077782018E+03  0.26245087266E+03  0.00000000000E+00 0. -1.
<scales pt_clust_3="71.04820" pt_clust_4="14000.00000" pt_clust_5="32.87447" pt_clust_6="120.86808"></scales>
<clustering>
<clus scale="   32.874">  2  5  1 -1</clus>
<clus scale="   71.048">  2  3  1 -1</clus>
<clus scale="  120.868">  1  6  2 -1</clus>
<clus scale="  120.868">  1  3  2 -1</clus>
</clustering>
</event>
<event>
 6    0  0.6499878E+002  0.1105372E+03  0.7546771E-02  0.1259578E+00
         21   -1    0    0  503  501  0.00000000000E+00  0.00000000000E+00  0.85473493099E+03  0.85473493099E+03  0.00000000000E+00 0.  1.
         21   -1    0    0  506  502 -0.00000000000E+00 -0.00000000000E+00 -0.17930275229E+03  0.17930275229E+03  0.00000000000E+00 0.  1.
         21    1    1    2  503  504  0.63566680436E+02 -0.27876588353E+02  0.57218165397E+02  0.89954129929E+02  0.00000000000E+00 0.  1.
         21    1    1    2  504  502  0.31258825768E+02 -0.21415887872E+02 -0.14679397790E+03  0.15160549591E+03  0.00000000000E+00 0.  1.
         21    1    1    2  505  501 -0.91094062835E+02  0.85395210545E+02  0.73457833215E+03  0.74511461960E+03  0.00000000000E+00 0.  1.
         21    1    1    2  506  505 -0.37314433690E+01 -0.36102734320E+02  0.30429659052E+02  0.47363437851E+02  0.00000000000E+00 0.  1.
<scales pt_clust_3="14000.00000" pt_clust_4="59.89411" pt_clust_5="110.53717" pt_clust_6="36.29506"></scales>
<clustering>
<clus scale="   36.295">  2  6  1 -1</clus>
<clus scale="   59.894">  2  4  1 -1</clus>
<clus scale="  110.537">  1  5  2 -1</clus>
<clus scale="  110.537">  1  3  2 -1</clus>
</clustering>
</event>
<event>
 6    0  0.6207838E+002  0.1069696E+03  0.7546771E-02  0.1266287E+00
         21   -1    0    0  503  501  0.00000000000E+00  0.00000000000E+00  0.60848957754E+03  0.60848957754E+03  0.00000000000E+00 0.  1.
         21   -1    0    0  505  502 -0.00000000000E+00 -0.00000000000E+00 -0.40021618541E+03  0.40021618541E+03  0.00000000000E+00 0. -1.
         21    1    1    2  503  506  0.29338309029E+02 -0.30649520738E+02  0.51361927873E+03  0.51536869616E+03  0.00000000000E+00 0.  1.
         21    1    1    2  504  502 -0.26751467124E+01  0.85522428369E+02  0.41043465285E+02  0.94898936805E+02  0.00000000000E+00 0.  1.
         21    1    1    2  505  501  0.83853481812E-01 -0.91378146902E+02 -0.34080131339E+03  0.35283920980E+03  0.00000000000E+00 0. -1.
         21    1    1    2  506  504 -0.26747015798E+02  0.36505239271E+02 -0.55880384875E+01  0.45598920190E+02  0.00000000000E+00 0. -1.
<scales pt_clust_3="42.42793" pt_clust_4="37.97193" pt_clust_5="93.36140" pt_clust_6="37.97193"></scales>
<clustering>
<clus scale="   37.972">  4  6 -1 -1</clus>
<clus scale="   42.428">  1  3  2 -1</clus>
<clus scale="   93.361">  2  5  1 -1</clus>
<clus scale="   42.428">  1  3  2 -1</clus>
</clustering>
</event>
<event>
 6    0  0.6207838E+002  0.1042720E+03  0.7546771E-02  0.1271561E+00
         21   -1    0    0  505  501  0.00000000000E+00  0.00000000000E+00  0.22417520163E+03  0.22417520163E+03  0.00000000000E+00 0.  1.
         21   -1    0    0  506  502 -0.00000000000E+00 -0.00000000000E+00 -0.17824879953E+03  0.17824879953E+03  0.00000000000E+00 0.  1.
         21    1    1    2  503  501  0.22546136308E+02 -0.25919607318E+02  0.16853255282E+02  0.38264690245E+02  0.00000000000E+00 0. -1.
         21    1    1    2  504  503  0.37080020693E+02 -0.26969068716E+02  0.94293016861E+02  0.10484956667E+03  0.00000000000E+00 0.  1.
         21    1    1    2  505  502 -0.11208751158E+03 -0.25460376343E+02 -0.10620450670E+03  0.15649676757E+03  0.00000000000E+00 0.  1.
         21    1    1    2  506  504  0.52461354577E+02  0.78349052377E+02  0.40984636658E+02  0.10281297668E+03  0.00000000000E+00 0.  1.
<scales pt_clust_3="34.35337" pt_clust_4="62.92607" pt_clust_5="14000.00000" pt_clust_6="104.27198"></scales>
<clustering>
<clus scale="   34.353">  1  3  2 -1</clus>
<clus scale="   62.926">  1  4  2 -1</clus>
<clus scale="  104.272">  1  6  2 -1</clus>
<clus scale="   34.353">  1  3  2 -1</clus>
</clustering>
</event>
<event>
 6    0  0.6207838E+002  0.7750086E+02  0.7546771E-02  0.1336297E+00
         21   -1    0    0  506  501  0.00000000000E+00  0.00000000000E+00  0.79983550422E+02  0.79983550422E+02  0.00000000000E+00 0.  1.
         21   -1    0    0  505  502 -0.00000000000E+00 -0.00000000000E+00 -0.10604828223E+04  0.10604828223E+04  0.00000000000E+00 0.  1.
         21    1    1    2  503  504 -0.54847741916E+02 -0.52303616959E+02 -0.12904071417E+03  0.14965109106E+03  0.00000000000E+00 0.  1.
         21    1    1    2  504  501 -0.21008125306E+02  0.51067349692E+02  0.45643860910E+02  0.71642009828E+02  0.00000000000E+00 0.  1.
         21    1    1    2  505  503 -0.30307375340E+02  0.39995672621E+02 -0.58659483277E+03  0.58873736815E+03  0.00000000000E+00 0.  1.
         21    1    1    2  506  502  0.10616324256E+03 -0.38759405354E+02 -0.31050758582E+03  0.33043590366E+03  0.00000000000E+00 0.  1.
<scales pt_clust_3="77.50086" pt_clust_4="56.55471" pt_clust_5="50.18158" pt_clust_6="14000.00000"></scales>
<clustering>
<clus scale="   50.182">  2  5  1 -1</clus>
<clus scale="   56.555">  1  4  2 -1</clus>
<clus scale="   77.501">  1  3  2 -1</clus>
<clus scale="   56.555">  1  3  2 -1</clus>
</clustering>
</event>
<event>
 6    0  0.6207838E+002  0.8175181E+02  0.7546771E-02  0.1324152E+00
         21   -1    0    0  503  501  0.00000000000E+00  0.00000000000E+00  0.23740472103E+03  0.23740472103E+03  0.00000000000E+00 0. -1.
         21   -1    0    0  504  502 -0.00000000000E+00 -0.00000000000E+00 -0.44740731664E+03  0.44740731664E+03  0.00000000000E+00 0. -1.
         21    1    1    2  503  506  0.43687500271E+02  0.19681584249E+02  0.99577724714E+02  0.11050649618E+03  0.00000000000E+00 0. -1.
         21    1    1    2  504  505 -0.95002631075E+02  0.80945670609E+02  0.31941336532E+02  0.12883303335E+03  0.00000000000E+00 0. -1.
         21    1    1    2  505  501  0.11955501029E+02 -0.31087182055E+02  0.42063251245E+02  0.53653182555E+02  0.00000000000E+00 0. -1.
         21    1    1    2  506  502  0.39359629774E+02 -0.69540072803E+02 -0.38358490810E+03  0.39181932559E+03  0.00000000000E+00 0. -1.
<scales pt_clust_3="50.37275" pt_clust_4="14000.00000" pt_clust_5="33.30686" pt_clust_6="81.75181"></scales>
<clustering>
<clus scale="   33.307">  1  5  2 -1</clus>
<clus scale="   50.373">  1  3  2 -1</clus>
<clus scale="   81.752">  2  6  1 -1</clus>
<clus scale="   33.307">  1  3  2 -1</clus>
</clustering>
</event>
<event>
 6    0  0.6207838E+002  0.1066788E+03  0.7546771E-02  0.1266847E+00
         21   -1    0    0  506  501  0.00000000000E+00  0.00000000000E+00  0.21579394817E+04  0.21579394817E+04  0.00000000000E+00 0.  1.
         21   -1    0    0  505  502 -0.00000000000E+00 -0.00000000000E+00 -0.78880364349E+02  0.78880364349E+02  0.00000000000E+00 0.  1.
         21    1    1    2  503  504 -0.97082922306E+02  0.39434777130E+02  0.61039363592E+03  0.61932268344E+03  0.00000000000E+00 0.  1.
         21    1    1    2  504  501 -0.37796036550E+02  0.31750940492E+02  0.11085841784E+04  0.11096826318E+04  0.00000000000E+00 0.  1.
         21    1    1    2  505  503  0.47380658199E+02 -0.58172157677E+01 -0.58335499898E+02  0.75377697756E+02  0.00000000000E+00 0.  1.
         21    1    1    2  506  502  0.87498300657E+02 -0.65368501854E+02  0.41841680288E+03  0.43243683306E+03  0.00000000000E+00 0.  1.
<scales pt_clust_3="106.67882" pt_clust_4="47.54936" pt_clust_5="47.73643" pt_clust_6="14000.00000"></scales>
<clustering>
<clus scale="   47.736">  2  5  1 -1</clus>
<clus scale="   47.549">  1  4  2 -1</clus>
<clus scale="  106.679">  2  3  1 -1</clus>
<clus scale="   47.549">  1  3  2 -1</clus>
</clustering>
</event>
<event>
 6    0  0.6207838E+002  0.1187814E+03  0.7546771E-02  0.1245121E+00
         21   -1    0    0  504  501  0.00000000000E+00  0.00000000000E+00  0.34193877850E+03  0.34193877850E+03  0.00000000000E+00 0. -1.
         21   -1    0    0  501  502 -0.00000000000E+00 -0.00000000000E+00 -0.23514975657E+03  0.23514975657E+03  0.00000000000E+00 0.  1.
         21    1    1    2  503  502  0.34797517967E+02  0.42915408933E+02 -0.11779225509E+03  0.13010616795E+03  0.00000000000E+00 0.  1.
         21    1    1    2  504  505 -0.38426342163E+02  0.28937378826E+02  0.36874327087E+02  0.60610821339E+02  0.00000000000E+00 0.  1.
         21    1    1    2  505  506 -0.60109672430E+02  0.51650498356E+02  0.22823404139E+03  0.24160240965E+03  0.00000000000E+00 0. -1.
         21    1    1    2  506  503  0.63738496626E+02 -0.12350328611E+03 -0.40527091457E+02  0.14476913613E+03  0.00000000000E+00 0.  1.
<scales pt_clust_3="55.22335" pt_clust_4="48.10359" pt_clust_5="14000.00000" pt_clust_6="118.78142"></scales>
<clustering>
<clus scale="   48.104">  1  4  2 -1</clus>
<clus scale="   55.223">  2  3  1 -1</clus>
<clus scale="  118.781">  2  6  1 -1</clus>
<clus scale="   48.104">  1  3  2 -1</clus>
</clustering>
</event>
<event>
 6    0  0.6207838E+002  0.9894437E+02  0.7546771E-02  0.1282532E+00
         21   -1    0    0  504  501  0.00000000000E+00  0.00000000000E+00  0.69497299436E+03  0.69497299436E+03  0.00000000000E+00 0.  1.
         21   -1    0    0  503  502 -0.00000000000E+00 -0.00000000000E+00 -0.32376352670E+02  0.32376352670E+02  0.00000000000E+00 0.  1.
         21    1    1    2  503  506  0.66584533230E+02 -0.15011509975E+02  0.75660927895E+02  0.10189907510E+03  0.00000000000E+00 0.  1.
         21    1    1    2  504  505 -0.60169448397E+02 -0.18581425523E+02  0.18245033248E+03  0.19301232012E+03  0.00000000000E+00 0.  1.
         21    1    1    2  505  502 -0.44587646337E+02 -0.39696341401E+02  0.95756259586E+02  0.11284112272E+03  0.00000000000E+00 0.  1.
         21    1    1    2  506  501  0.38172561504E+02  0.73289276899E+02  0.30872912172E+03  0.31959682908E+03  0.00000000000E+00 0.  1.
<scales pt_clust_3="68.25574" pt_clust_4="41.04447" pt_clust_5="41.04447" pt_clust_6="89.51488"></scales>
<clustering>
<clus scale="   41.044">  4  5 -1 -1</clus>
<clus scale="   68.256">  2  3  1 -1</clus>
<clus scale="   89.515">  1  6  2 -1</clus>
<clus scale="   89.515">  1  3  2 -1</clus>
</clustering>
</event>
<event>
 6    0  0.6207838E+002  0.8016850E+02  0.7546771E-02  0.1328574E+00
         21   -1    0    0  504  501  0.00000000000E+00  0.00000000000E+00  0.45795547989E+03  0.45795547989E+03  0.00000000000E+00 0.  1.
         21   -1    0    0  505  502 -0.00000000000E+00 -0.00000000000E+00 -0.50000118455E+02  0.50000118455E+02  0.00000000000E+00 0.  1.
         21    1    1    2  503  502 -0.33423397996E+02 -0.13801314547E+02  0.59244438869E+01  0.36642855405E+02  0.00000000000E+00 0.  1.
         21    1    1    2  504  506 -0.19042143950E+02  0.37207354782E+02  0.88804882097E+02  0.98149363627E+02  0.00000000000E+00 0. -1.
         21    1    1    2  505  501 -0.22578161349E+01 -0.97102152073E+02  0.22833393533E+03  0.24813365691E+03  0.00000000000E+00 0.  1.
         21    1    1    2  506  503  0.54723358081E+02  0.73696111838E+02  0.84892100118E+02  0.12502972240E+03  0.00000000000E+00 0.  1.
<scales pt_clust_3="36.16075" pt_clust_4="42.47284" pt_clust_5="80.16850" pt_clust_6="14000.00000"></scales>
<clustering>
<clus scale="   36.161">  2  3  1 -1</clus>
<clus scale="   42.473">  1  4  2 -1</clus>
<clus scale="   80.169">  1  5  2 -1</clus>
<clus scale="   42.473">  1  3  2 -1</clus>
</clustering>
</event>
<event>
 6    0  0.6207838E+002  0.1314553E+03  0.7546771E-02  0.1225312E+00
         21   -1    0    0  505  501  0.00000000000E+00  0.00000000000E+00  0.12542134306E+04  0.12542134306E+04  0.00000000000E+00 0. -1.
         21   -1    0    0  501  502 -0.00000000000E+00 -0.00000000000E+00 -0.81568996431E+02  0.81568996431E+02  0.00000000000E+00 0.  1.
         21    1    1    2  503  502  0.24140414308E+02 -0.11140248026E+03 -0.20579060781E+02  0.11583078155E+03  0.00000000000E+00 0.  1.
         21    1    1    2  504  506  0.31244574558E+01  0.48460306259E+02  0.28569290419E+03  0.28979061238E+03  0.00000000000E+00 0.  1.
         21    1    1    2  505  504 -0.60021768899E+02 -0.29785158683E+02  0.66621234269E+03  0.66957348661E+03  0.00000000000E+00 0. -1.
         21    1    1    2  506  503  0.32756897135E+02  0.92727332686E+02  0.24131824808E+03  0.26058754650E+03  0.00000000000E+00 0. -1.
<scales pt_clust_3="115.44071" pt_clust_4="44.18620" pt_clust_5="67.00573" pt_clust_6="44.18620"></scales>
<clustering>
<clus scale="   44.186">  4  6 -1 -1</clus>
<clus scale="   67.006">  1  5  2 -1</clus>
<clus scale="  115.441">  2  3  1 -1</clus>
<clus scale="   67.006">  1  3  2 -1</clus>
</clustering>
</event>
<event>
 6    0  0.6207838E+002  0.7339386E+02  0.7546771E-02  0.1348918E+00
         21   -1    0    0  506  501  0.00000000000E+00  0.00000000000E+00  0.50742281869E+03  0.50742281869E+03  0.00000000000E+00 0. -1.
         21   -1    0    0  503  502 -0.00000000000E+00 -0.00000000000E+00 -0.18957773825E+03  0.18957773825E+03  0.00000000000E+00 0. -1.
         21    1    1    2  503  505  0.39183984993E+02  0.62952292901E+02 -0.12944431977E+03  0.14917844275E+03  0.00000000000E+00 0. -1.
         21    1    1    2  504  501 -0.41651513939E+02  0.75208243755E+02  0.29982673632E+03  0.31190896164E+03  0.00000000000E+00 0. -1.
         21    1    1    2  505  504  0.26014163534E+02 -0.91576683488E+02  0.18762694104E+02  0.97031254516E+02  0.00000000000E+00 0. -1.
         21    1    1    2  506  502 -0.23546634588E+02 -0.46583853168E+02  0.12869996979E+03  0.13888189803E+03  0.00000000000E+00 0.  1.
<scales pt_clust_3="73.39386" pt_clust_4="71.32031" pt_clust_5="14000.00000" pt_clust_6="52.19674"></scales>
<clustering>
<clus scale="   52.197">  1  6  2 -1</clus>
<clus scale="   71.320">  1  4  2 -1</clus>
<clus scale="   73.394">  2  3  1 -1</clus>
<clus scale="   52.197">  1  3  2 -1</clus>
</clustering>
</event>
<event>
 6    0  0.6207838E+002  0.1668020E+03  0.7546771E-02  0.1181224E+00
         21   -1    0    0  505  501  0.00000000000E+00  0.00000000000E+00  0.20818799979E+03  0.20818799979E+03  0.00000000000E+00 0. -1.
         21   -1    0    0  503  502 -0.00000000000E+00 -0.00000000000E+00 -0.10782696304E+04  0.10782696304E+04  0.00000000000E+00 0.  1.
         21    1    1    2  503  504 -0.47509107941E+02 -0.50722192243E+02  0.24354337286E+02  0.73640952383E+02  0.00000000000E+00 0. -1.
         21    1    1    2  504  501 -0.55027027906E+02 -0.11900260264E+03  0.10641119210E+03  0.16885773609E+03  0.00000000000E+00 0. -1.
         21    1    1    2  505  506  0.31325166567E+02  0.28459467123E+02 -0.14098335427E+02  0.44609084178E+02  0.00000000000E+00 0.  1.
         21    1    1    2  506  502  0.71210969280E+02  0.14126532776E+03 -0.98674882461E+03  0.99934985757E+03  0.00000000000E+00 0.  1.
<scales pt_clust_3="35.56202" pt_clust_4="35.56202" pt_clust_5="42.32266" pt_clust_6="159.49006"></scales>
<clustering>
<clus scale="   35.562">  3  4 -1 -1</clus>
<clus scale="   42.323">  1  5  2 -1</clus>
<clus scale="  159.490">  2  6  1 -1</clus>
<clus scale="   42.323">  1  3  2 -1</clus>
</clustering>
</event>
<event>
 6    0  0.6207838E+002  0.1514367E+03  0.7546771E-02  0.1198719E+00
         21   -1    0    0  506  501  0.00000000000E+00  0.00000000000E+00  0.85181034784E+03  0.85181034784E+03  0.00000000000E+00 0.  1.
         21   -1    0    0  503  502 -0.00000000000E+00 -0.00000000000E+00 -0.12723548119E+03  0.12723548119E+03  0.00000000000E+00 0.  1.
         21    1    1    2  503  505 -0.33726967219E+02  0.16104259586E+02  0.33763224162E+02  0.50366762854E+02  0.00000000000E+00 0. -1.
         21    1    1    2  504  502 -0.71448220389E+02 -0.46112901213E+01 -0.21670509923E+02  0.74804566663E+02  0.00000000000E+00 0.  1.
         21    1    1    2  505  501  0.91718313530E+02  0.12800033734E+03  0.69503704986E+03  0.71265197402E+03  0.00000000000E+00 0.  1.
         21    1    1    2  506  504  0.13456874077E+02 -0.13949330681E+03  0.17445102562E+02  0.14122252549E+03  0.00000000000E+00 0.  1.
<scales pt_clust_3="37.37453" pt_clust_4="85.14898" pt_clust_5="151.43666" pt_clust_6="14000.00000"></scales>
<clustering>
<clus scale="   37.375">  2  3  1 -1</clus>
<clus scale="   85.149">  2  4  1 -1</clus>
<clus scale="  151.437">  1  5  2 -1</clus>
<clus scale="  151.437">  1  3  2 -1</clus>
</clustering>
</event>
<event>
 6    0  0.6207838E+002  0.7551310E+02  0.7546771E-02  0.1342289E+00
         21   -1    0    0  506  501  0.00000000000E+00  0.00000000000E+00  0.92601685156E+03  0.92601685156E+03  0.00000000000E+00 0.  1.
         21   -1    0    0  504  502 -0.00000000000E+00 -0.00000000000E+00 -0.29936020575E+03  0.29936020575E+03  0.00000000000E+00 0.  1.
         21    1    1    2  503  502 -0.56780830611E+01 -0.46002573803E+02 -0.30751217182E+02  0.55624767703E+02  0.00000000000E+00 0.  1.
         21    1    1    2  504  505  0.48727192352E+02  0.78804608269E+02 -0.21422247871E+03  0.23340046260E+03  0.00000000000E+00 0.  1.
         21    1    1    2  505  501 -0.64517778374E+02  0.40613048362E+02  0.16747767757E+02  0.78054155229E+02  0.00000000000E+00 0. -1.
         21    1    1    2  506  503  0.21468669083E+02 -0.73415082827E+02  0.85488257394E+03  0.85829767177E+03  0.00000000000E+00 0.  1.
<scales pt_clust_3="46.35167" pt_clust_4="58.36507" pt_clust_5="14000.00000" pt_clust_6="75.51310"></scales>
<clustering>
<clus scale="   46.352">  2  3  1 -1</clus>
<clus scale="   58.365">  2  4  1 -1</clus>
<clus scale="   75.513">  1  6  2 -1</clus>
<clus scale="   75.513">  1  3  2 -1</clus>
</clustering>
</event>
<event>
 6    0  0.6207838E+002  0.8558946E+02  0.7546771E-02  0.1313898E+00
         21   -1    0    0  504  501  0.00000000000E+00  0.00000000000E+00  0.68956732391E+03  0.68956732391E+03  0.00000000000E+00 0.  1.
         21   -1    0    0  506  502 -0.00000000000E+00 -0.00000000000E+00 -0.31030439237E+03  0.31030439237E+03  0.00000000000E+00 0.  1.
         21    1    1    2  503  505  0.89477370084E+02  0.93511655999E+01  0.17543346724E+02  0.91659222502E+02  0.00000000000E+00 0. -1.
         21    1    1    2  504  503 -0.27735274076E+02  0.19524355318E+02  0.52856322719E+03  0.52965038564E+03  0.00000000000E+00 0.  1.
         21    1    1    2  505  502 -0.16279760252E+02  0.57163359456E+02 -0.24602713972E+03  0.25310478806E+03  0.00000000000E+00 0.  1.
         21    1    1    2  506  501 -0.45462335756E+02 -0.86038880374E+02  0.79183497349E+02  0.12545732008E+03  0.00000000000E+00 0. -1.
<scales pt_clust_3="85.58946" pt_clust_4="33.91822" pt_clust_5="60.01986" pt_clust_6="14000.00000"></scales>
<clustering>
<clus scale="   33.918">  1  4  2 -1</clus>
<clus scale="   60.020">  2  5  1 -1</clus>
<clus scale="   85.589">  2  3  1 -1</clus>
<clus scale="   33.918">  1  3  2 -1</clus>
</clustering>
</event>
<event>
 6    0  0.6207838E+002  0.1718478E+03  0.7546771E-02  0.1175935E+00
         21   -1    0    0  505  501  0.00000000000E+00  0.00000000000E+00  0.12749068927E+03  0.12749068927E+03  0.00000000000E+00 0. -1.
         21   -1    0    0  504  502 -0.00000000000E+00 -0.00000000000E+00 -0.89800108341E+03  0.89800108341E+03  0.00000000000E+00 0.  1.
         21    1    1    2  503  501  0.37511022006E+02 -0.57961269437E+01 -0.15830450562E+02  0.41125114279E+02  0.00000000000E+00 0.  1.
         21    1    1    2  504  503  0.11703876758E+03  0.10218464553E+03 -0.77298439419E+03  0.78844444862E+03  0.00000000000E+00 0.  1.
         21    1    1    2  505  506 -0.52106766941E+02  0.28520924509E+01  0.51541259331E+00  0.52187309209E+02  0.00000000000E+00 0. -1.
         21    1    1    2  506  502 -0.10244302265E+03 -0.99240611041E+02  0.17789038016E+02  0.14373490057E+03  0.00000000000E+00 0. -1.
<scales pt_clust_3="37.95618" pt_clust_4="157.02732" pt_clust_5="40.66439" pt_clust_6="40.66439"></scales>
<clustering>
<clus scale="   37.956">  1  3  2 -1</clus>
<clus scale="   40.664">  5  6 -1 -1</clus>
<clus scale="  157.027">  2  4  1 -1</clus>
<clus scale="   37.956">  1  3  2 -1</clus>
</clustering>
</event>
<event>
 6    0  0.6207838E+002  0.1538885E+03  0.7546771E-02  0.1195775E+00
         21   -1    0    0  506  501  0.00000000000E+00  0.00000000000E+00  0.47811504450E+03  0.47811504450E+03  0.00000000000E+00 0.  1.
         21   -1    0    0  504  502 -0.00000000000E+00 -0.00000000000E+00 -0.10988467809E+03  0.10988467809E+03  0.00000000000E+00 0.  1.
         21    1    1    2  503  501  0.75981697835E+02 -0.10890195788E+03  0.23344946231E+03  0.26857309301E+03  0.00000000000E+00 0.  1.
         21    1    1    2  504  503  0.29360933853E+01 -0.77521992494E+02  0.10503634250E+02  0.78285415609E+02  0.00000000000E+00 0.  1.
         21    1    1    2  505  502 -0.57629563817E+02  0.11578647696E+03  0.99959141426E+02  0.16346101929E+03  0.00000000000E+00 0.  1.
         21    1    1    2  506  505 -0.21288227403E+02  0.70637473417E+02  0.24318128430E+02  0.77680194690E+02  0.00000000000E+00 0. -1.
<scales pt_clust_3="148.18679" pt_clust_4="77.57757" pt_clust_5="31.34417" pt_clust_6="31.34417"></scales>
<clustering>
<clus scale="   31.344">  5  6 -1 -1</clus>
<clus scale="   77.578">  2  4  1 -1</clus>
<clus scale="  148.187">  1  3  2 -1</clus>
<clus scale="  148.187">  1  3  2 -1</clus>
</clustering>
</event>
<event>
 6    0  0.6207838E+002  0.7099033E+02  0.7546771E-02  0.1356757E+00
         21   -1    0    0  503  501  0.00000000000E+00  0.00000000000E+00  0.91203485363E+03  0.91203485363E+03  0.00000000000E+00 0.  1.
         21   -1    0    0  506  502 -0.00000000000E+00 -0.00000000000E+00 -0.24454442972E+02  0.24454442972E+02  0.00000000000E+00 0.  1.
         21    1    1    2  503  504 -0.61071664639E+02  0.20595138465E+01  0.46524450023E+03  0.46924027408E+03  0.00000000000E+00 0.  1.
         21    1    1    2  504  502  0.10800341536E+03  0.13894326226E+02  0.21955126680E+03  0.24507253780E+03  0.00000000000E+00 0.  1.
         21    1    1    2  505  501  0.44891623681E+01 -0.31515750953E+02  0.11438278326E+03  0.11873001408E+03  0.00000000000E+00 0.  1.
         21    1    1    2  506  505 -0.51420913088E+02  0.15561910881E+02  0.88401860372E+02  0.10344647065E+03  0.00000000000E+00 0.  1.
<scales pt_clust_3="14000.00000" pt_clust_4="70.99033" pt_clust_5="31.83387" pt_clust_6="52.22131"></scales>
<clustering>
<clus scale="   31.834">  1  5  2 -1</clus>
<clus scale="   52.221">  2  6  1 -1</clus>
<clus scale="   70.990">  2  4  1 -1</clus>
<clus scale="   31.834">  1  3  2 -1</clus>
</clustering>
</event>
<event>
 6    0  0.6207838E+002  0.6360121E+02  0.7546771E-02  0.1383312E+00
         21   -1    0    0  506  501  0.00000000000E+00  0.00000000000E+00  0.16549361923E+04  0.16549361923E+04  0.00000000000E+00 0.  1.
         21   -1    0    0  501  502 -0.00000000000E+00 -0.00000000000E+00 -0.76454616213E+02  0.76454616213E+02  0.00000000000E+00 0.  1.
         21    1    1    2  503  505 -0.26364648981E+02  0.84827274711E+02  0.23008300599E+03  0.24663525882E+03  0.00000000000E+00 0.  1.
         21    1    1    2  504  502 -0.33743018314E+02 -0.47605503724E+02 -0.46906914198E+02  0.74867441985E+02  0.00000000000E+00 0.  1.
         21    1    1    2  505  504  0.77613333827E+02  0.11072089084E+02  0.22160841083E+03  0.23506745520E+03  0.00000000000E+00 0.  1.
         21    1    1    2  506  503 -0.17505666532E+02 -0.48293860071E+02  0.11736970734E+04  0.11748206525E+04  0.00000000000E+00 0.  1.
<scales pt_clust_3="14000.00000" pt_clust_4="59.79299" pt_clust_5="63.60121" pt_clust_6="51.36872"></scales>
<clustering>
<clus scale="   51.369">  1  6  2 -1</clus>
<clus scale="   59.793">  2  4  1 -1</clus>
<clus scale="   63.601">  2  5  1 -1</clus>
<clus scale="   51.369">  1  3  2 -1</clus>
</clustering>
</event>
<event>
 6    0  0.6207838E+002  0.1087920E+03  0.7546771E-02  0.1262823E+00
         21   -1    0    0  505  501  0.00000000000E+00  0.00000000000E+00  0.11941551938E+03  0.11941551938E+03  0.00000000000E+00 0. -1.
         21   -1    0    0  504  502 -0.00000000000E+00 -0.00000000000E+00 -0.12522537067E+04  0.12522537067E+04  0.00000000000E+00 0. -1.
         21    1    1    2  503  502  0.55711175861E+02  0.58722392333E+02 -0.30461936334E+02  0.86486900987E+02  0.00000000000E+00 0. -1.
         21    1    1    2  504  506 -0.80436080956E+02 -0.46696916812E+02 -0.11003903159E+04  0.11043140008E+04  0.00000000000E+00 0. -1.
         21    1    1    2  505  503  0.62171576056E+02  0.22944576221E+02 -0.69554351888E+02  0.96070631901E+02  0.00000000000E+00 0. -1.
         21    1    1    2  506  501 -0.37446670961E+02 -0.34970051741E+02  0.67568416769E+02  0.84797692360E+02  0.00000000000E+00 0. -1.
<scales pt_clust_3="47.51982" pt_clust_4="95.27616" pt_clust_5="47.51982" pt_clust_6="51.23629"></scales>
<clustering>
<clus scale="   47.520">  3  5 -1 -1</clus>
<clus scale="   51.236">  1  6  2 -1</clus>
<clus scale="   95.276">  2  4  1 -1</clus>
<clus scale="   51.236">  1  3  2 -1</clus>
</clustering>
</event>
<event>
 6    0  0.6207838E+002  0.6164588E+02  0.7546771E-02  0.1391052E+00
         21   -1    0    0  504  501  0.00000000000E+00  0.00000000000E+00  0.11398152091E+04  0.11398152091E+04  0.00000000000E+00 0.  1.
         21   -1    0    0  505  502 -0.00000000000E+00 -0.00000000000E+00 -0.23688623059E+03  0.23688623059E+03  0.00000000000E+00 0.  1.
         21    1    1    2  503  506  0.51984052331E+02 -0.91384671872E+01 -0.63984140654E+02  0.82944701666E+02  0.00000000000E+00 0. -1.
         21    1    1    2  504  502 -0.90808542925E+02  0.90260033064E+02 -0.12225154356E+03  0.17702684808E+03  0.00000000000E+00 0.  1.
         21    1    1    2  505  503  0.42608275449E+01 -0.30525392910E+02  0.54683873423E+01  0.31302675985E+02  0.00000000000E+00 0. -1.
         21    1    1    2  506  501  0.34563663050E+02 -0.50596172967E+02  0.10836962754E+04  0.10854272140E+04  0.00000000000E+00 0.  1.
<scales pt_clust_3="56.71302" pt_clust_4="61.64588" pt_clust_5="30.82133" pt_clust_6="14000.00000"></scales>
<clustering>
<clus scale="   30.821">  2  5  1 -1</clus>
<clus scale="   56.713">  2  3  1 -1</clus>
<clus scale="   61.646">  2  4  1 -1</clus>
<clus scale="   61.646">  1  3  2 -1</clus>
</clustering>
</event>
<event>
 6    0  0.6207838E+002  0.1113546E+03  0.7546771E-02  0.1258082E+00
         21   -1    0    0  504  501  0.00000000000E+00  0.00000000000E+00  0.93681519505E+02  0.93681519505E+02  0.00000000000E+00 0. -1.
         21   -1    0    0  501  502 -0.00000000000E+00 -0.00000000000E+00 -0.13332900637E+04  0.13332900637E+04  0.00000000000E+00 0.  1.
         21    1    1    2  503  506  0.10536748326E+03  0.11673931168E+02  0.24199764622E+02  0.10873921006E+03  0.00000000000E+00 0. -1.
         21    1    1    2  504  503  0.12268109142E+02  0.28055459762E+02  0.12420500356E+02  0.33043670399E+02  0.00000000000E+00 0. -1.
         21    1    1    2  505  502 -0.54046340522E+02 -0.32284633828E+02 -0.98479768824E+03  0.98680787961E+03  0.00000000000E+00 0.  1.
         21    1    1    2  506  505 -0.63589251878E+02 -0.74447571020E+01 -0.29143112092E+03  0.29838082312E+03  0.00000000000E+00 0.  1.
<scales pt_clust_3="111.35457" pt_clust_4="30.62050" pt_clust_5="62.60227" pt_clust_6="14000.00000"></scales>
<clustering>
<clus scale="   30.621">  1  4  2 -1</clus>
<clus scale="   62.602">  2  5  1 -1</clus>
<clus scale="  111.355">  1  3  2 -1</clus>
<clus scale="   30.621">  1  3  2 -1</clus>
</clustering>
</event>
<event>
 6    0  0.6207838E+002  0.1021744E+03  0.7546771E-02  0.1275789E+00
         21   -1    0    0  504  501  0.00000000000E+00  0.00000000000E+00  0.76494631643E+03  0.76494631643E+03  0.00000000000E+00 0.  1.
         21   -1    0    0  503  502 -0.00000000000E+00 -0.00000000000E+00 -0.49081202608E+02  0.49081202608E+02  0.00000000000E+00 0.  1.
         21    1    1    2  503  506 -0.29524227880E+02  0.99902590319E+02  0.46017675162E+02  0.11388517907E+03  0.00000000000E+00 0.  1.
         21    1    1    2  504  502  0.23095477528E+02 -0.92050217883E+02  0.28568879488E+03  0.30103941804E+03  0.00000000000E+00 0.  1.
         21    1    1    2  505  501  0.24653101849E+02  0.25228263289E+02  0.33626016573E+03  0.33810521995E+03  0.00000000000E+00 0. -1.
         21    1    1    2  506  505 -0.18224351498E+02 -0.33080635725E+02  0.47898478055E+02  0.60997701985E+02  0.00000000000E+00 0.  1.
<scales pt_clust_3="102.17445" pt_clust_4="14000.00000" pt_clust_5="35.27380" pt_clust_6="33.46315"></scales>
<clustering>
<clus scale="   35.274">  1  5  2 -1</clus>
<clus scale="   33.463">  1  6  2 -1</clus>
<clus scale="  102.174">  2  3  1 -1</clus>
<clus scale="   35.274">  1  3  2 -1</clus>
</clustering>
</event>
<event>
 6    0  0.6207838E+002  0.1200116E+03  0.7546771E-02  0.1243078E+00
         21   -1    0    0  504  501  0.00000000000E+00  0.00000000000E+00  0.65864570094E+03  0.65864570094E+03  0.00000000000E+00 0. -1.
         21   -1    0    0  503  502 -0.00000000000E+00 -0.00000000000E+00 -0.43721649189E+03  0.43721649189E+03  0.00000000000E+00 0.  1.
         21    1    1    2  503  501 -0.14341361137E+03 -0.21244220299E+02 -0.28571433136E+03  0.32039266528E+03  0.00000000000E+00 0.  1.
         21    1    1    2  504  506  0.26694093020E+02 -0.29477506938E+02  0.59933600203E+03  0.60065392810E+03  0.00000000000E+00 0. -1.
         21    1    1    2  505  502  0.72021918729E+02  0.66190334120E+02 -0.78934738362E+02  0.12569411294E+03  0.00000000000E+00 0.  1.
         21    1    1    2  506  505  0.44697599617E+02 -0.15468606882E+02 -0.13257723262E+02  0.49121486505E+02  0.00000000000E+00 0.  1.
<scales pt_clust_3="14000.00000" pt_clust_4="39.76805" pt_clust_5="120.01164" pt_clust_6="58.25291"></scales>
<clustering>
<clus scale="   39.768">  1  4  2 -1</clus>
<clus scale="   58.253">  1  6  2 -1</clus>
<clus scale="  120.012">  1  5  2 -1</clus>
<clus scale="   39.768">  1  3  2 -1</clus>
</clustering>
</event>
<event>
 6    0  0.6207838E+002  0.1374685E+03  0.7546771E-02  0.1216776E+00
         21   -1    0    0  504  501  0.00000000000E+00  0.00000000000E+00  0.40314630195E+03  0.40314630195E+03  0.00000000000E+00 0.  1.
         21   -1    0    0  505  502 -0.00000000000E+00 -0.00000000000E+00 -0.18561817616E+03  0.18561817616E+03  0.00000000000E+00 0. -1.
         21    1    1    2  503  501  0.71422689599E+02 -0.21175043541E+01  0.13369312461E+03  0.15159002600E+03  0.00000000000E+00 0.  1.
         21    1    1    2  504  506 -0.50560393570E+02 -0.81475024232E+02  0.17273504084E+02  0.97431549894E+02  0.00000000000E+00 0. -1.
         21    1    1    2  505  503  0.59434558312E+02  0.57213182586E+02  0.18016095418E+03  0.19815091318E+03  0.00000000000E+00 0.  1.
         21    1    1    2  506  502 -0.80296854341E+02  0.26379346000E+02 -0.11359945707E+03  0.14159198904E+03  0.00000000000E+00 0. -1.
<scales pt_clust_3="56.26630" pt_clust_4="123.46012" pt_clust_5="56.26630" pt_clust_6="84.51896"></scales>
<clustering>
<clus scale="   56.266">  3  5 -1 -1</clus>
<clus scale="   84.519">  2  6  1 -1</clus>
<clus scale="  123.460">  2  4  1 -1</clus>
<clus scale="  137.469">  1  3  2 -1</clus>
</clustering>
</event>
<event>
 6    0  0.6207838E+002  0.1552836E+03  0.7546771E-02  0.1194127E+00
         21   -1    0    0  503  501  0.00000000000E+00  0.00000000000E+00  0.95676973802E+03  0.95676973802E+03  0.00000000000E+00 0. -1.
         21   -1    0    0  504  502 -0.00000000000E+00 -0.00000000000E+00 -0.51947961058E+02  0.51947961058E+02  0.00000000000E+00 0. -1.
         21    1    1    2  503  502  0.21054018318E+02 -0.11449101494E+03  0.16586100509E+03  0.20263597212E+03  0.00000000000E+00 0. -1.
         21    1    1    2  504  506  0.63268239039E+02  0.71931926737E+02  0.13818091266E+03  0.16813993214E+03  0.00000000000E+00 0. -1.
         21    1    1    2  505  501 -0.13560834427E+03 -0.14182189020E+02  0.34480604502E+03  0.37078560679E+03  0.00000000000E+00 0. -1.
         21    1    1    2  506  505  0.51286086908E+02  0.56741277219E+02  0.25597381420E+03  0.26715618804E+03  0.00000000000E+00 0. -1.
<scales pt_clust_3="116.41076" pt_clust_4="59.57434" pt_clust_5="140.24164" pt_clust_6="59.57434"></scales>
<clustering>
<clus scale="   59.574">  4  6 -1 -1</clus>
<clus scale="  116.411">  2  3  1 -1</clus>
<clus scale="  140.242">  1  5  2 -1</clus>
<clus scale="  140.242">  1  3  2 -1</clus>
</clustering>
</event>
<event>
 6    0  0.6207838E+002  0.9480090E+02  0.7546771E-02  0.1291625E+00
         21   -1    0    0  506  501  0.00000000000E+00  0.00000000000E+00  0.14705574762E+03  0.14705574762E+03  0.00000000000E+00 0.  1.
         21   -1    0    0  503  502 -0.00000000000E+00 -0.00000000000E+00 -0.24108905160E+03  0.24108905160E+03  0.00000000000E+00 0.  1.
         21    1    1    2  503  505 -0.50105255379E+02 -0.30244747951E+02 -0.20180180798E+02  0.61907358951E+02  0.00000000000E+00 0.  1.
         21    1    1    2  504  502  0.40130167765E+01 -0.53929142188E+02 -0.58944080047E+02  0.79992882517E+02  0.00000000000E+00 0.  1.
         21    1    1    2  505  501 -0.11741400803E+02  0.11127743344E+03  0.75911076140E+02  0.13521471505E+03  0.00000000000E+00 0.  1.
         21    1    1    2  506  504  0.57833639405E+02 -0.27103543304E+02 -0.90820119272E+02  0.11102984270E+03  0.00000000000E+00 0.  1.
<scales pt_clust_3="65.39515" pt_clust_4="54.07825" pt_clust_5="14000.00000" pt_clust_6="94.80090"></scales>
<clustering>
<clus scale="   54.078">  2  4  1 -1</clus>
<clus scale="   65.395">  2  3  1 -1</clus>
<clus scale="   94.801">  2  6  1 -1</clus>
<clus scale="   94.801">  1  3  2 -1</clus>
</clustering>
</event>
<event>
 6    0  0.6207838E+002  0.2140827E+03  0.7546771E-02  0.1138373E+00
         21   -1    0    0  506  501  0.00000000000E+00  0.00000000000E+00  0.14328045589E+04  0.14328045589E+04  0.00000000000E+00 0.  1.
         21   -1    0    0  503  502 -0.00000000000E+00 -0.00000000000E+00 -0.50104991675E+02  0.50104991675E+02  0.00000000000E+00 0.  1.
         21    1    1    2  503  504  0.12141454554E+02 -0.39862224780E+02  0.35392322061E+01  0.41820306643E+02  0.00000000000E+00 0.  1.
         21    1    1    2  504  501 -0.25393501077E+02 -0.17550393704E+03  0.44772009020E+03  0.48155969618E+03  0.00000000000E+00 0.  1.
         21    1    1    2  505  502 -0.12189161664E+02  0.36159852413E+02  0.74748687918E+02  0.83925424837E+02  0.00000000000E+00 0.  1.
         21    1    1    2  506  505  0.25441208187E+02  0.17920630941E+03  0.85669155693E+03  0.87560412295E+03  0.00000000000E+00 0.  1.
<scales pt_clust_3="41.67028" pt_clust_4="198.17557" pt_clust_5="37.18222" pt_clust_6="37.18222"></scales>
<clustering>
<clus scale="   37.182">  5  6 -1 -1</clus>
<clus scale="   41.670">  2  3  1 -1</clus>
<clus scale="  198.176">  2  4  1 -1</clus>
<clus scale="  214.083">  1  3  2 -1</clus>
</clustering>
</event>
<event>
 6    0  0.6207838E+002  0.1719034E+03  0.7546771E-02  0.1175877E+00
         21   -1    0    0  506  501  0.00000000000E+00  0.00000000000E+00  0.25113419362E+03  0.25113419362E+03  0.00000000000E+00 0.  1.
         21   -1    0    0  503  502 -0.00000000000E+00 -0.00000000000E+00 -0.23659709684E+03  0.23659709684E+03  0.00000000000E+00 0.  1.
         21    1    1    2  503  505  0.98150993945E+02  0.38634002284E+02 -0.55622184515E+02  0.11924777212E+03  0.00000000000E+00 0.  1.
         21    1    1    2  504  502  0.24758211023E+02 -0.48900540368E+02 -0.83897504143E+02  0.10021488444E+03  0.00000000000E+00 0.  1.
         21    1    1    2  505  501  0.45652956842E+02  0.86572550821E+01  0.12429252819E+02  0.48100175256E+02  0.00000000000E+00 0.  1.
         21    1    1    2  506  504 -0.16856216181E+03  0.16092830017E+01  0.14162753263E+03  0.22016845865E+03  0.00000000000E+00 0.  1.
<scales pt_clust_3="37.68414" pt_clust_4="54.81087" pt_clust_5="37.68414" pt_clust_6="162.25627"></scales>
<clustering>
<clus scale="   37.684">  3  5 -1 -1</clus>
<clus scale="   54.811">  2  4  1 -1</clus>
<clus scale="  162.256">  1  6  2 -1</clus>
<clus scale="  162.256">  1  3  2 -1</clus>
</clustering>
</event>
<event>
 6    0  0.6207838E+002  0.1423639E+03  0.7546771E-02  0.1210183E+00
         21   -1    0    0  505  501  0.00000000000E+00  0.00000000000E+00  0.30880918253E+03  0.30880918253E+03  0.00000000000E+00 0.  1.
         21   -1    0    0  506  502 -0.00000000000E+00 -0.00000000000E+00 -0.51125588019E+03  0.51125588019E+03  0.00000000000E+00 0.  1.
         21    1    1    2  503  504 -0.75966191732E+02  0.37474723593E+02  0.93984278897E+02  0.12652376012E+03  0.00000000000E+00 0.  1.
         21    1    1    2  504  501  0.35027899092E+02  0.28972031626E+02  0.11629204970E+03  0.12486061491E+03  0.00000000000E+00 0.  1.
         21    1    1    2  505  502 -0.77243619811E+01  0.80588258079E+02  0.39926529805E+02  0.90267717876E+02  0.00000000000E+00 0. -1.
         21    1    1    2  506  503  0.48662654622E+02 -0.14703501330E+03 -0.45264955606E+03  0.47841296982E+03  0.00000000000E+00 0.  1.
<scales pt_clust_3="77.70990" pt_clust_4="45.45693" pt_clust_5="142.36387" pt_clust_6="14000.00000"></scales>
<clustering>
<clus scale="   45.457">  1  4  2 -1</clus>
<clus scale="   77.710">  1  3  2 -1</clus>
<clus scale="  142.364">  1  5  2 -1</clus>
<clus scale="   45.457">  1  3  2 -1</clus>
</clustering>
</event>
<event>
 6    0  0.6207838E+002  0.1407846E+03  0.7546771E-02  0.1212277E+00
         21   -1    0    0  505  501  0.00000000000E+00  0.00000000000E+00  0.70644339815E+02  0.70644339815E+02  0.00000000000E+00 0.  1.
         21   -1    0    0  503  502 -0.00000000000E+00 -0.00000000000E+00 -0.27480256790E+03  0.27480256790E+03  0.00000000000E+00 0.  1.
         21    1    1    2  503  504  0.53292022246E-01  0.50230170063E+02 -0.72474073224E+02  0.88179159183E+02  0.00000000000E+00 0.  1.
         21    1    1    2  504  501  0.39055848922E+02  0.69870930249E+02 -0.52767240893E+02  0.95873291069E+02  0.00000000000E+00 0.  1.
         21    1    1    2  505  506  0.16741896310E+01 -0.71155642002E+02 -0.18380220490E+02  0.73510276865E+02  0.00000000000E+00 0.  1.
         21    1    1    2  506  502 -0.40783330575E+02 -0.48945458311E+02 -0.60536693480E+02  0.87884180599E+02  0.00000000000E+00 0.  1.
<scales pt_clust_3="37.45941" pt_clust_4="134.87000" pt_clust_5="58.82974" pt_clust_6="58.82974"></scales>
<clustering>
<clus scale="   37.459">  3  4 -1 -1</clus>
<clus scale="   58.830">  5  6 -1 -1</clus>
<clus scale="  134.870">  2  3  1 -1</clus>
<clus scale="  140.785">  1  3  2 -1</clus>
</clustering>
</event>
<event>
 6    0  0.6207838E+002  0.1363494E+03  0.7546771E-02  0.1218327E+00
         21   -1    0    0  503  501  0.00000000000E+00  0.00000000000E+00  0.27057804138E+03  0.27057804138E+03  0.00000000000E+00 0. -1.
         21   -1    0    0  504  502 -0.00000000000E+00 -0.00000000000E+00 -0.14945920917E+04  0.14945920917E+04  0.00000000000E+00 0.  1.
         21    1    1    2  503  505 -0.15703623264E+02  0.14854650232E+03 -0.10830357348E+03  0.18450563993E+03  0.00000000000E+00 0. -1.
         21    1    1    2  504  506 -0.19731229309E+02 -0.10304571346E+03 -0.25023943683E+03  0.27134390765E+03  0.00000000000E+00 0. -1.
         21    1    1    2  505  502  0.87157630002E+01 -0.66836161744E+02 -0.10850268192E+04  0.10871183171E+04  0.00000000000E+00 0.  1.
         21    1    1    2  506  501  0.26719089573E+02  0.21335372886E+02  0.21955577921E+03  0.22220226837E+03  0.00000000000E+00 0. -1.
<scales pt_clust_3="14000.00000" pt_clust_4="136.34945" pt_clust_5="67.03242" pt_clust_6="34.19222"></scales>
<clustering>
<clus scale="   34.192">  1  6  2 -1</clus>
<clus scale="   67.032">  2  5  1 -1</clus>
<clus scale="  136.349">  2  4  1 -1</clus>
<clus scale="   34.192">  1  3  2 -1</clus>
</clustering>
</event>
<event>
 6    0  0.6207838E+002  0.1150745E+03  0.7546771E-02  0.1251451E+00
         21   -1    0    0  503  501  0.00000000000E+00  0.00000000000E+00  0.12216286599E+03  0.12216286599E+03  0.00000000000E+00 0.  1.
         21   -1    0    0  504  502 -0.00000000000E+00 -0.00000000000E+00 -0.38885792926E+03  0.38885792926E+03  0.00000000000E+00 0.  1.
         21    1    1    2  503  505 -0.47750855561E+02 -0.62385959891E+01 -0.61851080928E+02  0.78387629755E+02  0.00000000000E+00 0.  1.
         21    1    1    2  504  506  0.13027401155E+02  0.28404639026E+02 -0.15513464008E+03  0.15825072907E+03  0.00000000000E+00 0.  1.
         21    1    1    2  505  502 -0.57670436745E+02  0.33584622504E+02 -0.12575651794E+03  0.14236751015E+03  0.00000000000E+00 0.  1.
         21    1    1    2  506  501  0.92393891151E+02 -0.55750665542E+02  0.76047175670E+02  0.13201492627E+03  0.00000000000E+00 0.  1.
<scales pt_clust_3="32.21584" pt_clust_4="31.24959" pt_clust_5="32.21584" pt_clust_6="107.55170"></scales>
<clustering>
<clus scale="   31.250">  2  4  1 -1</clus>
<clus scale="   32.216">  3  5 -1 -1</clus>
<clus scale="  107.552">  1  6  2 -1</clus>
<clus scale="  107.552">  1  3  2 -1</clus>
</clustering>
</event>
<event>
 6    0  0.6207838E+002  0.1041967E+03  0.7546771E-02  0.1271710E+00
         21   -1    0    0  506  501  0.00000000000E+00  0.00000000000E+00  0.60827276425E+02  0.60827276425E+02  0.00000000000E+00 0. -1.
         21   -1    0    0  505  502 -0.00000000000E+00 -0.00000000000E+00 -0.42878071167E+03  0.42878071167E+03  0.00000000000E+00 0. -1.
         21    1    1    2  503  501 -0.30621719808E+02 -0.22148773429E+02 -0.11813187037E+02  0.39595571424E+02  0.00000000000E+00 0. -1.
         21    1    1    2  504  502 -0.10222672145E+03 -0.22963223209E+02 -0.19418744888E+03  0.22064989803E+03  0.00000000000E+00 0. -1.
         21    1    1    2  505  503  0.46672921042E+02 -0.23498559052E+02 -0.53112694557E+02  0.74508403280E+02  0.00000000000E+00 0. -1.
         21    1    1    2  506  504  0.86175520218E+02  0.68610555691E+02 -0.10884010477E+03  0.15485411536E+03  0.00000000000E+00 0. -1.
<scales pt_clust_3="37.79230" pt_clust_4="104.19674" pt_clust_5="48.89267" pt_clust_6="14000.00000"></scales>
<clustering>
<clus scale="   37.792">  1  3  2 -1</clus>
<clus scale="   48.893">  1  5  2 -1</clus>
<clus scale="  104.197">  2  4  1 -1</clus>
<clus scale="   37.792">  1  3  2 -1</clus>
</clustering>
</event>
<event>
 6    0  0.6207838E+002  0.1121549E+03  0.7546771E-02  0.1256631E+00
         21   -1    0    0  506  501  0.00000000000E+00  0.00000000000E+00  0.67160565547E+02  0.67160565547E+02  0.00000000000E+00 0. -1.
         21   -1    0    0  503  502 -0.00000000000E+00 -0.00000000000E+00 -0.65916930294E+03  0.65916930294E+03  0.00000000000E+00 0. -1.
         21    1    1    2  503  505 -0.11125117754E+03  0.48969032296E+02 -0.77004352731E+02  0.14389044780E+03  0.00000000000E+00 0. -1.
         21    1    1    2  504  502 -0.10688468683E+02  0.42282902238E+02 -0.82698995183E+02  0.93494443625E+02  0.00000000000E+00 0. -1.
         21    1    1    2  505  501  0.30818980072E+01 -0.72450823594E+02 -0.49831549774E+02  0.87987517795E+02  0.00000000000E+00 0. -1.
         21    1    1    2  506  504  0.11885774822E+03 -0.18801110940E+02 -0.38247383970E+03  0.40095745926E+03  0.00000000000E+00 0. -1.
<scales pt_clust_3="112.15494" pt_clust_4="43.61292" pt_clust_5="67.37252" pt_clust_6="14000.00000"></scales>
<clustering>
<clus scale="   43.613">  2  4  1 -1</clus>
<clus scale="   67.373">  1  5  2 -1</clus>
<clus scale="  112.155">  1  3  2 -1</clus>
<clus scale="   67.373">  1  3  2 -1</clus>
</clustering>
</event>
<event>
 6    0  0.6207838E+002  0.1637029E+03  0.7546771E-02  0.1184579E+00
         21   -1    0    0  504  501  0.00000000000E+00  0.00000000000E+00  0.21189516799E+02  0.21189516799E+02  0.00000000000E+00 0.  1.
         21   -1    0    0  505  502 -0.00000000000E+00 -0.00000000000E+00 -0.12543703567E+04  0.12543703567E+04  0.00000000000E+00 0. -1.
         21    1    1    2  503  501  0.58810415768E+02  0.63198448830E+02 -0.25338001976E+03  0.26768291568E+03  0.00000000000E+00 0.  1.
         21    1    1    2  504  506 -0.93041739121E+02 -0.63095862993E+02 -0.36112719455E+03  0.37822044338E+03  0.00000000000E+00 0. -1.
         21    1    1    2  505  503  0.61130664901E+02  0.36470240603E+02 -0.34858424575E+03  0.35577803899E+03  0.00000000000E+00 0.  1.
         21    1    1    2  506  502 -0.26899341548E+02 -0.36572826439E+02 -0.27008937984E+03  0.27387847545E+03  0.00000000000E+00 0. -1.
<scales pt_clust_3="162.30399" pt_clust_4="31.64030" pt_clust_5="40.84082" pt_clust_6="31.64030"></scales>
<clustering>
<clus scale="   31.640">  4  6 -1 -1</clus>
<clus scale="   40.841">  3  5 -1 -1</clus>
<clus scale="  162.304">  1  3  2 -1</clus>
<clus scale="  162.304">  1  3  2 -1</clus>
</clustering>
</event>
<event>
 6    0  0.6207838E+002  0.6608449E+02  0.7546771E-02  0.1373938E+00
         21   -1    0    0  506  501  0.00000000000E+00  0.00000000000E+00  0.20130278871E+02  0.20130278871E+02  0.00000000000E+00 0. -1.
         21   -1    0    0  505  502 -0.00000000000E+00 -0.00000000000E+00 -0.15282557688E+04  0.15282557688E+04  0.00000000000E+00 0. -1.
         21    1    1    2  503  502 -0.60991642478E+01 -0.45584653422E+02 -0.21840962071E+03  0.22319928954E+03  0.00000000000E+00 0. -1.
         21    1    1    2  504  501 -0.59452076650E+02  0.23576461939E+02 -0.61196059110E+02  0.88517549821E+02  0.00000000000E+00 0. -1.
         21    1    1    2  505  504 -0.23730594239E+02  0.42926048720E+02 -0.36113420568E+03  0.36444986113E+03  0.00000000000E+00 0. -1.
         21    1    1    2  506  503  0.89281835138E+02 -0.20917857237E+02 -0.86738560442E+03  0.87221934718E+03  0.00000000000E+00 0. -1.
<scales pt_clust_3="45.99087" pt_clust_4="66.08449" pt_clust_5="39.53527" pt_clust_6="14000.00000"></scales>
<clustering>
<clus scale="   45.991">  2  3  1 -1</clus>
<clus scale="   39.535">  2  5  1 -1</clus>
<clus scale="   66.084">  1  4  2 -1</clus>
<clus scale="   66.084">  1  3  2 -1</clus>
</clustering>
</event>
<event>
 6    0  0.6207838E+002  0.8246163E+02  0.7546771E-02  0.1322207E+00
         21   -1    0    0  504  501  0.00000000000E+00  0.00000000000E+00  0.14913177366E+03  0.14913177366E+03  0.00000000000E+00 0.  1.
         21   -1    0    0  503  502 -0.00000000000E+00 -0.00000000000E+00 -0.21090498343E+04  0.21090498343E+04  0.00000000000E+00 0. -1.
         21    1    1    2  503  505 -0.66168406973E+01  0.78881087531E+02 -0.19401647309E+04  0.19417788730E+04  0.00000000000E+00 0. -1.
         21    1    1    2  504  506 -0.91636815565E+02 -0.77977998203E+02  0.16401025529E+01  0.12033521557E+03  0.00000000000E+00 0.  1.
         21    1    1    2  505  501  0.19949748289E+02  0.39644870685E+02  0.60965145622E+02  0.75408601692E+02  0.00000000000E+00 0.  1.
         21    1    1    2  506  502  0.78303907974E+02 -0.40547960013E+02 -0.82358577902E+02  0.12065891769E+03  0.00000000000E+00 0.  1.
<scales pt_clust_3="79.53573" pt_clust_4="82.46163" pt_clust_5="44.38140" pt_clust_6="14000.00000"></scales>
<clustering>
<clus scale="   44.381">  1  5  2 -1</clus>
<clus scale="   79.536">  2  3  1 -1</clus>
<clus scale="   82.462">  1  4  2 -1</clus>
<clus scale="   44.381">  1  3  2 -1</clus>
</clustering>
</event>
<event>
 6    0  0.6207838E+002  0.9599701E+02  0.7546771E-02  0.1288946E+00
         21   -1    0    0  504  501  0.00000000000E+00  0.00000000000E+00  0.26886055651E+03  0.26886055651E+03  0.00000000000E+00 0.  1.
         21   -1    0    0  503  502 -0.00000000000E+00 -0.00000000000E+00 -0.22118330360E+03  0.22118330360E+03  0.00000000000E+00 0.  1.
         21    1    1    2  503  501 -0.55605605394E+02  0.70261954946E+01  0.15845069674E+03  0.16807133625E+03  0.00000000000E+00 0.  1.
         21    1    1    2  504  506 -0.78820256520E+02 -0.37975352702E+02  0.14954476112E+02  0.88760332393E+02  0.00000000000E+00 0.  1.
         21    1    1    2  505  502  0.30865667591E+02  0.75504061555E+02 -0.69832114747E+02  0.10737819610E+03  0.00000000000E+00 0.  1.
         21    1    1    2  506  505  0.10356019432E+03 -0.44554904348E+02 -0.55895805197E+02  0.12583399536E+03  0.00000000000E+00 0.  1.
<scales pt_clust_3="56.04775" pt_clust_4="95.99701" pt_clust_5="79.56897" pt_clust_6="14000.00000"></scales>
<clustering>
<clus scale="   56.048">  1  3  2 -1</clus>
<clus scale="   79.569">  2  5  1 -1</clus>
<clus scale="   95.997">  1  4  2 -1</clus>
<clus scale="   56.048">  1  3  2 -1</clus>
</clustering>
</event>
<event>
 6    0  0.6207838E+002  0.1959537E+03  0.7546771E-02  0.1153198E+00
         21   -1    0    0  504  501  0.00000000000E+00  0.00000000000E+00  0.10341769308E+04  0.10341769308E+04  0.00000000000E+00 0.  1.
         21   -1    0    0  503  502 -0.00000000000E+00 -0.00000000000E+00 -0.15093703250E+03  0.15093703250E+03  0.00000000000E+00 0.  1.
         21    1    1    2  503  501 -0.18540692901E+03  0.43374231757E+02  0.64756268624E+03  0.67497739660E+03  0.00000000000E+00 0.  1.
         21    1    1    2  504  506  0.34398597040E+02 -0.50450641464E+02  0.17143466459E+03  0.18198454584E+03  0.00000000000E+00 0.  1.
         21    1    1    2  505  502  0.41018756219E+02  0.55981523410E+02 -0.10171552309E+03  0.12313617244E+03  0.00000000000E+00 0.  1.
         21    1    1    2  506  505  0.10998957575E+03 -0.48905113703E+02  0.16595807053E+03  0.20501584840E+03  0.00000000000E+00 0.  1.
<scales pt_clust_3="182.15904" pt_clust_4="51.43845" pt_clust_5="69.40079" pt_clust_6="51.43845"></scales>
<clustering>
<clus scale="   51.438">  4  6 -1 -1</clus>
<clus scale="   69.401">  2  5  1 -1</clus>
<clus scale="  182.159">  1  3  2 -1</clus>
<clus scale="  182.159">  1  3  2 -1</clus>
</clustering>
</event>
<event>
 6    0  0.6207838E+002  0.7596907E+02  0.7546771E-02  0.1340896E+00
         21   -1    0    0  505  501  0.00000000000E+00  0.00000000000E+00  0.30507177920E+03  0.30507177920E+03  0.00000000000E+00 0.  1.
         21   -1    0    0  506  502 -0.00000000000E+00 -0.00000000000E+00 -0.12850886250E+03  0.12850886250E+03  0.00000000000E+00 0. -1.
         21    1    1    2  503  502 -0.78484540376E+01  0.78448384132E+02 -0.39709788505E+02  0.88275786639E+02  0.00000000000E+00 0.  1.
         21    1    1    2  504  501  0.33260369005E+02 -0.46186251083E+02  0.12641877968E+02  0.58302993182E+02  0.00000000000E+00 0. -1.
         21    1    1    2  505  503 -0.85658831510E+01  0.40074047030E+02  0.20857792212E+03  0.21256540922E+03  0.00000000000E+00 0.  1.
         21    1    1    2  506  504 -0.16846031816E+02 -0.72336180079E+02 -0.49470948911E+01  0.74436452658E+02  0.00000000000E+00 0. -1.
<scales pt_clust_3="75.96907" pt_clust_4="43.27391" pt_clust_5="40.97931" pt_clust_6="14000.00000"></scales>
<clustering>
<clus scale="   40.979">  1  5  2 -1</clus>
<clus scale="   43.274">  1  4  2 -1</clus>
<clus scale="   75.969">  2  3  1 -1</clus>
<clus scale="   40.979">  1  3  2 -1</clus>
</clustering>
</event>
<event>
 6    0  0.6207838E+002  0.2563938E+03  0.7546771E-02  0.1109329E+00
         21   -1    0    0  505  501  0.00000000000E+00  0.00000000000E+00  0.14994823540E+04  0.14994823540E+04  0.00000000000E+00 0. -1.
         21   -1    0    0  501  502 -0.00000000000E+00 -0.00000000000E+00 -0.77727869421E+03  0.77727869421E+03  0.00000000000E+00 0. -1.
         21    1    1    2  503  502  0.21612006846E+02 -0.73841070378E+02  0.35167384644E+01  0.77019153228E+02  0.00000000000E+00 0. -1.
         21    1    1    2  504  506 -0.14340244764E+03 -0.32134343169E+02 -0.41631025128E+03  0.44148737617E+03  0.00000000000E+00 0. -1.
         21    1    1    2  505  504  0.18396064732E+03  0.16707107185E+03  0.14295945841E+04  0.14510323696E+04  0.00000000000E+00 0. -1.
         21    1    1    2  506  503 -0.62170206531E+02 -0.61095658305E+02 -0.29459741153E+03  0.30722214914E+03  0.00000000000E+00 0. -1.
<scales pt_clust_3="76.93882" pt_clust_4="50.05549" pt_clust_5="248.01907" pt_clust_6="50.05549"></scales>
<clustering>
<clus scale="   50.055">  4  6 -1 -1</clus>
<clus scale="   76.939">  2  3  1 -1</clus>
<clus scale="  248.019">  1  5  2 -1</clus>
<clus scale="  248.019">  1  3  2 -1</clus>
</clustering>
</event>
<event>
 6    0  0.6207838E+002  0.9150239E+02  0.7546771E-02  0.1299254E+00
         21   -1    0    0  504  501  0.00000000000E+00  0.00000000000E+00  0.15624124743E+04  0.15624124743E+04  0.00000000000E+00 0.  1.
         21   -1    0    0  503  502 -0.00000000000E+00 -0.00000000000E+00 -0.69474048153E+03  0.69474048153E+03  0.00000000000E+00 0. -1.
         21    1    1    2  503  505  0.79208318352E+02 -0.92886958878E+02 -0.53957957933E+03  0.55321611261E+03  0.00000000000E+00 0. -1.
         21    1    1    2  504  506 -0.13371724737E+02  0.78107155040E+02 -0.54927402864E+02  0.96418619966E+02  0.00000000000E+00 0.  1.
         21    1    1    2  505  501 -0.40543867231E+02 -0.23862352035E+01  0.15313528739E+04  0.15318913550E+04  0.00000000000E+00 0.  1.
         21    1    1    2  506  502 -0.25292726384E+02  0.17166039042E+02 -0.69173898919E+02  0.75626868215E+02  0.00000000000E+00 0. -1.
<scales pt_clust_3="91.50239" pt_clust_4="14000.00000" pt_clust_5="40.62452" pt_clust_6="30.56787"></scales>
<clustering>
<clus scale="   30.568">  2  6  1 -1</clus>
<clus scale="   40.625">  1  5  2 -1</clus>
<clus scale="   91.502">  2  3  1 -1</clus>
<clus scale="   40.625">  1  3  2 -1</clus>
</clustering>
</event>
<event>
 6    0  0.6207838E+002  0.1135090E+03  0.7546771E-02  0.1254206E+00
         21   -1    0    0  503  501  0.00000000000E+00  0.00000000000E+00  0.95796327402E+02  0.95796327402E+02  0.00000000000E+00 0. -1.
         21   -1    0    0  504  502 -0.00000000000E+00 -0.00000000000E+00 -0.82871960510E+03  0.82871960510E+03  0.00000000000E+00 0. -1.
         21    1    1    2  503  506 -0.94663785869E+01  0.57038942204E+02  0.30653945456E+02  0.65442475682E+02  0.00000000000E+00 0. -1.
         21    1    1    2  504  505  0.67862503935E+02 -0.95581302333E+02 -0.71878426841E+03  0.72828011733E+03  0.00000000000E+00 0. -1.
         21    1    1    2  505  501  0.17737278357E+01 -0.30011237169E+02 -0.22551734695E+01  0.30148072479E+02  0.00000000000E+00 0.  1.
         21    1    1    2  506  502 -0.60169853184E+02  0.68553597297E+02 -0.42537781276E+02  0.10064526700E+03  0.00000000000E+00 0. -1.
<scales pt_clust_3="40.31175" pt_clust_4="113.50900" pt_clust_5="30.06361" pt_clust_6="14000.00000"></scales>
<clustering>
<clus scale="   30.064">  1  5  2 -1</clus>
<clus scale="   40.312">  1  3  2 -1</clus>
<clus scale="  113.509">  2  4  1 -1</clus>
<clus scale="   30.064">  1  3  2 -1</clus>
</clustering>
</event>
<event>
 6    0  0.6207838E+002  0.9007385E+02  0.7546771E-02  0.1302673E+00
         21   -1    0    0  506  501  0.00000000000E+00  0.00000000000E+00  0.72142588981E+03  0.72142588981E+03  0.00000000000E+00 0.  1.
         21   -1    0    0  503  502 -0.00000000000E+00 -0.00000000000E+00 -0.82050612767E+03  0.82050612767E+03  0.00000000000E+00 0.  1.
         21    1    1    2  503  505 -0.20022738214E+02  0.87441664297E+02 -0.78754723455E+03  0.79263964155E+03  0.00000000000E+00 0.  1.
         21    1    1    2  504  501  0.61011005492E+02  0.52817508327E+01  0.39099565312E+03  0.39576235350E+03  0.00000000000E+00 0.  1.
         21    1    1    2  505  504 -0.15668423544E+02 -0.11440771596E+03  0.98481171893E+02  0.15176681517E+03  0.00000000000E+00 0.  1.
         21    1    1    2  506  502 -0.25319843734E+02  0.21684300832E+02  0.19899017167E+03  0.20176320727E+03  0.00000000000E+00 0.  1.
<scales pt_clust_3="90.07385" pt_clust_4="47.15984" pt_clust_5="14000.00000" pt_clust_6="33.33622"></scales>
<clustering>
<clus scale="   33.336">  1  6  2 -1</clus>
<clus scale="   47.160">  1  4  2 -1</clus>
<clus scale="   90.074">  2  3  1 -1</clus>
<clus scale="   33.336">  1  3  2 -1</clus>
</clustering>
</event>
<event>
 6    0  0.6207838E+002  0.7731776E+02  0.7546771E-02  0.1336840E+00
         21   -1    0    0  505  501  0.00000000000E+00  0.00000000000E+00  0.10864554339E+04  0.10864554339E+04  0.00000000000E+00 0.  1.
         21   -1    0    0  503  502 -0.00000000000E+00 -0.00000000000E+00 -0.46805295890E+02  0.46805295890E+02  0.00000000000E+00 0.  1.
         21    1    1    2  503  504 -0.14099575169E+02  0.45382472231E+02  0.73484878557E+02  0.87512251612E+02  0.00000000000E+00 0.  1.
         21    1    1    2  504  501 -0.56410842276E+02 -0.31905157122E+02  0.32760366573E+03  0.33395251755E+03  0.00000000000E+00 0.  1.
         21    1    1    2  505  506  0.54089139967E+02  0.81426432357E+02  0.60022422319E+03  0.60813240093E+03  0.00000000000E+00 0.  1.
         21    1    1    2  506  502  0.16421277479E+02 -0.94903747467E+02  0.38337370576E+02  0.10366355975E+03  0.00000000000E+00 0.  1.
<scales pt_clust_3="47.52228" pt_clust_4="14000.00000" pt_clust_5="77.31776" pt_clust_6="57.85482"></scales>
<clustering>
<clus scale="   47.522">  2  3  1 -1</clus>
<clus scale="   57.855">  2  6  1 -1</clus>
<clus scale="   77.318">  2  5  1 -1</clus>
<clus scale="   77.318">  1  3  2 -1</clus>
</clustering>
</event>
<event>
 6    0  0.6207838E+002  0.1067088E+03  0.7546771E-02  0.1266789E+00
         21   -1    0    0  503  501  0.00000000000E+00  0.00000000000E+00  0.64061249796E+03  0.64061249796E+03  0.00000000000E+00 0.  1.
         21   -1    0    0  505  502 -0.00000000000E+00 -0.00000000000E+00 -0.14310251975E+03  0.14310251975E+03  0.00000000000E+00 0. -1.
         21    1    1    2  503  506  0.22754999150E+02 -0.77133363786E+02  0.38937104358E+03  0.39758917914E+03  0.00000000000E+00 0.  1.
         21    1    1    2  504  501 -0.79612602486E+02  0.30400964112E+02  0.11391598030E+03  0.14226466765E+03  0.00000000000E+00 0.  1.
         21    1    1    2  505  504  0.29040827176E+02  0.85469491500E+02 -0.10215879717E+03  0.13632616572E+03  0.00000000000E+00 0. -1.
         21    1    1    2  506  502  0.27816776159E+02 -0.38737091825E+02  0.96381751506E+02  0.10753500520E+03  0.00000000000E+00 0.  1.
<scales pt_clust_3="43.63807" pt_clust_4="85.21963" pt_clust_5="90.41881" pt_clust_6="43.63807"></scales>
<clustering>
<clus scale="   43.638">  3  6 -1 -1</clus>
<clus scale="   85.220">  1  4  2 -1</clus>
<clus scale="   90.419">  2  5  1 -1</clus>
<clus scale="   85.220">  1  3  2 -1</clus>
</clustering>
</event>
<event>
 6    0  0.6207838E+002  0.1338830E+03  0.7546771E-02  0.1221805E+00
         21   -1    0    0  502  501  0.00000000000E+00  0.00000000000E+00  0.58485549672E+03  0.58485549672E+03  0.00000000000E+00 0. -1.
         21   -1    0    0  503  502 -0.00000000000E+00 -0.00000000000E+00 -0.60905669347E+02  0.60905669347E+02  0.00000000000E+00 0. -1.
         21    1    1    2  503  506 -0.99577425345E+01  0.34178029247E+02  0.14339006219E+02  0.38378397816E+02  0.00000000000E+00 0. -1.
         21    1    1    2  504  505  0.58588189632E+02 -0.20597425108E+02  0.21198348605E+02  0.65621641773E+02  0.00000000000E+00 0. -1.
         21    1    1    2  505  501 -0.12432185856E+03 -0.20654077101E+02  0.42331554549E+03  0.44167699336E+03  0.00000000000E+00 0. -1.
         21    1    1    2  506  504  0.75691411458E+02  0.70734729614E+01  0.65096927063E+02  0.10008413311E+03  0.00000000000E+00 0. -1.
<scales pt_clust_3="35.59908" pt_clust_4="36.15674" pt_clust_5="126.99231" pt_clust_6="36.15674"></scales>
<clustering>
<clus scale="   35.599">  2  3  1 -1</clus>
<clus scale="   36.157">  4  6 -1 -1</clus>
<clus scale="  126.992">  1  5  2 -1</clus>
<clus scale="  126.992">  1  3  2 -1</clus>
</clustering>
</event>
<event>
 6    0  0.6207838E+002  0.1819362E+03  0.7546771E-02  0.1165942E+00
         21   -1    0    0  504  501  0.00000000000E+00  0.00000000000E+00  0.32696960611E+03  0.32696960611E+03  0.00000000000E+00 0. -1.
         21   -1    0    0  503  502 -0.00000000000E+00 -0.00000000000E+00 -0.22084245170E+03  0.22084245170E+03  0.00000000000E+00 0. -1.
         21    1    1    2  503  506  0.67171528042E+00 -0.30372094357E+02 -0.37562905949E+02  0.48310322089E+02  0.00000000000E+00 0. -1.
         21    1    1    2  504  505 -0.33442705303E+02 -0.18154496866E+02  0.11222963287E+03  0.11850523527E+03  0.00000000000E+00 0. -1.
         21    1    1    2  505  502  0.14453295515E+03 -0.98622872754E+02 -0.45556529167E+02  0.18080830596E+03  0.00000000000E+00 0. -1.
         21    1    1    2  506  501 -0.11176196512E+03  0.14714946398E+03  0.77016956670E+02  0.20018819449E+03  0.00000000000E+00 0. -1.
<scales pt_clust_3="30.37952" pt_clust_4="38.30072" pt_clust_5="181.93621" pt_clust_6="14000.00000"></scales>
<clustering>
<clus scale="   30.380">  2  3  1 -1</clus>
<clus scale="   38.301">  1  4  2 -1</clus>
<clus scale="  181.936">  2  5  1 -1</clus>
<clus scale="   38.301">  1  3  2 -1</clus>
</clustering>
</event>
<event>
 6    0  0.6207838E+002  0.7893979E+02  0.7546771E-02  0.1332087E+00
         21   -1    0    0  504  501  0.00000000000E+00  0.00000000000E+00  0.26345270785E+03  0.26345270785E+03  0.00000000000E+00 0. -1.
         21   -1    0    0  505  502 -0.00000000000E+00 -0.00000000000E+00 -0.12527096977E+03  0.12527096977E+03  0.00000000000E+00 0. -1.
         21    1    1    2  503  501  0.21737455469E+02  0.96475964093E+02  0.22006822917E+02  0.10131351772E+03  0.00000000000E+00 0. -1.
         21    1    1    2  504  506 -0.55638888489E+02 -0.53705692638E+02  0.15856578969E+03  0.17641739425E+03  0.00000000000E+00 0. -1.
         21    1    1    2  505  503  0.41550841488E+02  0.15096559464E+02 -0.18379393936E+02  0.47876723545E+02  0.00000000000E+00 0. -1.
         21    1    1    2  506  502 -0.76494084677E+01 -0.57866830920E+02 -0.24011480588E+02  0.63116042102E+02  0.00000000000E+00 0. -1.
<scales pt_clust_3="14000.00000" pt_clust_4="78.93979" pt_clust_5="44.20835" pt_clust_6="52.12828"></scales>
<clustering>
<clus scale="   44.208">  2  5  1 -1</clus>
<clus scale="   52.128">  2  6  1 -1</clus>
<clus scale="   78.940">  1  4  2 -1</clus>
<clus scale="   78.940">  1  3  2 -1</clus>
</clustering>
</event>
<event>
 6    0  0.6207838E+002  0.7065767E+02  0.7546771E-02  0.1357871E+00
         21   -1    0    0  504  501  0.00000000000E+00  0.00000000000E+00  0.18131401538E+03  0.18131401538E+03  0.00000000000E+00 0. -1.
         21   -1    0    0  505  502 -0.00000000000E+00 -0.00000000000E+00 -0.20966355958E+04  0.20966355958E+04  0.00000000000E+00 0.  1.
         21    1    1    2  503  502 -0.58473460526E+02  0.75566498799E+02  0.61139370133E+02  0.11343484432E+03  0.00000000000E+00 0. -1.
         21    1    1    2  504  503  0.68461117717E+01 -0.51080434281E+02  0.76620484136E+02  0.92340557730E+02  0.00000000000E+00 0. -1.
         21    1    1    2  505  506  0.36358791720E+02 -0.60385716076E+02 -0.20194132931E+04  0.20206430771E+04  0.00000000000E+00 0.  1.
         21    1    1    2  506  501  0.15268557034E+02  0.35899651559E+02 -0.33668141572E+02  0.51531132074E+02  0.00000000000E+00 0. -1.
<scales pt_clust_3="70.65767" pt_clust_4="36.42372" pt_clust_5="14000.00000" pt_clust_6="39.01171"></scales>
<clustering>
<clus scale="   39.012">  1  6  2 -1</clus>
<clus scale="   36.424">  1  4  2 -1</clus>
<clus scale="   70.658">  1  3  2 -1</clus>
<clus scale="   39.012">  1  3  2 -1</clus>
</clustering>
</event>
<event>
 6    0  0.6207838E+002  0.8988892E+02  0.7546771E-02  0.1303121E+00
         21   -1    0    0  505  501  0.00000000000E+00  0.00000000000E+00  0.62189656551E+03  0.62189656551E+03  0.00000000000E+00 0.  1.
         21   -1    0    0  506  502 -0.00000000000E+00 -0.00000000000E+00 -0.58152162734E+02  0.58152162734E+02  0.00000000000E+00 0.  1.
         21    1    1    2  503  501  0.91899453066E+02  0.10309204219E+02  0.30911021023E+03  0.32264672822E+03  0.00000000000E+00 0.  1.
         21    1    1    2  504  502 -0.79806256431E+02  0.56948257574E+02  0.34111258021E+02  0.10380616807E+03  0.00000000000E+00 0.  1.
         21    1    1    2  505  504 -0.25300197054E+02  0.22790873984E+02  0.65845299724E+02  0.74129126554E+02  0.00000000000E+00 0.  1.
         21    1    1    2  506  503  0.13207000418E+02 -0.90048335778E+02  0.15467763480E+03  0.17946670539E+03  0.00000000000E+00 0.  1.
<scales pt_clust_3="80.86475" pt_clust_4="14000.00000" pt_clust_5="34.05178" pt_clust_6="89.88892"></scales>
<clustering>
<clus scale="   34.052">  1  5  2 -1</clus>
<clus scale="   80.865">  1  3  2 -1</clus>
<clus scale="   89.889">  1  6  2 -1</clus>
<clus scale="   34.052">  1  3  2 -1</clus>
</clustering>
</event>
<event>
 6    0  0.6207838E+002  0.9438061E+02  0.7546771E-02  0.1292577E+00
         21   -1    0    0  503  501  0.00000000000E+00  0.00000000000E+00  0.37058132124E+03  0.37058132124E+03  0.00000000000E+00 0.  1.
         21   -1    0    0  505  502 -0.00000000000E+00 -0.00000000000E+00 -0.71823634320E+02  0.71823634320E+02  0.00000000000E+00 0.  1.
         21    1    1    2  503  504  0.86154733537E+02  0.48015089913E+02  0.65241430504E+02  0.11825621009E+03  0.00000000000E+00 0.  1.
         21    1    1    2  504  502 -0.20427914305E+02  0.57194274518E+02  0.61672566007E+02  0.86556282952E+02  0.00000000000E+00 0.  1.
         21    1    1    2  505  506 -0.49784220576E+01 -0.32857633116E+02 -0.82342597153E+01  0.34237578379E+02  0.00000000000E+00 0.  1.
         21    1    1    2  506  501 -0.60748397174E+02 -0.72351731314E+02  0.18007795012E+03  0.20335488414E+03  0.00000000000E+00 0.  1.
<scales pt_clust_3="14000.00000" pt_clust_4="53.67417" pt_clust_5="33.23265" pt_clust_6="94.38061"></scales>
<clustering>
<clus scale="   33.233">  2  5  1 -1</clus>
<clus scale="   53.674">  2  4  1 -1</clus>
<clus scale="   94.381">  1  6  2 -1</clus>
<clus scale="   94.381">  1  3  2 -1</clus>
</clustering>
</event>
<event>
 6    0  0.6207838E+002  0.1329496E+03  0.7546771E-02  0.1223143E+00
         21   -1    0    0  503  501  0.00000000000E+00  0.00000000000E+00  0.71383381613E+03  0.71383381613E+03  0.00000000000E+00 0. -1.
         21   -1    0    0  506  502 -0.00000000000E+00 -0.00000000000E+00 -0.41031197725E+03  0.41031197725E+03  0.00000000000E+00 0. -1.
         21    1    1    2  503  505  0.17696140129E+01  0.36458747673E+02  0.60303543172E+03  0.60413914269E+03  0.00000000000E+00 0. -1.
         21    1    1    2  504  501 -0.39403449956E+01  0.48474037357E+02 -0.31774358803E+01  0.48737610889E+02  0.00000000000E+00 0.  1.
         21    1    1    2  505  502 -0.76663373008E+02 -0.17807008292E+03 -0.56108573711E+02  0.20182764736E+03  0.00000000000E+00 0. -1.
         21    1    1    2  506  504  0.78834103991E+02  0.93137297893E+02 -0.24022758325E+03  0.26944139245E+03  0.00000000000E+00 0. -1.
<scales pt_clust_3="36.50167" pt_clust_4="56.12142" pt_clust_5="132.94963" pt_clust_6="14000.00000"></scales>
<clustering>
<clus scale="   36.502">  1  3  2 -1</clus>
<clus scale="   56.121">  1  4  2 -1</clus>
<clus scale="  132.950">  1  5  2 -1</clus>
<clus scale="   36.502">  1  3  2 -1</clus>
</clustering>
</event>
<event>
 6    0  0.6207838E+002  0.8654777E+02  0.7546771E-02  0.1311434E+00
         21   -1    0    0  504  501  0.00000000000E+00  0.00000000000E+00  0.11858689166E+04  0.11858689166E+04  0.00000000000E+00 0. -1.
         21   -1    0    0  503  502 -0.00000000000E+00 -0.00000000000E+00 -0.69945982187E+02  0.69945982187E+02  0.00000000000E+00 0.  1.
         21    1    1    2  503  505  0.42008495573E+02 -0.12286227143E+02 -0.48162050768E+02  0.65078784653E+02  0.00000000000E+00 0.  1.
         21    1    1    2  504  502 -0.52553551397E+02 -0.70317058379E+02  0.75054700193E+03  0.75566339502E+03  0.00000000000E+00 0. -1.
         21    1    1    2  505  506 -0.44340186457E+02  0.19092140326E+02  0.10969570335E+03  0.11984869332E+03  0.00000000000E+00 0. -1.
         21    1    1    2  506  501  0.54885242281E+02  0.63511145196E+02  0.30384227993E+03  0.31522402583E+03  0.00000000000E+00 0. -1.
<scales pt_clust_3="43.76831" pt_clust_4="86.54777" pt_clust_5="31.79089" pt_clust_6="14000.00000"></scales>
<clustering>
<clus scale="   43.768">  2  3  1 -1</clus>
<clus scale="   31.791">  2  5  1 -1</clus>
<clus scale="   86.548">  1  4  2 -1</clus>
<clus scale="   86.548">  1  3  2 -1</clus>
</clustering>
</event>
<event>
 6    0  0.6207838E+002  0.1624302E+03  0.7546771E-02  0.1185980E+00
         21   -1    0    0  503  501  0.00000000000E+00  0.00000000000E+00  0.20634442558E+04  0.20634442558E+04  0.00000000000E+00 0.  1.
         21   -1    0    0  501  502 -0.00000000000E+00 -0.00000000000E+00 -0.15882784859E+03  0.15882784859E+03  0.00000000000E+00 0.  1.
         21    1    1    2  503  506 -0.11261517365E+02 -0.29311672781E+02  0.16240638387E+04  0.16243673686E+04  0.00000000000E+00 0.  1.
         21    1    1    2  504  505  0.15994247805E+03  0.14772429527E+03 -0.40924880677E+01  0.21776320202E+03  0.00000000000E+00 0.  1.
         21    1    1    2  505  502 -0.51222670722E+02 -0.10745118740E+03  0.56405844949E+02  0.13172372229E+03  0.00000000000E+00 0.  1.
         21    1    1    2  506  504 -0.97458289964E+02 -0.10961435085E+02  0.22823921167E+03  0.24841781153E+03  0.00000000000E+00 0.  1.
<scales pt_clust_3="31.40057" pt_clust_4="14000.00000" pt_clust_5="162.43024" pt_clust_6="106.99673"></scales>
<clustering>
<clus scale="   31.401">  1  3  2 -1</clus>
<clus scale="  106.997">  1  6  2 -1</clus>
<clus scale="  162.430">  2  5  1 -1</clus>
<clus scale="   31.401">  1  3  2 -1</clus>
</clustering>
</event>
<event>
 6    0  0.6207838E+002  0.1268065E+03  0.7546771E-02  0.1232273E+00
         21   -1    0    0  504  501  0.00000000000E+00  0.00000000000E+00  0.16817013684E+04  0.16817013684E+04  0.00000000000E+00 0. -1.
         21   -1    0    0  503  502 -0.00000000000E+00 -0.00000000000E+00 -0.51100754133E+02  0.51100754133E+02  0.00000000000E+00 0. -1.
         21    1    1    2  503  505 -0.22007288012E+02  0.46928429920E+02  0.42604116527E+03  0.42918256345E+03  0.00000000000E+00 0. -1.
         21    1    1    2  504  506  0.47718055346E+02 -0.12659447503E+03  0.45654045506E+03  0.47616421645E+03  0.00000000000E+00 0. -1.
         21    1    1    2  505  501  0.81451745240E+01  0.69718663368E+02  0.77799485784E+03  0.78115493643E+03  0.00000000000E+00 0. -1.
         21    1    1    2  506  502 -0.33855941858E+02  0.99473817404E+01 -0.29975863877E+02  0.46300406237E+02  0.00000000000E+00 0. -1.
<scales pt_clust_3="32.32930" pt_clust_4="121.09700" pt_clust_5="32.32930" pt_clust_6="35.28704"></scales>
<clustering>
<clus scale="   32.329">  3  5 -1 -1</clus>
<clus scale="   35.287">  2  6  1 -1</clus>
<clus scale="  121.097">  2  4  1 -1</clus>
<clus scale="  126.807">  1  3  2 -1</clus>
</clustering>
</event>
<event>
 6    0  0.6207838E+002  0.1194995E+03  0.7546771E-02  0.1243925E+00
         21   -1    0    0  504  501  0.00000000000E+00  0.00000000000E+00  0.44678191687E+03  0.44678191687E+03  0.00000000000E+00 0.  1.
         21   -1    0    0  503  502 -0.00000000000E+00 -0.00000000000E+00 -0.13887455415E+03  0.13887455415E+03  0.00000000000E+00 0. -1.
         21    1    1    2  503  501 -0.34336552779E+02 -0.10612719984E+02  0.40529937015E+02  0.54169220749E+02  0.00000000000E+00 0.  1.
         21    1    1    2  504  505 -0.65598004025E+01 -0.70013956538E+02  0.26194689037E+03  0.27122160398E+03  0.00000000000E+00 0.  1.
         21    1    1    2  505  506  0.12178140964E+03 -0.21061134546E+02  0.31952004045E+02  0.12765270732E+03  0.00000000000E+00 0.  1.
         21    1    1    2  506  502 -0.80885056461E+02  0.10168781107E+03 -0.26521468707E+02  0.13261293897E+03  0.00000000000E+00 0. -1.
<scales pt_clust_3="35.93924" pt_clust_4="82.53965" pt_clust_5="119.49946" pt_clust_6="14000.00000"></scales>
<clustering>
<clus scale="   35.939">  1  3  2 -1</clus>
<clus scale="   82.540">  1  4  2 -1</clus>
<clus scale="  119.499">  1  5  2 -1</clus>
<clus scale="   35.939">  1  3  2 -1</clus>
</clustering>
</event>
<event>
 6    0  0.6207838E+002  0.1560864E+03  0.7546771E-02  0.1193187E+00
         21   -1    0    0  504  501  0.00000000000E+00  0.00000000000E+00  0.56588890871E+03  0.56588890871E+03  0.00000000000E+00 0. -1.
         21   -1    0    0  506  502 -0.00000000000E+00 -0.00000000000E+00 -0.19897727135E+03  0.19897727135E+03  0.00000000000E+00 0.  1.
         21    1    1    2  503  501  0.24603416681E+02  0.30913450052E+02  0.41497602190E+02  0.57297648242E+02  0.00000000000E+00 0.  1.
         21    1    1    2  504  505 -0.17318204833E+03 -0.54844571991E+02  0.93997496424E+02  0.20453722956E+03  0.00000000000E+00 0.  1.
         21    1    1    2  505  502  0.15484894487E+02  0.39958162537E+02 -0.11972893172E+03  0.12716703111E+03  0.00000000000E+00 0.  1.
         21    1    1    2  506  503  0.13309373716E+03 -0.16027040598E+02  0.35114547047E+03  0.37586427116E+03  0.00000000000E+00 0. -1.
<scales pt_clust_3="39.50911" pt_clust_4="156.08644" pt_clust_5="43.12532" pt_clust_6="14000.00000"></scales>
<clustering>
<clus scale="   39.509">  1  3  2 -1</clus>
<clus scale="   43.125">  2  5  1 -1</clus>
<clus scale="  156.086">  2  4  1 -1</clus>
<clus scale="   39.509">  1  3  2 -1</clus>
</clustering>
</event>
<event>
 6    0  0.6207838E+002  0.7238865E+02  0.7546771E-02  0.1352154E+00
         21   -1    0    0  503  501  0.00000000000E+00  0.00000000000E+00  0.19113015398E+04  0.19113015398E+04  0.00000000000E+00 0.  1.
         21   -1    0    0  505  502 -0.00000000000E+00 -0.00000000000E+00 -0.42888228061E+03  0.42888228061E+03  0.00000000000E+00 0. -1.
         21    1    1    2  503  506  0.53823179916E+02  0.71629346691E+01  0.18614180194E+04  0.18622097855E+04  0.00000000000E+00 0.  1.
         21    1    1    2  504  501  0.38975129676E+02  0.70697530788E+02 -0.63207452968E+02  0.10252991614E+03  0.00000000000E+00 0. -1.
         21    1    1    2  505  504  0.19545998798E+01 -0.58317189455E+02 -0.25407252800E+03  0.26068671721E+03  0.00000000000E+00 0. -1.
         21    1    1    2  506  502 -0.94752909472E+02 -0.19543276003E+02 -0.61718779272E+02  0.11475740153E+03  0.00000000000E+00 0. -1.
<scales pt_clust_3="54.29772" pt_clust_4="14000.00000" pt_clust_5="58.10432" pt_clust_6="72.38865"></scales>
<clustering>
<clus scale="   54.298">  1  3  2 -1</clus>
<clus scale="   58.104">  2  5  1 -1</clus>
<clus scale="   72.389">  1  6  2 -1</clus>
<clus scale="   54.298">  1  3  2 -1</clus>
</clustering>
</event>
<event>
 6    0  0.6207838E+002  0.9930604E+02  0.7546771E-02  0.1281762E+00
         21   -1    0    0  503  501  0.00000000000E+00  0.00000000000E+00  0.55446810541E+03  0.55446810541E+03  0.00000000000E+00 0.  1.
         21   -1    0    0  505  502 -0.00000000000E+00 -0.00000000000E+00 -0.23664723764E+03  0.23664723764E+03  0.00000000000E+00 0. -1.
         21    1    1    2  503  502 -0.51929865287E+02 -0.95843591454E+01 -0.58297087956E+02  0.78658256484E+02  0.00000000000E+00 0.  1.
         21    1    1    2  504  506  0.29990580893E+02  0.79802672671E+02  0.48059660681E+02  0.97865379438E+02  0.00000000000E+00 0. -1.
         21    1    1    2  505  504 -0.11692256042E+01 -0.89509532734E+02 -0.12873956954E+03  0.15680306216E+03  0.00000000000E+00 0. -1.
         21    1    1    2  506  501  0.23108509997E+02  0.19291219209E+02  0.45679786459E+03  0.45778864497E+03  0.00000000000E+00 0.  1.
<scales pt_clust_3="50.08327" pt_clust_4="99.30604" pt_clust_5="14000.00000" pt_clust_6="30.10240"></scales>
<clustering>
<clus scale="   30.102">  1  6  2 -1</clus>
<clus scale="   50.083">  2  3  1 -1</clus>
<clus scale="   99.306">  1  4  2 -1</clus>
<clus scale="   30.102">  1  3  2 -1</clus>
</clustering>
</event>
<event>
 6    0  0.6207838E+002  0.9763991E+02  0.7546771E-02  0.1285339E+00
         21   -1    0    0  503  501  0.00000000000E+00  0.00000000000E+00  0.80933316488E+03  0.80933316488E+03  0.00000000000E+00 0.  1.
         21   -1    0    0  504  502 -0.00000000000E+00 -0.00000000000E+00 -0.13274434119E+03  0.13274434119E+03  0.00000000000E+00 0. -1.
         21    1    1    2  503  502  0.17587137630E+02 -0.31721555785E+02  0.62462181999E+03  0.62567402257E+03  0.00000000000E+00 0.  1.
         21    1    1    2  504  505 -0.76860519858E+02  0.65738209035E+02 -0.83835215743E+02  0.13136740478E+03  0.00000000000E+00 0. -1.
         21    1    1    2  505  506  0.89312816810E+02 -0.18214398087E+02  0.90697509002E+02  0.12858686435E+03  0.00000000000E+00 0.  1.
         21    1    1    2  506  501 -0.30039434582E+02 -0.15802255163E+02  0.45104710440E+02  0.56449214362E+02  0.00000000000E+00 0.  1.
<scales pt_clust_3="45.31535" pt_clust_4="14000.00000" pt_clust_5="97.63991" pt_clust_6="33.94229"></scales>
<clustering>
<clus scale="   33.942">  1  6  2 -1</clus>
<clus scale="   45.315">  1  3  2 -1</clus>
<clus scale="   97.640">  1  5  2 -1</clus>
<clus scale="   33.942">  1  3  2 -1</clus>
</clustering>
</event>
<event>
 6    0  0.6207838E+002  0.1337333E+03  0.7546771E-02  0.1222019E+00
         21   -1    0    0  502  501  0.00000000000E+00  0.00000000000E+00  0.19007533217E+03  0.19007533217E+03  0.00000000000E+00 0.  1.
         21   -1    0    0  506  502 -0.00000000000E+00 -0.00000000000E+00 -0.30908886946E+03  0.30908886946E+03  0.00000000000E+00 0. -1.
         21    1    1    2  503  501 -0.73687173110E+01 -0.37122813454E+02  0.51925010039E+02  0.64254244538E+02  0.00000000000E+00 0. -1.
         21    1    1    2  504  503  0.12112593665E+03  0.84522320618E+02  0.67802599343E+02  0.16251986860E+03  0.00000000000E+00 0.  1.
         21    1    1    2  505  504 -0.57269443643E+02 -0.11529858116E+00 -0.11210665516E+03  0.12588766659E+03  0.00000000000E+00 0. -1.
         21    1    1    2  506  505 -0.56487775692E+02 -0.47284208583E+02 -0.12663449151E+03  0.14650242191E+03  0.00000000000E+00 0. -1.
<scales pt_clust_3="37.84708" pt_clust_4="125.98809" pt_clust_5="39.10096" pt_clust_6="39.10096"></scales>
<clustering>
<clus scale="   37.847">  1  3  2 -1</clus>
<clus scale="   39.101">  5  6 -1 -1</clus>
<clus scale="  125.988">  1  4  2 -1</clus>
<clus scale="   37.847">  1  3  2 -1</clus>
</clustering>
</event>
<event>
 6    0  0.6207838E+002  0.1527406E+03  0.7546771E-02  0.1197145E+00
         21   -1    0    0  505  501  0.00000000000E+00  0.00000000000E+00  0.23970061715E+03  0.23970061715E+03  0.00000000000E+00 0.  1.
         21   -1    0    0  504  502 -0.00000000000E+00 -0.00000000000E+00 -0.23597741642E+03  0.23597741642E+03  0.00000000000E+00 0.  1.
         21    1    1    2  503  502  0.83371368399E+02 -0.12547351727E+03 -0.83930001276E+02  0.17244893076E+03  0.00000000000E+00 0.  1.
         21    1    1    2  504  506  0.42914732823E+01  0.41677882857E+02 -0.38074175018E+02  0.56613650878E+02  0.00000000000E+00 0. -1.
         21    1    1    2  505  503 -0.28950502242E+02  0.83455306818E+01  0.14584034602E+03  0.14892006578E+03  0.00000000000E+00 0. -1.
         21    1    1    2  506  501 -0.58712339439E+02  0.75450103729E+02 -0.20112969002E+02  0.97695386162E+02  0.00000000000E+00 0.  1.
<scales pt_clust_3="139.94552" pt_clust_4="38.74812" pt_clust_5="30.12938" pt_clust_6="38.74812"></scales>
<clustering>
<clus scale="   30.129">  1  5  2 -1</clus>
<clus scale="   38.748">  4  6 -1 -1</clus>
<clus scale="  139.946">  1  3  2 -1</clus>
<clus scale="   30.129">  1  3  2 -1</clus>
</clustering>
</event>
<event>
 6    0  0.6207838E+002  0.8723704E+02  0.7546771E-02  0.1309684E+00
         21   -1    0    0  504  501  0.00000000000E+00  0.00000000000E+00  0.39573182262E+03  0.39573182262E+03  0.00000000000E+00 0.  1.
         21   -1    0    0  505  502 -0.00000000000E+00 -0.00000000000E+00 -0.67431566201E+03  0.67431566201E+03  0.00000000000E+00 0. -1.
         21    1    1    2  503  506 -0.43530194643E+02 -0.10459577000E+03 -0.39412045620E+03  0.41008058591E+03  0.00000000000E+00 0. -1.
         21    1    1    2  504  502 -0.79160972197E+01  0.59176017248E+02 -0.24782156850E+02  0.64642253292E+02  0.00000000000E+00 0. -1.
         21    1    1    2  505  503  0.26951274906E+02 -0.37967578738E+02 -0.21989711373E+03  0.22477243800E+03  0.00000000000E+00 0. -1.
         21    1    1    2  506  501  0.24495016957E+02  0.83387331487E+02  0.36021588739E+03  0.37055220743E+03  0.00000000000E+00 0.  1.
<scales pt_clust_3="87.23704" pt_clust_4="55.66818" pt_clust_5="46.56080" pt_clust_6="14000.00000"></scales>
<clustering>
<clus scale="   46.561">  2  5  1 -1</clus>
<clus scale="   55.668">  2  4  1 -1</clus>
<clus scale="   87.237">  2  3  1 -1</clus>
<clus scale="   87.237">  1  3  2 -1</clus>
</clustering>
</event>
<event>
 6    0  0.9800885E+002  0.8493652E+02  0.7546771E-02  0.1315599E+00
         21   -1    0    0  505  501  0.00000000000E+00  0.00000000000E+00  0.76716446399E+03  0.76716446399E+03  0.00000000000E+00 0.  1.
         21   -1    0    0  504  502 -0.00000000000E+00 -0.00000000000E+00 -0.10121762634E+04  0.10121762634E+04  0.00000000000E+00 0. -1.
         21    1    1    2  503  502  0.54709344659E+02  0.48540628672E+02  0.11753624806E+02  0.74077342832E+02  0.00000000000E+00 0.  1.
         21    1    1    2  504  506  0.71993496325E+02 -0.44997336125E+02 -0.96769975062E+03  0.97141681636E+03  0.00000000000E+00 0. -1.
         21    1    1    2  505  503  0.62992941402E+01  0.32148661383E+02  0.26811770691E+03  0.27011168486E+03  0.00000000000E+00 0.  1.
         21    1    1    2  506  501 -0.13300213512E+03 -0.35691953930E+02  0.44281661949E+03  0.46373488333E+03  0.00000000000E+00 0.  1.
<scales pt_clust_3="75.40289" pt_clust_4="84.93652" pt_clust_5="32.76000" pt_clust_6="14000.00000"></scales>
<clustering>
<clus scale="   32.760">  1  5  2 -1</clus>
<clus scale="   75.403">  1  3  2 -1</clus>
<clus scale="   84.937">  2  4  1 -1</clus>
<clus scale="   32.760">  1  3  2 -1</clus>
</clustering>
</event>
<event>
 6    0  0.6207838E+002  0.2203818E+03  0.7546771E-02  0.1133599E+00
         21   -1    0    0  506  501  0.00000000000E+00  0.00000000000E+00  0.16247203139E+03  0.16247203139E+03  0.00000000000E+00 0. -1.
         21   -1    0    0  503  502 -0.00000000000E+00 -0.00000000000E+00 -0.96372999548E+03  0.96372999548E+03  0.00000000000E+00 0. -1.
         21    1    1    2  503  505  0.91389015743E+02 -0.25727436504E+02 -0.45134928146E+03  0.46122665476E+03  0.00000000000E+00 0. -1.
         21    1    1    2  504  502 -0.35165194123E+02 -0.69471074077E+02 -0.84181780641E+02  0.11467080362E+03  0.00000000000E+00 0. -1.
         21    1    1    2  505  501 -0.21878417074E+03  0.12326589151E+03 -0.16804590270E+02  0.25168112291E+03  0.00000000000E+00 0. -1.
         21    1    1    2  506  504  0.16256034912E+03 -0.28067380932E+02 -0.24892231172E+03  0.29862344558E+03  0.00000000000E+00 0. -1.
<scales pt_clust_3="95.90374" pt_clust_4="77.86412" pt_clust_5="14000.00000" pt_clust_6="220.38178"></scales>
<clustering>
<clus scale="   77.864">  2  4  1 -1</clus>
<clus scale="   95.904">  2  3  1 -1</clus>
<clus scale="  220.382">  2  6  1 -1</clus>
<clus scale="  220.382">  1  3  2 -1</clus>
</clustering>
</event>
<event>
 6    0  0.6207838E+002  0.1283287E+03  0.7546771E-02  0.1229957E+00
         21   -1    0    0  504  501  0.00000000000E+00  0.00000000000E+00  0.55141826936E+03  0.55141826936E+03  0.00000000000E+00 0. -1.
         21   -1    0    0  503  502 -0.00000000000E+00 -0.00000000000E+00 -0.10407322362E+03  0.10407322362E+03  0.00000000000E+00 0. -1.
         21    1    1    2  503  501  0.26446091746E+02 -0.19837008639E+02  0.27589986788E+02  0.43059378204E+02  0.00000000000E+00 0. -1.
         21    1    1    2  504  505  0.66079392128E+02  0.12055829499E+03  0.40500317922E+03  0.42770125524E+03  0.00000000000E+00 0. -1.
         21    1    1    2  505  506 -0.60752725271E+01 -0.96443247553E+02 -0.15810743705E+01  0.96647342079E+02  0.00000000000E+00 0. -1.
         21    1    1    2  506  502 -0.86450211347E+02 -0.42780387978E+01  0.16332954113E+02  0.88083517459E+02  0.00000000000E+00 0.  1.
<scales pt_clust_3="33.05908" pt_clust_4="14000.00000" pt_clust_5="128.32866" pt_clust_6="77.48511"></scales>
<clustering>
<clus scale="   33.059">  2  3  1 -1</clus>
<clus scale="   77.485">  2  6  1 -1</clus>
<clus scale="  128.329">  2  5  1 -1</clus>
<clus scale="  128.329">  1  3  2 -1</clus>
</clustering>
</event>
<event>
 6    0  0.6207838E+002  0.2486274E+03  0.7546771E-02  0.1114175E+00
         21   -1    0    0  505  501  0.00000000000E+00  0.00000000000E+00  0.59063010306E+03  0.59063010306E+03  0.00000000000E+00 0.  1.
         21   -1    0    0  506  502 -0.00000000000E+00 -0.00000000000E+00 -0.33102769066E+03  0.33102769066E+03  0.00000000000E+00 0. -1.
         21    1    1    2  503  501 -0.64839675377E+01  0.85559955551E+02  0.15588871168E+03  0.17794335688E+03  0.00000000000E+00 0.  1.
         21    1    1    2  504  502 -0.91909020642E+01 -0.28828010482E+02 -0.53635616186E+01  0.30729377838E+02  0.00000000000E+00 0. -1.
         21    1    1    2  505  504 -0.84147656390E+02  0.23822570137E+03 -0.16200426353E+03  0.30012946252E+03  0.00000000000E+00 0. -1.
         21    1    1    2  506  503  0.99822525992E+02 -0.29495764644E+03  0.27108152586E+03  0.41285559649E+03  0.00000000000E+00 0.  1.
<scales pt_clust_3="84.81790" pt_clust_4="30.25767" pt_clust_5="248.62742" pt_clust_6="14000.00000"></scales>
<clustering>
<clus scale="   30.258">  2  4  1 -1</clus>
<clus scale="   84.818">  1  3  2 -1</clus>
<clus scale="  248.627">  2  5  1 -1</clus>
<clus scale="   84.818">  1  3  2 -1</clus>
</clustering>
</event>
<event>
 6    0  0.6207838E+002  0.1576488E+03  0.7546771E-02  0.1191377E+00
         21   -1    0    0  506  501  0.00000000000E+00  0.00000000000E+00  0.76860332943E+03  0.76860332943E+03  0.00000000000E+00 0. -1.
         21   -1    0    0  505  502 -0.00000000000E+00 -0.00000000000E+00 -0.10451720022E+03  0.10451720022E+03  0.00000000000E+00 0. -1.
         21    1    1    2  503  501 -0.92401825748E+02 -0.86805172905E+02  0.27129693880E+02  0.12965051382E+03  0.00000000000E+00 0. -1.
         21    1    1    2  504  502  0.40211316927E+02  0.11834377713E+02  0.14040232031E+02  0.44205549656E+02  0.00000000000E+00 0. -1.
         21    1    1    2  505  503 -0.64364119740E+02  0.19417249900E+01  0.32051184001E+01  0.64473118350E+02  0.00000000000E+00 0. -1.
         21    1    1    2  506  504  0.11655462856E+03  0.73029070202E+02  0.61971108489E+03  0.63479134782E+03  0.00000000000E+00 0. -1.
<scales pt_clust_3="48.97871" pt_clust_4="41.91661" pt_clust_5="48.97871" pt_clust_6="140.94937"></scales>
<clustering>
<clus scale="   41.917">  2  4  1 -1</clus>
<clus scale="   48.979">  3  5 -1 -1</clus>
<clus scale="  140.949">  1  6  2 -1</clus>
<clus scale="  140.949">  1  3  2 -1</clus>
</clustering>
</event>
<event>
 6    0  0.6207838E+002  0.1142266E+03  0.7546771E-02  0.1252937E+00
         21   -1    0    0  506  501  0.00000000000E+00  0.00000000000E+00  0.33179506014E+02  0.33179506014E+02  0.00000000000E+00 0. -1.
         21   -1    0    0  503  502 -0.00000000000E+00 -0.00000000000E+00 -0.93976826539E+03  0.93976826539E+03  0.00000000000E+00 0. -1.
         21    1    1    2  503  505 -0.40741491240E+02  0.76312445700E+01 -0.24827795130E+03  0.25171421514E+03  0.00000000000E+00 0.  1.
         21    1    1    2  504  502  0.72179544369E+01  0.29266620182E+02 -0.13366336435E+03  0.13702017695E+03  0.00000000000E+00 0. -1.
         21    1    1    2  505  501  0.85940153324E+02 -0.12213210090E+03 -0.38034636295E+03  0.40861389579E+03  0.00000000000E+00 0. -1.
         21    1    1    2  506  504 -0.52416616521E+02  0.85234236148E+02 -0.14430108078E+03  0.17559948352E+03  0.00000000000E+00 0. -1.
<scales pt_clust_3="41.97499" pt_clust_4="30.14356" pt_clust_5="114.22660" pt_clust_6="14000.00000"></scales>
<clustering>
<clus scale="   30.144">  2  4  1 -1</clus>
<clus scale="   41.975">  2  3  1 -1</clus>
<clus scale="  114.227">  2  5  1 -1</clus>
<clus scale="  114.227">  1  3  2 -1</clus>
</clustering>
</event>
<event>
 6    0  0.6207838E+002  0.2082931E+03  0.7546771E-02  0.1142925E+00
         21   -1    0    0  504  501  0.00000000000E+00  0.00000000000E+00  0.81541443315E+03  0.81541443315E+03  0.00000000000E+00 0.  1.
         21   -1    0    0  505  502 -0.00000000000E+00 -0.00000000000E+00 -0.21275125551E+03  0.21275125551E+03  0.00000000000E+00 0.  1.
         21    1    1    2  503  501 -0.85774456728E+02 -0.19729654793E+03  0.14408253812E+00  0.21513532023E+03  0.00000000000E+00 0.  1.
         21    1    1    2  504  506  0.97188810893E+02  0.18319976498E+03  0.67461137234E+03  0.70576789566E+03  0.00000000000E+00 0.  1.
         21    1    1    2  505  503  0.29565482390E+02  0.16493865555E+02 -0.50723107712E+02  0.60983596204E+02  0.00000000000E+00 0.  1.
         21    1    1    2  506  502 -0.40979836556E+02 -0.23970826076E+01 -0.21369169529E+02  0.46278876558E+02  0.00000000000E+00 0. -1.
<scales pt_clust_3="208.29313" pt_clust_4="14000.00000" pt_clust_5="33.85506" pt_clust_6="34.62551"></scales>
<clustering>
<clus scale="   33.855">  2  5  1 -1</clus>
<clus scale="   34.626">  2  6  1 -1</clus>
<clus scale="  208.293">  2  3  1 -1</clus>
<clus scale="  208.293">  1  3  2 -1</clus>
</clustering>
</event>
<event>
 6    0  0.6207838E+002  0.9322181E+02  0.7546771E-02  0.1295232E+00
         21   -1    0    0  504  501  0.00000000000E+00  0.00000000000E+00  0.21570656110E+03  0.21570656110E+03  0.00000000000E+00 0.  1.
         21   -1    0    0  505  502 -0.00000000000E+00 -0.00000000000E+00 -0.21721878324E+03  0.21721878324E+03  0.00000000000E+00 0.  1.
         21    1    1    2  503  502 -0.82049958851E+02  0.47441440179E+02  0.34514142685E+02  0.10086680345E+03  0.00000000000E+00 0.  1.
         21    1    1    2  504  503  0.57642052767E+02 -0.33188111215E+02  0.52827424689E+02  0.84939942150E+02  0.00000000000E+00 0.  1.
         21    1    1    2  505  506  0.96523394140E+02  0.15363139293E+02 -0.12705749487E+03  0.16030096278E+03  0.00000000000E+00 0.  1.
         21    1    1    2  506  501 -0.72115488056E+02 -0.29616468257E+02  0.38203705358E+02  0.86817635954E+02  0.00000000000E+00 0.  1.
<scales pt_clust_3="64.11308" pt_clust_4="66.51358" pt_clust_5="93.22181" pt_clust_6="14000.00000"></scales>
<clustering>
<clus scale="   66.514">  1  4  2 -1</clus>
<clus scale="   64.113">  1  3  2 -1</clus>
<clus scale="   93.222">  2  5  1 -1</clus>
<clus scale="   66.514">  1  3  2 -1</clus>
</clustering>
</event>
<event>
 6    0  0.6207838E+002  0.1584259E+03  0.7546771E-02  0.1190485E+00
         21   -1    0    0  504  501  0.00000000000E+00  0.00000000000E+00  0.52035326162E+03  0.52035326162E+03  0.00000000000E+00 0. -1.
         21   -1    0    0  506  502 -0.00000000000E+00 -0.00000000000E+00 -0.49877166618E+03  0.49877166618E+03  0.00000000000E+00 0.  1.
         21    1    1    2  503  501 -0.55020634257E+01 -0.50948853162E+02  0.11363668143E+03  0.12465694407E+03  0.00000000000E+00 0.  1.
         21    1    1    2  504  505  0.40728987086E+02  0.63522885089E+02  0.11744598265E+03  0.13959787305E+03  0.00000000000E+00 0. -1.
         21    1    1    2  505  502 -0.10640985943E+03  0.10233673431E+03 -0.45295511744E+03  0.47640760257E+03  0.00000000000E+00 0.  1.
         21    1    1    2  506  503  0.71182935773E+02 -0.11491076623E+03  0.24345404880E+03  0.27846250810E+03  0.00000000000E+00 0. -1.
<scales pt_clust_3="34.65636" pt_clust_4="75.45865" pt_clust_5="148.09002" pt_clust_6="34.65636"></scales>
<clustering>
<clus scale="   34.656">  3  6 -1 -1</clus>
<clus scale="   75.459">  1  4  2 -1</clus>
<clus scale="  148.090">  2  5  1 -1</clus>
<clus scale="   75.459">  1  3  2 -1</clus>
</clustering>
</event>
<event>
 6    0  0.6207838E+002  0.1269812E+03  0.7546771E-02  0.1232005E+00
         21   -1    0    0  502  501  0.00000000000E+00  0.00000000000E+00  0.39255936596E+03  0.39255936596E+03  0.00000000000E+00 0. -1.
         21   -1    0    0  506  502 -0.00000000000E+00 -0.00000000000E+00 -0.25383359914E+03  0.25383359914E+03  0.00000000000E+00 0. -1.
         21    1    1    2  503  501 -0.22353899987E+02 -0.60708874791E+02  0.24030602390E+03  0.24886190839E+03  0.00000000000E+00 0. -1.
         21    1    1    2  504  505 -0.70824701308E+02 -0.12014648998E+03  0.13901506957E+02  0.14015908556E+03  0.00000000000E+00 0. -1.
         21    1    1    2  505  503  0.32864375542E+02  0.12364207828E+03 -0.17903449613E+02  0.12918190357E+03  0.00000000000E+00 0. -1.
         21    1    1    2  506  504  0.60314225753E+02  0.57213286491E+02 -0.97578314429E+02  0.12819006758E+03  0.00000000000E+00 0. -1.
<scales pt_clust_3="64.69362" pt_clust_4="14000.00000" pt_clust_5="126.98118" pt_clust_6="77.19128"></scales>
<clustering>
<clus scale="   64.694">  1  3  2 -1</clus>
<clus scale="   77.191">  2  6  1 -1</clus>
<clus scale="  126.981">  1  5  2 -1</clus>
<clus scale="   64.694">  1  3  2 -1</clus>
</clustering>
</event>
<event>
 6    0  0.6207838E+002  0.1002946E+03  0.7546771E-02  0.1279678E+00
         21   -1    0    0  506  501  0.00000000000E+00  0.00000000000E+00  0.16989739398E+04  0.16989739398E+04  0.00000000000E+00 0. -1.
         21   -1    0    0  504  502 -0.00000000000E+00 -0.00000000000E+00 -0.43430689356E+02  0.43430689356E+02  0.00000000000E+00 0.  1.
         21    1    1    2  503  501  0.11039521070E+03  0.76001211080E+00  0.10426670029E+04  0.10484951880E+04  0.00000000000E+00 0. -1.
         21    1    1    2  504  503  0.49334241642E+02 -0.30267125866E+02  0.14498017874E+03  0.15610643335E+03  0.00000000000E+00 0.  1.
         21    1    1    2  505  502 -0.14012333428E+03  0.51522813196E+01  0.10913950364E+03  0.17768659507E+03  0.00000000000E+00 0.  1.
         21    1    1    2  506  505 -0.19606118069E+02  0.24354832436E+02  0.35875656512E+03  0.36011641277E+03  0.00000000000E+00 0. -1.
<scales pt_clust_3="100.29461" pt_clust_4="54.58219" pt_clust_5="14000.00000" pt_clust_6="31.26592"></scales>
<clustering>
<clus scale="   31.266">  1  6  2 -1</clus>
<clus scale="   54.582">  2  4  1 -1</clus>
<clus scale="  100.295">  1  3  2 -1</clus>
<clus scale="   31.266">  1  3  2 -1</clus>
</clustering>
</event>
<event>
 6    0  0.6207838E+002  0.1253571E+03  0.7546771E-02  0.1234512E+00
         21   -1    0    0  505  501  0.00000000000E+00  0.00000000000E+00  0.13582074013E+04  0.13582074013E+04  0.00000000000E+00 0. -1.
         21   -1    0    0  504  502 -0.00000000000E+00 -0.00000000000E+00 -0.21988111015E+03  0.21988111015E+03  0.00000000000E+00 0.  1.
         21    1    1    2  503  502  0.11310930617E+03  0.60355410119E+02 -0.18489933669E+03  0.22499834528E+03  0.00000000000E+00 0.  1.
         21    1    1    2  504  501 -0.11242928157E+03  0.52861916695E+02  0.33287820868E+03  0.35530638526E+03  0.00000000000E+00 0. -1.
         21    1    1    2  505  506  0.98446097991E+01 -0.63890191275E+02  0.70987912218E+03  0.71281641465E+03  0.00000000000E+00 0. -1.
         21    1    1    2  506  503 -0.10524634397E+02 -0.49327135538E+02  0.28046829697E+03  0.28496736626E+03  0.00000000000E+00 0. -1.
<scales pt_clust_3="125.35711" pt_clust_4="14000.00000" pt_clust_5="121.59138" pt_clust_6="39.16386"></scales>
<clustering>
<clus scale="   39.164">  5  6 -1 -1</clus>
<clus scale="  121.591">  1  5  2 -1</clus>
<clus scale="  125.357">  2  3  1 -1</clus>
<clus scale="  121.591">  1  3  2 -1</clus>
</clustering>
</event>
<event>
 6    0  0.6207838E+002  0.9117113E+02  0.7546771E-02  0.1300040E+00
         21   -1    0    0  506  501  0.00000000000E+00  0.00000000000E+00  0.76887777268E+02  0.76887777268E+02  0.00000000000E+00 0.  1.
         21   -1    0    0  505  502 -0.00000000000E+00 -0.00000000000E+00 -0.78462460325E+03  0.78462460325E+03  0.00000000000E+00 0.  1.
         21    1    1    2  503  502  0.50816678598E+01  0.70781963861E+02 -0.24021696247E+03  0.25047973734E+03  0.00000000000E+00 0.  1.
         21    1    1    2  504  501 -0.12444945802E+02 -0.59838456056E+02 -0.16701183656E+03  0.17784395140E+03  0.00000000000E+00 0.  1.
         21    1    1    2  505  504 -0.45395477898E+02 -0.72449537100E+02 -0.33454479013E+03  0.34529683092E+03  0.00000000000E+00 0.  1.
         21    1    1    2  506  503  0.52758755840E+02  0.61506029295E+02  0.34036763183E+02  0.87891860860E+02  0.00000000000E+00 0.  1.
<scales pt_clust_3="70.96414" pt_clust_4="30.15007" pt_clust_5="30.15007" pt_clust_6="83.90813"></scales>
<clustering>
<clus scale="   30.150">  4  5 -1 -1</clus>
<clus scale="   70.964">  2  3  1 -1</clus>
<clus scale="   83.908">  1  6  2 -1</clus>
<clus scale="   83.908">  1  3  2 -1</clus>
</clustering>
</event>
<event>
 6    0  0.6207838E+002  0.9434521E+02  0.7546771E-02  0.1292658E+00
         21   -1    0    0  505  501  0.00000000000E+00  0.00000000000E+00  0.30918880575E+03  0.30918880575E+03  0.00000000000E+00 0. -1.
         21   -1    0    0  503  502 -0.00000000000E+00 -0.00000000000E+00 -0.84329366030E+02  0.84329366030E+02  0.00000000000E+00 0. -1.
         21    1    1    2  503  506 -0.18833779377E+02  0.30596605398E+02 -0.85741563340E+01  0.36937510262E+02  0.00000000000E+00 0.  1.
         21    1    1    2  504  502  0.55806562639E+02 -0.89268517447E+02  0.42970826952E+02  0.11370898210E+03  0.00000000000E+00 0. -1.
         21    1    1    2  505  504  0.25240327952E+02 -0.27932089434E+02  0.84670813997E+02  0.92662951162E+02  0.00000000000E+00 0. -1.
         21    1    1    2  506  501 -0.62213111214E+02  0.86604001483E+02  0.10579195510E+03  0.15020872826E+03  0.00000000000E+00 0. -1.
<scales pt_clust_3="35.92859" pt_clust_4="14000.00000" pt_clust_5="35.35649" pt_clust_6="94.34521"></scales>
<clustering>
<clus scale="   35.929">  2  3  1 -1</clus>
<clus scale="   35.356">  1  5  2 -1</clus>
<clus scale="   94.345">  1  6  2 -1</clus>
<clus scale="   35.356">  1  3  2 -1</clus>
</clustering>
</event>
<event>
 6    0  0.6207838E+002  0.2139825E+03  0.7546771E-02  0.1138451E+00
         21   -1    0    0  504  501  0.00000000000E+00  0.00000000000E+00  0.12191620301E+04  0.12191620301E+04  0.00000000000E+00 0.  1.
         21   -1    0    0  506  502 -0.00000000000E+00 -0.00000000000E+00 -0.24387327267E+04  0.24387327267E+04  0.00000000000E+00 0.  1.
         21    1    1    2  503  501  0.22129187183E+02 -0.34291407068E+02  0.12008801235E+04  0.12015734153E+04  0.00000000000E+00 0.  1.
         21    1    1    2  504  505  0.77094791112E+02 -0.26260392952E+02 -0.47271108099E+03  0.47967591261E+03  0.00000000000E+00 0.  1.
         21    1    1    2  505  502  0.98120427534E+02  0.76631809453E+02 -0.10484961611E+04  0.10558618529E+04  0.00000000000E+00 0.  1.
         21    1    1    2  506  503 -0.19734440583E+03 -0.16080009433E+02 -0.89924357799E+03  0.92078357597E+03  0.00000000000E+00 0. -1.
<scales pt_clust_3="40.81178" pt_clust_4="86.48833" pt_clust_5="86.48833" pt_clust_6="187.67371"></scales>
<clustering>
<clus scale="   40.812">  1  3  2 -1</clus>
<clus scale="   86.488">  4  5 -1 -1</clus>
<clus scale="  187.674">  1  6  2 -1</clus>
<clus scale="   40.812">  1  3  2 -1</clus>
</clustering>
</event>
<event>
 6    0  0.6207838E+002  0.9147479E+02  0.7546771E-02  0.1299319E+00
         21   -1    0    0  504  501  0.00000000000E+00  0.00000000000E+00  0.27201833042E+03  0.27201833042E+03  0.00000000000E+00 0.  1.
         21   -1    0    0  503  502 -0.00000000000E+00 -0.00000000000E+00 -0.42064942289E+03  0.42064942289E+03  0.00000000000E+00 0.  1.
         21    1    1    2  503  501  0.22894253561E+02  0.10262547755E+03 -0.10971321034E+03  0.15196421951E+03  0.00000000000E+00 0.  1.
         21    1    1    2  504  505 -0.35738159854E+01 -0.42424252240E+02  0.20627976301E+03  0.21062746727E+03  0.00000000000E+00 0.  1.
         21    1    1    2  505  506  0.68218294932E+02 -0.16815233616E+02 -0.46143756689E+01  0.70411506927E+02  0.00000000000E+00 0.  1.
         21    1    1    2  506  502 -0.87538732508E+02 -0.43385991699E+02 -0.24058326947E+03  0.25966455960E+03  0.00000000000E+00 0.  1.
<scales pt_clust_3="14000.00000" pt_clust_4="42.57452" pt_clust_5="76.86410" pt_clust_6="91.47479"></scales>
<clustering>
<clus scale="   42.575">  1  4  2 -1</clus>
<clus scale="   76.864">  1  5  2 -1</clus>
<clus scale="   91.475">  2  6  1 -1</clus>
<clus scale="   42.575">  1  3  2 -1</clus>
</clustering>
</event>
<event>
 6    0  0.6207838E+002  0.2301031E+03  0.7546771E-02  0.1126567E+00
         21   -1    0    0  504  501  0.00000000000E+00  0.00000000000E+00  0.22121000379E+04  0.22121000379E+04  0.00000000000E+00 0.  1.
         21   -1    0    0  505  502 -0.00000000000E+00 -0.00000000000E+00 -0.37514059248E+03  0.37514059248E+03  0.00000000000E+00 0. -1.
         21    1    1    2  503  501 -0.20499501804E+03 -0.85599902165E+02  0.21607559876E+04  0.21721456531E+04  0.00000000000E+00 0.  1.
         21    1    1    2  504  506  0.14409155708E+03  0.58142239249E+02 -0.26806671149E+03  0.30984295799E+03  0.00000000000E+00 0. -1.
         21    1    1    2  505  503  0.16398894324E+02  0.36647313737E+02 -0.11325725000E+02  0.41715960806E+02  0.00000000000E+00 0. -1.
         21    1    1    2  506  502  0.44504566642E+02 -0.91896508215E+01 -0.44404105603E+02  0.63536058491E+02  0.00000000000E+00 0.  1.
<scales pt_clust_3="221.67186" pt_clust_4="33.37683" pt_clust_5="40.14909" pt_clust_6="33.37683"></scales>
<clustering>
<clus scale="   33.377">  4  6 -1 -1</clus>
<clus scale="   40.149">  2  5  1 -1</clus>
<clus scale="  221.672">  1  3  2 -1</clus>
<clus scale="  221.672">  1  3  2 -1</clus>
</clustering>
</event>
<event>
 6    0  0.6207838E+002  0.1379333E+03  0.7546771E-02  0.1216137E+00
         21   -1    0    0  504  501  0.00000000000E+00  0.00000000000E+00  0.83411705061E+03  0.83411705061E+03  0.00000000000E+00 0.  1.
         21   -1    0    0  506  502 -0.00000000000E+00 -0.00000000000E+00 -0.20610809989E+03  0.20610809989E+03  0.00000000000E+00 0.  1.
         21    1    1    2  503  505  0.39120262083E+02  0.21074156614E+02  0.10526154498E+03  0.11425632514E+03  0.00000000000E+00 0.  1.
         21    1    1    2  504  502 -0.11519414399E+03  0.77642401181E+02 -0.16386759633E+03  0.21482695920E+03  0.00000000000E+00 0.  1.
         21    1    1    2  505  501  0.17430103009E+02  0.28739308501E+02  0.25723125107E+03  0.25941795017E+03  0.00000000000E+00 0.  1.
         21    1    1    2  506  503  0.58643778902E+02 -0.12745586630E+03  0.42938375100E+03  0.45172391599E+03  0.00000000000E+00 0.  1.
<scales pt_clust_3="50.06426" pt_clust_4="137.93335" pt_clust_5="33.61185" pt_clust_6="14000.00000"></scales>
<clustering>
<clus scale="   33.612">  1  5  2 -1</clus>
<clus scale="   50.064">  1  3  2 -1</clus>
<clus scale="  137.933">  2  4  1 -1</clus>
<clus scale="   33.612">  1  3  2 -1</clus>
</clustering>
</event>
<event>
 6    0  0.6207838E+002  0.1956162E+03  0.7546771E-02  0.1153491E+00
         21   -1    0    0  506  501  0.00000000000E+00  0.00000000000E+00  0.81359877912E+03  0.81359877912E+03  0.00000000000E+00 0.  1.
         21   -1    0    0  503  502 -0.00000000000E+00 -0.00000000000E+00 -0.13925380036E+03  0.13925380036E+03  0.00000000000E+00 0.  1.
         21    1    1    2  503  501  0.56577804009E+02  0.19443685172E+03  0.22831734083E+03  0.30518116806E+03  0.00000000000E+00 0.  1.
         21    1    1    2  504  505 -0.40771151982E+02 -0.10554209002E+03 -0.21881160267E+02  0.11523977080E+03  0.00000000000E+00 0.  1.
         21    1    1    2  505  502  0.23877774561E+02 -0.70011934211E+02  0.12636772835E+02  0.75043367979E+02  0.00000000000E+00 0.  1.
         21    1    1    2  506  504 -0.39684426588E+02 -0.18882827488E+02  0.45527202536E+03  0.45738827265E+03  0.00000000000E+00 0. -1.
<scales pt_clust_3="182.34058" pt_clust_4="56.54049" pt_clust_5="56.54049" pt_clust_6="43.94787"></scales>
<clustering>
<clus scale="   43.948">  1  6  2 -1</clus>
<clus scale="   56.540">  4  5 -1 -1</clus>
<clus scale="  182.341">  1  3  2 -1</clus>
<clus scale="   43.948">  1  3  2 -1</clus>
</clustering>
</event>
<event>
 6    0  0.6207838E+002  0.9320728E+02  0.7546771E-02  0.1295266E+00
         21   -1    0    0  503  501  0.00000000000E+00  0.00000000000E+00  0.87512881882E+03  0.87512881882E+03  0.00000000000E+00 0. -1.
         21   -1    0    0  505  502 -0.00000000000E+00 -0.00000000000E+00 -0.31064950831E+03  0.31064950831E+03  0.00000000000E+00 0. -1.
         21    1    1    2  503  502 -0.32616594677E+02 -0.35515454543E+02  0.15872029778E+02  0.50765254741E+02  0.00000000000E+00 0. -1.
         21    1    1    2  504  506  0.81557498015E+02  0.45662650725E+01 -0.26261357476E+03  0.27502430057E+03  0.00000000000E+00 0. -1.
         21    1    1    2  505  504  0.26960568448E+02 -0.23650926464E+02 -0.69173337052E+01  0.36525170489E+02  0.00000000000E+00 0. -1.
         21    1    1    2  506  501 -0.75901471786E+02  0.54600115935E+02  0.81813818920E+03  0.82346360133E+03  0.00000000000E+00 0. -1.
<scales pt_clust_3="48.21953" pt_clust_4="14000.00000" pt_clust_5="35.86417" pt_clust_6="93.20728"></scales>
<clustering>
<clus scale="   35.864">  2  5  1 -1</clus>
<clus scale="   48.220">  2  3  1 -1</clus>
<clus scale="   93.207">  1  6  2 -1</clus>
<clus scale="   93.207">  1  3  2 -1</clus>
</clustering>
</event>
<event>
 6    0  0.6207838E+002  0.1448736E+03  0.7546771E-02  0.1206918E+00
         21   -1    0    0  506  501  0.00000000000E+00  0.00000000000E+00  0.34338960071E+03  0.34338960071E+03  0.00000000000E+00 0. -1.
         21   -1    0    0  505  502 -0.00000000000E+00 -0.00000000000E+00 -0.54956523021E+03  0.54956523021E+03  0.00000000000E+00 0.  1.
         21    1    1    2  503  501 -0.21504550235E+02  0.26210658862E+02 -0.28643908690E+01  0.34024242150E+02  0.00000000000E+00 0.  1.
         21    1    1    2  504  502  0.77524489162E+02  0.29813769120E+02 -0.12163108491E+03  0.14728553244E+03  0.00000000000E+00 0.  1.
         21    1    1    2  505  503 -0.44737634863E+02  0.11375625755E+03 -0.36291152933E+03  0.38294480050E+03  0.00000000000E+00 0.  1.
         21    1    1    2  506  504 -0.11282304063E+02 -0.16978068553E+03  0.28123137561E+03  0.32870025584E+03  0.00000000000E+00 0. -1.
<scales pt_clust_3="33.90346" pt_clust_4="82.65200" pt_clust_5="14000.00000" pt_clust_6="144.87362"></scales>
<clustering>
<clus scale="   33.903">  1  3  2 -1</clus>
<clus scale="   82.652">  2  4  1 -1</clus>
<clus scale="  144.874">  1  6  2 -1</clus>
<clus scale="   33.903">  1  3  2 -1</clus>
</clustering>
</event>
<event>
 6    0  0.6207838E+002  0.2520736E+03  0.7546771E-02  0.1112001E+00
         21   -1    0    0  505  501  0.00000000000E+00  0.00000000000E+00  0.33281708873E+03  0.33281708873E+03  0.00000000000E+00 0. -1.
         21   -1    0    0  506  502 -0.00000000000E+00 -0.00000000000E+00 -0.17441545172E+04  0.17441545172E+04  0.00000000000E+00 0.  1.
         21    1    1    2  503  504  0.40578167247E+02  0.52106746904E+02  0.48926081658E+02  0.82191618773E+02  0.00000000000E+00 0. -1.
         21    1    1    2  504  502 -0.24832040005E+02 -0.22787323928E+03 -0.16546191670E+04  0.16704213335E+04  0.00000000000E+00 0.  1.
         21    1    1    2  505  503 -0.50309800986E+02  0.20551426979E+03  0.17594673838E+03  0.27518075135E+03  0.00000000000E+00 0. -1.
         21    1    1    2  506  501  0.34563673744E+02 -0.29747777416E+02  0.18408918474E+02  0.49177902387E+02  0.00000000000E+00 0.  1.
<scales pt_clust_3="61.93748" pt_clust_4="229.90686" pt_clust_5="61.93748" pt_clust_6="45.60239"></scales>
<clustering>
<clus scale="   45.602">  1  6  2 -1</clus>
<clus scale="   61.937">  3  5 -1 -1</clus>
<clus scale="  229.907">  2  4  1 -1</clus>
<clus scale="   45.602">  1  3  2 -1</clus>
</clustering>
</event>
<event>
 6    0  0.6207838E+002  0.1829205E+03  0.7546771E-02  0.1165006E+00
         21   -1    0    0  506  501  0.00000000000E+00  0.00000000000E+00  0.10442422882E+04  0.10442422882E+04  0.00000000000E+00 0. -1.
         21   -1    0    0  505  502 -0.00000000000E+00 -0.00000000000E+00 -0.94134536830E+03  0.94134536830E+03  0.00000000000E+00 0.  1.
         21    1    1    2  503  501  0.46353917702E+02 -0.30164487150E+02  0.94824431012E+03  0.94985570148E+03  0.00000000000E+00 0. -1.
         21    1    1    2  504  503 -0.60868292093E+02 -0.22199094499E+02 -0.91335642849E+02  0.11198191119E+03  0.00000000000E+00 0.  1.
         21    1    1    2  505  504 -0.30996336658E+02  0.18712955999E+03 -0.75807916272E+03  0.78144882242E+03  0.00000000000E+00 0.  1.
         21    1    1    2  506  502  0.45510711048E+02 -0.13476597834E+03  0.40674153384E+01  0.14230122138E+03  0.00000000000E+00 0. -1.
<scales pt_clust_3="55.30445" pt_clust_4="61.37590" pt_clust_5="182.92047" pt_clust_6="14000.00000"></scales>
<clustering>
<clus scale="   55.304">  1  3  2 -1</clus>
<clus scale="   61.376">  1  4  2 -1</clus>
<clus scale="  182.920">  2  5  1 -1</clus>
<clus scale="   55.304">  1  3  2 -1</clus>
</clustering>
</event>
<event>
 6    0  0.6207838E+002  0.7624147E+02  0.7546771E-02  0.1340069E+00
         21   -1    0    0  505  501  0.00000000000E+00  0.00000000000E+00  0.10151858868E+04  0.10151858868E+04  0.00000000000E+00 0. -1.
         21   -1    0    0  503  502 -0.00000000000E+00 -0.00000000000E+00 -0.45960067476E+02  0.45960067476E+02  0.00000000000E+00 0.  1.
         21    1    1    2  503  504 -0.46032142409E+02 -0.18779855035E+02 -0.21966353931E+01  0.49764106512E+02  0.00000000000E+00 0.  1.
         21    1    1    2  504  501 -0.68535607538E+02  0.17209062202E+02  0.11624337911E+03  0.13603604122E+03  0.00000000000E+00 0.  1.
         21    1    1    2  505  506  0.72230155172E+02  0.35419656977E+02  0.77125024295E+03  0.77543451346E+03  0.00000000000E+00 0. -1.
         21    1    1    2  506  502  0.42337594775E+02 -0.33848864144E+02  0.83928832650E+02  0.99911293082E+02  0.00000000000E+00 0.  1.
<scales pt_clust_3="49.71560" pt_clust_4="14000.00000" pt_clust_5="76.24147" pt_clust_6="47.78211"></scales>
<clustering>
<clus scale="   49.716">  2  3  1 -1</clus>
<clus scale="   47.782">  2  6  1 -1</clus>
<clus scale="   76.241">  1  5  2 -1</clus>
<clus scale="   76.241">  1  3  2 -1</clus>
</clustering>
</event>
<event>
 6    0  0.6207838E+002  0.1430634E+03  0.7546771E-02  0.1209265E+00
         21   -1    0    0  503  501  0.00000000000E+00  0.00000000000E+00  0.16319830273E+03  0.16319830273E+03  0.00000000000E+00 0. -1.
         21   -1    0    0  504  502 -0.00000000000E+00 -0.00000000000E+00 -0.15772922212E+04  0.15772922212E+04  0.00000000000E+00 0.  1.
         21    1    1    2  503  502 -0.23928026159E+02  0.95540736261E+02 -0.40691089698E+03  0.41866103330E+03  0.00000000000E+00 0. -1.
         21    1    1    2  504  505 -0.14726499861E+02 -0.44385361030E+02 -0.42050960716E+03  0.42310194964E+03  0.00000000000E+00 0.  1.
         21    1    1    2  505  506  0.20149448443E+02 -0.13214405142E+03 -0.72508227719E+03  0.73730072514E+03  0.00000000000E+00 0.  1.
         21    1    1    2  506  501  0.18505077576E+02  0.80988676190E+02  0.13840886285E+03  0.16142681587E+03  0.00000000000E+00 0. -1.
<scales pt_clust_3="132.30864" pt_clust_4="32.18842" pt_clust_5="32.18842" pt_clust_6="83.07589"></scales>
<clustering>
<clus scale="   32.188">  4  5 -1 -1</clus>
<clus scale="   83.076">  1  6  2 -1</clus>
<clus scale="  132.309">  2  3  1 -1</clus>
<clus scale="   83.076">  1  3  2 -1</clus>
</clustering>
</event>
<event>
 6    0  0.6207838E+002  0.1269867E+03  0.7546771E-02  0.1231997E+00
         21   -1    0    0  506  501  0.00000000000E+00  0.00000000000E+00  0.58946141483E+03  0.58946141483E+03  0.00000000000E+00 0. -1.
         21   -1    0    0  503  502 -0.00000000000E+00 -0.00000000000E+00 -0.86901628249E+02  0.86901628249E+02  0.00000000000E+00 0.  1.
         21    1    1    2  503  505  0.54369221980E+02  0.27721054140E+02 -0.49143546350E+00  0.61030407586E+02  0.00000000000E+00 0.  1.
         21    1    1    2  504  501 -0.60700353117E+02 -0.21785801979E+01  0.23295996972E+03  0.24074805621E+03  0.00000000000E+00 0. -1.
         21    1    1    2  505  504  0.12924000105E+03 -0.31806504501E+02  0.11008266570E+03  0.17272181358E+03  0.00000000000E+00 0.  1.
         21    1    1    2  506  502 -0.12290886991E+03  0.62640305595E+01  0.16000858663E+03  0.20186276570E+03  0.00000000000E+00 0. -1.
<scales pt_clust_3="56.34424" pt_clust_4="60.73944" pt_clust_5="14000.00000" pt_clust_6="126.98673"></scales>
<clustering>
<clus scale="   60.739">  1  4  2 -1</clus>
<clus scale="   56.344">  2  3  1 -1</clus>
<clus scale="  126.987">  2  6  1 -1</clus>
<clus scale="   60.739">  1  3  2 -1</clus>
</clustering>
</event>
<event>
 6    0  0.6207838E+002  0.1325606E+03  0.7546771E-02  0.1223705E+00
         21   -1    0    0  504  501  0.00000000000E+00  0.00000000000E+00  0.12392155977E+03  0.12392155977E+03  0.00000000000E+00 0. -1.
         21   -1    0    0  505  502 -0.00000000000E+00 -0.00000000000E+00 -0.58618370699E+03  0.58618370699E+03  0.00000000000E+00 0. -1.
         21    1    1    2  503  506  0.10850536686E+03 -0.84023582540E+02 -0.83812808289E+02  0.16080411653E+03  0.00000000000E+00 0. -1.
         21    1    1    2  504  503 -0.52554904257E+02  0.12577542221E+03  0.10174187776E+02  0.13669304624E+03  0.00000000000E+00 0. -1.
         21    1    1    2  505  501 -0.25648599349E+02 -0.35619714509E+02 -0.31205192340E+02  0.53855164462E+02  0.00000000000E+00 0. -1.
         21    1    1    2  506  502 -0.30301863255E+02 -0.61321251597E+01 -0.35741833437E+03  0.35875293952E+03  0.00000000000E+00 0. -1.
<scales pt_clust_3="132.56056" pt_clust_4="14000.00000" pt_clust_5="48.28171" pt_clust_6="30.91611"></scales>
<clustering>
<clus scale="   30.916">  2  6  1 -1</clus>
<clus scale="   48.282">  2  5  1 -1</clus>
<clus scale="  132.561">  2  3  1 -1</clus>
<clus scale="  132.561">  1  3  2 -1</clus>
</clustering>
</event>
<event>
 6    0  0.6207838E+002  0.9099357E+02  0.7546771E-02  0.1300463E+00
         21   -1    0    0  504  501  0.00000000000E+00  0.00000000000E+00  0.36831753619E+03  0.36831753619E+03  0.00000000000E+00 0. -1.
         21   -1    0    0  505  502 -0.00000000000E+00 -0.00000000000E+00 -0.15343742406E+03  0.15343742406E+03  0.00000000000E+00 0.  1.
         21    1    1    2  503  501  0.39969113572E+02 -0.64755414562E+02  0.17889117025E+02  0.78171697325E+02  0.00000000000E+00 0.  1.
         21    1    1    2  504  502 -0.75869752673E+02  0.60529404700E+02  0.22807582659E+03  0.24786813203E+03  0.00000000000E+00 0. -1.
         21    1    1    2  505  506 -0.59596778651E+02 -0.68532586507E+01 -0.69833287045E+02  0.92062104903E+02  0.00000000000E+00 0.  1.
         21    1    1    2  506  503  0.95497417752E+02  0.11079268513E+02  0.38748455558E+02  0.10365302599E+03  0.00000000000E+00 0.  1.
<scales pt_clust_3="90.99357" pt_clust_4="14000.00000" pt_clust_5="59.98953" pt_clust_6="69.28180"></scales>
<clustering>
<clus scale="   59.990">  2  5  1 -1</clus>
<clus scale="   69.282">  2  6  1 -1</clus>
<clus scale="   90.994">  2  3  1 -1</clus>
<clus scale="   90.994">  1  3  2 -1</clus>
</clustering>
</event>
<event>
 6    0  0.6207838E+002  0.1450393E+03  0.7546771E-02  0.1206705E+00
         21   -1    0    0  506  501  0.00000000000E+00  0.00000000000E+00  0.80301100990E+03  0.80301100990E+03  0.00000000000E+00 0.  1.
         21   -1    0    0  505  502 -0.00000000000E+00 -0.00000000000E+00 -0.48304002251E+03  0.48304002251E+03  0.00000000000E+00 0.  1.
         21    1    1    2  503  502 -0.31127989511E+02 -0.38313612772E+02 -0.35629754646E+03  0.35970102344E+03  0.00000000000E+00 0.  1.
         21    1    1    2  504  501  0.38870855989E+01  0.30730371994E+02  0.31726294281E+02  0.44339857308E+02  0.00000000000E+00 0. -1.
         21    1    1    2  505  504 -0.64008240295E+02 -0.79324334365E+02 -0.90461975488E+02  0.13628196453E+03  0.00000000000E+00 0. -1.
         21    1    1    2  506  503  0.91249144207E+02  0.86907575143E+02  0.73500421505E+03  0.74572818713E+03  0.00000000000E+00 0.  1.
<scales pt_clust_3="49.30632" pt_clust_4="30.97524" pt_clust_5="14000.00000" pt_clust_6="145.03926"></scales>
<clustering>
<clus scale="   30.975">  1  4  2 -1</clus>
<clus scale="   49.306">  2  3  1 -1</clus>
<clus scale="  145.039">  1  6  2 -1</clus>
<clus scale="   30.975">  1  3  2 -1</clus>
</clustering>
</event>
<event>
 6    0  0.6207838E+002  0.7203357E+02  0.7546771E-02  0.1353311E+00
         21   -1    0    0  506  501  0.00000000000E+00  0.00000000000E+00  0.12650736063E+04  0.12650736063E+04  0.00000000000E+00 0.  1.
         21   -1    0    0  504  502 -0.00000000000E+00 -0.00000000000E+00 -0.98043683245E+02  0.98043683245E+02  0.00000000000E+00 0.  1.
         21    1    1    2  503  501  0.23652337115E+02 -0.68660474611E+02  0.72761586740E+03  0.73123084201E+03  0.00000000000E+00 0.  1.
         21    1    1    2  504  503  0.11928078320E+02  0.77813967871E+02  0.39601792060E+03  0.40376662329E+03  0.00000000000E+00 0.  1.
         21    1    1    2  505  502 -0.69677546514E+02 -0.19595911984E+02 -0.75142823386E+02  0.10433314028E+03  0.00000000000E+00 0.  1.
         21    1    1    2  506  505  0.34097131078E+02  0.10442418724E+02  0.11853895847E+03  0.12378668398E+03  0.00000000000E+00 0. -1.
<scales pt_clust_3="14000.00000" pt_clust_4="72.03357" pt_clust_5="71.92579" pt_clust_6="35.66032"></scales>
<clustering>
<clus scale="   35.660">  1  6  2 -1</clus>
<clus scale="   71.926">  2  5  1 -1</clus>
<clus scale="   72.034">  2  4  1 -1</clus>
<clus scale="   35.660">  1  3  2 -1</clus>
</clustering>
</event>
<event>
 6    0  0.6207838E+002  0.7716402E+02  0.7546771E-02  0.1337298E+00
         21   -1    0    0  503  501  0.00000000000E+00  0.00000000000E+00  0.50035356474E+03  0.50035356474E+03  0.00000000000E+00 0. -1.
         21   -1    0    0  506  502 -0.00000000000E+00 -0.00000000000E+00 -0.12977715581E+03  0.12977715581E+03  0.00000000000E+00 0.  1.
         21    1    1    2  503  502 -0.36343737993E+02  0.11031814676E+03  0.30389704241E+03  0.32533732215E+03  0.00000000000E+00 0. -1.
         21    1    1    2  504  505  0.18750001192E+02 -0.32716612271E+02  0.13292488479E+03  0.13817005558E+03  0.00000000000E+00 0.  1.
         21    1    1    2  505  501  0.32172074582E+02 -0.28986761232E+01  0.29887251746E+02  0.44007868877E+02  0.00000000000E+00 0.  1.
         21    1    1    2  506  504 -0.14578337781E+02 -0.74702858365E+02 -0.96132770014E+02  0.12261547395E+03  0.00000000000E+00 0.  1.
<scales pt_clust_3="14000.00000" pt_clust_4="43.81305" pt_clust_5="32.30239" pt_clust_6="77.16402"></scales>
<clustering>
<clus scale="   32.302">  1  5  2 -1</clus>
<clus scale="   43.813">  1  4  2 -1</clus>
<clus scale="   77.164">  2  6  1 -1</clus>
<clus scale="   32.302">  1  3  2 -1</clus>
</clustering>
</event>
<event>
 6    0  0.6207838E+002  0.1095118E+03  0.7546771E-02  0.1261477E+00
         21   -1    0    0  502  501  0.00000000000E+00  0.00000000000E+00  0.62987341284E+02  0.62987341284E+02  0.00000000000E+00 0. -1.
         21   -1    0    0  506  502 -0.00000000000E+00 -0.00000000000E+00 -0.19858232420E+04  0.19858232420E+04  0.00000000000E+00 0. -1.
         21    1    1    2  503  504 -0.37691011366E+02  0.72473578181E+02 -0.93597398958E+03  0.93953197979E+03  0.00000000000E+00 0. -1.
         21    1    1    2  504  505 -0.36696789066E+02 -0.88685600223E+02 -0.54291434375E+03  0.55133272592E+03  0.00000000000E+00 0.  1.
         21    1    1    2  505  501  0.60895010689E+02 -0.16643457643E+02  0.38664859631E+02  0.74028226910E+02  0.00000000000E+00 0. -1.
         21    1    1    2  506  503  0.13492789744E+02  0.32855479685E+02 -0.48261242699E+03  0.48391765064E+03  0.00000000000E+00 0. -1.
<scales pt_clust_3="30.51547" pt_clust_4="99.25306" pt_clust_5="63.12850" pt_clust_6="30.51547"></scales>
<clustering>
<clus scale="   30.515">  3  6 -1 -1</clus>
<clus scale="   63.128">  1  5  2 -1</clus>
<clus scale="   99.253">  1  4  2 -1</clus>
<clus scale="   63.128">  1  3  2 -1</clus>
</clustering>
</event>
<event>
 6    0  0.1107588E+003  0.1249978E+03  0.7546771E-02  0.1235073E+00
         21   -1    0    0  505  501  0.00000000000E+00  0.00000000000E+00  0.11369856556E+04  0.11369856556E+04  0.00000000000E+00 0.  1.
         21   -1    0    0  503  502 -0.00000000000E+00 -0.00000000000E+00 -0.22491386731E+03  0.22491386731E+03  0.00000000000E+00 0.  1.
         21    1    1    2  503  506  0.13111768166E+02  0.12523616144E+03 -0.19891098737E+03  0.23541791668E+03  0.00000000000E+00 0.  1.
         21    1    1    2  504  502 -0.15391228186E+01 -0.94161012333E+02  0.61310745598E+03  0.62029784598E+03  0.00000000000E+00 0.  1.
         21    1    1    2  505  504 -0.40020408877E+02 -0.16442480345E+02  0.41657669229E+03  0.41881753646E+03  0.00000000000E+00 0.  1.
         21    1    1    2  506  501  0.28447763530E+02 -0.14632668763E+02  0.81298627384E+02  0.87366223791E+02  0.00000000000E+00 0.  1.
<scales pt_clust_3="124.99777" pt_clust_4="14000.00000" pt_clust_5="36.33936" pt_clust_6="31.99047"></scales>
<clustering>
<clus scale="   31.990">  1  6  2 -1</clus>
<clus scale="   36.339">  1  5  2 -1</clus>
<clus scale="  124.998">  2  3  1 -1</clus>
<clus scale="   31.990">  1  3  2 -1</clus>
</clustering>
</event>
<event>
 6    0  0.6207838E+002  0.2390695E+03  0.7546771E-02  0.1120414E+00
         21   -1    0    0  504  501  0.00000000000E+00  0.00000000000E+00  0.92969390106E+03  0.92969390106E+03  0.00000000000E+00 0. -1.
         21   -1    0    0  503  502 -0.00000000000E+00 -0.00000000000E+00 -0.61629653543E+03  0.61629653543E+03  0.00000000000E+00 0. -1.
         21    1    1    2  503  501  0.62305620518E+02  0.88875173229E+01 -0.49314215063E+02  0.79955425829E+02  0.00000000000E+00 0.  1.
         21    1    1    2  504  505 -0.18537934806E+03 -0.14554808974E+03  0.88204739119E+03  0.91299361960E+03  0.00000000000E+00 0. -1.
         21    1    1    2  505  506  0.49989493535E+02  0.67904535214E+02 -0.30394299760E+03  0.31542244872E+03  0.00000000000E+00 0. -1.
         21    1    1    2  506  502  0.73084234005E+02  0.68756037207E+02 -0.21539281290E+03  0.23761894234E+03  0.00000000000E+00 0.  1.
<scales pt_clust_3="62.93630" pt_clust_4="234.16314" pt_clust_5="44.17128" pt_clust_6="44.17128"></scales>
<clustering>
<clus scale="   44.171">  5  6 -1 -1</clus>
<clus scale="   62.936">  2  3  1 -1</clus>
<clus scale="  234.163">  1  4  2 -1</clus>
<clus scale="  234.163">  1  3  2 -1</clus>
</clustering>
</event>
<event>
 6    0  0.6207838E+002  0.1002097E+03  0.7546771E-02  0.1279856E+00
         21   -1    0    0  502  501  0.00000000000E+00  0.00000000000E+00  0.22430021131E+04  0.22430021131E+04  0.00000000000E+00 0. -1.
         21   -1    0    0  504  502 -0.00000000000E+00 -0.00000000000E+00 -0.29073287456E+03  0.29073287456E+03  0.00000000000E+00 0.  1.
         21    1    1    2  503  501 -0.60935423168E+02 -0.47781775129E+01  0.21109593775E+04  0.21118440876E+04  0.00000000000E+00 0. -1.
         21    1    1    2  504  506 -0.61861812459E+02 -0.54280427480E+02 -0.24054885285E+03  0.25423807593E+03  0.00000000000E+00 0.  1.
         21    1    1    2  505  503  0.85533808991E+02  0.63578397988E+02  0.72716150201E+02  0.12901892757E+03  0.00000000000E+00 0.  1.
         21    1    1    2  506  505  0.37263426636E+02 -0.45197929954E+01  0.91425636812E+01  0.38633896568E+02  0.00000000000E+00 0.  1.
<scales pt_clust_3="61.12247" pt_clust_4="84.86725" pt_clust_5="31.62447" pt_clust_6="31.62447"></scales>
<clustering>
<clus scale="   31.624">  5  6 -1 -1</clus>
<clus scale="   61.122">  1  3  2 -1</clus>
<clus scale="   84.867">  2  4  1 -1</clus>
<clus scale="   61.122">  1  3  2 -1</clus>
</clustering>
</event>
<event>
 6    0  0.6207838E+002  0.1576952E+03  0.7546771E-02  0.1191324E+00
         21   -1    0    0  505  501  0.00000000000E+00  0.00000000000E+00  0.44417778438E+03  0.44417778438E+03  0.00000000000E+00 0.  1.
         21   -1    0    0  506  502 -0.00000000000E+00 -0.00000000000E+00 -0.14224102242E+03  0.14224102242E+03  0.00000000000E+00 0.  1.
         21    1    1    2  503  504 -0.68769807307E+02 -0.42166193593E+02 -0.37490850465E+02  0.88954135079E+02  0.00000000000E+00 0.  1.
         21    1    1    2  504  501  0.34173479433E+02  0.24423283122E+02  0.20950319860E+03  0.21367244482E+03  0.00000000000E+00 0. -1.
         21    1    1    2  505  502  0.90628457344E+02  0.83827363605E+02  0.15058508338E+03  0.19472136890E+03  0.00000000000E+00 0.  1.
         21    1    1    2  506  503 -0.56032129470E+02 -0.66084453135E+02 -0.20660669553E+02  0.89070858004E+02  0.00000000000E+00 0.  1.
<scales pt_clust_3="30.78006" pt_clust_4="42.00385" pt_clust_5="154.43515" pt_clust_6="30.78006"></scales>
<clustering>
<clus scale="   30.780">  3  6 -1 -1</clus>
<clus scale="   42.004">  1  4  2 -1</clus>
<clus scale="  154.435">  1  5  2 -1</clus>
<clus scale="   42.004">  1  3  2 -1</clus>
</clustering>
</event>
<event>
 6    0  0.6207838E+002  0.7392501E+02  0.7546771E-02  0.1347233E+00
         21   -1    0    0  505  501  0.00000000000E+00  0.00000000000E+00  0.40821597340E+03  0.40821597340E+03  0.00000000000E+00 0.  1.
         21   -1    0    0  506  502 -0.00000000000E+00 -0.00000000000E+00 -0.25686039283E+03  0.25686039283E+03  0.00000000000E+00 0.  1.
         21    1    1    2  503  501  0.88868200123E+02  0.71876569780E+02 -0.14596322110E+03  0.18538894301E+03  0.00000000000E+00 0.  1.
         21    1    1    2  504  502 -0.48220418035E+02  0.36100282489E+01 -0.49435544851E+01  0.48607404275E+02  0.00000000000E+00 0.  1.
         21    1    1    2  505  504 -0.58558448792E+02 -0.43633828611E+02  0.35748135129E+03  0.36486424797E+03  0.00000000000E+00 0.  1.
         21    1    1    2  506  503  0.17910666705E+02 -0.31852769419E+02 -0.55218995137E+02  0.66215770972E+02  0.00000000000E+00 0.  1.
<scales pt_clust_3="73.92501" pt_clust_4="45.78138" pt_clust_5="14000.00000" pt_clust_6="36.54300"></scales>
<clustering>
<clus scale="   36.543">  2  6  1 -1</clus>
<clus scale="   45.781">  2  4  1 -1</clus>
<clus scale="   73.925">  2  3  1 -1</clus>
<clus scale="   73.925">  1  3  2 -1</clus>
</clustering>
</event>
<event>
 6    0  0.6207838E+002  0.8875040E+02  0.7546771E-02  0.1305906E+00
         21   -1    0    0  503  501  0.00000000000E+00  0.00000000000E+00  0.19067381347E+04  0.19067381347E+04  0.00000000000E+00 0.  1.
         21   -1    0    0  504  502 -0.00000000000E+00 -0.00000000000E+00 -0.94604654805E+02  0.94604654805E+02  0.00000000000E+00 0. -1.
         21    1    1    2  503  506 -0.29823793451E+02 -0.17526462447E+02  0.20211007360E+03  0.20504906094E+03  0.00000000000E+00 0.  1.
         21    1    1    2  504  505  0.87517226206E+02  0.47293747313E+02  0.54418678494E+03  0.55320450136E+03  0.00000000000E+00 0. -1.
         21    1    1    2  505  501 -0.19311755404E+02 -0.77654474908E+02  0.11422685376E+04  0.11450679339E+04  0.00000000000E+00 0.  1.
         21    1    1    2  506  502 -0.38381677351E+02  0.47887190042E+02 -0.76431916201E+02  0.98021293302E+02  0.00000000000E+00 0. -1.
<scales pt_clust_3="34.59242" pt_clust_4="88.75040" pt_clust_5="14000.00000" pt_clust_6="61.40241"></scales>
<clustering>
<clus scale="   34.592">  1  3  2 -1</clus>
<clus scale="   61.402">  2  6  1 -1</clus>
<clus scale="   88.750">  2  4  1 -1</clus>
<clus scale="   34.592">  1  3  2 -1</clus>
</clustering>
</event>
<event>
 6    0  0.6207838E+002  0.7288628E+02  0.7546771E-02  0.1350544E+00
         21   -1    0    0  506  501  0.00000000000E+00  0.00000000000E+00  0.68866703287E+03  0.68866703287E+03  0.00000000000E+00 0.  1.
         21   -1    0    0  504  502 -0.00000000000E+00 -0.00000000000E+00 -0.79528802187E+02  0.79528802187E+02  0.00000000000E+00 0. -1.
         21    1    1    2  503  502  0.38198946477E+02 -0.32336686016E+02 -0.42315516216E+01  0.50226753862E+02  0.00000000000E+00 0.  1.
         21    1    1    2  504  505 -0.80993346374E+01  0.65749422606E+02  0.24271856690E+02  0.70552879613E+02  0.00000000000E+00 0. -1.
         21    1    1    2  505  501 -0.93765234096E+02 -0.53817999511E-01  0.55417637896E+02  0.10891756797E+03  0.00000000000E+00 0. -1.
         21    1    1    2  506  503  0.63665622257E+02 -0.33358918591E+02  0.53368028772E+03  0.53849863361E+03  0.00000000000E+00 0.  1.
<scales pt_clust_3="50.04818" pt_clust_4="52.18936" pt_clust_5="72.88628" pt_clust_6="14000.00000"></scales>
<clustering>
<clus scale="   50.048">  2  3  1 -1</clus>
<clus scale="   52.189">  2  4  1 -1</clus>
<clus scale="   72.886">  2  5  1 -1</clus>
<clus scale="   72.886">  1  3  2 -1</clus>
</clustering>
</event>
<event>
 6    0  0.6207838E+002  0.9960570E+02  0.7546771E-02  0.1281127E+00
         21   -1    0    0  505  501  0.00000000000E+00  0.00000000000E+00  0.14050391789E+03  0.14050391789E+03  0.00000000000E+00 0. -1.
         21   -1    0    0  503  502 -0.00000000000E+00 -0.00000000000E+00 -0.20519970294E+03  0.20519970294E+03  0.00000000000E+00 0.  1.
         21    1    1    2  503  504  0.14256664667E+02  0.49666168803E+02 -0.21720181205E+02  0.56051289749E+02  0.00000000000E+00 0. -1.
         21    1    1    2  504  501  0.97052139789E+02  0.40602159422E+02  0.25814145250E+02  0.10832369677E+03  0.00000000000E+00 0. -1.
         21    1    1    2  505  506 -0.73732465027E+02 -0.60784393368E+02  0.24154737112E+01  0.95587935375E+02  0.00000000000E+00 0.  1.
         21    1    1    2  506  502 -0.37576339429E+02 -0.29483934857E+02 -0.71205222805E+02  0.85740698937E+02  0.00000000000E+00 0.  1.
<scales pt_clust_3="40.71051" pt_clust_4="14000.00000" pt_clust_5="99.60570" pt_clust_6="47.76279"></scales>
<clustering>
<clus scale="   47.763">  2  6  1 -1</clus>
<clus scale="   40.711">  2  3  1 -1</clus>
<clus scale="   99.606">  2  5  1 -1</clus>
<clus scale="   99.606">  1  3  2 -1</clus>
</clustering>
</event>
<event>
 6    0  0.6207838E+002  0.1089560E+03  0.7546771E-02  0.1262516E+00
         21   -1    0    0  504  501  0.00000000000E+00  0.00000000000E+00  0.32109272298E+03  0.32109272298E+03  0.00000000000E+00 0.  1.
         21   -1    0    0  505  502 -0.00000000000E+00 -0.00000000000E+00 -0.10957940236E+04  0.10957940236E+04  0.00000000000E+00 0. -1.
         21    1    1    2  503  501 -0.18614848391E+02  0.83158639878E+02 -0.11822268807E+03  0.14573426481E+03  0.00000000000E+00 0.  1.
         21    1    1    2  504  506  0.98221370470E+01  0.44892537489E+02  0.29739858678E+03  0.30092812052E+03  0.00000000000E+00 0.  1.
         21    1    1    2  505  503 -0.32835387943E+02 -0.15124621773E+02 -0.47794043232E+03  0.47930572052E+03  0.00000000000E+00 0. -1.
         21    1    1    2  506  502  0.41628099287E+02 -0.11292655559E+03 -0.47593676697E+03  0.49091864068E+03  0.00000000000E+00 0. -1.
<scales pt_clust_3="108.95597" pt_clust_4="45.89224" pt_clust_5="36.15131" pt_clust_6="14000.00000"></scales>
<clustering>
<clus scale="   36.151">  2  5  1 -1</clus>
<clus scale="   45.892">  1  4  2 -1</clus>
<clus scale="  108.956">  1  3  2 -1</clus>
<clus scale="   45.892">  1  3  2 -1</clus>
</clustering>
</event>
<event>
 6    0  0.8665490E+002  0.2709701E+03  0.7546771E-02  0.1100726E+00
         21   -1    0    0  506  501  0.00000000000E+00  0.00000000000E+00  0.10734787186E+04  0.10734787186E+04  0.00000000000E+00 0. -1.
         21   -1    0    0  504  502 -0.00000000000E+00 -0.00000000000E+00 -0.75309596468E+03  0.75309596468E+03  0.00000000000E+00 0. -1.
         21    1    1    2  503  501  0.19881240942E+03 -0.17919535891E+03  0.94040705031E+03  0.97775394199E+03  0.00000000000E+00 0. -1.
         21    1    1    2  504  505 -0.20405846973E+02 -0.38385215780E+02 -0.44930077826E+03  0.45139895074E+03  0.00000000000E+00 0. -1.
         21    1    1    2  505  503 -0.20329772480E+03  0.24704798747E+03 -0.15780814131E+03  0.35674372102E+03  0.00000000000E+00 0. -1.
         21    1    1    2  506  502  0.24891162352E+02 -0.29467412775E+02 -0.12915376856E+02  0.40678069499E+02  0.00000000000E+00 0.  1.
<scales pt_clust_3="14000.00000" pt_clust_4="56.87454" pt_clust_5="270.97009" pt_clust_6="38.57329"></scales>
<clustering>
<clus scale="   38.573">  2  6  1 -1</clus>
<clus scale="   56.875">  2  4  1 -1</clus>
<clus scale="  270.970">  2  5  1 -1</clus>
<clus scale="  270.970">  1  3  2 -1</clus>
</clustering>
</event>
<event>
 6    0  0.6207838E+002  0.7932982E+02  0.7546771E-02  0.1330964E+00
         21   -1    0    0  503  501  0.00000000000E+00  0.00000000000E+00  0.23426141680E+04  0.23426141680E+04  0.00000000000E+00 0. -1.
         21   -1    0    0  504  502 -0.00000000000E+00 -0.00000000000E+00 -0.10693850910E+03  0.10693850910E+03  0.00000000000E+00 0.  1.
         21    1    1    2  503  502  0.92164531899E+01 -0.73336184650E+02  0.20215142017E+04  0.20228649996E+04  0.00000000000E+00 0. -1.
         21    1    1    2  504  506  0.40103040785E+02 -0.18410901852E+02 -0.75967976732E+02  0.87854132948E+02  0.00000000000E+00 0.  1.
         21    1    1    2  505  501  0.35425355023E+02  0.12351437594E+02  0.16036577481E+03  0.16469576655E+03  0.00000000000E+00 0.  1.
         21    1    1    2  506  505 -0.84744848999E+02  0.79395648909E+02  0.12976365916E+03  0.17413777803E+03  0.00000000000E+00 0.  1.
<scales pt_clust_3="79.32982" pt_clust_4="44.20104" pt_clust_5="37.51685" pt_clust_6="14000.00000"></scales>
<clustering>
<clus scale="   37.517">  1  5  2 -1</clus>
<clus scale="   44.201">  2  4  1 -1</clus>
<clus scale="   79.330">  1  3  2 -1</clus>
<clus scale="   37.517">  1  3  2 -1</clus>
</clustering>
</event>
<event>
 6    0  0.6207838E+002  0.6426152E+02  0.7546771E-02  0.1380771E+00
         21   -1    0    0  504  501  0.00000000000E+00  0.00000000000E+00  0.21332774208E+03  0.21332774208E+03  0.00000000000E+00 0.  1.
         21   -1    0    0  506  502 -0.00000000000E+00 -0.00000000000E+00 -0.33721538332E+03  0.33721538332E+03  0.00000000000E+00 0.  1.
         21    1    1    2  503  502  0.10319412143E+03 -0.13249476314E+02 -0.21210914970E+03  0.23625170202E+03  0.00000000000E+00 0.  1.
         21    1    1    2  504  505 -0.23768725862E+02  0.40978733433E+02  0.17471020945E+03  0.18101896643E+03  0.00000000000E+00 0.  1.
         21    1    1    2  505  503 -0.40688491936E+02 -0.41037741316E+02 -0.35316801872E+02  0.67726849054E+02  0.00000000000E+00 0.  1.
         21    1    1    2  506  501 -0.38736903632E+02  0.13308484197E+02 -0.51171899119E+02  0.65545607893E+02  0.00000000000E+00 0.  1.
<scales pt_clust_3="14000.00000" pt_clust_4="47.72412" pt_clust_5="64.26152" pt_clust_6="40.95929"></scales>
<clustering>
<clus scale="   40.959">  2  6  1 -1</clus>
<clus scale="   47.724">  1  4  2 -1</clus>
<clus scale="   64.262">  1  5  2 -1</clus>
<clus scale="   47.724">  1  3  2 -1</clus>
</clustering>
</event>
<event>
 6    0  0.6207838E+002  0.1797578E+03  0.7546771E-02  0.1168038E+00
         21   -1    0    0  506  501  0.00000000000E+00  0.00000000000E+00  0.15245104997E+03  0.15245104997E+03  0.00000000000E+00 0.  1.
         21   -1    0    0  504  502 -0.00000000000E+00 -0.00000000000E+00 -0.16223340329E+04  0.16223340329E+04  0.00000000000E+00 0.  1.
         21    1    1    2  503  501 -0.72529375616E+02 -0.11718388518E+03 -0.13476761587E+02  0.13847092249E+03  0.00000000000E+00 0.  1.
         21    1    1    2  504  503  0.56322429663E+02  0.90612239583E+01 -0.71071157409E+03  0.71299737966E+03  0.00000000000E+00 0.  1.
         21    1    1    2  505  502 -0.15503519158E+03 -0.11350993799E+03 -0.54740734219E+03  0.58015102769E+03  0.00000000000E+00 0.  1.
         21    1    1    2  506  505  0.17124213753E+03  0.22163259921E+03 -0.19828730508E+03  0.34316575303E+03  0.00000000000E+00 0.  1.
<scales pt_clust_3="134.74526" pt_clust_4="57.04666" pt_clust_5="14000.00000" pt_clust_6="179.75784"></scales>
<clustering>
<clus scale="   57.047">  2  4  1 -1</clus>
<clus scale="  134.745">  1  3  2 -1</clus>
<clus scale="  179.758">  1  6  2 -1</clus>
<clus scale="  134.745">  1  3  2 -1</clus>
</clustering>
</event>
<event>
 6    0  0.6207838E+002  0.8612497E+02  0.7546771E-02  0.1312517E+00
         21   -1    0    0  503  501  0.00000000000E+00  0.00000000000E+00  0.12094419264E+04  0.12094419264E+04  0.00000000000E+00 0.  1.
         21   -1    0    0  506  502 -0.00000000000E+00 -0.00000000000E+00 -0.52727318559E+02  0.52727318559E+02  0.00000000000E+00 0. -1.
         21    1    1    2  503  504  0.90544443564E+02  0.18825270452E+02  0.92782716403E+03  0.93242476017E+03  0.00000000000E+00 0.  1.
         21    1    1    2  504  502 -0.46671713485E+02 -0.63827933038E+02  0.12975016773E+03  0.15194525297E+03  0.00000000000E+00 0.  1.
         21    1    1    2  505  501 -0.65257223294E+02  0.14835672658E+02  0.11847565782E+03  0.13607014320E+03  0.00000000000E+00 0.  1.
         21    1    1    2  506  505  0.21384493215E+02  0.30166989929E+02 -0.19338381710E+02  0.41729088638E+02  0.00000000000E+00 0. -1.
<scales pt_clust_3="86.12497" pt_clust_4="60.58375" pt_clust_5="14000.00000" pt_clust_6="36.97761"></scales>
<clustering>
<clus scale="   36.978">  2  6  1 -1</clus>
<clus scale="   60.584">  2  4  1 -1</clus>
<clus scale="   86.125">  1  3  2 -1</clus>
<clus scale="   86.125">  1  3  2 -1</clus>
</clustering>
</event>
<event>
 6    0  0.6207838E+002  0.9235664E+02  0.7546771E-02  0.1297243E+00
         21   -1    0    0  504  501  0.00000000000E+00  0.00000000000E+00  0.14543791832E+04  0.14543791832E+04  0.00000000000E+00 0. -1.
         21   -1    0    0  506  502 -0.00000000000E+00 -0.00000000000E+00 -0.35831425397E+02  0.35831425397E+02  0.00000000000E+00 0.  1.
         21    1    1    2  503  501  0.11485852431E+03 -0.11994286805E+02  0.52733816391E+03  0.53983505133E+03  0.00000000000E+00 0. -1.
         21    1    1    2  504  505 -0.19021252261E+02 -0.39955618287E+02  0.77407193421E+03  0.77533581034E+03  0.00000000000E+00 0. -1.
         21    1    1    2  505  502 -0.32258902535E+02  0.53756269551E+02  0.37248573179E+02  0.72923449677E+02  0.00000000000E+00 0.  1.
         21    1    1    2  506  503 -0.63578369515E+02 -0.18063644593E+01  0.79889086517E+02  0.10211629727E+03  0.00000000000E+00 0.  1.
<scales pt_clust_3="14000.00000" pt_clust_4="44.25223" pt_clust_5="60.78273" pt_clust_6="92.35664"></scales>
<clustering>
<clus scale="   44.252">  1  4  2 -1</clus>
<clus scale="   60.783">  2  5  1 -1</clus>
<clus scale="   92.357">  2  6  1 -1</clus>
<clus scale="   44.252">  1  3  2 -1</clus>
</clustering>
</event>
<event>
 6    0  0.6794138E+002  0.1370065E+03  0.7546771E-02  0.1217415E+00
         21   -1    0    0  505  501  0.00000000000E+00  0.00000000000E+00  0.90944982537E+03  0.90944982537E+03  0.00000000000E+00 0. -1.
         21   -1    0    0  506  502 -0.00000000000E+00 -0.00000000000E+00 -0.35883238131E+03  0.35883238131E+03  0.00000000000E+00 0. -1.
         21    1    1    2  503  501  0.47957704043E+02  0.13883978699E+02  0.44185439969E+03  0.44466618577E+03  0.00000000000E+00 0.  1.
         21    1    1    2  504  503  0.69730525952E+02  0.50782421367E+02  0.41803959210E+03  0.42684692939E+03  0.00000000000E+00 0. -1.
         21    1    1    2  505  502 -0.37436248994E+02 -0.27562806768E+02 -0.30471130770E+03  0.30823718480E+03  0.00000000000E+00 0. -1.
         21    1    1    2  506  504 -0.80251981001E+02 -0.37103593298E+02 -0.45652400283E+01  0.88531906716E+02  0.00000000000E+00 0. -1.
<scales pt_clust_3="34.73984" pt_clust_4="34.73984" pt_clust_5="46.48850" pt_clust_6="129.17279"></scales>
<clustering>
<clus scale="   34.740">  3  4 -1 -1</clus>
<clus scale="   46.489">  2  5  1 -1</clus>
<clus scale="  129.173">  2  6  1 -1</clus>
<clus scale="  137.006">  1  3  2 -1</clus>
</clustering>
</event>
<event>
 6    0  0.6207838E+002  0.1255895E+03  0.7546771E-02  0.1234151E+00
         21   -1    0    0  506  501  0.00000000000E+00  0.00000000000E+00  0.10486542577E+04  0.10486542577E+04  0.00000000000E+00 0. -1.
         21   -1    0    0  503  502 -0.00000000000E+00 -0.00000000000E+00 -0.40895376169E+02  0.40895376169E+02  0.00000000000E+00 0.  1.
         21    1    1    2  503  504 -0.48475751875E+02 -0.12097028040E+01  0.10374596366E+03  0.11451893676E+03  0.00000000000E+00 0.  1.
         21    1    1    2  504  501 -0.40559666116E+02  0.60530512952E+02  0.11319411995E+03  0.13461774885E+03  0.00000000000E+00 0.  1.
         21    1    1    2  505  502 -0.19181071572E+02 -0.28883732303E+02 -0.64418857866E+01  0.35265867222E+02  0.00000000000E+00 0.  1.
         21    1    1    2  506  505  0.10821648956E+03 -0.30437077844E+02  0.79726068368E+03  0.80514708101E+03  0.00000000000E+00 0. -1.
<scales pt_clust_3="53.37926" pt_clust_4="53.37926" pt_clust_5="34.67252" pt_clust_6="110.51202"></scales>
<clustering>
<clus scale="   34.673">  2  5  1 -1</clus>
<clus scale="   53.379">  3  4 -1 -1</clus>
<clus scale="  110.512">  1  6  2 -1</clus>
<clus scale="  110.512">  1  3  2 -1</clus>
</clustering>
</event>
<event>
 6    0  0.6207838E+002  0.1954710E+03  0.7546771E-02  0.1153617E+00
         21   -1    0    0  505  501  0.00000000000E+00  0.00000000000E+00  0.29910296599E+03  0.29910296599E+03  0.00000000000E+00 0. -1.
         21   -1    0    0  504  502 -0.00000000000E+00 -0.00000000000E+00 -0.77527712076E+03  0.77527712076E+03  0.00000000000E+00 0. -1.
         21    1    1    2  503  502  0.27851380770E+02 -0.33722969359E+02 -0.31714704586E+03  0.32014869478E+03  0.00000000000E+00 0. -1.
         21    1    1    2  504  501  0.12333070644E+03  0.48081861857E+02 -0.31500867071E+03  0.34169107571E+03  0.00000000000E+00 0. -1.
         21    1    1    2  505  506 -0.20236071556E+03  0.32277807525E+02  0.23211678301E+03  0.30962867602E+03  0.00000000000E+00 0. -1.
         21    1    1    2  506  503  0.51178628345E+02 -0.46636700023E+02 -0.76135221213E+02  0.10291164024E+03  0.00000000000E+00 0. -1.
<scales pt_clust_3="43.73715" pt_clust_4="195.47099" pt_clust_5="14000.00000" pt_clust_6="77.73893"></scales>
<clustering>
<clus scale="   43.737">  2  3  1 -1</clus>
<clus scale="   77.739">  2  6  1 -1</clus>
<clus scale="  195.471">  2  4  1 -1</clus>
<clus scale="  195.471">  1  3  2 -1</clus>
</clustering>
</event>
<event>
 6    0  0.6207838E+002  0.2018048E+03  0.7546771E-02  0.1148225E+00
         21   -1    0    0  506  501  0.00000000000E+00  0.00000000000E+00  0.73567810920E+02  0.73567810920E+02  0.00000000000E+00 0.  1.
         21   -1    0    0  503  502 -0.00000000000E+00 -0.00000000000E+00 -0.14696075585E+04  0.14696075585E+04  0.00000000000E+00 0. -1.
         21    1    1    2  503  504  0.81569683922E+02  0.11361538568E+03 -0.16260810192E+03  0.21448418126E+03  0.00000000000E+00 0.  1.
         21    1    1    2  504  501  0.76541228720E+02  0.42792911393E+02 -0.61902220996E+02  0.10733907920E+03  0.00000000000E+00 0.  1.
         21    1    1    2  505  502 -0.13149172526E+03 -0.13409387762E+03 -0.11716605869E+04  0.11866169444E+04  0.00000000000E+00 0. -1.
         21    1    1    2  506  505 -0.26619187379E+02 -0.22314419456E+02  0.13116226120E+00  0.34735164544E+02  0.00000000000E+00 0.  1.
<scales pt_clust_3="46.91265" pt_clust_4="46.91265" pt_clust_5="192.41226" pt_clust_6="34.73492"></scales>
<clustering>
<clus scale="   34.735">  1  6  2 -1</clus>
<clus scale="   46.913">  3  4 -1 -1</clus>
<clus scale="  192.412">  2  5  1 -1</clus>
<clus scale="   34.735">  1  3  2 -1</clus>
</clustering>
</event>
<event>
 6    0  0.6207838E+002  0.1706079E+03  0.7546771E-02  0.1177215E+00
         21   -1    0    0  504  501  0.00000000000E+00  0.00000000000E+00  0.97959333745E+02  0.97959333745E+02  0.00000000000E+00 0. -1.
         21   -1    0    0  505  502 -0.00000000000E+00 -0.00000000000E+00 -0.70408775739E+03  0.70408775739E+03  0.00000000000E+00 0.  1.
         21    1    1    2  503  501 -0.56105633784E+02  0.59816546816E+02 -0.96161460009E+02  0.12638389061E+03  0.00000000000E+00 0.  1.
         21    1    1    2  504  506  0.14762635875E+03 -0.72071421348E+02 -0.10445124031E+02  0.16461145826E+03  0.00000000000E+00 0. -1.
         21    1    1    2  505  503 -0.51468129422E+02  0.23980252439E+02 -0.17810743174E+03  0.18693923637E+03  0.00000000000E+00 0.  1.
         21    1    1    2  506  502 -0.40052595545E+02 -0.11725377907E+02 -0.32141440786E+03  0.32411250589E+03  0.00000000000E+00 0.  1.
<scales pt_clust_3="60.03091" pt_clust_4="157.33123" pt_clust_5="60.03091" pt_clust_6="41.73362"></scales>
<clustering>
<clus scale="   41.734">  2  6  1 -1</clus>
<clus scale="   60.031">  3  5 -1 -1</clus>
<clus scale="  157.331">  1  4  2 -1</clus>
<clus scale="  157.331">  1  3  2 -1</clus>
</clustering>
</event>
<event>
 6    0  0.6207838E+002  0.1008474E+03  0.7546771E-02  0.1278524E+00
         21   -1    0    0  505  501  0.00000000000E+00  0.00000000000E+00  0.37325316623E+03  0.37325316623E+03  0.00000000000E+00 0. -1.
         21   -1    0    0  504  502 -0.00000000000E+00 -0.00000000000E+00 -0.90188969426E+02  0.90188969426E+02  0.00000000000E+00 0.  1.
         21    1    1    2  503  501  0.81518607463E+02 -0.49731193291E+02  0.12478291464E+03  0.15712813477E+03  0.00000000000E+00 0. -1.
         21    1    1    2  504  503  0.25984114817E+02 -0.27230539761E+02  0.10542421359E+02  0.39087327442E+02  0.00000000000E+00 0. -1.
         21    1    1    2  505  506 -0.75791217886E+02  0.75253900261E+02  0.18783506483E+03  0.21607746249E+03  0.00000000000E+00 0. -1.
         21    1    1    2  506  502 -0.31711504394E+02  0.17078327909E+01 -0.40096204034E+02  0.51149210959E+02  0.00000000000E+00 0.  1.
<scales pt_clust_3="14000.00000" pt_clust_4="31.02505" pt_clust_5="100.84741" pt_clust_6="31.75746"></scales>
<clustering>
<clus scale="   31.757">  2  6  1 -1</clus>
<clus scale="   31.025">  2  4  1 -1</clus>
<clus scale="  100.847">  1  5  2 -1</clus>
<clus scale="  100.847">  1  3  2 -1</clus>
</clustering>
</event>
<event>
 6    0  0.6207838E+002  0.2525008E+03  0.7546771E-02  0.1111735E+00
         21   -1    0    0  505  501  0.00000000000E+00  0.00000000000E+00  0.19995511378E+03  0.19995511378E+03  0.00000000000E+00 0. -1.
         21   -1    0    0  506  502 -0.00000000000E+00 -0.00000000000E+00 -0.15894594693E+04  0.15894594693E+04  0.00000000000E+00 0. -1.
         21    1    1    2  503  502 -0.17723073724E+03  0.66785885264E+02 -0.19141672369E+03  0.26927950312E+03  0.00000000000E+00 0. -1.
         21    1    1    2  504  501  0.25168571976E+03 -0.17576350452E+03 -0.12271417396E+04  0.12649566633E+04  0.00000000000E+00 0. -1.
         21    1    1    2  505  503 -0.59667266219E+02  0.72048464702E+02  0.12219860327E+03  0.15389497251E+03  0.00000000000E+00 0. -1.
         21    1    1    2  506  504 -0.14787716306E+02  0.36929154552E+02 -0.93144495514E+02  0.10128344413E+03  0.00000000000E+00 0.  1.
<scales pt_clust_3="14000.00000" pt_clust_4="252.50076" pt_clust_5="93.94998" pt_clust_6="39.77988"></scales>
<clustering>
<clus scale="   39.780">  2  6  1 -1</clus>
<clus scale="   93.950">  1  5  2 -1</clus>
<clus scale="  252.501">  2  4  1 -1</clus>
<clus scale="   93.950">  1  3  2 -1</clus>
</clustering>
</event>
<event>
 6    0  0.6207838E+002  0.9031552E+02  0.7546771E-02  0.1302089E+00
         21   -1    0    0  502  501  0.00000000000E+00  0.00000000000E+00  0.62365007977E+02  0.62365007977E+02  0.00000000000E+00 0. -1.
         21   -1    0    0  506  502 -0.00000000000E+00 -0.00000000000E+00 -0.75287809518E+03  0.75287809518E+03  0.00000000000E+00 0.  1.
         21    1    1    2  503  504 -0.56241047705E+02  0.46725024831E+02 -0.16197805745E+03  0.17771655660E+03  0.00000000000E+00 0.  1.
         21    1    1    2  504  505  0.36929942292E+02 -0.89469244892E+02 -0.66794538317E+02  0.11760134680E+03  0.00000000000E+00 0. -1.
         21    1    1    2  505  501  0.60253404686E+02 -0.12762792255E+01 -0.63689389456E+01  0.60602516847E+02  0.00000000000E+00 0. -1.
         21    1    1    2  506  503 -0.40942299273E+02  0.44020499287E+02 -0.45537155248E+03  0.45932268291E+03  0.00000000000E+00 0.  1.
<scales pt_clust_3="14000.00000" pt_clust_4="90.31552" pt_clust_5="55.73807" pt_clust_6="60.11719"></scales>
<clustering>
<clus scale="   60.117">  2  6  1 -1</clus>
<clus scale="   55.738">  1  5  2 -1</clus>
<clus scale="   90.316">  1  4  2 -1</clus>
<clus scale="   55.738">  1  3  2 -1</clus>
</clustering>
</event>
<event>
 6    0  0.6207838E+002  0.3916350E+03  0.7546771E-02  0.1046715E+00
         21   -1    0    0  503  501  0.00000000000E+00  0.00000000000E+00  0.78442700825E+03  0.78442700825E+03  0.00000000000E+00 0.  1.
         21   -1    0    0  505  502 -0.00000000000E+00 -0.00000000000E+00 -0.18236618506E+04  0.18236618506E+04  0.00000000000E+00 0.  1.
         21    1    1    2  503  506  0.50432057793E+02  0.15905667467E+03  0.38578279163E+03  0.42032223416E+03  0.00000000000E+00 0.  1.
         21    1    1    2  504  502  0.23106044125E+02 -0.53984241639E+02 -0.38437841318E+02  0.70183012657E+02  0.00000000000E+00 0. -1.
         21    1    1    2  505  501 -0.27736659675E+03 -0.18074110216E+03 -0.17023270344E+04  0.17342193942E+04  0.00000000000E+00 0.  1.
         21    1    1    2  506  504  0.20382849483E+03  0.75668669126E+02  0.31574724181E+03  0.38336421782E+03  0.00000000000E+00 0.  1.
<scales pt_clust_3="161.35795" pt_clust_4="58.72127" pt_clust_5="345.47776" pt_clust_6="161.35795"></scales>
<clustering>
<clus scale="   58.721">  2  4  1 -1</clus>
<clus scale="  161.358">  3  6 -1 -1</clus>
<clus scale="  345.478">  2  5  1 -1</clus>
<clus scale="  391.635">  1  3  2 -1</clus>
</clustering>
</event>
<event>
 6    0  0.6207838E+002  0.9700421E+02  0.7546771E-02  0.1286725E+00
         21   -1    0    0  505  501  0.00000000000E+00  0.00000000000E+00  0.16223780446E+03  0.16223780446E+03  0.00000000000E+00 0. -1.
         21   -1    0    0  506  502 -0.00000000000E+00 -0.00000000000E+00 -0.35030611442E+03  0.35030611442E+03  0.00000000000E+00 0.  1.
         21    1    1    2  503  502  0.32449716122E+01 -0.39504151610E+02 -0.98777728107E+02  0.10643377004E+03  0.00000000000E+00 0. -1.
         21    1    1    2  504  501  0.60872923851E+02 -0.73250340851E+02  0.10973350827E+03  0.14530164531E+03  0.00000000000E+00 0. -1.
         21    1    1    2  505  503 -0.38975459503E+02 -0.12379280610E+02 -0.50246194627E+02  0.64784358501E+02  0.00000000000E+00 0.  1.
         21    1    1    2  506  504 -0.25142435960E+02  0.12513377307E+03 -0.14877789549E+03  0.19602414503E+03  0.00000000000E+00 0.  1.
<scales pt_clust_3="39.63720" pt_clust_4="97.00421" pt_clust_5="43.87949" pt_clust_6="14000.00000"></scales>
<clustering>
<clus scale="   39.637">  2  3  1 -1</clus>
<clus scale="   43.879">  2  5  1 -1</clus>
<clus scale="   97.004">  1  4  2 -1</clus>
<clus scale="   97.004">  1  3  2 -1</clus>
</clustering>
</event>
<event>
 6    0  0.6207838E+002  0.1891713E+03  0.7546771E-02  0.1159211E+00
         21   -1    0    0  503  501  0.00000000000E+00  0.00000000000E+00  0.15760792557E+04  0.15760792557E+04  0.00000000000E+00 0.  1.
         21   -1    0    0  505  502 -0.00000000000E+00 -0.00000000000E+00 -0.15354899868E+03  0.15354899868E+03  0.00000000000E+00 0.  1.
         21    1    1    2  503  504  0.72052854836E+02 -0.59581884901E+02  0.77043637382E+03  0.77608879712E+03  0.00000000000E+00 0.  1.
         21    1    1    2  504  506 -0.13870863653E+03 -0.14646112800E+03  0.28914250114E+03  0.35255401547E+03  0.00000000000E+00 0.  1.
         21    1    1    2  505  501  0.78846262574E+02  0.17055515490E+03  0.46002106502E+03  0.49691566110E+03  0.00000000000E+00 0.  1.
         21    1    1    2  506  502 -0.12190480880E+02  0.35487857997E+02 -0.97069682999E+02  0.10406978066E+03  0.00000000000E+00 0.  1.
<scales pt_clust_3="91.79497" pt_clust_4="189.17126" pt_clust_5="14000.00000" pt_clust_6="37.52327"></scales>
<clustering>
<clus scale="   37.523">  2  6  1 -1</clus>
<clus scale="   91.795">  1  3  2 -1</clus>
<clus scale="  189.171">  2  4  1 -1</clus>
<clus scale="   91.795">  1  3  2 -1</clus>
</clustering>
</event>
<event>
 6    0  0.6207838E+002  0.1289142E+03  0.7546771E-02  0.1229076E+00
         21   -1    0    0  505  501  0.00000000000E+00  0.00000000000E+00  0.48587559519E+03  0.48587559519E+03  0.00000000000E+00 0. -1.
         21   -1    0    0  506  502 -0.00000000000E+00 -0.00000000000E+00 -0.20332222442E+03  0.20332222442E+03  0.00000000000E+00 0.  1.
         21    1    1    2  503  501  0.63106385243E+02  0.50018121709E+02  0.16570387271E+03  0.18423355229E+03  0.00000000000E+00 0. -1.
         21    1    1    2  504  502 -0.19545708563E+03 -0.48065970510E+02  0.68406038225E+02  0.21258691378E+03  0.00000000000E+00 0. -1.
         21    1    1    2  505  504  0.29858400135E+02 -0.53981984144E+02  0.13504112868E+03  0.14846442370E+03  0.00000000000E+00 0. -1.
         21    1    1    2  506  503  0.10249230025E+03  0.52029832945E+02 -0.86597668850E+02  0.14391292985E+03  0.00000000000E+00 0.  1.
<scales pt_clust_3="81.47662" pt_clust_4="14000.00000" pt_clust_5="61.68937" pt_clust_6="128.91423"></scales>
<clustering>
<clus scale="   61.689">  1  5  2 -1</clus>
<clus scale="   81.477">  1  3  2 -1</clus>
<clus scale="  128.914">  2  6  1 -1</clus>
<clus scale="   61.689">  1  3  2 -1</clus>
</clustering>
</event>
<event>
 6    0  0.6207838E+002  0.1186462E+03  0.7546771E-02  0.1245347E+00
         21   -1    0    0  504  501  0.00000000000E+00  0.00000000000E+00  0.13456169303E+03  0.13456169303E+03  0.00000000000E+00 0. -1.
         21   -1    0    0  501  502 -0.00000000000E+00 -0.00000000000E+00 -0.29345316146E+03  0.29345316146E+03  0.00000000000E+00 0. -1.
         21    1    1    2  503  505 -0.30792708626E+02  0.61587506498E+02 -0.47922351199E+01  0.69023020643E+02  0.00000000000E+00 0. -1.
         21    1    1    2  504  506  0.64557136470E+02 -0.83759297094E+02  0.11222722742E+02  0.10634469063E+03  0.00000000000E+00 0. -1.
         21    1    1    2  505  502 -0.28489085908E+02 -0.40788310632E+02 -0.18086452074E+03  0.18758275283E+03  0.00000000000E+00 0. -1.
         21    1    1    2  506  503 -0.52753419349E+01  0.62960101228E+02  0.15542564677E+02  0.65064390383E+02  0.00000000000E+00 0. -1.
<scales pt_clust_3="31.05210" pt_clust_4="114.13179" pt_clust_5="49.75253" pt_clust_6="31.05210"></scales>
<clustering>
<clus scale="   31.052">  3  6 -1 -1</clus>
<clus scale="   49.753">  2  5  1 -1</clus>
<clus scale="  114.132">  1  4  2 -1</clus>
<clus scale="  114.132">  1  3  2 -1</clus>
</clustering>
</event>
<event>
 6    0  0.6207838E+002  0.6600847E+02  0.7546771E-02  0.1374218E+00
         21   -1    0    0  505  501  0.00000000000E+00  0.00000000000E+00  0.89705797789E+03  0.89705797789E+03  0.00000000000E+00 0. -1.
         21   -1    0    0  504  502 -0.00000000000E+00 -0.00000000000E+00 -0.14454065169E+03  0.14454065169E+03  0.00000000000E+00 0. -1.
         21    1    1    2  503  502 -0.27548848938E+02  0.10961846927E+03  0.34086884329E+02  0.11805534112E+03  0.00000000000E+00 0. -1.
         21    1    1    2  504  506  0.46122060083E+02 -0.41024014949E+02 -0.80627491557E+02  0.10154312691E+03  0.00000000000E+00 0. -1.
         21    1    1    2  505  503 -0.38293889569E+02 -0.26214906517E+02  0.75906692039E+03  0.76048420952E+03  0.00000000000E+00 0. -1.
         21    1    1    2  506  501  0.19720678424E+02 -0.42379547806E+02  0.39991013042E+02  0.61515952028E+02  0.00000000000E+00 0.  1.
<scales pt_clust_3="66.00847" pt_clust_4="14000.00000" pt_clust_5="46.40736" pt_clust_6="52.36759"></scales>
<clustering>
<clus scale="   46.407">  1  5  2 -1</clus>
<clus scale="   52.368">  1  6  2 -1</clus>
<clus scale="   66.008">  1  3  2 -1</clus>
<clus scale="   46.407">  1  3  2 -1</clus>
</clustering>
</event>
<event>
 6    0  0.6207838E+002  0.6443409E+02  0.7546771E-02  0.1380113E+00
         21   -1    0    0  503  501  0.00000000000E+00  0.00000000000E+00  0.38418408927E+03  0.38418408927E+03  0.00000000000E+00 0. -1.
         21   -1    0    0  506  502 -0.00000000000E+00 -0.00000000000E+00 -0.25593256365E+03  0.25593256365E+03  0.00000000000E+00 0. -1.
         21    1    1    2  503  504 -0.58991813009E+02  0.20276221435E+02  0.31946424833E+03  0.32549741185E+03  0.00000000000E+00 0. -1.
         21    1    1    2  504  505  0.12005452916E+03 -0.48481453558E+02 -0.51220006527E+02  0.13923731676E+03  0.00000000000E+00 0. -1.
         21    1    1    2  505  502 -0.33070593171E+02  0.49375970647E+02 -0.12253030060E+03  0.13618122181E+03  0.00000000000E+00 0. -1.
         21    1    1    2  506  501 -0.27992122977E+02 -0.21170738523E+02 -0.17462415591E+02  0.39200702502E+02  0.00000000000E+00 0. -1.
<scales pt_clust_3="14000.00000" pt_clust_4="64.43409" pt_clust_5="61.59195" pt_clust_6="35.09643"></scales>
<clustering>
<clus scale="   35.096">  2  6  1 -1</clus>
<clus scale="   61.592">  2  5  1 -1</clus>
<clus scale="   64.434">  2  4  1 -1</clus>
<clus scale="   64.434">  1  3  2 -1</clus>
</clustering>
</event>
<event>
 6    0  0.6207838E+002  0.1489890E+03  0.7546771E-02  0.1201721E+00
         21   -1    0    0  503  501  0.00000000000E+00  0.00000000000E+00  0.11739333712E+03  0.11739333712E+03  0.00000000000E+00 0. -1.
         21   -1    0    0  506  502 -0.00000000000E+00 -0.00000000000E+00 -0.41791821542E+03  0.41791821542E+03  0.00000000000E+00 0. -1.
         21    1    1    2  503  502  0.76301421532E+02 -0.11466267613E+03 -0.31617960696E+02  0.14131217805E+03  0.00000000000E+00 0. -1.
         21    1    1    2  504  501  0.82110963422E+01  0.64404899372E+02 -0.19619420346E+02  0.67825768119E+02  0.00000000000E+00 0.  1.
         21    1    1    2  505  504 -0.43424856965E+02  0.82148610547E+02 -0.25406983439E+02  0.96330821780E+02  0.00000000000E+00 0. -1.
         21    1    1    2  506  505 -0.41087660910E+02 -0.31890833787E+02 -0.22388051382E+03  0.22984278459E+03  0.00000000000E+00 0. -1.
<scales pt_clust_3="141.40598" pt_clust_4="39.22573" pt_clust_5="39.22573" pt_clust_6="52.01174"></scales>
<clustering>
<clus scale="   39.226">  4  5 -1 -1</clus>
<clus scale="   52.012">  2  6  1 -1</clus>
<clus scale="  141.406">  1  3  2 -1</clus>
<clus scale="  141.406">  1  3  2 -1</clus>
</clustering>
</event>
<event>
 6    0  0.6207838E+002  0.7189769E+02  0.7546771E-02  0.1353756E+00
         21   -1    0    0  505  501  0.00000000000E+00  0.00000000000E+00  0.20857657149E+04  0.20857657149E+04  0.00000000000E+00 0.  1.
         21   -1    0    0  506  502 -0.00000000000E+00 -0.00000000000E+00 -0.67335780102E+02  0.67335780102E+02  0.00000000000E+00 0.  1.
         21    1    1    2  503  504 -0.48654499994E+02 -0.59751322607E+02  0.69255805166E+03  0.69683149745E+03  0.00000000000E+00 0.  1.
         21    1    1    2  504  501 -0.36478328332E+02  0.80258454554E+02  0.12279706026E+04  0.12311311420E+04  0.00000000000E+00 0.  1.
         21    1    1    2  505  502  0.33932996210E+02  0.13754313475E+02  0.14375300435E+03  0.14834269659E+03  0.00000000000E+00 0. -1.
         21    1    1    2  506  503  0.51199832115E+02 -0.34261445423E+02 -0.45851723825E+02  0.76796158945E+02  0.00000000000E+00 0.  1.
<scales pt_clust_3="14000.00000" pt_clust_4="71.89769" pt_clust_5="36.61461" pt_clust_6="61.77016"></scales>
<clustering>
<clus scale="   36.615">  1  5  2 -1</clus>
<clus scale="   61.770">  2  6  1 -1</clus>
<clus scale="   71.898">  1  4  2 -1</clus>
<clus scale="   36.615">  1  3  2 -1</clus>
</clustering>
</event>
<event>
 6    0  0.6207838E+002  0.1071831E+03  0.7546771E-02  0.1265877E+00
         21   -1    0    0  506  501  0.00000000000E+00  0.00000000000E+00  0.62909647003E+02  0.62909647003E+02  0.00000000000E+00 0. -1.
         21   -1    0    0  505  502 -0.00000000000E+00 -0.00000000000E+00 -0.13566615198E+04  0.13566615198E+04  0.00000000000E+00 0.  1.
         21    1    1    2  503  504 -0.36595996638E+02 -0.85821137043E+02 -0.13757051711E+03  0.16622328871E+03  0.00000000000E+00 0. -1.
         21    1    1    2  504  501 -0.67785776670E+02  0.68677409117E+01 -0.11434005584E+03  0.13310043483E+03  0.00000000000E+00 0.  1.
         21    1    1    2  505  503  0.14116975323E+02  0.10982576132E+03 -0.10151698501E+04  0.10211908791E+04  0.00000000000E+00 0.  1.
         21    1    1    2  506  502  0.90264797985E+02 -0.30872365186E+02 -0.26671449759E+02  0.99056564244E+02  0.00000000000E+00 0. -1.
<scales pt_clust_3="107.18313" pt_clust_4="68.13279" pt_clust_5="14000.00000" pt_clust_6="51.59715"></scales>
<clustering>
<clus scale="   68.133">  1  4  2 -1</clus>
<clus scale="   51.597">  1  6  2 -1</clus>
<clus scale="  107.183">  1  3  2 -1</clus>
<clus scale="   68.133">  1  3  2 -1</clus>
</clustering>
</event>
<event>
 6    0  0.6207838E+002  0.1051557E+03  0.7546771E-02  0.1269813E+00
         21   -1    0    0  505  501  0.00000000000E+00  0.00000000000E+00  0.50067463905E+03  0.50067463905E+03  0.00000000000E+00 0. -1.
         21   -1    0    0  504  502 -0.00000000000E+00 -0.00000000000E+00 -0.44651065674E+03  0.44651065674E+03  0.00000000000E+00 0.  1.
         21    1    1    2  503  502 -0.58644271723E+01  0.69438463667E+02 -0.40773179122E+02  0.80737499826E+02  0.00000000000E+00 0.  1.
         21    1    1    2  504  506 -0.10608656283E+02  0.72730299551E+02 -0.30726352754E+03  0.31593213736E+03  0.00000000000E+00 0.  1.
         21    1    1    2  505  503  0.54325957686E+02 -0.51631857208E+02  0.43926871710E+03  0.44561661120E+03  0.00000000000E+00 0. -1.
         21    1    1    2  506  501 -0.37852874231E+02 -0.90536906010E+02 -0.37068028131E+02  0.10489904741E+03  0.00000000000E+00 0.  1.
<scales pt_clust_3="69.68566" pt_clust_4="105.15569" pt_clust_5="74.52011" pt_clust_6="14000.00000"></scales>
<clustering>
<clus scale="   69.686">  2  3  1 -1</clus>
<clus scale="   74.520">  1  5  2 -1</clus>
<clus scale="  105.156">  2  4  1 -1</clus>
<clus scale="   74.520">  1  3  2 -1</clus>
</clustering>
</event>
<event>
 6    0  0.6207838E+002  0.1436949E+03  0.7546771E-02  0.1208442E+00
         21   -1    0    0  505  501  0.00000000000E+00  0.00000000000E+00  0.82750630709E+03  0.82750630709E+03  0.00000000000E+00 0. -1.
         21   -1    0    0  504  502 -0.00000000000E+00 -0.00000000000E+00 -0.18288643145E+03  0.18288643145E+03  0.00000000000E+00 0. -1.
         21    1    1    2  503  501  0.14566084992E+02 -0.38456016926E+02  0.31819578371E+03  0.32084200604E+03  0.00000000000E+00 0. -1.
         21    1    1    2  504  506 -0.95270827096E+01 -0.45504591892E+02 -0.10423848261E+03  0.11413629766E+03  0.00000000000E+00 0. -1.
         21    1    1    2  505  502 -0.12925175721E+03  0.97081244344E+02  0.41775346263E+02  0.16696096640E+03  0.00000000000E+00 0. -1.
         21    1    1    2  506  503  0.12421275492E+03 -0.13120635527E+02  0.38888722828E+03  0.40845346844E+03  0.00000000000E+00 0. -1.
<scales pt_clust_3="41.12221" pt_clust_4="46.82933" pt_clust_5="14000.00000" pt_clust_6="143.69486"></scales>
<clustering>
<clus scale="   41.122">  1  3  2 -1</clus>
<clus scale="   46.829">  2  4  1 -1</clus>
<clus scale="  143.695">  1  6  2 -1</clus>
<clus scale="   41.122">  1  3  2 -1</clus>
</clustering>
</event>
<event>
 6    0  0.6207838E+002  0.1069702E+03  0.7546771E-02  0.1266286E+00
         21   -1    0    0  504  501  0.00000000000E+00  0.00000000000E+00  0.27447362901E+04  0.27447362901E+04  0.00000000000E+00 0.  1.
         21   -1    0    0  505  502 -0.00000000000E+00 -0.00000000000E+00 -0.11915483625E+03  0.11915483625E+03  0.00000000000E+00 0.  1.
         21    1    1    2  503  502 -0.15442582411E+02 -0.36318374599E+02 -0.83780791292E+02  0.92610575393E+02  0.00000000000E+00 0.  1.
         21    1    1    2  504  503 -0.66157437874E+02  0.89582310964E+02  0.25708485362E+04  0.25732594104E+04  0.00000000000E+00 0.  1.
         21    1    1    2  505  506 -0.11902541524E+01 -0.37313155956E+02  0.17700698271E+01  0.37374074698E+02  0.00000000000E+00 0.  1.
         21    1    1    2  506  501  0.82790274438E+02 -0.15950780409E+02  0.13674363909E+03  0.16064706586E+03  0.00000000000E+00 0. -1.
<scales pt_clust_3="70.73390" pt_clust_4="106.97015" pt_clust_5="37.33214" pt_clust_6="14000.00000"></scales>
<clustering>
<clus scale="   37.332">  2  5  1 -1</clus>
<clus scale="   70.734">  2  3  1 -1</clus>
<clus scale="  106.970">  1  4  2 -1</clus>
<clus scale="  106.970">  1  3  2 -1</clus>
</clustering>
</event>
<event>
 6    0  0.6207838E+002  0.1258815E+03  0.7546771E-02  0.1233698E+00
         21   -1    0    0  505  501  0.00000000000E+00  0.00000000000E+00  0.93938584887E+03  0.93938584887E+03  0.00000000000E+00 0. -1.
         21   -1    0    0  506  502 -0.00000000000E+00 -0.00000000000E+00 -0.25634637629E+03  0.25634637629E+03  0.00000000000E+00 0. -1.
         21    1    1    2  503  502 -0.74138222636E+02 -0.24790129237E+02 -0.93260480486E+02  0.12169036027E+03  0.00000000000E+00 0.  1.
         21    1    1    2  504  503 -0.52526640427E+02  0.71619540963E+02 -0.11967751858E+03  0.14903393927E+03  0.00000000000E+00 0. -1.
         21    1    1    2  505  504  0.77933035335E+02  0.49775856415E+02  0.19602401539E+03  0.21674087868E+03  0.00000000000E+00 0.  1.
         21    1    1    2  506  501  0.48731827728E+02 -0.96605268141E+02  0.69995345625E+03  0.70826704694E+03  0.00000000000E+00 0. -1.
<scales pt_clust_3="78.17306" pt_clust_4="125.88146" pt_clust_5="87.20678" pt_clust_6="14000.00000"></scales>
<clustering>
<clus scale="   78.173">  2  3  1 -1</clus>
<clus scale="   87.207">  1  5  2 -1</clus>
<clus scale="  125.881">  2  4  1 -1</clus>
<clus scale="   87.207">  1  3  2 -1</clus>
</clustering>
</event>
<event>
 6    0  0.6207838E+002  0.7594402E+02  0.7546771E-02  0.1340972E+00
         21   -1    0    0  503  501  0.00000000000E+00  0.00000000000E+00  0.29256069508E+03  0.29256069508E+03  0.00000000000E+00 0. -1.
         21   -1    0    0  505  502 -0.00000000000E+00 -0.00000000000E+00 -0.30336778023E+03  0.30336778023E+03  0.00000000000E+00 0. -1.
         21    1    1    2  503  504 -0.31195281703E+02  0.16266730509E+02  0.22242304983E+02  0.41622977463E+02  0.00000000000E+00 0. -1.
         21    1    1    2  504  506 -0.67055472544E+02 -0.78733084942E+02  0.42502854233E+02  0.11181157221E+03  0.00000000000E+00 0. -1.
         21    1    1    2  505  501  0.49375141494E+02  0.48716342196E+02  0.17426888297E+03  0.18756553565E+03  0.00000000000E+00 0. -1.
         21    1    1    2  506  502  0.48875612752E+02  0.13750012237E+02 -0.24982112733E+03  0.25492838998E+03  0.00000000000E+00 0. -1.
<scales pt_clust_3="35.18170" pt_clust_4="75.94402" pt_clust_5="14000.00000" pt_clust_6="50.52240"></scales>
<clustering>
<clus scale="   35.182">  1  3  2 -1</clus>
<clus scale="   50.522">  2  6  1 -1</clus>
<clus scale="   75.944">  2  4  1 -1</clus>
<clus scale="   35.182">  1  3  2 -1</clus>
</clustering>
</event>
<event>
 6    0  0.6207838E+002  0.1177092E+03  0.7546771E-02  0.1246925E+00
         21   -1    0    0  504  501  0.00000000000E+00  0.00000000000E+00  0.94321790401E+02  0.94321790401E+02  0.00000000000E+00 0. -1.
         21   -1    0    0  506  502 -0.00000000000E+00 -0.00000000000E+00 -0.65719775737E+03  0.65719775737E+03  0.00000000000E+00 0. -1.
         21    1    1    2  503  501 -0.49100426770E+01 -0.55361557689E+02 -0.16538588454E+03  0.17447493056E+03  0.00000000000E+00 0. -1.
         21    1    1    2  504  505  0.13440748864E+02  0.11152716905E+03  0.48079248237E+02  0.12219074137E+03  0.00000000000E+00 0. -1.
         21    1    1    2  505  502 -0.34777608146E+02 -0.77997600734E+01 -0.20459230250E+03  0.20767361057E+03  0.00000000000E+00 0. -1.
         21    1    1    2  506  503  0.26246901959E+02 -0.48365851288E+02 -0.24097702817E+03  0.24718026527E+03  0.00000000000E+00 0. -1.
<scales pt_clust_3="35.49616" pt_clust_4="111.39035" pt_clust_5="35.64152" pt_clust_6="35.49616"></scales>
<clustering>
<clus scale="   35.642">  2  5  1 -1</clus>
<clus scale="   35.496">  3  6 -1 -1</clus>
<clus scale="  111.390">  1  4  2 -1</clus>
<clus scale="  111.390">  1  3  2 -1</clus>
</clustering>
</event>
<event>
 6    0  0.6207838E+002  0.1620817E+03  0.7546771E-02  0.1186366E+00
         21   -1    0    0  505  501  0.00000000000E+00  0.00000000000E+00  0.39298144666E+03  0.39298144666E+03  0.00000000000E+00 0.  1.
         21   -1    0    0  504  502 -0.00000000000E+00 -0.00000000000E+00 -0.12244454437E+04  0.12244454437E+04  0.00000000000E+00 0. -1.
         21    1    1    2  503  506 -0.37761017676E+02  0.16165390869E+03  0.64451626456E+02  0.17807833334E+03  0.00000000000E+00 0. -1.
         21    1    1    2  504  503  0.57267833479E+02  0.10723085198E+02 -0.11281738812E+04  0.11296773414E+04  0.00000000000E+00 0. -1.
         21    1    1    2  505  502 -0.55579288178E+02 -0.15507286281E+03  0.19030144769E+03  0.25169682367E+03  0.00000000000E+00 0.  1.
         21    1    1    2  506  501  0.36072472375E+02 -0.17304131078E+02  0.41956810051E+02  0.57974391979E+02  0.00000000000E+00 0.  1.
<scales pt_clust_3="14000.00000" pt_clust_4="58.33385" pt_clust_5="162.08170" pt_clust_6="40.00820"></scales>
<clustering>
<clus scale="   40.008">  1  6  2 -1</clus>
<clus scale="   58.334">  2  4  1 -1</clus>
<clus scale="  162.082">  1  5  2 -1</clus>
<clus scale="   40.008">  1  3  2 -1</clus>
</clustering>
</event>
<event>
 6    0  0.6207838E+002  0.2068465E+03  0.7546771E-02  0.1144088E+00
         21   -1    0    0  505  501  0.00000000000E+00  0.00000000000E+00  0.69534386099E+03  0.69534386099E+03  0.00000000000E+00 0. -1.
         21   -1    0    0  504  502 -0.00000000000E+00 -0.00000000000E+00 -0.78498107503E+02  0.78498107503E+02  0.00000000000E+00 0. -1.
         21    1    1    2  503  501  0.10386539110E+01 -0.14351607269E+03  0.15765110279E+03  0.21319430606E+03  0.00000000000E+00 0. -1.
         21    1    1    2  504  503 -0.26395653478E+02 -0.64204907593E+02  0.32313592172E+02  0.76571332237E+02  0.00000000000E+00 0. -1.
         21    1    1    2  505  506 -0.26762075162E+02  0.34319130110E+02  0.12141353622E+03  0.12897774280E+03  0.00000000000E+00 0.  1.
         21    1    1    2  506  502  0.52119074728E+02  0.17340185018E+03  0.30546752230E+03  0.35509858740E+03  0.00000000000E+00 0. -1.
<scales pt_clust_3="45.59917" pt_clust_4="45.59917" pt_clust_5="43.52024" pt_clust_6="196.72044"></scales>
<clustering>
<clus scale="   43.520">  1  5  2 -1</clus>
<clus scale="   45.599">  3  4 -1 -1</clus>
<clus scale="  196.720">  1  6  2 -1</clus>
<clus scale="   43.520">  1  3  2 -1</clus>
</clustering>
</event>
<event>
 6    0  0.6207838E+002  0.6761382E+02  0.7546771E-02  0.1368401E+00
         21   -1    0    0  506  501  0.00000000000E+00  0.00000000000E+00  0.81594589884E+03  0.81594589884E+03  0.00000000000E+00 0. -1.
         21   -1    0    0  504  502 -0.00000000000E+00 -0.00000000000E+00 -0.13389242946E+03  0.13389242946E+03  0.00000000000E+00 0. -1.
         21    1    1    2  503  505  0.26139343321E+02  0.52532980072E+02  0.14999411172E+03  0.16106276049E+03  0.00000000000E+00 0.  1.
         21    1    1    2  504  501  0.35305463308E+01 -0.90134695682E+02  0.21603678789E+03  0.23411241284E+03  0.00000000000E+00 0. -1.
         21    1    1    2  505  502  0.18510354931E+02  0.64228804966E+02 -0.10803826856E+03  0.12704424465E+03  0.00000000000E+00 0. -1.
         21    1    1    2  506  503 -0.48180244583E+02 -0.26627089355E+02  0.42406083833E+03  0.42761891031E+03  0.00000000000E+00 0. -1.
<scales pt_clust_3="42.48634" pt_clust_4="14000.00000" pt_clust_5="67.61382" pt_clust_6="55.04850"></scales>
<clustering>
<clus scale="   55.049">  1  6  2 -1</clus>
<clus scale="   42.486">  1  3  2 -1</clus>
<clus scale="   67.614">  2  5  1 -1</clus>
<clus scale="   55.049">  1  3  2 -1</clus>
</clustering>
</event>
<event>
 6    0  0.6207838E+002  0.8023633E+02  0.7546771E-02  0.1328382E+00
         21   -1    0    0  503  501  0.00000000000E+00  0.00000000000E+00  0.89885286055E+02  0.89885286055E+02  0.00000000000E+00 0. -1.
         21   -1    0    0  506  502 -0.00000000000E+00 -0.00000000000E+00 -0.33792830752E+03  0.33792830752E+03  0.00000000000E+00 0. -1.
         21    1    1    2  503  504 -0.27390673678E+02 -0.83739009401E+02  0.32333419225E+02  0.93850523167E+02  0.00000000000E+00 0. -1.
         21    1    1    2  504  505  0.87138033193E+00  0.65442998623E+02 -0.50404913712E+02  0.82608720476E+02  0.00000000000E+00 0. -1.
         21    1    1    2  505  502 -0.30990461183E+02  0.27001348728E+02 -0.12161872574E+03  0.12837677348E+03  0.00000000000E+00 0. -1.
         21    1    1    2  506  501  0.57509754529E+02 -0.87053379494E+01 -0.10835280124E+03  0.12297757646E+03  0.00000000000E+00 0. -1.
<scales pt_clust_3="14000.00000" pt_clust_4="80.23633" pt_clust_5="41.10330" pt_clust_6="41.11016"></scales>
<clustering>
<clus scale="   41.103">  2  5  1 -1</clus>
<clus scale="   41.110">  2  6  1 -1</clus>
<clus scale="   80.236">  2  4  1 -1</clus>
<clus scale="   80.236">  1  3  2 -1</clus>
</clustering>
</event>
<event>
 6    0  0.6207838E+002  0.1109978E+03  0.7546771E-02  0.1258733E+00
         21   -1    0    0  504  501  0.00000000000E+00  0.00000000000E+00  0.78021144740E+03  0.78021144740E+03  0.00000000000E+00 0. -1.
         21   -1    0    0  505  502 -0.00000000000E+00 -0.00000000000E+00 -0.34528168040E+03  0.34528168040E+03  0.00000000000E+00 0. -1.
         21    1    1    2  503  502  0.35973536576E+02  0.12224465817E+03  0.14422789321E+03  0.19245658462E+03  0.00000000000E+00 0. -1.
         21    1    1    2  504  503  0.10769699650E+02 -0.48484465332E+02  0.56260414791E+03  0.56479213615E+03  0.00000000000E+00 0. -1.
         21    1    1    2  505  506  0.16582102498E+02 -0.10941235997E+03 -0.27404122545E+03  0.29554123888E+03  0.00000000000E+00 0. -1.
         21    1    1    2  506  501 -0.63325338724E+02  0.35652167133E+02  0.21389513191E+01  0.72703168146E+02  0.00000000000E+00 0. -1.
<scales pt_clust_3="110.99777" pt_clust_4="49.66618" pt_clust_5="14000.00000" pt_clust_6="67.24284"></scales>
<clustering>
<clus scale="   49.666">  1  4  2 -1</clus>
<clus scale="   67.243">  1  6  2 -1</clus>
<clus scale="  110.998">  1  3  2 -1</clus>
<clus scale="   49.666">  1  3  2 -1</clus>
</clustering>
</event>
<event>
 6    0  0.6207838E+002  0.1148406E+03  0.7546771E-02  0.1251860E+00
         21   -1    0    0  503  501  0.00000000000E+00  0.00000000000E+00  0.80869696958E+02  0.80869696958E+02  0.00000000000E+00 0. -1.
         21   -1    0    0  506  502 -0.00000000000E+00 -0.00000000000E+00 -0.77008802698E+03  0.77008802698E+03  0.00000000000E+00 0. -1.
         21    1    1    2  503  504  0.92225937662E+02  0.45035042077E+02  0.19801881780E+02  0.10452699706E+03  0.00000000000E+00 0. -1.
         21    1    1    2  504  502 -0.16003518721E+02  0.44326085320E+02 -0.49583970361E+03  0.49807421749E+03  0.00000000000E+00 0. -1.
         21    1    1    2  505  501 -0.46787490395E+02 -0.35383671543E+02 -0.63017180858E+02  0.86094358425E+02  0.00000000000E+00 0. -1.
         21    1    1    2  506  505 -0.29434928547E+02 -0.53977455854E+02 -0.15016332733E+03  0.16226215096E+03  0.00000000000E+00 0. -1.
<scales pt_clust_3="103.67544" pt_clust_4="47.12658" pt_clust_5="45.66823" pt_clust_6="45.66823"></scales>
<clustering>
<clus scale="   47.127">  2  4  1 -1</clus>
<clus scale="   45.668">  5  6 -1 -1</clus>
<clus scale="  103.675">  1  3  2 -1</clus>
<clus scale="  103.675">  1  3  2 -1</clus>
</clustering>
</event>
<event>
 6    0  0.6207838E+002  0.1196108E+03  0.7546771E-02  0.1243741E+00
         21   -1    0    0  503  501  0.00000000000E+00  0.00000000000E+00  0.73958123425E+02  0.73958123425E+02  0.00000000000E+00 0. -1.
         21   -1    0    0  504  502 -0.00000000000E+00 -0.00000000000E+00 -0.78292222039E+03  0.78292222039E+03  0.00000000000E+00 0. -1.
         21    1    1    2  503  502  0.38175314073E+02 -0.45633674169E+02 -0.26985687269E+01  0.59557275760E+02  0.00000000000E+00 0.  1.
         21    1    1    2  504  505  0.44196213480E+02 -0.89122344396E+02 -0.57641553903E+03  0.58493672410E+03  0.00000000000E+00 0. -1.
         21    1    1    2  505  506 -0.42450999928E+02  0.11446142267E+03 -0.10584364625E+03  0.16157469519E+03  0.00000000000E+00 0. -1.
         21    1    1    2  506  501 -0.39920527626E+02  0.20294595898E+02 -0.24006342955E+02  0.50811648769E+02  0.00000000000E+00 0. -1.
<scales pt_clust_3="59.49611" pt_clust_4="104.90020" pt_clust_5="34.80713" pt_clust_6="34.80713"></scales>
<clustering>
<clus scale="   34.807">  5  6 -1 -1</clus>
<clus scale="   59.496">  1  3  2 -1</clus>
<clus scale="  104.900">  2  4  1 -1</clus>
<clus scale="   59.496">  1  3  2 -1</clus>
</clustering>
</event>
<event>
 6    0  0.6207838E+002  0.1466548E+03  0.7546771E-02  0.1204645E+00
         21   -1    0    0  502  501  0.00000000000E+00  0.00000000000E+00  0.40294447986E+03  0.40294447986E+03  0.00000000000E+00 0.  1.
         21   -1    0    0  505  502 -0.00000000000E+00 -0.00000000000E+00 -0.21144663324E+03  0.21144663324E+03  0.00000000000E+00 0. -1.
         21    1    1    2  503  506  0.77577771279E+02  0.86006405749E+02 -0.11125010132E+03  0.16059887133E+03  0.00000000000E+00 0. -1.
         21    1    1    2  504  503 -0.46921673488E+02  0.26943786445E+02 -0.27131174252E+02  0.60528602224E+02  0.00000000000E+00 0. -1.
         21    1    1    2  505  504  0.81992426765E+00  0.36103328310E+02  0.77594532399E+01  0.36936861067E+02  0.00000000000E+00 0. -1.
         21    1    1    2  506  501 -0.31476022059E+02 -0.14905352050E+03  0.32211966895E+03  0.35632677848E+03  0.00000000000E+00 0.  1.
<scales pt_clust_3="146.65477" pt_clust_4="58.38058" pt_clust_5="36.11264" pt_clust_6="14000.00000"></scales>
<clustering>
<clus scale="   36.113">  2  5  1 -1</clus>
<clus scale="   58.381">  2  4  1 -1</clus>
<clus scale="  146.655">  2  3  1 -1</clus>
<clus scale="  146.655">  1  3  2 -1</clus>
</clustering>
</event>
<event>
 6    0  0.6207838E+002  0.1099816E+03  0.7546771E-02  0.1260604E+00
         21   -1    0    0  503  501  0.00000000000E+00  0.00000000000E+00  0.77326553101E+02  0.77326553101E+02  0.00000000000E+00 0. -1.
         21   -1    0    0  505  502 -0.00000000000E+00 -0.00000000000E+00 -0.11396648137E+04  0.11396648137E+04  0.00000000000E+00 0. -1.
         21    1    1    2  503  504  0.60639282484E+02  0.11688122667E+03 -0.33750619319E+02  0.13593177712E+03  0.00000000000E+00 0. -1.
         21    1    1    2  504  502  0.17330755641E+02  0.48210889560E+02 -0.25822395847E+03  0.26325701831E+03  0.00000000000E+00 0.  1.
         21    1    1    2  505  506 -0.73072494898E+02 -0.13254424058E+03 -0.77015649949E+03  0.78488763458E+03  0.00000000000E+00 0. -1.
         21    1    1    2  506  501 -0.48975432274E+01 -0.32547875648E+02 -0.20718333269E+00  0.32914936789E+02  0.00000000000E+00 0. -1.
<scales pt_clust_3="109.98155" pt_clust_4="49.89946" pt_clust_5="14000.00000" pt_clust_6="32.91428"></scales>
<clustering>
<clus scale="   32.914">  1  6  2 -1</clus>
<clus scale="   49.899">  2  4  1 -1</clus>
<clus scale="  109.982">  1  3  2 -1</clus>
<clus scale="   32.914">  1  3  2 -1</clus>
</clustering>
</event>
<event>
 6    0  0.6207838E+002  0.8714867E+02  0.7546771E-02  0.1309907E+00
         21   -1    0    0  505  501  0.00000000000E+00  0.00000000000E+00  0.45160170322E+03  0.45160170322E+03  0.00000000000E+00 0. -1.
         21   -1    0    0  504  502 -0.00000000000E+00 -0.00000000000E+00 -0.10529597223E+03  0.10529597223E+03  0.00000000000E+00 0. -1.
         21    1    1    2  503  502  0.60128542197E+02  0.53214414053E+02 -0.75962885283E+01  0.80653078361E+02  0.00000000000E+00 0. -1.
         21    1    1    2  504  506 -0.38323986348E+02 -0.94886179676E+02 -0.10038614196E+01  0.10233827613E+03  0.00000000000E+00 0. -1.
         21    1    1    2  505  503  0.10828265549E+02  0.33766650739E+02  0.27739013850E+02  0.45021005389E+02  0.00000000000E+00 0. -1.
         21    1    1    2  506  501 -0.32632821397E+02  0.79051148850E+01  0.32716686710E+03  0.32888531557E+03  0.00000000000E+00 0. -1.
<scales pt_clust_3="14000.00000" pt_clust_4="87.14867" pt_clust_5="36.11453" pt_clust_6="33.57666"></scales>
<clustering>
<clus scale="   33.577">  1  6  2 -1</clus>
<clus scale="   36.115">  1  5  2 -1</clus>
<clus scale="   87.149">  1  4  2 -1</clus>
<clus scale="   33.577">  1  3  2 -1</clus>
</clustering>
</event>
<event>
 6    0  0.6207838E+002  0.1318137E+03  0.7546771E-02  0.1224789E+00
         21   -1    0    0  506  501  0.00000000000E+00  0.00000000000E+00  0.31893031780E+03  0.31893031780E+03  0.00000000000E+00 0. -1.
         21   -1    0    0  505  502 -0.00000000000E+00 -0.00000000000E+00 -0.60087836574E+03  0.60087836574E+03  0.00000000000E+00 0.  1.
         21    1    1    2  503  502  0.13957542029E+03 -0.17198400881E+02 -0.42426708469E+03  0.44696715997E+03  0.00000000000E+00 0.  1.
         21    1    1    2  504  501 -0.38047376082E+02  0.47687376251E+02  0.25490869318E+03  0.26210709746E+03  0.00000000000E+00 0. -1.
         21    1    1    2  505  504  0.62520117443E+01 -0.61919311384E+02 -0.20486286823E+02  0.65519285107E+02  0.00000000000E+00 0.  1.
         21    1    1    2  506  503 -0.10778005595E+03  0.31430336015E+02 -0.92103369608E+02  0.14521514100E+03  0.00000000000E+00 0.  1.
<scales pt_clust_3="131.81365" pt_clust_4="61.00564" pt_clust_5="44.85445" pt_clust_6="14000.00000"></scales>
<clustering>
<clus scale="   61.006">  1  4  2 -1</clus>
<clus scale="   44.854">  1  5  2 -1</clus>
<clus scale="  131.814">  2  3  1 -1</clus>
<clus scale="   61.006">  1  3  2 -1</clus>
</clustering>
</event>
<event>
 6    0  0.6207838E+002  0.2321164E+03  0.7546771E-02  0.1125159E+00
         21   -1    0    0  506  501  0.00000000000E+00  0.00000000000E+00  0.21518280423E+03  0.21518280423E+03  0.00000000000E+00 0.  1.
         21   -1    0    0  503  502 -0.00000000000E+00 -0.00000000000E+00 -0.13199960893E+04  0.13199960893E+04  0.00000000000E+00 0.  1.
         21    1    1    2  503  504  0.84549231908E+02  0.58298367561E+02 -0.14046279597E+03  0.17400307275E+03  0.00000000000E+00 0.  1.
         21    1    1    2  504  505 -0.46265604134E+02  0.99441393531E+02 -0.14316358772E+03  0.18034663768E+03  0.00000000000E+00 0. -1.
         21    1    1    2  505  501  0.92501320739E+02 -0.22483525362E+03  0.88963184133E+02  0.25888575422E+03  0.00000000000E+00 0.  1.
         21    1    1    2  506  502 -0.13078494851E+03  0.67095492529E+02 -0.91015008555E+03  0.92194342891E+03  0.00000000000E+00 0.  1.
<scales pt_clust_3="102.69991" pt_clust_4="112.95052" pt_clust_5="14000.00000" pt_clust_6="232.11638"></scales>
<clustering>
<clus scale="  102.700">  2  3  1 -1</clus>
<clus scale="  112.951">  2  4  1 -1</clus>
<clus scale="  232.116">  2  6  1 -1</clus>
<clus scale="  232.116">  1  3  2 -1</clus>
</clustering>
</event>
<event>
 6    0  0.6207838E+002  0.3180340E+03  0.7546771E-02  0.1076558E+00
         21   -1    0    0  503  501  0.00000000000E+00  0.00000000000E+00  0.16948029425E+04  0.16948029425E+04  0.00000000000E+00 0.  1.
         21   -1    0    0  505  502 -0.00000000000E+00 -0.00000000000E+00 -0.11415632804E+04  0.11415632804E+04  0.00000000000E+00 0. -1.
         21    1    1    2  503  502  0.22269469426E+02 -0.24751201224E+02 -0.45053223374E+03  0.45176082706E+03  0.00000000000E+00 0. -1.
         21    1    1    2  504  506  0.16618497165E+03 -0.45718376073E+02 -0.31733721457E+03  0.36112397105E+03  0.00000000000E+00 0. -1.
         21    1    1    2  505  504  0.87143493765E+02 -0.67335315229E+02 -0.32791632440E+03  0.34591494473E+03  0.00000000000E+00 0. -1.
         21    1    1    2  506  501 -0.27559793484E+03  0.13780489253E+03  0.16490254348E+04  0.16775664800E+04  0.00000000000E+00 0.  1.
<scales pt_clust_3="33.29491" pt_clust_4="66.81905" pt_clust_5="66.81905" pt_clust_6="307.49011"></scales>
<clustering>
<clus scale="   33.295">  2  3  1 -1</clus>
<clus scale="   66.819">  4  5 -1 -1</clus>
<clus scale="  307.490">  1  6  2 -1</clus>
<clus scale="  307.490">  1  3  2 -1</clus>
</clustering>
</event>
<event>
 6    0  0.6207838E+002  0.1018807E+03  0.7546771E-02  0.1276390E+00
         21   -1    0    0  505  501  0.00000000000E+00  0.00000000000E+00  0.40378517045E+03  0.40378517045E+03  0.00000000000E+00 0.  1.
         21   -1    0    0  506  502 -0.00000000000E+00 -0.00000000000E+00 -0.29558790319E+03  0.29558790319E+03  0.00000000000E+00 0.  1.
         21    1    1    2  503  502 -0.75175711238E+02  0.49730974343E+02  0.12176390452E+03  0.15149589372E+03  0.00000000000E+00 0.  1.
         21    1    1    2  504  501  0.24722210904E+02  0.33431642837E+02  0.27554341776E+02  0.49880900207E+02  0.00000000000E+00 0.  1.
         21    1    1    2  505  503  0.82965399827E+02 -0.77961382303E+02  0.21312523585E+03  0.24162698702E+03  0.00000000000E+00 0.  1.
         21    1    1    2  506  504 -0.32511899493E+02 -0.52012348762E+01 -0.25424621488E+03  0.25636929269E+03  0.00000000000E+00 0.  1.
<scales pt_clust_3="101.88068" pt_clust_4="35.64032" pt_clust_5="14000.00000" pt_clust_6="32.92532"></scales>
<clustering>
<clus scale="   32.925">  2  6  1 -1</clus>
<clus scale="   35.640">  2  4  1 -1</clus>
<clus scale="  101.881">  2  3  1 -1</clus>
<clus scale="  101.881">  1  3  2 -1</clus>
</clustering>
</event>
<event>
 6    0  0.6207838E+002  0.1806472E+03  0.7546771E-02  0.1167178E+00
         21   -1    0    0  505  501  0.00000000000E+00  0.00000000000E+00  0.27417025198E+04  0.27417025198E+04  0.00000000000E+00 0. -1.
         21   -1    0    0  504  502 -0.00000000000E+00 -0.00000000000E+00 -0.63978416161E+02  0.63978416161E+02  0.00000000000E+00 0. -1.
         21    1    1    2  503  502 -0.76451628169E+02 -0.83947212568E+02  0.84477911608E+03  0.85237535213E+03  0.00000000000E+00 0. -1.
         21    1    1    2  504  506  0.14576868763E+03  0.89459465293E+02  0.72053808222E+02  0.18558894769E+03  0.00000000000E+00 0. -1.
         21    1    1    2  505  503 -0.94024526786E+02 -0.39133141379E+02  0.88654265598E+03  0.89237318161E+03  0.00000000000E+00 0. -1.
         21    1    1    2  506  501  0.24707467322E+02  0.33620888654E+02  0.87434852337E+03  0.87534345455E+03  0.00000000000E+00 0. -1.
<scales pt_clust_3="47.12418" pt_clust_4="173.70070" pt_clust_5="47.12418" pt_clust_6="41.72317"></scales>
<clustering>
<clus scale="   41.723">  1  6  2 -1</clus>
<clus scale="   47.124">  3  5 -1 -1</clus>
<clus scale="  173.701">  2  4  1 -1</clus>
<clus scale="   41.723">  1  3  2 -1</clus>
</clustering>
</event>
<event>
 6    0  0.6207838E+002  0.8364761E+02  0.7546771E-02  0.1319008E+00
         21   -1    0    0  504  501  0.00000000000E+00  0.00000000000E+00  0.21570626299E+03  0.21570626299E+03  0.00000000000E+00 0.  1.
         21   -1    0    0  503  502 -0.00000000000E+00 -0.00000000000E+00 -0.52166015601E+03  0.52166015601E+03  0.00000000000E+00 0. -1.
         21    1    1    2  503  501 -0.38979572966E-01 -0.10410273760E+03  0.89780497791E+02  0.13746970313E+03  0.00000000000E+00 0.  1.
         21    1    1    2  504  505 -0.34464100554E+02  0.45671099261E+02  0.47087006552E+02  0.74099998115E+02  0.00000000000E+00 0.  1.
         21    1    1    2  505  506  0.25360007096E+02  0.95222245644E+02 -0.19090736084E+02  0.10037361321E+03  0.00000000000E+00 0.  1.
         21    1    1    2  506  502  0.91430730312E+01 -0.36790607300E+02 -0.42373066128E+03  0.42542310454E+03  0.00000000000E+00 0. -1.
<scales pt_clust_3="14000.00000" pt_clust_4="52.40454" pt_clust_5="83.64761" pt_clust_6="37.90969"></scales>
<clustering>
<clus scale="   37.910">  2  6  1 -1</clus>
<clus scale="   52.405">  1  4  2 -1</clus>
<clus scale="   83.648">  2  5  1 -1</clus>
<clus scale="   52.405">  1  3  2 -1</clus>
</clustering>
</event>
<event>
 6    0  0.6207838E+002  0.1959547E+03  0.7546771E-02  0.1153198E+00
         21   -1    0    0  506  501  0.00000000000E+00  0.00000000000E+00  0.54359207752E+03  0.54359207752E+03  0.00000000000E+00 0.  1.
         21   -1    0    0  503  502 -0.00000000000E+00 -0.00000000000E+00 -0.28694624163E+04  0.28694624163E+04  0.00000000000E+00 0. -1.
         21    1    1    2  503  501 -0.16272486284E+02 -0.20854345940E+03  0.40995620327E+03  0.46023826097E+03  0.00000000000E+00 0.  1.
         21    1    1    2  504  502 -0.27169887262E+01  0.43973002296E+02 -0.26538971341E+04  0.26542627988E+04  0.00000000000E+00 0. -1.
         21    1    1    2  505  504  0.56750946258E+02  0.14993500859E+03 -0.14986959694E+03  0.21945859014E+03  0.00000000000E+00 0.  1.
         21    1    1    2  506  505 -0.37761471247E+02  0.14635448517E+02  0.67940188930E+02  0.79094843927E+02  0.00000000000E+00 0.  1.
<scales pt_clust_3="195.95472" pt_clust_4="44.06345" pt_clust_5="14000.00000" pt_clust_6="40.49846"></scales>
<clustering>
<clus scale="   40.498">  1  6  2 -1</clus>
<clus scale="   44.063">  2  4  1 -1</clus>
<clus scale="  195.955">  1  3  2 -1</clus>
<clus scale="   40.498">  1  3  2 -1</clus>
</clustering>
</event>
<event>
 6    0  0.6207838E+002  0.3504265E+03  0.7546771E-02  0.1062440E+00
         21   -1    0    0  506  501  0.00000000000E+00  0.00000000000E+00  0.22910205403E+04  0.22910205403E+04  0.00000000000E+00 0. -1.
         21   -1    0    0  501  502 -0.00000000000E+00 -0.00000000000E+00 -0.68825282988E+03  0.68825282988E+03  0.00000000000E+00 0.  1.
         21    1    1    2  503  504 -0.37518439705E+02  0.30917469946E+03  0.14974287222E+03  0.34557134702E+03  0.00000000000E+00 0.  1.
         21    1    1    2  504  502  0.17604280948E+02  0.38998266700E+02 -0.57407492283E+03  0.57566725852E+03  0.00000000000E+00 0.  1.
         21    1    1    2  505  503 -0.13595763934E+02 -0.80156121130E+02  0.34962007425E+03  0.35894852677E+03  0.00000000000E+00 0. -1.
         21    1    1    2  506  505  0.33509922691E+02 -0.26801684503E+03  0.16774796868E+04  0.16990862379E+04  0.00000000000E+00 0. -1.
<scales pt_clust_3="343.57831" pt_clust_4="42.78756" pt_clust_5="37.82259" pt_clust_6="37.82259"></scales>
<clustering>
<clus scale="   37.823">  5  6 -1 -1</clus>
<clus scale="   42.788">  2  4  1 -1</clus>
<clus scale="  343.578">  2  3  1 -1</clus>
<clus scale="  350.426">  1  3  2 -1</clus>
</clustering>
</event>
<event>
 6    0  0.6207838E+002  0.1575220E+03  0.7546771E-02  0.1191523E+00
         21   -1    0    0  503  501  0.00000000000E+00  0.00000000000E+00  0.40570364805E+03  0.40570364805E+03  0.00000000000E+00 0.  1.
         21   -1    0    0  505  502 -0.00000000000E+00 -0.00000000000E+00 -0.23815811197E+03  0.23815811197E+03  0.00000000000E+00 0.  1.
         21    1    1    2  503  506  0.32001784796E+02  0.11402995744E+02  0.24318151171E+02  0.41779361154E+02  0.00000000000E+00 0. -1.
         21    1    1    2  504  502  0.35054651121E+02 -0.56320222135E+02 -0.62209210703E+02  0.90943839169E+02  0.00000000000E+00 0.  1.
         21    1    1    2  505  501 -0.19156301570E+03  0.10435626240E+02  0.29644590937E+03  0.35310829566E+03  0.00000000000E+00 0.  1.
         21    1    1    2  506  504  0.12450657979E+03  0.34481600151E+02 -0.91009313764E+02  0.15803026404E+03  0.00000000000E+00 0.  1.
<scales pt_clust_3="33.97267" pt_clust_4="66.62951" pt_clust_5="157.52201" pt_clust_6="14000.00000"></scales>
<clustering>
<clus scale="   33.973">  1  3  2 -1</clus>
<clus scale="   66.630">  2  4  1 -1</clus>
<clus scale="  157.522">  1  5  2 -1</clus>
<clus scale="   33.973">  1  3  2 -1</clus>
</clustering>
</event>
<event>
 6    0  0.6207838E+002  0.9367710E+02  0.7546771E-02  0.1294184E+00
         21   -1    0    0  503  501  0.00000000000E+00  0.00000000000E+00  0.35439185365E+02  0.35439185365E+02  0.00000000000E+00 0.  1.
         21   -1    0    0  505  502 -0.00000000000E+00 -0.00000000000E+00 -0.76850131605E+03  0.76850131605E+03  0.00000000000E+00 0.  1.
         21    1    1    2  503  504  0.44696434473E+02 -0.12050349057E+02 -0.22775668665E+02  0.51591794407E+02  0.00000000000E+00 0.  1.
         21    1    1    2  504  502 -0.68409761388E+00  0.11867910300E+03 -0.30554269569E+03  0.32778275789E+03  0.00000000000E+00 0.  1.
         21    1    1    2  505  506 -0.39734657880E+02 -0.76471835278E+02 -0.36176811657E+03  0.37189105231E+03  0.00000000000E+00 0.  1.
         21    1    1    2  506  501 -0.42776789797E+01 -0.30156918664E+02 -0.42975649761E+02  0.52674896803E+02  0.00000000000E+00 0.  1.
<scales pt_clust_3="50.11012" pt_clust_4="14000.00000" pt_clust_5="93.67710" pt_clust_6="30.45880"></scales>
<clustering>
<clus scale="   30.459">  1  6  2 -1</clus>
<clus scale="   50.110">  1  3  2 -1</clus>
<clus scale="   93.677">  2  5  1 -1</clus>
<clus scale="   30.459">  1  3  2 -1</clus>
</clustering>
</event>
<event>
 6    0  0.6207838E+002  0.1047130E+03  0.7546771E-02  0.1270686E+00
         21   -1    0    0  503  501  0.00000000000E+00  0.00000000000E+00  0.76583173466E+03  0.76583173466E+03  0.00000000000E+00 0.  1.
         21   -1    0    0  505  502 -0.00000000000E+00 -0.00000000000E+00 -0.64215064433E+03  0.64215064433E+03  0.00000000000E+00 0. -1.
         21    1    1    2  503  506  0.17233248005E+02  0.27159119806E+02  0.66410683716E+03  0.66488532378E+03  0.00000000000E+00 0.  1.
         21    1    1    2  504  502  0.80203663662E+02 -0.58931748533E+02 -0.16812039091E+03  0.19537155496E+03  0.00000000000E+00 0. -1.
         21    1    1    2  505  501 -0.12076370360E+03 -0.35779804266E+02 -0.43486974227E+03  0.45274248668E+03  0.00000000000E+00 0. -1.
         21    1    1    2  506  504  0.23326791937E+02  0.67552432993E+02  0.62564386359E+02  0.94983013564E+02  0.00000000000E+00 0.  1.
<scales pt_clust_3="32.16524" pt_clust_4="104.71298" pt_clust_5="14000.00000" pt_clust_6="95.96883"></scales>
<clustering>
<clus scale="   32.165">  1  3  2 -1</clus>
<clus scale="   95.969">  1  6  2 -1</clus>
<clus scale="  104.713">  1  4  2 -1</clus>
<clus scale="   32.165">  1  3  2 -1</clus>
</clustering>
</event>
<event>
 6    0  0.6207838E+002  0.1167760E+03  0.7546771E-02  0.1248512E+00
         21   -1    0    0  503  501  0.00000000000E+00  0.00000000000E+00  0.24898325795E+03  0.24898325795E+03  0.00000000000E+00 0.  1.
         21   -1    0    0  504  502 -0.00000000000E+00 -0.00000000000E+00 -0.76001581347E+03  0.76001581347E+03  0.00000000000E+00 0.  1.
         21    1    1    2  503  505 -0.35693229791E+02 -0.25897313177E+02 -0.33689835676E+02  0.55494887247E+02  0.00000000000E+00 0.  1.
         21    1    1    2  504  506  0.14285856761E+03  0.73824220000E+02 -0.61490790473E+03  0.63558659292E+03  0.00000000000E+00 0.  1.
         21    1    1    2  505  502 -0.22712603074E+02  0.31387988602E+02 -0.70114462298E+02  0.80106841095E+02  0.00000000000E+00 0.  1.
         21    1    1    2  506  501 -0.84452734742E+02 -0.79314895425E+02  0.20767964717E+03  0.23781075016E+03  0.00000000000E+00 0.  1.
<scales pt_clust_3="44.16737" pt_clust_4="116.77602" pt_clust_5="38.74362" pt_clust_6="14000.00000"></scales>
<clustering>
<clus scale="   38.744">  2  5  1 -1</clus>
<clus scale="   44.167">  2  3  1 -1</clus>
<clus scale="  116.776">  2  4  1 -1</clus>
<clus scale="  116.776">  1  3  2 -1</clus>
</clustering>
</event>
<event>
 6    0  0.6207838E+002  0.9482908E+02  0.7546771E-02  0.1291562E+00
         21   -1    0    0  505  501  0.00000000000E+00  0.00000000000E+00  0.21458304286E+04  0.21458304286E+04  0.00000000000E+00 0. -1.
         21   -1    0    0  506  502 -0.00000000000E+00 -0.00000000000E+00 -0.62412396104E+02  0.62412396104E+02  0.00000000000E+00 0.  1.
         21    1    1    2  503  501 -0.13960748701E+02  0.94584420222E+02  0.83547799612E+02  0.12696987782E+03  0.00000000000E+00 0.  1.
         21    1    1    2  504  502 -0.22020676570E+02 -0.93689426808E+02  0.14275377222E+03  0.17216636830E+03  0.00000000000E+00 0.  1.
         21    1    1    2  505  504  0.33844389023E+02 -0.41545842125E+02  0.18665514470E+04  0.18673204877E+04  0.00000000000E+00 0. -1.
         21    1    1    2  506  503  0.21370362477E+01  0.40650848712E+02 -0.94349862874E+01  0.41786090881E+02  0.00000000000E+00 0.  1.
<scales pt_clust_3="14000.00000" pt_clust_4="94.82908" pt_clust_5="53.27194" pt_clust_6="40.70698"></scales>
<clustering>
<clus scale="   40.707">  2  6  1 -1</clus>
<clus scale="   53.272">  1  5  2 -1</clus>
<clus scale="   94.829">  2  4  1 -1</clus>
<clus scale="   53.272">  1  3  2 -1</clus>
</clustering>
</event>
<event>
 6    0  0.6207838E+002  0.9582910E+02  0.7546771E-02  0.1289320E+00
         21   -1    0    0  506  501  0.00000000000E+00  0.00000000000E+00  0.25011823811E+03  0.25011823811E+03  0.00000000000E+00 0. -1.
         21   -1    0    0  503  502 -0.00000000000E+00 -0.00000000000E+00 -0.42878123405E+03  0.42878123405E+03  0.00000000000E+00 0. -1.
         21    1    1    2  503  505 -0.73855256155E+02  0.98615989615E+01 -0.29895982878E+03  0.30810522426E+03  0.00000000000E+00 0. -1.
         21    1    1    2  504  502  0.45226941559E+02 -0.11241921085E+03 -0.28237814261E+02  0.12442238289E+03  0.00000000000E+00 0. -1.
         21    1    1    2  505  501  0.96476054997E+02  0.46859717573E+02  0.66321719717E+02  0.12610326255E+03  0.00000000000E+00 0. -1.
         21    1    1    2  506  504 -0.67847740401E+02  0.55697894313E+02  0.82212927382E+02  0.12026860246E+03  0.00000000000E+00 0. -1.
<scales pt_clust_3="74.51074" pt_clust_4="95.82910" pt_clust_5="92.94797" pt_clust_6="14000.00000"></scales>
<clustering>
<clus scale="   74.511">  2  3  1 -1</clus>
<clus scale="   92.948">  1  5  2 -1</clus>
<clus scale="   95.829">  2  4  1 -1</clus>
<clus scale="   92.948">  1  3  2 -1</clus>
</clustering>
</event>
<event>
 6    0  0.6207838E+002  0.1945020E+03  0.7546771E-02  0.1154462E+00
         21   -1    0    0  505  501  0.00000000000E+00  0.00000000000E+00  0.37832981086E+03  0.37832981086E+03  0.00000000000E+00 0. -1.
         21   -1    0    0  506  502 -0.00000000000E+00 -0.00000000000E+00 -0.29704167767E+03  0.29704167767E+03  0.00000000000E+00 0. -1.
         21    1    1    2  503  501 -0.13115744094E+03 -0.18718381752E+03  0.25248889394E+03  0.34057407039E+03  0.00000000000E+00 0. -1.
         21    1    1    2  504  502  0.21473969274E+02  0.37039399745E+02 -0.18371435948E+02  0.46589249282E+02  0.00000000000E+00 0. -1.
         21    1    1    2  505  504  0.67479836056E+02  0.57157287587E+02  0.16989981702E+02  0.90050781655E+02  0.00000000000E+00 0. -1.
         21    1    1    2  506  503  0.42203635614E+02  0.92987130188E+02 -0.16981930651E+03  0.19815738721E+03  0.00000000000E+00 0. -1.
<scales pt_clust_3="189.60019" pt_clust_4="30.19163" pt_clust_5="30.19163" pt_clust_6="102.11637"></scales>
<clustering>
<clus scale="   30.192">  4  5 -1 -1</clus>
<clus scale="  102.116">  2  6  1 -1</clus>
<clus scale="  189.600">  1  3  2 -1</clus>
<clus scale="  189.600">  1  3  2 -1</clus>
</clustering>
</event>
<event>
 6    0  0.6207838E+002  0.2389607E+03  0.7546771E-02  0.1120487E+00
         21   -1    0    0  503  501  0.00000000000E+00  0.00000000000E+00  0.62573997771E+03  0.62573997771E+03  0.00000000000E+00 0.  1.
         21   -1    0    0  504  502 -0.00000000000E+00 -0.00000000000E+00 -0.61026387004E+03  0.61026387004E+03  0.00000000000E+00 0.  1.
         21    1    1    2  503  505 -0.10466293108E+02  0.23207914690E+03  0.57211457724E+03  0.61748308739E+03  0.00000000000E+00 0.  1.
         21    1    1    2  504  506 -0.39205771715E+02 -0.15091995963E+03 -0.35200731897E+03  0.38499750566E+03  0.00000000000E+00 0.  1.
         21    1    1    2  505  502  0.36774567132E+02 -0.10021496137E+02 -0.93204901164E+02  0.10069733250E+03  0.00000000000E+00 0.  1.
         21    1    1    2  506  501  0.12897497691E+02 -0.71137691129E+02 -0.11142624943E+03  0.13282592220E+03  0.00000000000E+00 0.  1.
<scales pt_clust_3="231.80494" pt_clust_4="40.34324" pt_clust_5="38.11560" pt_clust_6="40.34324"></scales>
<clustering>
<clus scale="   38.116">  2  5  1 -1</clus>
<clus scale="   40.343">  4  6 -1 -1</clus>
<clus scale="  231.805">  1  3  2 -1</clus>
<clus scale="  231.805">  1  3  2 -1</clus>
</clustering>
</event>
<event>
 6    0  0.6207838E+002  0.1229601E+03  0.7546771E-02  0.1238292E+00
         21   -1    0    0  503  501  0.00000000000E+00  0.00000000000E+00  0.33609873686E+03  0.33609873686E+03  0.00000000000E+00 0.  1.
         21   -1    0    0  506  502 -0.00000000000E+00 -0.00000000000E+00 -0.29843438217E+03  0.29843438217E+03  0.00000000000E+00 0.  1.
         21    1    1    2  503  504  0.68571580422E+01 -0.88127397111E+02 -0.95363555418E+02  0.13002948296E+03  0.00000000000E+00 0.  1.
         21    1    1    2  504  502 -0.39874864993E+02 -0.41312939610E+02 -0.79551046294E+02  0.98107761181E+02  0.00000000000E+00 0.  1.
         21    1    1    2  505  501 -0.28136054858E+02  0.61882382483E+02  0.28311420089E+03  0.29116098226E+03  0.00000000000E+00 0.  1.
         21    1    1    2  506  505  0.61153761809E+02  0.67557954238E+02 -0.70535244486E+02  0.11523489263E+03  0.00000000000E+00 0.  1.
<scales pt_clust_3="48.40107" pt_clust_4="48.40107" pt_clust_5="67.97843" pt_clust_6="107.29715"></scales>
<clustering>
<clus scale="   48.401">  3  4 -1 -1</clus>
<clus scale="   67.978">  1  5  2 -1</clus>
<clus scale="  107.297">  2  6  1 -1</clus>
<clus scale="   67.978">  1  3  2 -1</clus>
</clustering>
</event>
<event>
 6    0  0.6207838E+002  0.1373053E+03  0.7546771E-02  0.1217002E+00
         21   -1    0    0  505  501  0.00000000000E+00  0.00000000000E+00  0.15575476870E+03  0.15575476870E+03  0.00000000000E+00 0.  1.
         21   -1    0    0  506  502 -0.00000000000E+00 -0.00000000000E+00 -0.99045779276E+03  0.99045779276E+03  0.00000000000E+00 0.  1.
         21    1    1    2  503  504  0.70576982579E+01  0.14521794279E+03 -0.35185675694E+03  0.38071149105E+03  0.00000000000E+00 0.  1.
         21    1    1    2  504  501 -0.26885090300E+02 -0.15240211485E+02  0.12731180750E+03  0.13100903960E+03  0.00000000000E+00 0.  1.
         21    1    1    2  505  502  0.40186950671E+02  0.18339629781E+01 -0.16099630137E+03  0.16594626685E+03  0.00000000000E+00 0. -1.
         21    1    1    2  506  503 -0.20359558629E+02 -0.13181169428E+03 -0.44916177325E+03  0.46854576396E+03  0.00000000000E+00 0.  1.
<scales pt_clust_3="14000.00000" pt_clust_4="30.90424" pt_clust_5="37.68720" pt_clust_6="137.30525"></scales>
<clustering>
<clus scale="   30.904">  1  4  2 -1</clus>
<clus scale="   37.687">  2  5  1 -1</clus>
<clus scale="  137.305">  2  6  1 -1</clus>
<clus scale="   30.904">  1  3  2 -1</clus>
</clustering>
</event>
<event>
 6    0  0.6207838E+002  0.1228902E+03  0.7546771E-02  0.1238404E+00
         21   -1    0    0  506  501  0.00000000000E+00  0.00000000000E+00  0.17503987920E+04  0.17503987920E+04  0.00000000000E+00 0.  1.
         21   -1    0    0  504  502 -0.00000000000E+00 -0.00000000000E+00 -0.10508650225E+03  0.10508650225E+03  0.00000000000E+00 0.  1.
         21    1    1    2  503  502  0.96760121911E+02 -0.71801166889E+02 -0.65652718618E+02  0.13721591825E+03  0.00000000000E+00 0.  1.
         21    1    1    2  504  501 -0.17557565138E+02  0.43357260780E+02  0.10638835480E+04  0.10649114160E+04  0.00000000000E+00 0.  1.
         21    1    1    2  505  503 -0.42755389280E+02  0.15280128514E+01  0.24223718260E+03  0.24598620036E+03  0.00000000000E+00 0.  1.
         21    1    1    2  506  505 -0.36447167492E+02  0.26915893258E+02  0.40484427778E+03  0.40737175967E+03  0.00000000000E+00 0.  1.
<scales pt_clust_3="118.41410" pt_clust_4="46.77735" pt_clust_5="31.93578" pt_clust_6="31.93578"></scales>
<clustering>
<clus scale="   31.936">  5  6 -1 -1</clus>
<clus scale="   46.777">  1  4  2 -1</clus>
<clus scale="  118.414">  2  3  1 -1</clus>
<clus scale="   46.777">  1  3  2 -1</clus>
</clustering>
</event>
<event>
 6    0  0.6207838E+002  0.1723664E+03  0.7546771E-02  0.1175402E+00
         21   -1    0    0  504  501  0.00000000000E+00  0.00000000000E+00  0.15223454592E+03  0.15223454592E+03  0.00000000000E+00 0. -1.
         21   -1    0    0  503  502 -0.00000000000E+00 -0.00000000000E+00 -0.49191462114E+03  0.49191462114E+03  0.00000000000E+00 0.  1.
         21    1    1    2  503  506 -0.33221238017E+02 -0.39945591366E+02 -0.15836121258E+03  0.16666605706E+03  0.00000000000E+00 0.  1.
         21    1    1    2  504  505  0.39395438908E+02 -0.32128183294E+01 -0.70254205013E+01  0.40145726318E+02  0.00000000000E+00 0. -1.
         21    1    1    2  505  502  0.27748786356E+02  0.20132861846E+03 -0.18552935742E+03  0.27518057748E+03  0.00000000000E+00 0.  1.
         21    1    1    2  506  501 -0.33922987246E+02 -0.15817020877E+03  0.11235915282E+02  0.16215680620E+03  0.00000000000E+00 0. -1.
<scales pt_clust_3="51.26898" pt_clust_4="39.52623" pt_clust_5="14000.00000" pt_clust_6="172.36636"></scales>
<clustering>
<clus scale="   39.526">  1  4  2 -1</clus>
<clus scale="   51.269">  2  3  1 -1</clus>
<clus scale="  172.366">  1  6  2 -1</clus>
<clus scale="   39.526">  1  3  2 -1</clus>
</clustering>
</event>
<event>
 6    0  0.6207838E+002  0.1486901E+03  0.7546771E-02  0.1202092E+00
         21   -1    0    0  504  501  0.00000000000E+00  0.00000000000E+00  0.11339577068E+03  0.11339577068E+03  0.00000000000E+00 0. -1.
         21   -1    0    0  501  502 -0.00000000000E+00 -0.00000000000E+00 -0.63776478794E+03  0.63776478794E+03  0.00000000000E+00 0.  1.
         21    1    1    2  503  506 -0.68778203701E+01  0.35792531159E+02  0.44445660389E+01  0.36717351036E+02  0.00000000000E+00 0.  1.
         21    1    1    2  504  505  0.73706300615E+02  0.10139468941E+01 -0.19187431626E+01  0.73738242547E+02  0.00000000000E+00 0.  1.
         21    1    1    2  505  503  0.48499855108E+02  0.57404769975E+02  0.16782814560E+02  0.77001340417E+02  0.00000000000E+00 0. -1.
         21    1    1    2  506  502 -0.11532833535E+03 -0.94211248029E+02 -0.54367765470E+03  0.56370362462E+03  0.00000000000E+00 0.  1.
<scales pt_clust_3="31.63295" pt_clust_4="73.71327" pt_clust_5="31.63295" pt_clust_6="141.58223"></scales>
<clustering>
<clus scale="   31.633">  3  5 -1 -1</clus>
<clus scale="   73.713">  1  4  2 -1</clus>
<clus scale="  141.582">  2  6  1 -1</clus>
<clus scale="   73.713">  1  3  2 -1</clus>
</clustering>
</event>
<event>
 6    0  0.6207838E+002  0.1175411E+03  0.7546771E-02  0.1247209E+00
         21   -1    0    0  505  501  0.00000000000E+00  0.00000000000E+00  0.73318977218E+03  0.73318977218E+03  0.00000000000E+00 0. -1.
         21   -1    0    0  504  502 -0.00000000000E+00 -0.00000000000E+00 -0.52538950471E+02  0.52538950471E+02  0.00000000000E+00 0. -1.
         21    1    1    2  503  501  0.10952555520E+02 -0.10521163906E+03  0.53345631892E+03  0.54384289244E+03  0.00000000000E+00 0. -1.
         21    1    1    2  504  503 -0.19175610060E+02 -0.37550948342E+02  0.42607795532E+02  0.59943323087E+02  0.00000000000E+00 0. -1.
         21    1    1    2  505  506 -0.14784596641E+02  0.60329198805E+02  0.32828046114E+02  0.70255797896E+02  0.00000000000E+00 0. -1.
         21    1    1    2  506  502  0.23007651181E+02  0.82433388598E+02  0.71758661145E+02  0.11168670923E+03  0.00000000000E+00 0. -1.
<scales pt_clust_3="109.99997" pt_clust_4="42.16370" pt_clust_5="35.28975" pt_clust_6="35.28975"></scales>
<clustering>
<clus scale="   35.290">  5  6 -1 -1</clus>
<clus scale="   42.164">  2  4  1 -1</clus>
<clus scale="  110.000">  1  3  2 -1</clus>
<clus scale="  110.000">  1  3  2 -1</clus>
</clustering>
</event>
<event>
 6    0  0.6207838E+002  0.7936735E+02  0.7546771E-02  0.1330856E+00
         21   -1    0    0  505  501  0.00000000000E+00  0.00000000000E+00  0.76842207917E+03  0.76842207917E+03  0.00000000000E+00 0. -1.
         21   -1    0    0  504  502 -0.00000000000E+00 -0.00000000000E+00 -0.13587165871E+03  0.13587165871E+03  0.00000000000E+00 0.  1.
         21    1    1    2  503  506  0.31774852880E+02 -0.39982954171E+02  0.12184873966E+03  0.13211886034E+03  0.00000000000E+00 0. -1.
         21    1    1    2  504  501 -0.34724728054E+02  0.85401283626E+02  0.83151934338E+02  0.12415083635E+03  0.00000000000E+00 0.  1.
         21    1    1    2  505  503  0.50629739931E+02 -0.59508833613E+02  0.52916265687E+03  0.53489979367E+03  0.00000000000E+00 0. -1.
         21    1    1    2  506  502 -0.47679864758E+02  0.14090504157E+02 -0.10161291042E+03  0.11312424751E+03  0.00000000000E+00 0.  1.
<scales pt_clust_3="44.04120" pt_clust_4="79.36735" pt_clust_5="14000.00000" pt_clust_6="49.71832"></scales>
<clustering>
<clus scale="   49.718">  2  6  1 -1</clus>
<clus scale="   44.041">  2  3  1 -1</clus>
<clus scale="   79.367">  2  4  1 -1</clus>
<clus scale="   79.367">  1  3  2 -1</clus>
</clustering>
</event>
<event>
 6    0  0.6207838E+002  0.9984957E+02  0.7546771E-02  0.1280613E+00
         21   -1    0    0  505  501  0.00000000000E+00  0.00000000000E+00  0.20634223542E+04  0.20634223542E+04  0.00000000000E+00 0.  1.
         21   -1    0    0  503  502 -0.00000000000E+00 -0.00000000000E+00 -0.78262645377E+02  0.78262645377E+02  0.00000000000E+00 0.  1.
         21    1    1    2  503  504 -0.15431693371E+01 -0.36769127637E+02 -0.28033440967E+02  0.46262554309E+02  0.00000000000E+00 0.  1.
         21    1    1    2  504  501  0.43130249502E+02 -0.88859947783E+02  0.18031129378E+04  0.18058163182E+04  0.00000000000E+00 0.  1.
         21    1    1    2  505  506  0.12370441375E+02  0.13505972556E+03  0.18493129432E+03  0.22933325294E+03  0.00000000000E+00 0.  1.
         21    1    1    2  506  502 -0.53957521540E+02 -0.94306501412E+01  0.25148917704E+02  0.60272874118E+02  0.00000000000E+00 0.  1.
<scales pt_clust_3="36.80150" pt_clust_4="14000.00000" pt_clust_5="99.84957" pt_clust_6="60.12340"></scales>
<clustering>
<clus scale="   36.801">  2  3  1 -1</clus>
<clus scale="   60.123">  2  6  1 -1</clus>
<clus scale="   99.850">  2  5  1 -1</clus>
<clus scale="   99.850">  1  3  2 -1</clus>
</clustering>
</event>
<event>
 6    0  0.6207838E+002  0.1049115E+03  0.7546771E-02  0.1270294E+00
         21   -1    0    0  503  501  0.00000000000E+00  0.00000000000E+00  0.28875184452E+03  0.28875184452E+03  0.00000000000E+00 0. -1.
         21   -1    0    0  505  502 -0.00000000000E+00 -0.00000000000E+00 -0.11587823520E+04  0.11587823520E+04  0.00000000000E+00 0.  1.
         21    1    1    2  503  504  0.33035237892E+02  0.10123057593E+03  0.26543203945E+03  0.28599497201E+03  0.00000000000E+00 0. -1.
         21    1    1    2  504  502  0.51773419930E+02 -0.24494326223E+02 -0.16871463813E+03  0.17817151329E+03  0.00000000000E+00 0.  1.
         21    1    1    2  505  506 -0.84181036150E+02 -0.32703890892E+01 -0.74540321250E+03  0.75014871292E+03  0.00000000000E+00 0.  1.
         21    1    1    2  506  501 -0.62762167222E+00 -0.73465860621E+02 -0.22134469625E+03  0.23321899825E+03  0.00000000000E+00 0. -1.
<scales pt_clust_3="14000.00000" pt_clust_4="57.27529" pt_clust_5="49.92938" pt_clust_6="104.91147"></scales>
<clustering>
<clus scale="   57.275">  2  4  1 -1</clus>
<clus scale="   49.929">  2  5  1 -1</clus>
<clus scale="  104.911">  2  6  1 -1</clus>
<clus scale="  104.911">  1  3  2 -1</clus>
</clustering>
</event>
<event>
 6    0  0.6207838E+002  0.1055203E+03  0.7546771E-02  0.1269098E+00
         21   -1    0    0  503  501  0.00000000000E+00  0.00000000000E+00  0.65690131542E+03  0.65690131542E+03  0.00000000000E+00 0. -1.
         21   -1    0    0  505  502 -0.00000000000E+00 -0.00000000000E+00 -0.25755055758E+03  0.25755055758E+03  0.00000000000E+00 0. -1.
         21    1    1    2  503  504  0.60260628657E+02  0.89884261968E+02  0.61618823933E+03  0.62561847016E+03  0.00000000000E+00 0. -1.
         21    1    1    2  504  502 -0.51762491748E+02  0.48138995128E+01 -0.15473518593E+02  0.54239828153E+02  0.00000000000E+00 0.  1.
         21    1    1    2  505  506  0.31398786156E+02 -0.58328678414E+02 -0.11638047681E+03  0.13391241123E+03  0.00000000000E+00 0.  1.
         21    1    1    2  506  501 -0.39896923065E+02 -0.36369483067E+02 -0.84983486088E+02  0.10068116346E+03  0.00000000000E+00 0. -1.
<scales pt_clust_3="105.52034" pt_clust_4="51.98586" pt_clust_5="55.67138" pt_clust_6="14000.00000"></scales>
<clustering>
<clus scale="   51.986">  2  4  1 -1</clus>
<clus scale="   55.671">  2  5  1 -1</clus>
<clus scale="  105.520">  1  3  2 -1</clus>
<clus scale="  105.520">  1  3  2 -1</clus>
</clustering>
</event>
<event>
 6    0  0.6207838E+002  0.6699496E+02  0.7546771E-02  0.1370621E+00
         21   -1    0    0  506  501  0.00000000000E+00  0.00000000000E+00  0.73278647430E+03  0.73278647430E+03  0.00000000000E+00 0.  1.
         21   -1    0    0  503  502 -0.00000000000E+00 -0.00000000000E+00 -0.28278051414E+03  0.28278051414E+03  0.00000000000E+00 0.  1.
         21    1    1    2  503  505  0.70421198869E+02  0.28154012097E+01  0.14950654356E+03  0.16528544492E+03  0.00000000000E+00 0.  1.
         21    1    1    2  504  502 -0.52523232348E+02 -0.22735274763E+01 -0.26313344572E+03  0.26833387621E+03  0.00000000000E+00 0.  1.
         21    1    1    2  505  501  0.61239004265E+02 -0.26643412349E+01  0.31862385840E+03  0.32446645050E+03  0.00000000000E+00 0.  1.
         21    1    1    2  506  504 -0.79136970787E+02  0.21224675016E+01  0.24500900392E+03  0.25748121682E+03  0.00000000000E+00 0.  1.
<scales pt_clust_3="46.14663" pt_clust_4="52.57242" pt_clust_5="66.99496" pt_clust_6="14000.00000"></scales>
<clustering>
<clus scale="   52.572">  2  4  1 -1</clus>
<clus scale="   46.147">  2  3  1 -1</clus>
<clus scale="   66.995">  1  5  2 -1</clus>
<clus scale="   66.995">  1  3  2 -1</clus>
</clustering>
</event>
<event>
 6    0  0.6207838E+002  0.1166394E+03  0.7546771E-02  0.1248746E+00
         21   -1    0    0  504  501  0.00000000000E+00  0.00000000000E+00  0.32378186165E+03  0.32378186165E+03  0.00000000000E+00 0.  1.
         21   -1    0    0  505  502 -0.00000000000E+00 -0.00000000000E+00 -0.42211122046E+03  0.42211122046E+03  0.00000000000E+00 0.  1.
         21    1    1    2  503  501  0.14766617710E+03 -0.66446593846E+02  0.12625868529E+03  0.20533315686E+03  0.00000000000E+00 0.  1.
         21    1    1    2  504  506 -0.30876966651E+02  0.17262134444E+02  0.12276893170E+03  0.12776376225E+03  0.00000000000E+00 0.  1.
         21    1    1    2  505  503 -0.78207214997E+02  0.15997625844E+02 -0.21064915212E+02  0.82559210044E+02  0.00000000000E+00 0. -1.
         21    1    1    2  506  502 -0.38581995453E+02  0.33186833558E+02 -0.32629206059E+03  0.33023695296E+03  0.00000000000E+00 0.  1.
<scales pt_clust_3="14000.00000" pt_clust_4="35.37469" pt_clust_5="116.63944" pt_clust_6="51.23590"></scales>
<clustering>
<clus scale="   35.375">  1  4  2 -1</clus>
<clus scale="   51.236">  2  6  1 -1</clus>
<clus scale="  116.639">  2  5  1 -1</clus>
<clus scale="   35.375">  1  3  2 -1</clus>
</clustering>
</event>
<event>
 6    0  0.6207838E+002  0.1131142E+03  0.7546771E-02  0.1254909E+00
         21   -1    0    0  505  501  0.00000000000E+00  0.00000000000E+00  0.14192950698E+03  0.14192950698E+03  0.00000000000E+00 0.  1.
         21   -1    0    0  503  502 -0.00000000000E+00 -0.00000000000E+00 -0.47637683360E+03  0.47637683360E+03  0.00000000000E+00 0. -1.
         21    1    1    2  503  506 -0.32252540583E+01 -0.41403522706E+02 -0.78103175621E+02  0.88457673484E+02  0.00000000000E+00 0. -1.
         21    1    1    2  504  502  0.77510837440E+02 -0.47912070863E+02 -0.29447467802E+03  0.30825124891E+03  0.00000000000E+00 0. -1.
         21    1    1    2  505  504 -0.50178506768E+02  0.13156784342E+03 -0.23838724509E+02  0.14281549199E+03  0.00000000000E+00 0.  1.
         21    1    1    2  506  501 -0.24107076614E+02 -0.42252249855E+02  0.61969251533E+02  0.78781926203E+02  0.00000000000E+00 0.  1.
<scales pt_clust_3="41.52895" pt_clust_4="113.11416" pt_clust_5="14000.00000" pt_clust_6="49.45037"></scales>
<clustering>
<clus scale="   41.529">  2  3  1 -1</clus>
<clus scale="   49.450">  1  6  2 -1</clus>
<clus scale="  113.114">  2  4  1 -1</clus>
<clus scale="   49.450">  1  3  2 -1</clus>
</clustering>
</event>
<event>
 6    0  0.6207838E+002  0.1967290E+03  0.7546771E-02  0.1152528E+00
         21   -1    0    0  502  501  0.00000000000E+00  0.00000000000E+00  0.95404378115E+03  0.95404378115E+03  0.00000000000E+00 0. -1.
         21   -1    0    0  503  502 -0.00000000000E+00 -0.00000000000E+00 -0.37124580374E+03  0.37124580374E+03  0.00000000000E+00 0. -1.
         21    1    1    2  503  505  0.15586726801E+01  0.59261719633E+02 -0.27326131140E+03  0.27961781986E+03  0.00000000000E+00 0. -1.
         21    1    1    2  504  501 -0.22071385442E+02 -0.12609690057E+03  0.51283279846E+03  0.52856887305E+03  0.00000000000E+00 0. -1.
         21    1    1    2  505  506  0.59402421859E+02  0.13058245655E+03 -0.21277913937E+02  0.14502818796E+03  0.00000000000E+00 0.  1.
         21    1    1    2  506  504 -0.38889709097E+02 -0.63747275617E+02  0.36450440429E+03  0.37207470401E+03  0.00000000000E+00 0. -1.
<scales pt_clust_3="59.28221" pt_clust_4="31.31603" pt_clust_5="192.40862" pt_clust_6="31.31603"></scales>
<clustering>
<clus scale="   31.316">  4  6 -1 -1</clus>
<clus scale="   59.282">  2  3  1 -1</clus>
<clus scale="  192.409">  2  5  1 -1</clus>
<clus scale="  196.729">  1  3  2 -1</clus>
</clustering>
</event>
<event>
 6    0  0.6207838E+002  0.1087417E+03  0.7546771E-02  0.1262918E+00
         21   -1    0    0  504  501  0.00000000000E+00  0.00000000000E+00  0.34581154792E+03  0.34581154792E+03  0.00000000000E+00 0.  1.
         21   -1    0    0  503  502 -0.00000000000E+00 -0.00000000000E+00 -0.10223038275E+04  0.10223038275E+04  0.00000000000E+00 0.  1.
         21    1    1    2  503  505 -0.50578355499E+02  0.42522229134E+01 -0.35840904769E+03  0.36198521642E+03  0.00000000000E+00 0. -1.
         21    1    1    2  504  506 -0.11018508381E+02  0.10841136718E+03  0.32644540586E+03  0.34415263338E+03  0.00000000000E+00 0.  1.
         21    1    1    2  505  501  0.35129054805E+02 -0.90400129450E+02 -0.58617514767E+03  0.59414437441E+03  0.00000000000E+00 0.  1.
         21    1    1    2  506  502  0.26467809074E+02 -0.22263460638E+02 -0.58353490033E+02  0.67833151156E+02  0.00000000000E+00 0.  1.
<scales pt_clust_3="40.84642" pt_clust_4="108.74172" pt_clust_5="14000.00000" pt_clust_6="34.58622"></scales>
<clustering>
<clus scale="   34.586">  2  6  1 -1</clus>
<clus scale="   40.846">  2  3  1 -1</clus>
<clus scale="  108.742">  1  4  2 -1</clus>
<clus scale="  108.742">  1  3  2 -1</clus>
</clustering>
</event>
<event>
 6    0  0.6207838E+002  0.1120747E+03  0.7546771E-02  0.1256775E+00
         21   -1    0    0  504  501  0.00000000000E+00  0.00000000000E+00  0.44765269486E+03  0.44765269486E+03  0.00000000000E+00 0. -1.
         21   -1    0    0  503  502 -0.00000000000E+00 -0.00000000000E+00 -0.90397744612E+02  0.90397744612E+02  0.00000000000E+00 0. -1.
         21    1    1    2  503  506  0.79435262293E+02  0.67267008201E+02  0.40279596709E+02  0.11161208357E+03  0.00000000000E+00 0.  1.
         21    1    1    2  504  505 -0.88664414432E+01 -0.41264722486E+02  0.12648763807E+03  0.13334359261E+03  0.00000000000E+00 0. -1.
         21    1    1    2  505  502 -0.85000627831E+01  0.90096765940E+02  0.88322037697E+02  0.12645339317E+03  0.00000000000E+00 0. -1.
         21    1    1    2  506  501 -0.62068758067E+02 -0.11609905165E+03  0.10216567777E+03  0.16664137013E+03  0.00000000000E+00 0. -1.
<scales pt_clust_3="112.07474" pt_clust_4="42.20653" pt_clust_5="77.01322" pt_clust_6="14000.00000"></scales>
<clustering>
<clus scale="   42.207">  1  4  2 -1</clus>
<clus scale="   77.013">  1  5  2 -1</clus>
<clus scale="  112.075">  2  3  1 -1</clus>
<clus scale="   42.207">  1  3  2 -1</clus>
</clustering>
</event>
<event>
 6    0  0.6207838E+002  0.9606720E+02  0.7546771E-02  0.1288790E+00
         21   -1    0    0  504  501  0.00000000000E+00  0.00000000000E+00  0.46848528042E+03  0.46848528042E+03  0.00000000000E+00 0.  1.
         21   -1    0    0  505  502 -0.00000000000E+00 -0.00000000000E+00 -0.98008151304E+02  0.98008151304E+02  0.00000000000E+00 0. -1.
         21    1    1    2  503  501 -0.20046979070E+02 -0.23247930747E+02  0.17747281693E+03  0.18010815751E+03  0.00000000000E+00 0.  1.
         21    1    1    2  504  502 -0.97714238605E+02  0.10629925784E+03  0.15518417697E+03  0.21196634975E+03  0.00000000000E+00 0.  1.
         21    1    1    2  505  506  0.64076887674E+02 -0.59217225172E+02 -0.22625003866E+02  0.90135553978E+02  0.00000000000E+00 0. -1.
         21    1    1    2  506  503  0.53684330001E+02 -0.23834101918E+02  0.60445139082E+02  0.84283370486E+02  0.00000000000E+00 0. -1.
<scales pt_clust_3="30.69768" pt_clust_4="96.06720" pt_clust_5="14000.00000" pt_clust_6="56.99148"></scales>
<clustering>
<clus scale="   30.698">  1  3  2 -1</clus>
<clus scale="   56.991">  1  6  2 -1</clus>
<clus scale="   96.067">  1  4  2 -1</clus>
<clus scale="   30.698">  1  3  2 -1</clus>
</clustering>
</event>
<event>
 6    0  0.6207838E+002  0.1291593E+03  0.7546771E-02  0.1228709E+00
         21   -1    0    0  503  501  0.00000000000E+00  0.00000000000E+00  0.10824837097E+04  0.10824837097E+04  0.00000000000E+00 0.  1.
         21   -1    0    0  504  502 -0.00000000000E+00 -0.00000000000E+00 -0.54829139815E+03  0.54829139815E+03  0.00000000000E+00 0. -1.
         21    1    1    2  503  502 -0.80074073597E+02 -0.67227255955E+02  0.18747377523E+03  0.21465734929E+03  0.00000000000E+00 0. -1.
         21    1    1    2  504  505 -0.34398785294E+02  0.88342717279E+01 -0.14427539729E+03  0.14858233761E+03  0.00000000000E+00 0. -1.
         21    1    1    2  505  506  0.11701684177E+03  0.92019630188E+02 -0.37366122055E+03  0.40222290007E+03  0.00000000000E+00 0. -1.
         21    1    1    2  506  501 -0.25439828746E+01 -0.33626645961E+02  0.86465515415E+03  0.86531252087E+03  0.00000000000E+00 0.  1.
<scales pt_clust_3="14000.00000" pt_clust_4="35.45818" pt_clust_5="129.15927" pt_clust_6="33.72274"></scales>
<clustering>
<clus scale="   33.723">  1  6  2 -1</clus>
<clus scale="   35.458">  2  4  1 -1</clus>
<clus scale="  129.159">  2  5  1 -1</clus>
<clus scale="   33.723">  1  3  2 -1</clus>
</clustering>
</event>
<event>
 6    0  0.6207838E+002  0.1403553E+03  0.7546771E-02  0.1212852E+00
         21   -1    0    0  503  501  0.00000000000E+00  0.00000000000E+00  0.14052543935E+03  0.14052543935E+03  0.00000000000E+00 0. -1.
         21   -1    0    0  506  502 -0.00000000000E+00 -0.00000000000E+00 -0.42650740854E+03  0.42650740854E+03  0.00000000000E+00 0. -1.
         21    1    1    2  503  505  0.53911573382E+02  0.35259046422E+02 -0.36685602305E+02  0.74131582444E+02  0.00000000000E+00 0. -1.
         21    1    1    2  504  501 -0.30864348347E+02  0.48869129030E+01 -0.67550357224E+01  0.31970618139E+02  0.00000000000E+00 0. -1.
         21    1    1    2  505  502 -0.62788447666E+02 -0.16749258127E+03  0.58632834804E+01  0.17897075748E+03  0.00000000000E+00 0. -1.
         21    1    1    2  506  504  0.39741222631E+02  0.12734662194E+03 -0.24840461464E+03  0.28195988982E+03  0.00000000000E+00 0. -1.
<scales pt_clust_3="61.10584" pt_clust_4="31.24884" pt_clust_5="140.35534" pt_clust_6="14000.00000"></scales>
<clustering>
<clus scale="   31.249">  1  4  2 -1</clus>
<clus scale="   61.106">  1  3  2 -1</clus>
<clus scale="  140.355">  1  5  2 -1</clus>
<clus scale="   31.249">  1  3  2 -1</clus>
</clustering>
</event>
<event>
 6    0  0.6207838E+002  0.1052609E+03  0.7546771E-02  0.1269606E+00
         21   -1    0    0  505  501  0.00000000000E+00  0.00000000000E+00  0.13364193771E+03  0.13364193771E+03  0.00000000000E+00 0. -1.
         21   -1    0    0  503  502 -0.00000000000E+00 -0.00000000000E+00 -0.26075427864E+03  0.26075427864E+03  0.00000000000E+00 0. -1.
         21    1    1    2  503  506 -0.18333369661E+02 -0.32734094294E+02 -0.54287508698E+02  0.65990658225E+02  0.00000000000E+00 0. -1.
         21    1    1    2  504  501  0.38184511916E+02  0.10074756413E+03 -0.25682336196E+02  0.11075969944E+03  0.00000000000E+00 0. -1.
         21    1    1    2  505  502 -0.94857951731E+02 -0.60576289485E+02  0.22780824918E+02  0.11483241632E+03  0.00000000000E+00 0. -1.
         21    1    1    2  506  504  0.75006809476E+02 -0.74371803470E+01 -0.69923320951E+02  0.10281344237E+03  0.00000000000E+00 0. -1.
<scales pt_clust_3="37.51844" pt_clust_4="14000.00000" pt_clust_5="105.26091" pt_clust_6="70.48274"></scales>
<clustering>
<clus scale="   37.518">  2  3  1 -1</clus>
<clus scale="   70.483">  2  6  1 -1</clus>
<clus scale="  105.261">  1  5  2 -1</clus>
<clus scale="  105.261">  1  3  2 -1</clus>
</clustering>
</event>
<event>
 6    0  0.6207838E+002  0.9601643E+02  0.7546771E-02  0.1288903E+00
         21   -1    0    0  505  501  0.00000000000E+00  0.00000000000E+00  0.45633276249E+03  0.45633276249E+03  0.00000000000E+00 0.  1.
         21   -1    0    0  504  502 -0.00000000000E+00 -0.00000000000E+00 -0.27120931292E+03  0.27120931292E+03  0.00000000000E+00 0. -1.
         21    1    1    2  503  502  0.10686699484E+02  0.30385387332E+02 -0.45272438883E+01  0.32526500679E+02  0.00000000000E+00 0.  1.
         21    1    1    2  504  506  0.62180510825E+02  0.31755832468E+02 -0.22798769261E+03  0.23843916794E+03  0.00000000000E+00 0. -1.
         21    1    1    2  505  503 -0.98557934318E+02 -0.93193809460E+02  0.37054864862E+03  0.39459479664E+03  0.00000000000E+00 0.  1.
         21    1    1    2  506  501  0.25690724010E+02  0.31052589659E+02  0.47089737451E+02  0.61981610159E+02  0.00000000000E+00 0.  1.
<scales pt_clust_3="32.20989" pt_clust_4="14000.00000" pt_clust_5="96.01643" pt_clust_6="41.19425"></scales>
<clustering>
<clus scale="   32.210">  2  3  1 -1</clus>
<clus scale="   41.194">  1  6  2 -1</clus>
<clus scale="   96.016">  1  5  2 -1</clus>
<clus scale="   41.194">  1  3  2 -1</clus>
</clustering>
</event>
<event>
 6    0  0.6207838E+002  0.8550156E+02  0.7546771E-02  0.1314126E+00
         21   -1    0    0  506  501  0.00000000000E+00  0.00000000000E+00  0.30802171656E+03  0.30802171656E+03  0.00000000000E+00 0.  1.
         21   -1    0    0  503  502 -0.00000000000E+00 -0.00000000000E+00 -0.75548699972E+02  0.75548699972E+02  0.00000000000E+00 0.  1.
         21    1    1    2  503  505 -0.70596773351E+02  0.56937765526E+02  0.11781037194E+00  0.90696347390E+02  0.00000000000E+00 0.  1.
         21    1    1    2  504  502 -0.21910355735E+02 -0.63721646888E+02  0.67154097360E+02  0.95132459039E+02  0.00000000000E+00 0.  1.
         21    1    1    2  505  501  0.73445138443E+02 -0.19702857919E+02  0.11533800853E+03  0.13814936548E+03  0.00000000000E+00 0.  1.
         21    1    1    2  506  504  0.19061990643E+02  0.26486739281E+02  0.49863100319E+02  0.59592244617E+02  0.00000000000E+00 0.  1.
<scales pt_clust_3="14000.00000" pt_clust_4="57.45292" pt_clust_5="85.50156" pt_clust_6="32.63291"></scales>
<clustering>
<clus scale="   32.633">  1  6  2 -1</clus>
<clus scale="   57.453">  1  4  2 -1</clus>
<clus scale="   85.502">  1  5  2 -1</clus>
<clus scale="   32.633">  1  3  2 -1</clus>
</clustering>
</event>
<event>
 6    0  0.6207838E+002  0.8400876E+02  0.7546771E-02  0.1318045E+00
         21   -1    0    0  505  501  0.00000000000E+00  0.00000000000E+00  0.61604175923E+02  0.61604175923E+02  0.00000000000E+00 0.  1.
         21   -1    0    0  503  502 -0.00000000000E+00 -0.00000000000E+00 -0.46741206104E+03  0.46741206104E+03  0.00000000000E+00 0.  1.
         21    1    1    2  503  506  0.68822617551E+02 -0.18290129442E+02 -0.19137350189E+03  0.20419328771E+03  0.00000000000E+00 0.  1.
         21    1    1    2  504  502 -0.17994685010E+02  0.25218144413E+02 -0.11089234827E+03  0.11513850964E+03  0.00000000000E+00 0.  1.
         21    1    1    2  505  504  0.27508333088E+02  0.54353079856E+02 -0.90901708759E+02  0.10942616842E+03  0.00000000000E+00 0.  1.
         21    1    1    2  506  501 -0.78336265629E+02 -0.61281094828E+02 -0.12640326192E+02  0.10025827119E+03  0.00000000000E+00 0.  1.
<scales pt_clust_3="58.93108" pt_clust_4="30.98005" pt_clust_5="14000.00000" pt_clust_6="84.00876"></scales>
<clustering>
<clus scale="   30.980">  2  4  1 -1</clus>
<clus scale="   58.931">  2  3  1 -1</clus>
<clus scale="   84.009">  1  6  2 -1</clus>
<clus scale="   84.009">  1  3  2 -1</clus>
</clustering>
</event>
<event>
 6    0  0.6207838E+002  0.1020258E+03  0.7546771E-02  0.1276093E+00
         21   -1    0    0  505  501  0.00000000000E+00  0.00000000000E+00  0.35319440266E+03  0.35319440266E+03  0.00000000000E+00 0.  1.
         21   -1    0    0  506  502 -0.00000000000E+00 -0.00000000000E+00 -0.23920024266E+04  0.23920024266E+04  0.00000000000E+00 0.  1.
         21    1    1    2  503  504 -0.72569486973E+02  0.36632548559E+02 -0.58996642762E+03  0.59554064494E+03  0.00000000000E+00 0.  1.
         21    1    1    2  504  502  0.83956018539E+02 -0.89686750585E+02 -0.10631436156E+04  0.10702180496E+04  0.00000000000E+00 0.  1.
         21    1    1    2  505  503 -0.19418935368E+02 -0.46997652173E+02  0.34154058217E+03  0.34530543528E+03  0.00000000000E+00 0.  1.
         21    1    1    2  506  501  0.80324038018E+01  0.10005185420E+03 -0.72723856284E+03  0.73413269940E+03  0.00000000000E+00 0.  1.
<scales pt_clust_3="81.48882" pt_clust_4="102.02578" pt_clust_5="50.85149" pt_clust_6="14000.00000"></scales>
<clustering>
<clus scale="   50.851">  1  5  2 -1</clus>
<clus scale="   81.489">  1  3  2 -1</clus>
<clus scale="  102.026">  1  4  2 -1</clus>
<clus scale="   50.851">  1  3  2 -1</clus>
</clustering>
</event>
<event>
 6    0  0.6207838E+002  0.8626808E+02  0.7546771E-02  0.1312149E+00
         21   -1    0    0  503  501  0.00000000000E+00  0.00000000000E+00  0.48763533887E+03  0.48763533887E+03  0.00000000000E+00 0.  1.
         21   -1    0    0  504  502 -0.00000000000E+00 -0.00000000000E+00 -0.13535681370E+04  0.13535681370E+04  0.00000000000E+00 0.  1.
         21    1    1    2  503  506  0.24295750614E+02 -0.48333825827E+02  0.47298560660E+03  0.47606914022E+03  0.00000000000E+00 0.  1.
         21    1    1    2  504  505  0.67482507425E+01 -0.30959972489E+02 -0.52347527150E+03  0.52443342634E+03  0.00000000000E+00 0.  1.
         21    1    1    2  505  501 -0.10431458831E+03  0.32099555463E+02 -0.33243780233E+03  0.34989542325E+03  0.00000000000E+00 0.  1.
         21    1    1    2  506  502  0.73270586952E+02  0.47194242853E+02 -0.48300533089E+03  0.49080548605E+03  0.00000000000E+00 0.  1.
<scales pt_clust_3="54.15364" pt_clust_4="31.68689" pt_clust_5="86.26808" pt_clust_6="14000.00000"></scales>
<clustering>
<clus scale="   31.687">  2  4  1 -1</clus>
<clus scale="   54.154">  1  3  2 -1</clus>
<clus scale="   86.268">  1  5  2 -1</clus>
<clus scale="   54.154">  1  3  2 -1</clus>
</clustering>
</event>
<event>
 6    0  0.6207838E+002  0.1501235E+03  0.7546771E-02  0.1200321E+00
         21   -1    0    0  503  501  0.00000000000E+00  0.00000000000E+00  0.15391777932E+04  0.15391777932E+04  0.00000000000E+00 0. -1.
         21   -1    0    0  505  502 -0.00000000000E+00 -0.00000000000E+00 -0.65835951206E+02  0.65835951206E+02  0.00000000000E+00 0.  1.
         21    1    1    2  503  504 -0.24310504269E+02 -0.37867026293E+02  0.51267669169E+03  0.51464774603E+03  0.00000000000E+00 0. -1.
         21    1    1    2  504  506 -0.10435296292E+03 -0.26962378054E+02  0.84330851539E+03  0.85016807917E+03  0.00000000000E+00 0. -1.
         21    1    1    2  505  501  0.53890578674E+02  0.45723669399E+02  0.14247261195E+03  0.15903865433E+03  0.00000000000E+00 0. -1.
         21    1    1    2  506  502  0.74772888516E+02  0.19105734948E+02 -0.25115977078E+02  0.81159264841E+02  0.00000000000E+00 0.  1.
<scales pt_clust_3="36.94489" pt_clust_4="36.94489" pt_clust_5="70.67424" pt_clust_6="138.80865"></scales>
<clustering>
<clus scale="   36.945">  3  4 -1 -1</clus>
<clus scale="   70.674">  2  5  1 -1</clus>
<clus scale="  138.809">  2  6  1 -1</clus>
<clus scale="  150.123">  1  3  2 -1</clus>
</clustering>
</event>
<event>
 6    0  0.6207838E+002  0.1047870E+03  0.7546771E-02  0.1270540E+00
         21   -1    0    0  504  501  0.00000000000E+00  0.00000000000E+00  0.39350377739E+02  0.39350377739E+02  0.00000000000E+00 0.  1.
         21   -1    0    0  505  502 -0.00000000000E+00 -0.00000000000E+00 -0.75042613879E+03  0.75042613879E+03  0.00000000000E+00 0.  1.
         21    1    1    2  503  502 -0.78519931440E+02  0.55299084148E+02 -0.33937418959E+03  0.35270130266E+03  0.00000000000E+00 0.  1.
         21    1    1    2  504  506 -0.57017104746E+01  0.38382974026E+02 -0.35973418727E+02  0.52913599880E+02  0.00000000000E+00 0.  1.
         21    1    1    2  505  501 -0.29824807322E+02 -0.45853564021E+02 -0.55833478162E+02  0.78162943579E+02  0.00000000000E+00 0.  1.
         21    1    1    2  506  503  0.11404644924E+03 -0.47828494152E+02 -0.27989467457E+03  0.30599867041E+03  0.00000000000E+00 0.  1.
<scales pt_clust_3="14000.00000" pt_clust_4="38.80415" pt_clust_5="45.15765" pt_clust_6="104.78698"></scales>
<clustering>
<clus scale="   38.804">  1  4  2 -1</clus>
<clus scale="   45.158">  1  5  2 -1</clus>
<clus scale="  104.787">  1  6  2 -1</clus>
<clus scale="   38.804">  1  3  2 -1</clus>
</clustering>
</event>
<event>
 6    0  0.6207838E+002  0.1288209E+03  0.7546771E-02  0.1229216E+00
         21   -1    0    0  505  501  0.00000000000E+00  0.00000000000E+00  0.50782045271E+03  0.50782045271E+03  0.00000000000E+00 0. -1.
         21   -1    0    0  503  502 -0.00000000000E+00 -0.00000000000E+00 -0.55153265056E+03  0.55153265056E+03  0.00000000000E+00 0. -1.
         21    1    1    2  503  504  0.63848078177E+02 -0.43669469418E+02 -0.31344963757E+03  0.32285333348E+03  0.00000000000E+00 0. -1.
         21    1    1    2  504  506 -0.15537134446E+03 -0.63125945791E+02 -0.93473891501E+02  0.19199611481E+03  0.00000000000E+00 0. -1.
         21    1    1    2  505  502  0.48296053806E+02  0.10320875999E+03 -0.53258109968E+02  0.12578149001E+03  0.00000000000E+00 0. -1.
         21    1    1    2  506  501  0.43227212476E+02  0.35866552180E+01  0.41646944119E+03  0.41872216497E+03  0.00000000000E+00 0. -1.
<scales pt_clust_3="79.12044" pt_clust_4="128.82089" pt_clust_5="14000.00000" pt_clust_6="43.37575"></scales>
<clustering>
<clus scale="   43.376">  1  6  2 -1</clus>
<clus scale="   79.120">  2  3  1 -1</clus>
<clus scale="  128.821">  2  4  1 -1</clus>
<clus scale="   43.376">  1  3  2 -1</clus>
</clustering>
</event>
<event>
 6    0  0.6207838E+002  0.1054698E+03  0.7546771E-02  0.1269197E+00
         21   -1    0    0  505  501  0.00000000000E+00  0.00000000000E+00  0.60826919912E+03  0.60826919912E+03  0.00000000000E+00 0.  1.
         21   -1    0    0  506  502 -0.00000000000E+00 -0.00000000000E+00 -0.82680797255E+03  0.82680797255E+03  0.00000000000E+00 0. -1.
         21    1    1    2  503  501 -0.20033349704E+02  0.13431956977E+03 -0.70192180937E+02  0.15287257500E+03  0.00000000000E+00 0.  1.
         21    1    1    2  504  502  0.91306847168E+02 -0.49559335496E+00  0.69481230968E+02  0.11473808177E+03  0.00000000000E+00 0.  1.
         21    1    1    2  505  504 -0.42729353334E+02 -0.95839500548E+02  0.46819009250E+03  0.47980513776E+03  0.00000000000E+00 0.  1.
         21    1    1    2  506  503 -0.28544144129E+02 -0.37984475867E+02 -0.68601791597E+03  0.68766137713E+03  0.00000000000E+00 0. -1.
<scales pt_clust_3="14000.00000" pt_clust_4="86.94581" pt_clust_5="105.46978" pt_clust_6="47.51409"></scales>
<clustering>
<clus scale="   47.514">  2  6  1 -1</clus>
<clus scale="   86.946">  2  4  1 -1</clus>
<clus scale="  105.470">  1  5  2 -1</clus>
<clus scale="  105.470">  1  3  2 -1</clus>
</clustering>
</event>
<event>
 6    0  0.6207838E+002  0.1063035E+03  0.7546771E-02  0.1267573E+00
         21   -1    0    0  506  501  0.00000000000E+00  0.00000000000E+00  0.32226726240E+04  0.32226726240E+04  0.00000000000E+00 0.  1.
         21   -1    0    0  504  502 -0.00000000000E+00 -0.00000000000E+00 -0.12512176012E+02  0.12512176012E+02  0.00000000000E+00 0.  1.
         21    1    1    2  503  502  0.76718473082E+02 -0.11544940111E+00  0.32165386855E+03  0.33067650142E+03  0.00000000000E+00 0.  1.
         21    1    1    2  504  505  0.12126995534E+02  0.35605706145E+02  0.16173525134E+03  0.16605156385E+03  0.00000000000E+00 0.  1.
         21    1    1    2  505  501 -0.34110405571E+02  0.49107917558E+02  0.17956536804E+03  0.18925862922E+03  0.00000000000E+00 0.  1.
         21    1    1    2  506  503 -0.54735063045E+02 -0.84598174302E+02  0.25472059600E+04  0.25491981055E+04  0.00000000000E+00 0.  1.
<scales pt_clust_3="76.71856" pt_clust_4="36.34270" pt_clust_5="36.34270" pt_clust_6="95.92117"></scales>
<clustering>
<clus scale="   36.343">  4  5 -1 -1</clus>
<clus scale="   76.719">  2  3  1 -1</clus>
<clus scale="   95.921">  1  6  2 -1</clus>
<clus scale="   95.921">  1  3  2 -1</clus>
</clustering>
</event>
<event>
 6    0  0.6207838E+002  0.1087927E+03  0.7546771E-02  0.1262822E+00
         21   -1    0    0  505  501  0.00000000000E+00  0.00000000000E+00  0.65211643828E+03  0.65211643828E+03  0.00000000000E+00 0.  1.
         21   -1    0    0  506  502 -0.00000000000E+00 -0.00000000000E+00 -0.65940810121E+03  0.65940810121E+03  0.00000000000E+00 0.  1.
         21    1    1    2  503  502 -0.14269818054E+03 -0.81126100433E+02 -0.43084760038E+03  0.46105733880E+03  0.00000000000E+00 0.  1.
         21    1    1    2  504  501 -0.84963564390E+01  0.63486426188E+02 -0.61751707954E+02  0.88971837219E+02  0.00000000000E+00 0.  1.
         21    1    1    2  505  503  0.10754078833E+03  0.13115520300E+02  0.61505647010E+03  0.62452501906E+03  0.00000000000E+00 0.  1.
         21    1    1    2  506  504  0.43653748652E+02  0.45241539450E+01 -0.12974882469E+03  0.13697034441E+03  0.00000000000E+00 0.  1.
<scales pt_clust_3="14000.00000" pt_clust_4="64.17375" pt_clust_5="108.79273" pt_clust_6="43.88756"></scales>
<clustering>
<clus scale="   43.888">  2  6  1 -1</clus>
<clus scale="   64.174">  2  4  1 -1</clus>
<clus scale="  108.793">  1  5  2 -1</clus>
<clus scale="  108.793">  1  3  2 -1</clus>
</clustering>
</event>
<event>
 6    0  0.6207838E+002  0.7862454E+02  0.7546771E-02  0.1333001E+00
         21   -1    0    0  505  501  0.00000000000E+00  0.00000000000E+00  0.36103201448E+03  0.36103201448E+03  0.00000000000E+00 0.  1.
         21   -1    0    0  503  502 -0.00000000000E+00 -0.00000000000E+00 -0.62273191397E+02  0.62273191397E+02  0.00000000000E+00 0.  1.
         21    1    1    2  503  504  0.51840535289E+02 -0.23499737238E+02  0.11898641041E+02  0.58148571848E+02  0.00000000000E+00 0.  1.
         21    1    1    2  504  501  0.70721360583E+02  0.33852462827E+02  0.59837034625E+02  0.98630475994E+02  0.00000000000E+00 0.  1.
         21    1    1    2  505  506 -0.38340814806E+02  0.23272491275E+01  0.13831732295E+03  0.14355178855E+03  0.00000000000E+00 0.  1.
         21    1    1    2  506  502 -0.84221081066E+02 -0.12679974716E+02  0.88705824465E+02  0.12297436948E+03  0.00000000000E+00 0.  1.
<scales pt_clust_3="51.25492" pt_clust_4="78.62454" pt_clust_5="38.41138" pt_clust_6="14000.00000"></scales>
<clustering>
<clus scale="   38.411">  1  5  2 -1</clus>
<clus scale="   51.255">  2  3  1 -1</clus>
<clus scale="   78.625">  1  4  2 -1</clus>
<clus scale="   38.411">  1  3  2 -1</clus>
</clustering>
</event>
<event>
 6    0  0.6207838E+002  0.9409800E+02  0.7546771E-02  0.1293221E+00
         21   -1    0    0  505  501  0.00000000000E+00  0.00000000000E+00  0.22628750097E+04  0.22628750097E+04  0.00000000000E+00 0. -1.
         21   -1    0    0  503  502 -0.00000000000E+00 -0.00000000000E+00 -0.26957340121E+02  0.26957340121E+02  0.00000000000E+00 0.  1.
         21    1    1    2  503  504  0.56126500965E+02  0.28845648529E+02  0.43578675251E+03  0.44033208969E+03  0.00000000000E+00 0. -1.
         21    1    1    2  504  501  0.69895750778E+02 -0.17619737552E+02  0.78936688259E+03  0.79265121362E+03  0.00000000000E+00 0. -1.
         21    1    1    2  505  506 -0.54019877175E+02 -0.30276059886E+01  0.97416041382E+03  0.97566173718E+03  0.00000000000E+00 0. -1.
         21    1    1    2  506  502 -0.72002374568E+02 -0.81983049880E+01  0.36603620620E+02  0.81187309295E+02  0.00000000000E+00 0.  1.
<scales pt_clust_3="53.24853" pt_clust_4="53.24853" pt_clust_5="54.10465" pt_clust_6="74.93774"></scales>
<clustering>
<clus scale="   53.249">  3  4 -1 -1</clus>
<clus scale="   54.105">  1  5  2 -1</clus>
<clus scale="   74.938">  2  6  1 -1</clus>
<clus scale="   54.105">  1  3  2 -1</clus>
</clustering>
</event>
<event>
 6    0  0.6207838E+002  0.1379743E+03  0.7546771E-02  0.1216081E+00
         21   -1    0    0  506  501  0.00000000000E+00  0.00000000000E+00  0.52222792776E+03  0.52222792776E+03  0.00000000000E+00 0.  1.
         21   -1    0    0  503  502 -0.00000000000E+00 -0.00000000000E+00 -0.16372044156E+04  0.16372044156E+04  0.00000000000E+00 0. -1.
         21    1    1    2  503  501 -0.34579083393E+02  0.14304643334E+02 -0.11763936056E+03  0.12344778241E+03  0.00000000000E+00 0.  1.
         21    1    1    2  504  505  0.17838827557E+03  0.16217581426E+03 -0.47248536213E+03  0.53043924159E+03  0.00000000000E+00 0. -1.
         21    1    1    2  505  502 -0.72006796023E+02 -0.60755692138E+02 -0.10034928409E+04  0.10079058064E+04  0.00000000000E+00 0. -1.
         21    1    1    2  506  504 -0.71802396155E+02 -0.11572476546E+03  0.47864107578E+03  0.49763951296E+03  0.00000000000E+00 0.  1.
<scales pt_clust_3="37.42106" pt_clust_4="137.97429" pt_clust_5="107.89591" pt_clust_6="14000.00000"></scales>
<clustering>
<clus scale="   37.421">  2  3  1 -1</clus>
<clus scale="  107.896">  2  5  1 -1</clus>
<clus scale="  137.974">  2  4  1 -1</clus>
<clus scale="  137.974">  1  3  2 -1</clus>
</clustering>
</event>
<event>
 6    0  0.6207838E+002  0.6255442E+02  0.7546771E-02  0.1387414E+00
         21   -1    0    0  503  501  0.00000000000E+00  0.00000000000E+00  0.16264079321E+04  0.16264079321E+04  0.00000000000E+00 0.  1.
         21   -1    0    0  505  502 -0.00000000000E+00 -0.00000000000E+00 -0.14761428823E+02  0.14761428823E+02  0.00000000000E+00 0.  1.
         21    1    1    2  503  506 -0.11722899472E+02 -0.56242145527E+02  0.81966796189E+03  0.82167887465E+03  0.00000000000E+00 0.  1.
         21    1    1    2  504  502 -0.51716274747E+02  0.31968690381E+02  0.13235874660E+03  0.14565509960E+03  0.00000000000E+00 0.  1.
         21    1    1    2  505  501  0.10868373374E+02  0.67164597807E+02  0.27604669450E+03  0.28430790049E+03  0.00000000000E+00 0.  1.
         21    1    1    2  506  504  0.52570800845E+02 -0.42891142661E+02  0.38357310028E+03  0.38952748617E+03  0.00000000000E+00 0.  1.
<scales pt_clust_3="57.45089" pt_clust_4="62.55442" pt_clust_5="48.08962" pt_clust_6="14000.00000"></scales>
<clustering>
<clus scale="   57.451">  1  3  2 -1</clus>
<clus scale="   48.090">  1  5  2 -1</clus>
<clus scale="   62.554">  2  4  1 -1</clus>
<clus scale="   57.451">  1  3  2 -1</clus>
</clustering>
</event>
<event>
 6    0  0.6207838E+002  0.1439938E+03  0.7546771E-02  0.1208054E+00
         21   -1    0    0  506  501  0.00000000000E+00  0.00000000000E+00  0.51612793541E+03  0.51612793541E+03  0.00000000000E+00 0.  1.
         21   -1    0    0  503  502 -0.00000000000E+00 -0.00000000000E+00 -0.57642928487E+02  0.57642928487E+02  0.00000000000E+00 0. -1.
         21    1    1    2  503  501 -0.12257356756E+03  0.46976240639E+02  0.12796709235E+03  0.18332109364E+03  0.00000000000E+00 0. -1.
         21    1    1    2  504  505  0.92598945677E+02 -0.43530163109E+02  0.19772809836E+03  0.22263387146E+03  0.00000000000E+00 0.  1.
         21    1    1    2  505  502  0.90803411788E+01  0.35599574457E+02  0.11193884369E+02  0.38406839817E+02  0.00000000000E+00 0. -1.
         21    1    1    2  506  504  0.20894280701E+02 -0.39045651988E+02  0.12159593185E+03  0.12940905898E+03  0.00000000000E+00 0.  1.
<scales pt_clust_3="135.89446" pt_clust_4="31.32299" pt_clust_5="36.73938" pt_clust_6="31.32299"></scales>
<clustering>
<clus scale="   31.323">  4  6 -1 -1</clus>
<clus scale="   36.739">  2  5  1 -1</clus>
<clus scale="  135.894">  2  3  1 -1</clus>
<clus scale="  143.994">  1  3  2 -1</clus>
</clustering>
</event>
<event>
 6    0  0.6207838E+002  0.1362933E+03  0.7546771E-02  0.1218405E+00
         21   -1    0    0  503  501  0.00000000000E+00  0.00000000000E+00  0.12564949485E+03  0.12564949485E+03  0.00000000000E+00 0.  1.
         21   -1    0    0  506  502 -0.00000000000E+00 -0.00000000000E+00 -0.13376783704E+04  0.13376783704E+04  0.00000000000E+00 0.  1.
         21    1    1    2  503  505  0.11718100760E+03  0.37474877461E+02  0.26217086140E+02  0.12578986679E+03  0.00000000000E+00 0.  1.
         21    1    1    2  504  501 -0.76567634889E+02  0.99910136183E+02 -0.68576951988E+02  0.14334376990E+03  0.00000000000E+00 0.  1.
         21    1    1    2  505  502  0.69952074755E+02 -0.19666676910E+02 -0.24580078658E+03  0.25631640140E+03  0.00000000000E+00 0. -1.
         21    1    1    2  506  504 -0.11056544746E+03 -0.11771833673E+03 -0.92386822308E+03  0.93787782711E+03  0.00000000000E+00 0.  1.
<scales pt_clust_3="14000.00000" pt_clust_4="120.27908" pt_clust_5="72.66410" pt_clust_6="136.29334"></scales>
<clustering>
<clus scale="   72.664">  2  5  1 -1</clus>
<clus scale="  120.279">  1  4  2 -1</clus>
<clus scale="  136.293">  2  6  1 -1</clus>
<clus scale="  120.279">  1  3  2 -1</clus>
</clustering>
</event>
<event>
 6    0  0.6207838E+002  0.1263214E+03  0.7546771E-02  0.1233018E+00
         21   -1    0    0  505  501  0.00000000000E+00  0.00000000000E+00  0.11749170505E+04  0.11749170505E+04  0.00000000000E+00 0.  1.
         21   -1    0    0  503  502 -0.00000000000E+00 -0.00000000000E+00 -0.83647283703E+03  0.83647283703E+03  0.00000000000E+00 0.  1.
         21    1    1    2  503  506  0.82928604698E+02 -0.64199694165E+01  0.52594422283E+03  0.53248069920E+03  0.00000000000E+00 0.  1.
         21    1    1    2  504  502 -0.23581800065E+02  0.24029066561E+02 -0.81878349280E+03  0.81947538427E+03  0.00000000000E+00 0.  1.
         21    1    1    2  505  504 -0.90128741973E+02  0.17062362950E+02  0.14931673855E+03  0.17524212613E+03  0.00000000000E+00 0.  1.
         21    1    1    2  506  501  0.30781937341E+02 -0.34671460095E+02  0.48196674492E+03  0.48419167798E+03  0.00000000000E+00 0.  1.
<scales pt_clust_3="41.91237" pt_clust_4="33.66745" pt_clust_5="113.30264" pt_clust_6="41.91237"></scales>
<clustering>
<clus scale="   33.667">  2  4  1 -1</clus>
<clus scale="   41.912">  3  6 -1 -1</clus>
<clus scale="  113.303">  2  5  1 -1</clus>
<clus scale="  126.321">  1  3  2 -1</clus>
</clustering>
</event>
<event>
 6    0  0.6207838E+002  0.1296040E+03  0.7546771E-02  0.1228044E+00
         21   -1    0    0  506  501  0.00000000000E+00  0.00000000000E+00  0.38595581527E+03  0.38595581527E+03  0.00000000000E+00 0. -1.
         21   -1    0    0  504  502 -0.00000000000E+00 -0.00000000000E+00 -0.14980823857E+04  0.14980823857E+04  0.00000000000E+00 0. -1.
         21    1    1    2  503  501  0.43835296862E+02  0.58775517109E+02 -0.15346676744E+03  0.17008275448E+03  0.00000000000E+00 0. -1.
         21    1    1    2  504  503  0.31370678426E+02 -0.31249863585E+02 -0.48493103305E+02  0.65667758505E+02  0.00000000000E+00 0. -1.
         21    1    1    2  505  502  0.54147698058E+02 -0.11798587111E+02 -0.12671006451E+04  0.12683119587E+04  0.00000000000E+00 0. -1.
         21    1    1    2  506  505 -0.12935367335E+03 -0.15727066414E+02  0.35693394542E+03  0.37997572925E+03  0.00000000000E+00 0. -1.
<scales pt_clust_3="72.78163" pt_clust_4="44.27949" pt_clust_5="14000.00000" pt_clust_6="129.60405"></scales>
<clustering>
<clus scale="   44.279">  2  4  1 -1</clus>
<clus scale="   72.782">  2  3  1 -1</clus>
<clus scale="  129.604">  1  6  2 -1</clus>
<clus scale="  129.604">  1  3  2 -1</clus>
</clustering>
</event>
<event>
 6    0  0.6207838E+002  0.1229571E+03  0.7546771E-02  0.1238297E+00
         21   -1    0    0  505  501  0.00000000000E+00  0.00000000000E+00  0.18963190545E+02  0.18963190545E+02  0.00000000000E+00 0.  1.
         21   -1    0    0  504  502 -0.00000000000E+00 -0.00000000000E+00 -0.17929766251E+04  0.17929766251E+04  0.00000000000E+00 0.  1.
         21    1    1    2  503  502  0.66427304598E+02  0.98105229689E+02 -0.60652641352E+03  0.61798989732E+03  0.00000000000E+00 0.  1.
         21    1    1    2  504  501 -0.28883377395E+02 -0.40780694460E+02 -0.79437559289E+03  0.79594591343E+03  0.00000000000E+00 0.  1.
         21    1    1    2  505  506 -0.29435611403E+02 -0.93661694607E+02 -0.22894937537E+03  0.24911199236E+03  0.00000000000E+00 0.  1.
         21    1    1    2  506  503 -0.81083157999E+01  0.36337159378E+02 -0.14416205277E+03  0.14889201253E+03  0.00000000000E+00 0. -1.
<scales pt_clust_3="31.20541" pt_clust_4="49.97314" pt_clust_5="109.63399" pt_clust_6="31.20541"></scales>
<clustering>
<clus scale="   31.205">  3  6 -1 -1</clus>
<clus scale="   49.973">  2  4  1 -1</clus>
<clus scale="  109.634">  1  5  2 -1</clus>
<clus scale="  109.634">  1  3  2 -1</clus>
</clustering>
</event>
<event>
 6    0  0.6207838E+002  0.8292001E+02  0.7546771E-02  0.1320963E+00
         21   -1    0    0  504  501  0.00000000000E+00  0.00000000000E+00  0.27310234224E+03  0.27310234224E+03  0.00000000000E+00 0.  1.
         21   -1    0    0  503  502 -0.00000000000E+00 -0.00000000000E+00 -0.14490926796E+03  0.14490926796E+03  0.00000000000E+00 0. -1.
         21    1    1    2  503  506 -0.22022937383E+02 -0.22467932054E+02 -0.72167769217E+02  0.78727407270E+02  0.00000000000E+00 0. -1.
         21    1    1    2  504  502  0.42953930294E+02 -0.67921164285E+01  0.47061020991E+01  0.43741517695E+02  0.00000000000E+00 0. -1.
         21    1    1    2  505  501  0.68148514317E+01 -0.77156553034E+02  0.16357171680E+03  0.18098420487E+03  0.00000000000E+00 0.  1.
         21    1    1    2  506  505 -0.27745844342E+02  0.10641660152E+03  0.32083024590E+02  0.11455848036E+03  0.00000000000E+00 0. -1.
<scales pt_clust_3="31.46137" pt_clust_4="39.03169" pt_clust_5="82.92001" pt_clust_6="14000.00000"></scales>
<clustering>
<clus scale="   31.461">  2  3  1 -1</clus>
<clus scale="   39.032">  2  4  1 -1</clus>
<clus scale="   82.920">  1  5  2 -1</clus>
<clus scale="   82.920">  1  3  2 -1</clus>
</clustering>
</event>
<event>
 6    0  0.6207838E+002  0.1184493E+03  0.7546771E-02  0.1245677E+00
         21   -1    0    0  504  501  0.00000000000E+00  0.00000000000E+00  0.95081968517E+02  0.95081968517E+02  0.00000000000E+00 0.  1.
         21   -1    0    0  505  502 -0.00000000000E+00 -0.00000000000E+00 -0.10909547502E+04  0.10909547502E+04  0.00000000000E+00 0. -1.
         21    1    1    2  503  501  0.54560202279E+02 -0.40276204547E+02  0.44600881016E+02  0.81167893362E+02  0.00000000000E+00 0.  1.
         21    1    1    2  504  502 -0.57404648190E+02 -0.10649129527E+03 -0.66474112787E+03  0.67566001561E+03  0.00000000000E+00 0. -1.
         21    1    1    2  505  506  0.72701279713E+02  0.87851480244E+02 -0.23813546780E+03  0.26403003556E+03  0.00000000000E+00 0.  1.
         21    1    1    2  506  503 -0.69856833801E+02  0.58916019572E+02 -0.13759706706E+03  0.16517877423E+03  0.00000000000E+00 0.  1.
<scales pt_clust_3="67.81584" pt_clust_4="118.44930" pt_clust_5="14000.00000" pt_clust_6="62.42649"></scales>
<clustering>
<clus scale="   67.816">  1  3  2 -1</clus>
<clus scale="   62.426">  1  6  2 -1</clus>
<clus scale="  118.449">  2  4  1 -1</clus>
<clus scale="   67.816">  1  3  2 -1</clus>
</clustering>
</event>
<event>
 6    0  0.6207838E+002  0.1682867E+03  0.7546771E-02  0.1179646E+00
         21   -1    0    0  505  501  0.00000000000E+00  0.00000000000E+00  0.26632277469E+03  0.26632277469E+03  0.00000000000E+00 0. -1.
         21   -1    0    0  504  502 -0.00000000000E+00 -0.00000000000E+00 -0.23085453437E+03  0.23085453437E+03  0.00000000000E+00 0. -1.
         21    1    1    2  503  502 -0.25125263468E+02 -0.65137707250E+02  0.23791311198E+02  0.73757889466E+02  0.00000000000E+00 0. -1.
         21    1    1    2  504  506  0.65968059625E+02  0.71568019134E+02 -0.39865564538E+02  0.10518093691E+03  0.00000000000E+00 0. -1.
         21    1    1    2  505  503  0.35045812935E+01 -0.10261040815E+03  0.14453915261E+03  0.17729282159E+03  0.00000000000E+00 0. -1.
         21    1    1    2  506  501 -0.44347377451E+02  0.96180096267E+02 -0.92996658943E+02  0.14094566109E+03  0.00000000000E+00 0. -1.
<scales pt_clust_3="64.32259" pt_clust_4="97.33327" pt_clust_5="64.32259" pt_clust_6="149.11732"></scales>
<clustering>
<clus scale="   64.323">  3  5 -1 -1</clus>
<clus scale="   97.333">  2  4  1 -1</clus>
<clus scale="  149.117">  2  6  1 -1</clus>
<clus scale="  168.287">  1  3  2 -1</clus>
</clustering>
</event>
<event>
 6    0  0.6207838E+002  0.1170180E+03  0.7546771E-02  0.1248099E+00
         21   -1    0    0  506  501  0.00000000000E+00  0.00000000000E+00  0.90321910912E+02  0.90321910912E+02  0.00000000000E+00 0. -1.
         21   -1    0    0  501  502 -0.00000000000E+00 -0.00000000000E+00 -0.10524548367E+04  0.10524548367E+04  0.00000000000E+00 0. -1.
         21    1    1    2  503  502 -0.24798714116E+02 -0.37817455406E+02 -0.85592116246E+03  0.85711502874E+03  0.00000000000E+00 0. -1.
         21    1    1    2  504  505  0.62204500701E+02  0.48074700474E+01 -0.35870722560E+02  0.71966800767E+02  0.00000000000E+00 0. -1.
         21    1    1    2  505  503  0.57439760095E+02 -0.15965772536E+02 -0.87195831616E+02  0.10562833419E+03  0.00000000000E+00 0. -1.
         21    1    1    2  506  504 -0.94845546681E+02  0.48975757895E+02  0.16854790835E+02  0.10806658392E+03  0.00000000000E+00 0. -1.
<scales pt_clust_3="45.22318" pt_clust_4="43.22615" pt_clust_5="43.22615" pt_clust_6="108.34120"></scales>
<clustering>
<clus scale="   43.226">  4  5 -1 -1</clus>
<clus scale="   45.223">  2  3  1 -1</clus>
<clus scale="  108.341">  1  6  2 -1</clus>
<clus scale="  108.341">  1  3  2 -1</clus>
</clustering>
</event>
<event>
 6    0  0.6207838E+002  0.8582020E+02  0.7546771E-02  0.1313301E+00
         21   -1    0    0  506  501  0.00000000000E+00  0.00000000000E+00  0.47032089086E+03  0.47032089086E+03  0.00000000000E+00 0. -1.
         21   -1    0    0  505  502 -0.00000000000E+00 -0.00000000000E+00 -0.73839946482E+03  0.73839946482E+03  0.00000000000E+00 0.  1.
         21    1    1    2  503  504 -0.27789995002E+02 -0.97471589877E+02  0.10878907450E+03  0.14868778492E+03  0.00000000000E+00 0. -1.
         21    1    1    2  504  501 -0.31066886699E+02 -0.80956804697E+01  0.23689871660E+03  0.23906420355E+03  0.00000000000E+00 0. -1.
         21    1    1    2  505  503  0.17495885691E+02  0.35900634945E+02 -0.70087148187E+03  0.70200840145E+03  0.00000000000E+00 0.  1.
         21    1    1    2  506  502  0.41360996010E+02  0.69666635402E+02  0.87105116812E+02  0.11895996576E+03  0.00000000000E+00 0. -1.
<scales pt_clust_3="14000.00000" pt_clust_4="32.10438" pt_clust_5="39.88591" pt_clust_6="85.82020"></scales>
<clustering>
<clus scale="   32.104">  1  4  2 -1</clus>
<clus scale="   39.886">  2  5  1 -1</clus>
<clus scale="   85.820">  1  6  2 -1</clus>
<clus scale="   32.104">  1  3  2 -1</clus>
</clustering>
</event>
<event>
 6    0  0.6207838E+002  0.1347067E+03  0.7546771E-02  0.1220634E+00
         21   -1    0    0  503  501  0.00000000000E+00  0.00000000000E+00  0.32621953970E+03  0.32621953970E+03  0.00000000000E+00 0.  1.
         21   -1    0    0  505  502 -0.00000000000E+00 -0.00000000000E+00 -0.34743946362E+03  0.34743946362E+03  0.00000000000E+00 0. -1.
         21    1    1    2  503  506  0.47054412194E+02  0.10558590517E+02 -0.29923131727E+02  0.56753813554E+02  0.00000000000E+00 0. -1.
         21    1    1    2  504  501 -0.75800655769E+02 -0.11266186991E+03  0.26909834081E+03  0.30141724134E+03  0.00000000000E+00 0.  1.
         21    1    1    2  505  504  0.81209236736E+01  0.13642864073E+03 -0.21688142230E+03  0.25635185731E+03  0.00000000000E+00 0. -1.
         21    1    1    2  506  502  0.20625319901E+02 -0.34325361333E+02 -0.43513710715E+02  0.59136091111E+02  0.00000000000E+00 0. -1.
<scales pt_clust_3="50.37804" pt_clust_4="134.70668" pt_clust_5="14000.00000" pt_clust_6="40.04540"></scales>
<clustering>
<clus scale="   40.045">  2  6  1 -1</clus>
<clus scale="   50.378">  2  3  1 -1</clus>
<clus scale="  134.707">  1  4  2 -1</clus>
<clus scale="  134.707">  1  3  2 -1</clus>
</clustering>
</event>
<event>
 6    0  0.6207838E+002  0.1685482E+03  0.7546771E-02  0.1179370E+00
         21   -1    0    0  505  501  0.00000000000E+00  0.00000000000E+00  0.37437373886E+02  0.37437373886E+02  0.00000000000E+00 0. -1.
         21   -1    0    0  503  502 -0.00000000000E+00 -0.00000000000E+00 -0.16737140409E+04  0.16737140409E+04  0.00000000000E+00 0. -1.
         21    1    1    2  503  506 -0.15091962114E+03  0.63836338234E+01 -0.12163302923E+04  0.12256740443E+04  0.00000000000E+00 0. -1.
         21    1    1    2  504  502  0.11737846018E+03 -0.42345066131E+02 -0.22073717327E+03  0.25356598195E+03  0.00000000000E+00 0. -1.
         21    1    1    2  505  504  0.69228068862E+02  0.18105924436E+02 -0.86007691860E+02  0.11188240736E+03  0.00000000000E+00 0. -1.
         21    1    1    2  506  501 -0.35686907896E+02  0.17855507871E+02 -0.11320150955E+03  0.12002898117E+03  0.00000000000E+00 0. -1.
<scales pt_clust_3="156.07018" pt_clust_4="48.34043" pt_clust_5="48.34043" pt_clust_6="39.90457"></scales>
<clustering>
<clus scale="   39.905">  1  6  2 -1</clus>
<clus scale="   48.340">  4  5 -1 -1</clus>
<clus scale="  156.070">  2  3  1 -1</clus>
<clus scale="   39.905">  1  3  2 -1</clus>
</clustering>
</event>
<event>
 6    0  0.6207838E+002  0.2931291E+03  0.7546771E-02  0.1088727E+00
         21   -1    0    0  504  501  0.00000000000E+00  0.00000000000E+00  0.22170432352E+04  0.22170432352E+04  0.00000000000E+00 0. -1.
         21   -1    0    0  506  502 -0.00000000000E+00 -0.00000000000E+00 -0.17222441153E+03  0.17222441153E+03  0.00000000000E+00 0. -1.
         21    1    1    2  503  502  0.59557540177E+01 -0.23732658253E+03  0.23493020753E+03  0.33399338346E+03  0.00000000000E+00 0. -1.
         21    1    1    2  504  503  0.10440232307E+02 -0.21086094960E+03  0.73464086867E+03  0.76437461002E+03  0.00000000000E+00 0. -1.
         21    1    1    2  505  501  0.22732990275E+03  0.28652967033E+02  0.34756928486E+03  0.41629831249E+03  0.00000000000E+00 0. -1.
         21    1    1    2  506  505 -0.24372588907E+03  0.41953456510E+03  0.72767846264E+03  0.87460134079E+03  0.00000000000E+00 0. -1.
<scales pt_clust_3="293.12908" pt_clust_4="211.11925" pt_clust_5="231.53697" pt_clust_6="14000.00000"></scales>
<clustering>
<clus scale="  211.119">  1  4  2 -1</clus>
<clus scale="  231.537">  1  5  2 -1</clus>
<clus scale="  293.129">  2  3  1 -1</clus>
<clus scale="  211.119">  1  3  2 -1</clus>
</clustering>
</event>
<event>
 6    0  0.6207838E+002  0.1435546E+03  0.7546771E-02  0.1208624E+00
         21   -1    0    0  505  501  0.00000000000E+00  0.00000000000E+00  0.24588019730E+03  0.24588019730E+03  0.00000000000E+00 0. -1.
         21   -1    0    0  506  502 -0.00000000000E+00 -0.00000000000E+00 -0.36758713631E+03  0.36758713631E+03  0.00000000000E+00 0. -1.
         21    1    1    2  503  501 -0.23871514185E+02  0.13248722948E+03  0.16218591521E+03  0.21077710088E+03  0.00000000000E+00 0. -1.
         21    1    1    2  504  502 -0.38525150994E+02 -0.49841927340E+02 -0.54192863761E+02  0.83097963048E+02  0.00000000000E+00 0. -1.
         21    1    1    2  505  504 -0.50506008846E+02 -0.50989202082E+02 -0.17707820388E+03  0.19106921769E+03  0.00000000000E+00 0. -1.
         21    1    1    2  506  503  0.11290267402E+03 -0.31656100054E+02 -0.52621786579E+02  0.12852305200E+03  0.00000000000E+00 0.  1.
<scales pt_clust_3="130.46089" pt_clust_4="56.11833" pt_clust_5="56.11833" pt_clust_6="117.25665"></scales>
<clustering>
<clus scale="   56.118">  4  5 -1 -1</clus>
<clus scale="  117.257">  2  6  1 -1</clus>
<clus scale="  130.461">  1  3  2 -1</clus>
<clus scale="  130.461">  1  3  2 -1</clus>
</clustering>
</event>
<event>
 6    0  0.6207838E+002  0.1075817E+03  0.7546771E-02  0.1265115E+00
         21   -1    0    0  503  501  0.00000000000E+00  0.00000000000E+00  0.64213104182E+02  0.64213104182E+02  0.00000000000E+00 0.  1.
         21   -1    0    0  504  502 -0.00000000000E+00 -0.00000000000E+00 -0.71053015763E+03  0.71053015763E+03  0.00000000000E+00 0.  1.
         21    1    1    2  503  505  0.11794405143E+02 -0.10521763511E+03 -0.14321774700E+03  0.17810441260E+03  0.00000000000E+00 0.  1.
         21    1    1    2  504  506 -0.54442594898E+02  0.10106673965E+03 -0.11046159101E+03  0.15931178578E+03  0.00000000000E+00 0.  1.
         21    1    1    2  505  502  0.20838597407E+02 -0.39115524066E+02 -0.38586686844E+03  0.38840379958E+03  0.00000000000E+00 0.  1.
         21    1    1    2  506  501  0.21809592348E+02  0.43266419530E+02 -0.67708470038E+01  0.48923263858E+02  0.00000000000E+00 0.  1.
<scales pt_clust_3="14000.00000" pt_clust_4="107.58169" pt_clust_5="44.32010" pt_clust_6="46.35749"></scales>
<clustering>
<clus scale="   44.320">  2  5  1 -1</clus>
<clus scale="   46.357">  1  6  2 -1</clus>
<clus scale="  107.582">  2  4  1 -1</clus>
<clus scale="   46.357">  1  3  2 -1</clus>
</clustering>
</event>
<event>
 6    0  0.6207838E+002  0.1664106E+03  0.7546771E-02  0.1181644E+00
         21   -1    0    0  506  501  0.00000000000E+00  0.00000000000E+00  0.29738439089E+03  0.29738439089E+03  0.00000000000E+00 0. -1.
         21   -1    0    0  503  502 -0.00000000000E+00 -0.00000000000E+00 -0.63980404101E+03  0.63980404101E+03  0.00000000000E+00 0.  1.
         21    1    1    2  503  504 -0.23076880468E+02  0.98217911153E+02 -0.31072070674E+03  0.32669046218E+03  0.00000000000E+00 0. -1.
         21    1    1    2  504  505 -0.66147162352E+02  0.11313867479E+03  0.14756273889E+03  0.19735898441E+03  0.00000000000E+00 0. -1.
         21    1    1    2  505  501 -0.64167159866E+02 -0.14811227776E+02  0.43398892788E+02  0.78868629814E+02  0.00000000000E+00 0. -1.
         21    1    1    2  506  502  0.15339120269E+03 -0.19654535816E+03 -0.22266057506E+03  0.33427035549E+03  0.00000000000E+00 0.  1.
<scales pt_clust_3="100.92579" pt_clust_4="166.41059" pt_clust_5="65.85436" pt_clust_6="14000.00000"></scales>
<clustering>
<clus scale="   65.854">  1  5  2 -1</clus>
<clus scale="  100.926">  2  3  1 -1</clus>
<clus scale="  166.411">  1  4  2 -1</clus>
<clus scale="   65.854">  1  3  2 -1</clus>
</clustering>
</event>
<event>
 6    0  0.6207838E+002  0.1121766E+03  0.7546771E-02  0.1256591E+00
         21   -1    0    0  506  501  0.00000000000E+00  0.00000000000E+00  0.74497429029E+02  0.74497429029E+02  0.00000000000E+00 0.  1.
         21   -1    0    0  503  502 -0.00000000000E+00 -0.00000000000E+00 -0.29303542923E+03  0.29303542923E+03  0.00000000000E+00 0.  1.
         21    1    1    2  503  505 -0.48431035027E+02  0.46880105165E+01 -0.84165946497E+02  0.97218563794E+02  0.00000000000E+00 0.  1.
         21    1    1    2  504  501 -0.14721170795E+02  0.38533445107E+02  0.27656355250E+01  0.41342326994E+02  0.00000000000E+00 0. -1.
         21    1    1    2  505  504 -0.33974324479E+02  0.40107665241E+02 -0.59049053727E+02  0.79054856150E+02  0.00000000000E+00 0.  1.
         21    1    1    2  506  502  0.97126530301E+02 -0.83329120865E+02 -0.78088635503E+02  0.14991711132E+03  0.00000000000E+00 0.  1.
<scales pt_clust_3="40.41505" pt_clust_4="41.24972" pt_clust_5="40.41505" pt_clust_6="104.01496"></scales>
<clustering>
<clus scale="   40.415">  3  5 -1 -1</clus>
<clus scale="   41.250">  1  4  2 -1</clus>
<clus scale="  104.015">  1  6  2 -1</clus>
<clus scale="   41.250">  1  3  2 -1</clus>
</clustering>
</event>
<event>
 6    0  0.6207838E+002  0.8301142E+02  0.7546771E-02  0.1320716E+00
         21   -1    0    0  506  501  0.00000000000E+00  0.00000000000E+00  0.83250803054E+02  0.83250803054E+02  0.00000000000E+00 0. -1.
         21   -1    0    0  505  502 -0.00000000000E+00 -0.00000000000E+00 -0.25264369977E+03  0.25264369977E+03  0.00000000000E+00 0. -1.
         21    1    1    2  503  502  0.61043605810E+02  0.52199615149E+02 -0.62410820837E+02  0.10171643028E+03  0.00000000000E+00 0. -1.
         21    1    1    2  504  501 -0.58090899554E+02  0.48487232866E+02 -0.65689630637E+02  0.10020325312E+03  0.00000000000E+00 0. -1.
         21    1    1    2  505  504 -0.29173499355E+02 -0.10458329312E+02 -0.22124512368E+02  0.38078389726E+02  0.00000000000E+00 0. -1.
         21    1    1    2  506  503  0.26220793099E+02 -0.90228518703E+02 -0.19167932874E+02  0.95896429698E+02  0.00000000000E+00 0. -1.
<scales pt_clust_3="69.75460" pt_clust_4="83.01142" pt_clust_5="30.99145" pt_clust_6="14000.00000"></scales>
<clustering>
<clus scale="   30.991">  2  5  1 -1</clus>
<clus scale="   69.755">  2  3  1 -1</clus>
<clus scale="   83.011">  2  4  1 -1</clus>
<clus scale="   83.011">  1  3  2 -1</clus>
</clustering>
</event>
<event>
 6    0  0.6207838E+002  0.8086626E+02  0.7546771E-02  0.1326611E+00
         21   -1    0    0  503  501  0.00000000000E+00  0.00000000000E+00  0.25921941201E+03  0.25921941201E+03  0.00000000000E+00 0. -1.
         21   -1    0    0  505  502 -0.00000000000E+00 -0.00000000000E+00 -0.55138554158E+03  0.55138554158E+03  0.00000000000E+00 0. -1.
         21    1    1    2  503  506  0.23618420988E+02 -0.22853251481E+02  0.64291528258E+02  0.72204581011E+02  0.00000000000E+00 0. -1.
         21    1    1    2  504  502  0.69499316683E+02 -0.38020069069E+02 -0.48277798560E+03  0.48923436516E+03  0.00000000000E+00 0. -1.
         21    1    1    2  505  501 -0.14347799971E+03  0.70913307298E+02  0.11359577213E+03  0.19626164424E+03  0.00000000000E+00 0. -1.
         21    1    1    2  506  504  0.50360262041E+02 -0.10039986748E+02  0.12724555639E+02  0.52904363175E+02  0.00000000000E+00 0.  1.
<scales pt_clust_3="32.86489" pt_clust_4="14000.00000" pt_clust_5="80.86626" pt_clust_6="56.18235"></scales>
<clustering>
<clus scale="   32.865">  1  3  2 -1</clus>
<clus scale="   56.182">  1  6  2 -1</clus>
<clus scale="   80.866">  1  5  2 -1</clus>
<clus scale="   32.865">  1  3  2 -1</clus>
</clustering>
</event>
<event>
 6    0  0.6207838E+002  0.1431731E+03  0.7546771E-02  0.1209122E+00
         21   -1    0    0  505  501  0.00000000000E+00  0.00000000000E+00  0.14370283983E+03  0.14370283983E+03  0.00000000000E+00 0.  1.
         21   -1    0    0  506  502 -0.00000000000E+00 -0.00000000000E+00 -0.34524212856E+03  0.34524212856E+03  0.00000000000E+00 0.  1.
         21    1    1    2  503  504 -0.56602154408E+02 -0.64942081420E+02 -0.73264120555E+02  0.11308805942E+03  0.00000000000E+00 0.  1.
         21    1    1    2  504  502 -0.48409268671E+02 -0.24834711707E+02 -0.10378390710E+03  0.11718071331E+03  0.00000000000E+00 0.  1.
         21    1    1    2  505  503  0.68248303549E+02  0.11554083804E+03  0.71974977566E+02  0.15227578136E+03  0.00000000000E+00 0.  1.
         21    1    1    2  506  501  0.36763119530E+02 -0.25764044914E+02 -0.96466238637E+02  0.10640041431E+03  0.00000000000E+00 0.  1.
<scales pt_clust_3="40.44804" pt_clust_4="40.44804" pt_clust_5="133.82116" pt_clust_6="44.89224"></scales>
<clustering>
<clus scale="   40.448">  3  4 -1 -1</clus>
<clus scale="   44.892">  2  6  1 -1</clus>
<clus scale="  133.821">  1  5  2 -1</clus>
<clus scale="  133.821">  1  3  2 -1</clus>
</clustering>
</event>
<event>
 6    0  0.6207838E+002  0.1484916E+03  0.7546771E-02  0.1202339E+00
         21   -1    0    0  505  501  0.00000000000E+00  0.00000000000E+00  0.14847330560E+03  0.14847330560E+03  0.00000000000E+00 0. -1.
         21   -1    0    0  504  502 -0.00000000000E+00 -0.00000000000E+00 -0.16136130492E+04  0.16136130492E+04  0.00000000000E+00 0.  1.
         21    1    1    2  503  501  0.84350346976E+02 -0.10261914819E+02  0.89697849072E+02  0.12355562334E+03  0.00000000000E+00 0. -1.
         21    1    1    2  504  503 -0.75856084217E+02  0.13180178149E+03 -0.14646018644E+04  0.14724756284E+04  0.00000000000E+00 0.  1.
         21    1    1    2  505  506 -0.24290167886E+02 -0.57712179717E+02 -0.11822772767E+02  0.63721942057E+02  0.00000000000E+00 0. -1.
         21    1    1    2  506  502  0.15795905127E+02 -0.63827686957E+02 -0.78412955489E+02  0.10233316095E+03  0.00000000000E+00 0. -1.
<scales pt_clust_3="148.49162" pt_clust_4="14000.00000" pt_clust_5="62.61556" pt_clust_6="70.74666"></scales>
<clustering>
<clus scale="   62.616">  1  5  2 -1</clus>
<clus scale="   70.747">  1  6  2 -1</clus>
<clus scale="  148.492">  1  3  2 -1</clus>
<clus scale="   62.616">  1  3  2 -1</clus>
</clustering>
</event>
<event>
 6    0  0.6207838E+002  0.1524093E+03  0.7546771E-02  0.1197543E+00
         21   -1    0    0  505  501  0.00000000000E+00  0.00000000000E+00  0.71968665159E+03  0.71968665159E+03  0.00000000000E+00 0.  1.
         21   -1    0    0  506  502 -0.00000000000E+00 -0.00000000000E+00 -0.44827576129E+03  0.44827576129E+03  0.00000000000E+00 0. -1.
         21    1    1    2  503  504 -0.62908517871E+02 -0.44419588158E+02 -0.14439709852E+03  0.16364933087E+03  0.00000000000E+00 0. -1.
         21    1    1    2  504  501 -0.11561257827E+03  0.98895613632E+02  0.66251956282E+03  0.67976376909E+03  0.00000000000E+00 0.  1.
         21    1    1    2  505  502  0.13861582995E+03 -0.83049962137E+02 -0.19504696000E+03  0.25328829647E+03  0.00000000000E+00 0. -1.
         21    1    1    2  506  503  0.39905266190E+02  0.28573936663E+02 -0.51664613992E+02  0.71261016447E+02  0.00000000000E+00 0. -1.
<scales pt_clust_3="57.46769" pt_clust_4="152.40932" pt_clust_5="14000.00000" pt_clust_6="49.08055"></scales>
<clustering>
<clus scale="   49.081">  2  6  1 -1</clus>
<clus scale="   57.468">  2  3  1 -1</clus>
<clus scale="  152.409">  1  4  2 -1</clus>
<clus scale="  152.409">  1  3  2 -1</clus>
</clustering>
</event>
<event>
 6    0  0.6207838E+002  0.8836510E+02  0.7546771E-02  0.1306860E+00
         21   -1    0    0  505  501  0.00000000000E+00  0.00000000000E+00  0.15086053601E+03  0.15086053601E+03  0.00000000000E+00 0.  1.
         21   -1    0    0  504  502 -0.00000000000E+00 -0.00000000000E+00 -0.45090722884E+03  0.45090722884E+03  0.00000000000E+00 0.  1.
         21    1    1    2  503  502 -0.78108906153E+01 -0.87544891152E+02 -0.33316014685E+03  0.34455885046E+03  0.00000000000E+00 0.  1.
         21    1    1    2  504  501  0.68002924257E+02 -0.33135152926E+02 -0.34447332848E+02  0.83120122757E+02  0.00000000000E+00 0.  1.
         21    1    1    2  505  506 -0.32749219559E+02  0.20942429002E+02 -0.15071651748E+02  0.41692342231E+02  0.00000000000E+00 0.  1.
         21    1    1    2  506  503 -0.27442814082E+02  0.99737615075E+02  0.82632438614E+02  0.13239644941E+03  0.00000000000E+00 0.  1.
<scales pt_clust_3="88.36510" pt_clust_4="68.81888" pt_clust_5="38.87283" pt_clust_6="14000.00000"></scales>
<clustering>
<clus scale="   38.873">  1  5  2 -1</clus>
<clus scale="   68.819">  1  4  2 -1</clus>
<clus scale="   88.365">  2  3  1 -1</clus>
<clus scale="   38.873">  1  3  2 -1</clus>
</clustering>
</event>
<event>
 6    0  0.6207838E+002  0.1543752E+03  0.7546771E-02  0.1195198E+00
         21   -1    0    0  506  501  0.00000000000E+00  0.00000000000E+00  0.75015697732E+03  0.75015697732E+03  0.00000000000E+00 0.  1.
         21   -1    0    0  503  502 -0.00000000000E+00 -0.00000000000E+00 -0.13331635642E+03  0.13331635642E+03  0.00000000000E+00 0.  1.
         21    1    1    2  503  504  0.73816425466E+02 -0.68812562757E+02  0.95352212805E+02  0.13883831585E+03  0.00000000000E+00 0. -1.
         21    1    1    2  504  505 -0.48267484861E+02  0.33070132265E+01  0.11898224510E+03  0.12844244268E+03  0.00000000000E+00 0.  1.
         21    1    1    2  505  501 -0.87745665514E+02  0.86838143615E+02  0.49080963732E+03  0.50609709058E+03  0.00000000000E+00 0.  1.
         21    1    1    2  506  502  0.62196724909E+02 -0.21332594084E+02 -0.88303474322E+02  0.11009548464E+03  0.00000000000E+00 0.  1.
<scales pt_clust_3="140.22532" pt_clust_4="40.41858" pt_clust_5="40.41858" pt_clust_6="65.75342"></scales>
<clustering>
<clus scale="   40.419">  4  5 -1 -1</clus>
<clus scale="   65.753">  2  6  1 -1</clus>
<clus scale="  140.225">  2  3  1 -1</clus>
<clus scale="  154.375">  1  3  2 -1</clus>
</clustering>
</event>
<event>
 6    0  0.6207838E+002  0.1296995E+03  0.7546771E-02  0.1227902E+00
         21   -1    0    0  502  501  0.00000000000E+00  0.00000000000E+00  0.76403944115E+03  0.76403944115E+03  0.00000000000E+00 0. -1.
         21   -1    0    0  504  502 -0.00000000000E+00 -0.00000000000E+00 -0.25037703862E+03  0.25037703862E+03  0.00000000000E+00 0. -1.
         21    1    1    2  503  501  0.13880086884E+02 -0.51361622020E+02  0.53960537393E+03  0.54222194036E+03  0.00000000000E+00 0. -1.
         21    1    1    2  504  506 -0.25945960198E+02  0.32181262591E+02 -0.15878576588E+03  0.16407847501E+03  0.00000000000E+00 0. -1.
         21    1    1    2  505  503  0.49786093539E+02 -0.89638737762E+02  0.15976655226E+03  0.18983969458E+03  0.00000000000E+00 0. -1.
         21    1    1    2  506  505 -0.37720220225E+02  0.10881909719E+03 -0.26923757773E+02  0.11827636983E+03  0.00000000000E+00 0. -1.
<scales pt_clust_3="52.64812" pt_clust_4="41.33795" pt_clust_5="129.69949" pt_clust_6="14000.00000"></scales>
<clustering>
<clus scale="   41.338">  2  4  1 -1</clus>
<clus scale="   52.648">  1  3  2 -1</clus>
<clus scale="  129.699">  1  5  2 -1</clus>
<clus scale="   52.648">  1  3  2 -1</clus>
</clustering>
</event>
<event>
 6    0  0.6207838E+002  0.8687603E+02  0.7546771E-02  0.1310598E+00
         21   -1    0    0  505  501  0.00000000000E+00  0.00000000000E+00  0.87778778847E+03  0.87778778847E+03  0.00000000000E+00 0. -1.
         21   -1    0    0  506  502 -0.00000000000E+00 -0.00000000000E+00 -0.13685257971E+03  0.13685257971E+03  0.00000000000E+00 0.  1.
         21    1    1    2  503  501  0.19805164395E+02  0.35951336676E+02  0.73295122003E+03  0.73409960774E+03  0.00000000000E+00 0. -1.
         21    1    1    2  504  503  0.71807253422E+02  0.21249228404E+02  0.84277456345E+02  0.11274085772E+03  0.00000000000E+00 0. -1.
         21    1    1    2  505  502 -0.38374010385E+02 -0.79278834921E+02 -0.27461510372E+02  0.92259595117E+02  0.00000000000E+00 0.  1.
         21    1    1    2  506  504 -0.53238407432E+02  0.22078269841E+02 -0.48831957242E+02  0.75540307606E+02  0.00000000000E+00 0.  1.
<scales pt_clust_3="41.04562" pt_clust_4="86.87603" pt_clust_5="14000.00000" pt_clust_6="57.34072"></scales>
<clustering>
<clus scale="   41.046">  1  3  2 -1</clus>
<clus scale="   57.341">  2  6  1 -1</clus>
<clus scale="   86.876">  1  4  2 -1</clus>
<clus scale="   41.046">  1  3  2 -1</clus>
</clustering>
</event>
<event>
 6    0  0.6207838E+002  0.8849491E+02  0.7546771E-02  0.1306538E+00
         21   -1    0    0  505  501  0.00000000000E+00  0.00000000000E+00  0.75122955274E+03  0.75122955274E+03  0.00000000000E+00 0.  1.
         21   -1    0    0  506  502 -0.00000000000E+00 -0.00000000000E+00 -0.71553210949E+02  0.71553210949E+02  0.00000000000E+00 0. -1.
         21    1    1    2  503  501 -0.29015765285E+02  0.14526465839E+02  0.52922175506E+03  0.53021561546E+03  0.00000000000E+00 0.  1.
         21    1    1    2  504  502  0.32398202988E+01  0.69981568134E+02  0.27832385965E+02  0.75382743533E+02  0.00000000000E+00 0.  1.
         21    1    1    2  505  504 -0.48394484272E+00  0.31402507040E+02  0.87939260704E+02  0.93379147694E+02  0.00000000000E+00 0.  1.
         21    1    1    2  506  503  0.26259889829E+02 -0.11591054101E+03  0.34682940067E+02  0.12380525701E+03  0.00000000000E+00 0. -1.
<scales pt_clust_3="49.41002" pt_clust_4="88.49491" pt_clust_5="31.40624" pt_clust_6="14000.00000"></scales>
<clustering>
<clus scale="   31.406">  1  5  2 -1</clus>
<clus scale="   49.410">  1  3  2 -1</clus>
<clus scale="   88.495">  2  4  1 -1</clus>
<clus scale="   31.406">  1  3  2 -1</clus>
</clustering>
</event>
<event>
 6    0  0.6207838E+002  0.7459829E+02  0.7546771E-02  0.1345120E+00
         21   -1    0    0  506  501  0.00000000000E+00  0.00000000000E+00  0.17660319255E+03  0.17660319255E+03  0.00000000000E+00 0.  1.
         21   -1    0    0  505  502 -0.00000000000E+00 -0.00000000000E+00 -0.22388639583E+03  0.22388639583E+03  0.00000000000E+00 0.  1.
         21    1    1    2  503  501  0.30007822671E+02  0.18915987427E+02  0.33194979297E+02  0.48581793424E+02  0.00000000000E+00 0.  1.
         21    1    1    2  504  502 -0.55208473114E+02 -0.44403478836E+02 -0.13754630418E+03  0.15472113698E+03  0.00000000000E+00 0.  1.
         21    1    1    2  505  503  0.93948369223E+02  0.30476938607E+02 -0.12137212692E+02  0.99511063699E+02  0.00000000000E+00 0.  1.
         21    1    1    2  506  504 -0.68747718780E+02 -0.49894471974E+01  0.69205334292E+02  0.97675594267E+02  0.00000000000E+00 0.  1.
<scales pt_clust_3="35.47230" pt_clust_4="74.59829" pt_clust_5="14000.00000" pt_clust_6="50.73470"></scales>
<clustering>
<clus scale="   35.472">  1  3  2 -1</clus>
<clus scale="   50.735">  1  6  2 -1</clus>
<clus scale="   74.598">  2  4  1 -1</clus>
<clus scale="   35.472">  1  3  2 -1</clus>
</clustering>
</event>
<event>
 6    0  0.6207838E+002  0.1292276E+03  0.7546771E-02  0.1228606E+00
         21   -1    0    0  504  501  0.00000000000E+00  0.00000000000E+00  0.14368109430E+03  0.14368109430E+03  0.00000000000E+00 0.  1.
         21   -1    0    0  506  502 -0.00000000000E+00 -0.00000000000E+00 -0.12616477957E+04  0.12616477957E+04  0.00000000000E+00 0.  1.
         21    1    1    2  503  505  0.37661816261E+02  0.91102350130E+02  0.46081531151E+02  0.10881892352E+03  0.00000000000E+00 0.  1.
         21    1    1    2  504  502 -0.66101062371E+02 -0.68393726705E+02 -0.57366691636E+02  0.11107650340E+03  0.00000000000E+00 0. -1.
         21    1    1    2  505  501  0.38435778706E+02  0.13472963136E+02  0.28450085606E+02  0.49681356578E+02  0.00000000000E+00 0. -1.
         21    1    1    2  506  503 -0.99965325963E+01 -0.36181586561E+02 -0.11351316265E+04  0.11357521065E+04  0.00000000000E+00 0.  1.
<scales pt_clust_3="34.25752" pt_clust_4="117.72526" pt_clust_5="34.25752" pt_clust_6="37.53715"></scales>
<clustering>
<clus scale="   34.258">  3  5 -1 -1</clus>
<clus scale="   37.537">  2  6  1 -1</clus>
<clus scale="  117.725">  2  4  1 -1</clus>
<clus scale="  129.228">  1  3  2 -1</clus>
</clustering>
</event>
<event>
 6    0  0.6207838E+002  0.1078648E+03  0.7546771E-02  0.1264576E+00
         21   -1    0    0  505  501  0.00000000000E+00  0.00000000000E+00  0.59847286799E+03  0.59847286799E+03  0.00000000000E+00 0. -1.
         21   -1    0    0  506  502 -0.00000000000E+00 -0.00000000000E+00 -0.12489401207E+04  0.12489401207E+04  0.00000000000E+00 0. -1.
         21    1    1    2  503  504 -0.45497157085E+02  0.96207992047E+02  0.91222785069E+02  0.14016977403E+03  0.00000000000E+00 0. -1.
         21    1    1    2  504  501  0.37649595306E+02  0.13521380652E+02  0.37359047488E+03  0.37572618046E+03  0.00000000000E+00 0. -1.
         21    1    1    2  505  502  0.91998589179E+02 -0.77112189866E+02  0.72550296450E+02  0.14026252440E+03  0.00000000000E+00 0. -1.
         21    1    1    2  506  503 -0.84151027400E+02 -0.32617182833E+02 -0.11878308091E+04  0.11912545098E+04  0.00000000000E+00 0. -1.
<scales pt_clust_3="14000.00000" pt_clust_4="40.00400" pt_clust_5="107.86479" pt_clust_6="89.94531"></scales>
<clustering>
<clus scale="   40.004">  1  4  2 -1</clus>
<clus scale="   89.945">  2  6  1 -1</clus>
<clus scale="  107.865">  2  5  1 -1</clus>
<clus scale="   40.004">  1  3  2 -1</clus>
</clustering>
</event>
<event>
 6    0  0.6207838E+002  0.1665630E+03  0.7546771E-02  0.1181480E+00
         21   -1    0    0  504  501  0.00000000000E+00  0.00000000000E+00  0.13094901075E+03  0.13094901075E+03  0.00000000000E+00 0.  1.
         21   -1    0    0  505  502 -0.00000000000E+00 -0.00000000000E+00 -0.44260684381E+03  0.44260684381E+03  0.00000000000E+00 0.  1.
         21    1    1    2  503  502  0.33412172584E+02 -0.73727721226E+02 -0.38203364170E+02  0.89507805178E+02  0.00000000000E+00 0.  1.
         21    1    1    2  504  503  0.13862630672E+02 -0.65457155643E+02 -0.10950850954E+03  0.12833131113E+03  0.00000000000E+00 0.  1.
         21    1    1    2  505  506 -0.58689960226E+02 -0.20418583677E+02 -0.18422753764E+03  0.19442534716E+03  0.00000000000E+00 0.  1.
         21    1    1    2  506  501  0.11415156970E+02  0.15960346055E+03  0.20281578290E+02  0.16129139111E+03  0.00000000000E+00 0.  1.
<scales pt_clust_3="57.70020" pt_clust_4="57.70020" pt_clust_5="62.14041" pt_clust_6="153.99828"></scales>
<clustering>
<clus scale="   57.700">  3  4 -1 -1</clus>
<clus scale="   62.140">  2  5  1 -1</clus>
<clus scale="  153.998">  1  6  2 -1</clus>
<clus scale="  153.998">  1  3  2 -1</clus>
</clustering>
</event>
<event>
 6    0  0.6207838E+002  0.1000374E+03  0.7546771E-02  0.1280217E+00
         21   -1    0    0  505  501  0.00000000000E+00  0.00000000000E+00  0.61823823798E+03  0.61823823798E+03  0.00000000000E+00 0. -1.
         21   -1    0    0  504  502 -0.00000000000E+00 -0.00000000000E+00 -0.11684090544E+04  0.11684090544E+04  0.00000000000E+00 0. -1.
         21    1    1    2  503  501 -0.72573059597E+02  0.13522024974E+02  0.16984269010E+01  0.73841579023E+02  0.00000000000E+00 0. -1.
         21    1    1    2  504  503 -0.68309876621E+02  0.31356569571E+02 -0.11197704709E+04  0.11222902393E+04  0.00000000000E+00 0. -1.
         21    1    1    2  505  506  0.47940108319E+02 -0.44230402930E+02  0.29812231740E+03  0.30517453802E+03  0.00000000000E+00 0. -1.
         21    1    1    2  506  502  0.92942827898E+02 -0.64819161474E+00  0.26977891018E+03  0.28534093605E+03  0.00000000000E+00 0. -1.
<scales pt_clust_3="73.82204" pt_clust_4="75.31839" pt_clust_5="55.15401" pt_clust_6="55.15401"></scales>
<clustering>
<clus scale="   55.154">  5  6 -1 -1</clus>
<clus scale="   73.822">  1  3  2 -1</clus>
<clus scale="   75.318">  2  4  1 -1</clus>
<clus scale="   73.822">  1  3  2 -1</clus>
</clustering>
</event>
<event>
 6    0  0.6207838E+002  0.7252115E+02  0.7546771E-02  0.1351724E+00
         21   -1    0    0  505  501  0.00000000000E+00  0.00000000000E+00  0.11812162649E+04  0.11812162649E+04  0.00000000000E+00 0.  1.
         21   -1    0    0  506  502 -0.00000000000E+00 -0.00000000000E+00 -0.10916004497E+03  0.10916004497E+03  0.00000000000E+00 0. -1.
         21    1    1    2  503  501  0.27777382153E+02  0.35732767372E+02  0.55944637851E+03  0.56127414340E+03  0.00000000000E+00 0.  1.
         21    1    1    2  504  502  0.36280109616E+02  0.15166987730E+02 -0.91743292182E+02  0.99815407282E+02  0.00000000000E+00 0. -1.
         21    1    1    2  505  504  0.41679009995E+02  0.12020318665E+02  0.83466938775E+02  0.94065710030E+02  0.00000000000E+00 0.  1.
         21    1    1    2  506  503 -0.10573650176E+03 -0.62920073767E+02  0.52088619481E+03  0.53522104913E+03  0.00000000000E+00 0.  1.
<scales pt_clust_3="47.61633" pt_clust_4="39.32282" pt_clust_5="14000.00000" pt_clust_6="72.52115"></scales>
<clustering>
<clus scale="   39.323">  2  4  1 -1</clus>
<clus scale="   47.616">  1  3  2 -1</clus>
<clus scale="   72.521">  1  6  2 -1</clus>
<clus scale="   47.616">  1  3  2 -1</clus>
</clustering>
</event>
<event>
 6    0  0.6207838E+002  0.1207668E+03  0.7546771E-02  0.1241837E+00
         21   -1    0    0  503  501  0.00000000000E+00  0.00000000000E+00  0.26346363969E+03  0.26346363969E+03  0.00000000000E+00 0.  1.
         21   -1    0    0  505  502 -0.00000000000E+00 -0.00000000000E+00 -0.26188209771E+03  0.26188209771E+03  0.00000000000E+00 0.  1.
         21    1    1    2  503  504 -0.10764616206E+03  0.56415722929E+02  0.63024330566E+02  0.13690323679E+03  0.00000000000E+00 0.  1.
         21    1    1    2  504  502  0.71188118652E+02 -0.10008103027E+03 -0.17005198648E+03  0.20976567632E+03  0.00000000000E+00 0.  1.
         21    1    1    2  505  506  0.67779984869E+02  0.20324559915E+02  0.85662552189E+01  0.71278291317E+02  0.00000000000E+00 0. -1.
         21    1    1    2  506  501 -0.31321941459E+02  0.23340747428E+02  0.10004294267E+03  0.10739853298E+03  0.00000000000E+00 0.  1.
<scales pt_clust_3="120.76680" pt_clust_4="14000.00000" pt_clust_5="65.41015" pt_clust_6="39.06219"></scales>
<clustering>
<clus scale="   39.062">  1  6  2 -1</clus>
<clus scale="   65.410">  1  5  2 -1</clus>
<clus scale="  120.767">  1  3  2 -1</clus>
<clus scale="   39.062">  1  3  2 -1</clus>
</clustering>
</event>
<event>
 6    0  0.6207838E+002  0.1918535E+03  0.7546771E-02  0.1156800E+00
         21   -1    0    0  505  501  0.00000000000E+00  0.00000000000E+00  0.98118040497E+02  0.98118040497E+02  0.00000000000E+00 0. -1.
         21   -1    0    0  503  502 -0.00000000000E+00 -0.00000000000E+00 -0.14504206721E+04  0.14504206721E+04  0.00000000000E+00 0. -1.
         21    1    1    2  503  506  0.95629728297E+02  0.20757670953E+03 -0.35386703697E+03  0.42125409805E+03  0.00000000000E+00 0. -1.
         21    1    1    2  504  502 -0.20127849508E+02 -0.33437706872E+02 -0.60243988261E+03  0.60370276025E+03  0.00000000000E+00 0.  1.
         21    1    1    2  505  504 -0.17930249311E+03 -0.64785564177E+02 -0.24185367680E+03  0.30796063765E+03  0.00000000000E+00 0. -1.
         21    1    1    2  506  501  0.10380061432E+03 -0.10935343848E+03 -0.15414203517E+03  0.21562121660E+03  0.00000000000E+00 0. -1.
<scales pt_clust_3="191.85352" pt_clust_4="39.02833" pt_clust_5="14000.00000" pt_clust_6="153.26175"></scales>
<clustering>
<clus scale="   39.028">  2  4  1 -1</clus>
<clus scale="  153.262">  1  6  2 -1</clus>
<clus scale="  191.854">  2  3  1 -1</clus>
<clus scale="  153.262">  1  3  2 -1</clus>
</clustering>
</event>
<event>
 6    0  0.6207838E+002  0.1741288E+03  0.7546771E-02  0.1173609E+00
         21   -1    0    0  505  501  0.00000000000E+00  0.00000000000E+00  0.22667053814E+03  0.22667053814E+03  0.00000000000E+00 0.  1.
         21   -1    0    0  504  502 -0.00000000000E+00 -0.00000000000E+00 -0.20037069758E+03  0.20037069758E+03  0.00000000000E+00 0.  1.
         21    1    1    2  503  501 -0.25890321082E+02 -0.14945601147E+03  0.68954442795E+02  0.16661969653E+03  0.00000000000E+00 0.  1.
         21    1    1    2  504  503 -0.28841581508E+02 -0.39824349786E+02 -0.24921442729E+02  0.55126164092E+02  0.00000000000E+00 0.  1.
         21    1    1    2  505  506  0.30657916275E+02  0.43513885877E+02  0.12064200363E+02  0.54579401104E+02  0.00000000000E+00 0.  1.
         21    1    1    2  506  502  0.24073986315E+02  0.14576647538E+03 -0.29797359876E+02  0.15071597400E+03  0.00000000000E+00 0.  1.
<scales pt_clust_3="165.26267" pt_clust_4="49.17129" pt_clust_5="32.92628" pt_clust_6="32.92628"></scales>
<clustering>
<clus scale="   32.926">  5  6 -1 -1</clus>
<clus scale="   49.171">  2  4  1 -1</clus>
<clus scale="  165.263">  1  3  2 -1</clus>
<clus scale="  165.263">  1  3  2 -1</clus>
</clustering>
</event>
<event>
 6    0  0.6207838E+002  0.1216951E+03  0.7546771E-02  0.1240327E+00
         21   -1    0    0  503  501  0.00000000000E+00  0.00000000000E+00  0.65654499523E+03  0.65654499523E+03  0.00000000000E+00 0.  1.
         21   -1    0    0  504  502 -0.00000000000E+00 -0.00000000000E+00 -0.69515666890E+02  0.69515666890E+02  0.00000000000E+00 0. -1.
         21    1    1    2  503  505 -0.19987627790E+02 -0.41017023258E+02  0.10772014608E+03  0.11698517570E+03  0.00000000000E+00 0. -1.
         21    1    1    2  504  506 -0.10186269732E+03 -0.33947232458E+02  0.11204240483E+03  0.15518351773E+03  0.00000000000E+00 0. -1.
         21    1    1    2  505  502  0.13892898007E+03 -0.32754141082E+01  0.90658610675E+02  0.16592460195E+03  0.00000000000E+00 0. -1.
         21    1    1    2  506  501 -0.17078654965E+02  0.78239669825E+02  0.27660816675E+03  0.28796736673E+03  0.00000000000E+00 0.  1.
<scales pt_clust_3="45.62786" pt_clust_4="14000.00000" pt_clust_5="121.69513" pt_clust_6="63.23060"></scales>
<clustering>
<clus scale="   45.628">  1  3  2 -1</clus>
<clus scale="   63.231">  1  6  2 -1</clus>
<clus scale="  121.695">  2  5  1 -1</clus>
<clus scale="   45.628">  1  3  2 -1</clus>
</clustering>
</event>
<event>
 6    0  0.6207838E+002  0.7314459E+02  0.7546771E-02  0.1349715E+00
         21   -1    0    0  504  501  0.00000000000E+00  0.00000000000E+00  0.92169078785E+03  0.92169078785E+03  0.00000000000E+00 0. -1.
         21   -1    0    0  503  502 -0.00000000000E+00 -0.00000000000E+00 -0.14331778248E+03  0.14331778248E+03  0.00000000000E+00 0. -1.
         21    1    1    2  503  505 -0.21459826000E+02 -0.25144713449E+02  0.31643127397E+02  0.45760990569E+02  0.00000000000E+00 0. -1.
         21    1    1    2  504  506 -0.70694913600E+01  0.72631614824E+02  0.77736675156E+03  0.78078447449E+03  0.00000000000E+00 0. -1.
         21    1    1    2  505  501 -0.56356606142E+02  0.29294658295E+02  0.63835605448E+02  0.90051255313E+02  0.00000000000E+00 0. -1.
         21    1    1    2  506  502  0.84885923502E+02 -0.76781559670E+02 -0.94472479034E+02  0.14841184996E+03  0.00000000000E+00 0. -1.
<scales pt_clust_3="33.05723" pt_clust_4="73.14459" pt_clust_5="64.30646" pt_clust_6="14000.00000"></scales>
<clustering>
<clus scale="   33.057">  2  3  1 -1</clus>
<clus scale="   64.306">  2  5  1 -1</clus>
<clus scale="   73.145">  1  4  2 -1</clus>
<clus scale="   73.145">  1  3  2 -1</clus>
</clustering>
</event>
<event>
 6    0  0.6207838E+002  0.6912480E+02  0.7546771E-02  0.1363095E+00
         21   -1    0    0  504  501  0.00000000000E+00  0.00000000000E+00  0.63528335229E+02  0.63528335229E+02  0.00000000000E+00 0. -1.
         21   -1    0    0  503  502 -0.00000000000E+00 -0.00000000000E+00 -0.48575779052E+03  0.48575779052E+03  0.00000000000E+00 0. -1.
         21    1    1    2  503  505 -0.55150779416E+02  0.80014152604E+02 -0.10315409448E+03  0.14172028893E+03  0.00000000000E+00 0. -1.
         21    1    1    2  504  506  0.53360015136E+02 -0.38171671390E+02 -0.27904499391E+02  0.71295363091E+02  0.00000000000E+00 0. -1.
         21    1    1    2  505  501 -0.32530998321E+02  0.12313113004E+02  0.32635271091E+01  0.34936073231E+02  0.00000000000E+00 0.  1.
         21    1    1    2  506  502  0.34321762602E+02 -0.54155594218E+02 -0.29443438853E+03  0.30133440050E+03  0.00000000000E+00 0. -1.
<scales pt_clust_3="69.12480" pt_clust_4="49.38144" pt_clust_5="34.78331" pt_clust_6="14000.00000"></scales>
<clustering>
<clus scale="   34.783">  1  5  2 -1</clus>
<clus scale="   49.381">  1  4  2 -1</clus>
<clus scale="   69.125">  1  3  2 -1</clus>
<clus scale="   34.783">  1  3  2 -1</clus>
</clustering>
</event>
<event>
 6    0  0.6207838E+002  0.1021437E+03  0.7546771E-02  0.1275852E+00
         21   -1    0    0  504  501  0.00000000000E+00  0.00000000000E+00  0.27256919569E+03  0.27256919569E+03  0.00000000000E+00 0. -1.
         21   -1    0    0  503  502 -0.00000000000E+00 -0.00000000000E+00 -0.56689971936E+03  0.56689971936E+03  0.00000000000E+00 0.  1.
         21    1    1    2  503  505 -0.70998645500E+02  0.11355875159E+03 -0.48255340695E+03  0.50079355855E+03  0.00000000000E+00 0.  1.
         21    1    1    2  504  502  0.38069594198E+02 -0.16178471147E+02 -0.27410584532E+02  0.49622344518E+02  0.00000000000E+00 0.  1.
         21    1    1    2  505  506 -0.47937914691E+02 -0.93404979610E+02  0.15787847784E+03  0.18959996742E+03  0.00000000000E+00 0. -1.
         21    1    1    2  506  501  0.80866965993E+02 -0.39753008349E+01  0.57754989972E+02  0.99453044560E+02  0.00000000000E+00 0. -1.
<scales pt_clust_3="14000.00000" pt_clust_4="41.36468" pt_clust_5="102.14371" pt_clust_6="82.49823"></scales>
<clustering>
<clus scale="   41.365">  2  4  1 -1</clus>
<clus scale="   82.498">  1  6  2 -1</clus>
<clus scale="  102.144">  1  5  2 -1</clus>
<clus scale="   82.498">  1  3  2 -1</clus>
</clustering>
</event>
<event>
 6    0  0.6207838E+002  0.1084060E+03  0.7546771E-02  0.1263550E+00
         21   -1    0    0  506  501  0.00000000000E+00  0.00000000000E+00  0.47606518901E+03  0.47606518901E+03  0.00000000000E+00 0.  1.
         21   -1    0    0  504  502 -0.00000000000E+00 -0.00000000000E+00 -0.16295088629E+03  0.16295088629E+03  0.00000000000E+00 0.  1.
         21    1    1    2  503  505  0.70067403231E+02  0.45682899506E+02  0.70120034594E+02  0.10914754947E+03  0.00000000000E+00 0.  1.
         21    1    1    2  504  501 -0.80787737373E+02 -0.12041868718E+03  0.20021010738E+03  0.24720721233E+03  0.00000000000E+00 0.  1.
         21    1    1    2  505  502  0.35940650763E+01  0.43150177702E+02 -0.11432511220E+03  0.12225009783E+03  0.00000000000E+00 0.  1.
         21    1    1    2  506  503  0.71262690658E+01  0.31585609973E+02  0.15710927295E+03  0.16041121567E+03  0.00000000000E+00 0.  1.
<scales pt_clust_3="108.40602" pt_clust_4="14000.00000" pt_clust_5="43.70010" pt_clust_6="32.37954"></scales>
<clustering>
<clus scale="   32.380">  1  6  2 -1</clus>
<clus scale="   43.700">  2  5  1 -1</clus>
<clus scale="  108.406">  2  3  1 -1</clus>
<clus scale="   32.380">  1  3  2 -1</clus>
</clustering>
</event>
<event>
 6    0  0.6207838E+002  0.1191419E+03  0.7546771E-02  0.1244519E+00
         21   -1    0    0  502  501  0.00000000000E+00  0.00000000000E+00  0.19615583733E+03  0.19615583733E+03  0.00000000000E+00 0.  1.
         21   -1    0    0  504  502 -0.00000000000E+00 -0.00000000000E+00 -0.21758940899E+03  0.21758940899E+03  0.00000000000E+00 0. -1.
         21    1    1    2  503  506 -0.33238778401E+02 -0.12345689633E+02 -0.15338591528E+01  0.35490634905E+02  0.00000000000E+00 0.  1.
         21    1    1    2  504  503 -0.57308356323E+02  0.23612522274E+02 -0.56285835545E+02  0.83725110902E+02  0.00000000000E+00 0.  1.
         21    1    1    2  505  501 -0.32829488880E+02  0.58106674340E+01  0.13286287980E+03  0.13698205731E+03  0.00000000000E+00 0.  1.
         21    1    1    2  506  505  0.12337662360E+03 -0.17077500075E+02 -0.96476756773E+02  0.15754744320E+03  0.00000000000E+00 0. -1.
<scales pt_clust_3="40.04127" pt_clust_4="40.04127" pt_clust_5="33.33975" pt_clust_6="107.94093"></scales>
<clustering>
<clus scale="   33.340">  1  5  2 -1</clus>
<clus scale="   40.041">  3  4 -1 -1</clus>
<clus scale="  107.941">  1  6  2 -1</clus>
<clus scale="   33.340">  1  3  2 -1</clus>
</clustering>
</event>
<event>
 6    0  0.6207838E+002  0.1568826E+03  0.7546771E-02  0.1192262E+00
         21   -1    0    0  505  501  0.00000000000E+00  0.00000000000E+00  0.24997324814E+03  0.24997324814E+03  0.00000000000E+00 0. -1.
         21   -1    0    0  503  502 -0.00000000000E+00 -0.00000000000E+00 -0.14722992489E+03  0.14722992489E+03  0.00000000000E+00 0. -1.
         21    1    1    2  503  504  0.13728636883E+02  0.31023873180E+02 -0.28944640798E+02  0.44595385508E+02  0.00000000000E+00 0. -1.
         21    1    1    2  504  506  0.64228572739E+02  0.10748217051E+03  0.19010305232E+02  0.12664564043E+03  0.00000000000E+00 0. -1.
         21    1    1    2  505  502 -0.65830490813E+02 -0.10087016378E+02  0.32747595264E+02  0.74214597053E+02  0.00000000000E+00 0. -1.
         21    1    1    2  506  501 -0.12126718809E+02 -0.12841902732E+03  0.79930063547E+02  0.15174755004E+03  0.00000000000E+00 0. -1.
<scales pt_clust_3="32.77072" pt_clust_4="32.77072" pt_clust_5="66.59881" pt_clust_6="143.69625"></scales>
<clustering>
<clus scale="   32.771">  3  4 -1 -1</clus>
<clus scale="   66.599">  1  5  2 -1</clus>
<clus scale="  143.696">  1  6  2 -1</clus>
<clus scale="   66.599">  1  3  2 -1</clus>
</clustering>
</event>
<event>
 6    0  0.6207838E+002  0.2200306E+03  0.7546771E-02  0.1133860E+00
         21   -1    0    0  505  501  0.00000000000E+00  0.00000000000E+00  0.13656791776E+03  0.13656791776E+03  0.00000000000E+00 0. -1.
         21   -1    0    0  506  502 -0.00000000000E+00 -0.00000000000E+00 -0.25828405380E+04  0.25828405380E+04  0.00000000000E+00 0.  1.
         21    1    1    2  503  501 -0.39805096788E+02 -0.63882501324E+02  0.68903436538E+02  0.10204461413E+03  0.00000000000E+00 0. -1.
         21    1    1    2  504  502 -0.15649527626E+03  0.89024376288E+02 -0.17373997777E+04  0.17467037810E+04  0.00000000000E+00 0.  1.
         21    1    1    2  505  504  0.16869382605E+03 -0.13608959419E+03 -0.25105143142E+03  0.33166972399E+03  0.00000000000E+00 0.  1.
         21    1    1    2  506  503  0.27606546994E+02  0.11094771922E+03 -0.52672484760E+03  0.53899033657E+03  0.00000000000E+00 0.  1.
<scales pt_clust_3="75.26898" pt_clust_4="220.03057" pt_clust_5="14000.00000" pt_clust_6="105.77290"></scales>
<clustering>
<clus scale="   75.269">  1  3  2 -1</clus>
<clus scale="  105.773">  2  6  1 -1</clus>
<clus scale="  220.031">  2  4  1 -1</clus>
<clus scale="   75.269">  1  3  2 -1</clus>
</clustering>
</event>
<event>
 6    0  0.6207838E+002  0.1044781E+03  0.7546771E-02  0.1271151E+00
         21   -1    0    0  506  501  0.00000000000E+00  0.00000000000E+00  0.12140219949E+03  0.12140219949E+03  0.00000000000E+00 0. -1.
         21   -1    0    0  504  502 -0.00000000000E+00 -0.00000000000E+00 -0.68472193100E+03  0.68472193100E+03  0.00000000000E+00 0.  1.
         21    1    1    2  503  502  0.71548736627E+02  0.21167644796E+02 -0.12187043774E+03  0.14289749646E+03  0.00000000000E+00 0. -1.
         21    1    1    2  504  505 -0.16220772320E+03  0.18167200985E+02 -0.47038285677E+03  0.49789700200E+03  0.00000000000E+00 0.  1.
         21    1    1    2  505  501  0.22363101710E+02  0.39029907159E+02 -0.21425536272E+02  0.49824648273E+02  0.00000000000E+00 0. -1.
         21    1    1    2  506  503  0.68295884864E+02 -0.78364752940E+02  0.50359099280E+02  0.11550498376E+03  0.00000000000E+00 0. -1.
<scales pt_clust_3="77.86295" pt_clust_4="14000.00000" pt_clust_5="44.98269" pt_clust_6="104.47805"></scales>
<clustering>
<clus scale="   44.983">  1  5  2 -1</clus>
<clus scale="   77.863">  2  3  1 -1</clus>
<clus scale="  104.478">  1  6  2 -1</clus>
<clus scale="   44.983">  1  3  2 -1</clus>
</clustering>
</event>
<event>
 6    0  0.6207838E+002  0.2221948E+03  0.7546771E-02  0.1132257E+00
         21   -1    0    0  503  501  0.00000000000E+00  0.00000000000E+00  0.63885364630E+03  0.63885364630E+03  0.00000000000E+00 0. -1.
         21   -1    0    0  504  502 -0.00000000000E+00 -0.00000000000E+00 -0.95334381050E+03  0.95334381050E+03  0.00000000000E+00 0.  1.
         21    1    1    2  503  505  0.28095251055E+02  0.17163215488E+02  0.53942905076E+03  0.54043280794E+03  0.00000000000E+00 0. -1.
         21    1    1    2  504  501  0.23573296985E+03 -0.32705443712E+02 -0.63909988320E+03  0.68197385568E+03  0.00000000000E+00 0.  1.
         21    1    1    2  505  506 -0.66977005999E+02  0.26860202748E+02  0.75930662485E+01  0.72560626233E+02  0.00000000000E+00 0. -1.
         21    1    1    2  506  502 -0.19685121491E+03 -0.11317974524E+02 -0.22241239801E+03  0.29723016695E+03  0.00000000000E+00 0. -1.
<scales pt_clust_3="32.92293" pt_clust_4="14000.00000" pt_clust_5="65.07018" pt_clust_6="222.19479"></scales>
<clustering>
<clus scale="   32.923">  1  3  2 -1</clus>
<clus scale="   65.070">  1  5  2 -1</clus>
<clus scale="  222.195">  1  6  2 -1</clus>
<clus scale="   32.923">  1  3  2 -1</clus>
</clustering>
</event>
<event>
 6    0  0.6207838E+002  0.1135094E+03  0.7546771E-02  0.1254206E+00
         21   -1    0    0  505  501  0.00000000000E+00  0.00000000000E+00  0.14983565831E+03  0.14983565831E+03  0.00000000000E+00 0. -1.
         21   -1    0    0  501  502 -0.00000000000E+00 -0.00000000000E+00 -0.23603014408E+03  0.23603014408E+03  0.00000000000E+00 0. -1.
         21    1    1    2  503  504 -0.69529064251E+02 -0.49818294912E+02 -0.13423321839E+03  0.15916881040E+03  0.00000000000E+00 0. -1.
         21    1    1    2  504  502 -0.40855556558E+02  0.47776443461E+02 -0.43346686604E+02  0.76359022329E+02  0.00000000000E+00 0. -1.
         21    1    1    2  505  506  0.73439835479E+02  0.22140159211E+02  0.51612838635E+02  0.92452588915E+02  0.00000000000E+00 0. -1.
         21    1    1    2  506  503  0.36944785331E+02 -0.20098307760E+02  0.39772580595E+02  0.57885380755E+02  0.00000000000E+00 0. -1.
<scales pt_clust_3="104.03421" pt_clust_4="62.86307" pt_clust_5="33.61869" pt_clust_6="33.61869"></scales>
<clustering>
<clus scale="   33.619">  5  6 -1 -1</clus>
<clus scale="   62.863">  2  4  1 -1</clus>
<clus scale="  104.034">  2  3  1 -1</clus>
<clus scale="  113.509">  1  3  2 -1</clus>
</clustering>
</event>
<event>
 6    0  0.6207838E+002  0.1126495E+03  0.7546771E-02  0.1255741E+00
         21   -1    0    0  503  501  0.00000000000E+00  0.00000000000E+00  0.13922967263E+03  0.13922967263E+03  0.00000000000E+00 0. -1.
         21   -1    0    0  504  502 -0.00000000000E+00 -0.00000000000E+00 -0.54528306929E+03  0.54528306929E+03  0.00000000000E+00 0. -1.
         21    1    1    2  503  505 -0.30415658002E+02 -0.96719133101E+01  0.10329970896E+03  0.10811793575E+03  0.00000000000E+00 0. -1.
         21    1    1    2  504  506  0.37919640570E+02 -0.10638744017E+03 -0.19923973430E+03  0.22902545337E+03  0.00000000000E+00 0. -1.
         21    1    1    2  505  502  0.26404224055E+02  0.11813957193E+03 -0.26033354535E+03  0.28710224021E+03  0.00000000000E+00 0. -1.
         21    1    1    2  506  501 -0.33908206623E+02 -0.20802184476E+01 -0.49779825978E+02  0.60267112588E+02  0.00000000000E+00 0. -1.
<scales pt_clust_3="31.91642" pt_clust_4="14000.00000" pt_clust_5="112.64952" pt_clust_6="38.83270"></scales>
<clustering>
<clus scale="   31.916">  1  3  2 -1</clus>
<clus scale="   38.833">  1  6  2 -1</clus>
<clus scale="  112.650">  2  5  1 -1</clus>
<clus scale="   31.916">  1  3  2 -1</clus>
</clustering>
</event>
<event>
 6    0  0.6207838E+002  0.9575652E+02  0.7546771E-02  0.1289481E+00
         21   -1    0    0  506  501  0.00000000000E+00  0.00000000000E+00  0.16288068560E+04  0.16288068560E+04  0.00000000000E+00 0. -1.
         21   -1    0    0  504  502 -0.00000000000E+00 -0.00000000000E+00 -0.55622226575E+02  0.55622226575E+02  0.00000000000E+00 0. -1.
         21    1    1    2  503  502  0.75722608640E+02  0.57342985747E+02  0.32718126269E+01  0.95041234374E+02  0.00000000000E+00 0. -1.
         21    1    1    2  504  505  0.65359548645E+02 -0.30152655008E+02  0.41807340406E+03  0.42422449762E+03  0.00000000000E+00 0. -1.
         21    1    1    2  505  501  0.58566824791E-01 -0.34377529148E+02  0.22757174352E+03  0.23015367994E+03  0.00000000000E+00 0. -1.
         21    1    1    2  506  503 -0.14114072411E+03  0.71871984087E+01  0.92426766926E+03  0.93500967068E+03  0.00000000000E+00 0. -1.
<scales pt_clust_3="95.75652" pt_clust_4="76.90242" pt_clust_5="34.37758" pt_clust_6="14000.00000"></scales>
<clustering>
<clus scale="   34.378">  1  5  2 -1</clus>
<clus scale="   76.902">  1  4  2 -1</clus>
<clus scale="   95.757">  2  3  1 -1</clus>
<clus scale="   34.378">  1  3  2 -1</clus>
</clustering>
</event>
<event>
 6    0  0.6207838E+002  0.7163565E+02  0.7546771E-02  0.1354618E+00
         21   -1    0    0  505  501  0.00000000000E+00  0.00000000000E+00  0.21042809346E+04  0.21042809346E+04  0.00000000000E+00 0.  1.
         21   -1    0    0  504  502 -0.00000000000E+00 -0.00000000000E+00 -0.24204658711E+03  0.24204658711E+03  0.00000000000E+00 0.  1.
         21    1    1    2  503  502 -0.21884392585E+02  0.71682427582E+02 -0.25866148325E+02  0.79286535377E+02  0.00000000000E+00 0.  1.
         21    1    1    2  504  506  0.47487072284E+02  0.22838542720E+02 -0.15230833175E+03  0.16116590517E+03  0.00000000000E+00 0.  1.
         21    1    1    2  505  503 -0.76701736915E+02 -0.49138578499E+02  0.32368358599E+02  0.96671955504E+02  0.00000000000E+00 0.  1.
         21    1    1    2  506  501  0.51099057216E+02 -0.45382391803E+02  0.20080404690E+04  0.20092031257E+04  0.00000000000E+00 0.  1.
<scales pt_clust_3="71.63565" pt_clust_4="52.69365" pt_clust_5="14000.00000" pt_clust_6="68.48174"></scales>
<clustering>
<clus scale="   52.694">  2  4  1 -1</clus>
<clus scale="   68.482">  1  6  2 -1</clus>
<clus scale="   71.636">  2  3  1 -1</clus>
<clus scale="   68.482">  1  3  2 -1</clus>
</clustering>
</event>
<event>
 6    0  0.6207838E+002  0.1097912E+03  0.7546771E-02  0.1260957E+00
         21   -1    0    0  505  501  0.00000000000E+00  0.00000000000E+00  0.37097836676E+02  0.37097836676E+02  0.00000000000E+00 0.  1.
         21   -1    0    0  504  502 -0.00000000000E+00 -0.00000000000E+00 -0.17808742573E+04  0.17808742573E+04  0.00000000000E+00 0.  1.
         21    1    1    2  503  501  0.23196917453E+02  0.33468329323E+02 -0.70988622025E+02  0.81838930248E+02  0.00000000000E+00 0. -1.
         21    1    1    2  504  503  0.72241661507E+02 -0.73418225157E+02 -0.85289765725E+02  0.13372897061E+03  0.00000000000E+00 0.  1.
         21    1    1    2  505  506 -0.12544770148E+03  0.67627630722E+02 -0.72128422770E+03  0.73522891631E+03  0.00000000000E+00 0.  1.
         21    1    1    2  506  502  0.30009122521E+02 -0.27677734888E+02 -0.86621380513E+03  0.86717527677E+03  0.00000000000E+00 0.  1.
<scales pt_clust_3="40.72132" pt_clust_4="109.79119" pt_clust_5="14000.00000" pt_clust_6="40.74307"></scales>
<clustering>
<clus scale="   40.721">  1  3  2 -1</clus>
<clus scale="   40.743">  2  6  1 -1</clus>
<clus scale="  109.791">  1  4  2 -1</clus>
<clus scale="   40.721">  1  3  2 -1</clus>
</clustering>
</event>
<event>
 6    0  0.6207838E+002  0.1331525E+03  0.7546771E-02  0.1222852E+00
         21   -1    0    0  503  501  0.00000000000E+00  0.00000000000E+00  0.21408999827E+03  0.21408999827E+03  0.00000000000E+00 0. -1.
         21   -1    0    0  504  502 -0.00000000000E+00 -0.00000000000E+00 -0.63557206099E+03  0.63557206099E+03  0.00000000000E+00 0.  1.
         21    1    1    2  503  505  0.47935725809E+02 -0.12344820944E+03 -0.45797763087E+02  0.14012397841E+03  0.00000000000E+00 0. -1.
         21    1    1    2  504  506 -0.70655337094E+02  0.13297148809E+03 -0.40435235980E+03  0.43147934387E+03  0.00000000000E+00 0.  1.
         21    1    1    2  505  502  0.55064799326E+02 -0.31680237661E+01 -0.11665870314E+03  0.12904038716E+03  0.00000000000E+00 0. -1.
         21    1    1    2  506  501 -0.32345188041E+02 -0.63552548828E+01  0.14532676330E+03  0.14901834983E+03  0.00000000000E+00 0. -1.
<scales pt_clust_3="133.15246" pt_clust_4="14000.00000" pt_clust_5="52.20768" pt_clust_6="32.96362"></scales>
<clustering>
<clus scale="   32.964">  1  6  2 -1</clus>
<clus scale="   52.208">  2  5  1 -1</clus>
<clus scale="  133.152">  1  3  2 -1</clus>
<clus scale="   32.964">  1  3  2 -1</clus>
</clustering>
</event>
<event>
 6    0  0.6207838E+002  0.1825683E+03  0.7546771E-02  0.1165340E+00
         21   -1    0    0  503  501  0.00000000000E+00  0.00000000000E+00  0.54859980331E+03  0.54859980331E+03  0.00000000000E+00 0.  1.
         21   -1    0    0  505  502 -0.00000000000E+00 -0.00000000000E+00 -0.53847699872E+03  0.53847699872E+03  0.00000000000E+00 0. -1.
         21    1    1    2  503  506 -0.21115750228E+03  0.87418082208E+02  0.19830883697E+02  0.22939632912E+03  0.00000000000E+00 0.  1.
         21    1    1    2  504  501 -0.26662223051E+02  0.28180969185E+02  0.35534921736E+03  0.35746063761E+03  0.00000000000E+00 0.  1.
         21    1    1    2  505  504  0.80888288825E+02 -0.37274773475E+02  0.65469768538E+01  0.89303902001E+02  0.00000000000E+00 0.  1.
         21    1    1    2  506  502  0.15693143651E+03 -0.78324277918E+02 -0.37160427333E+03  0.41091593329E+03  0.00000000000E+00 0. -1.
<scales pt_clust_3="14000.00000" pt_clust_4="38.79486" pt_clust_5="80.16527" pt_clust_6="182.56829"></scales>
<clustering>
<clus scale="   38.795">  1  4  2 -1</clus>
<clus scale="   80.165">  1  5  2 -1</clus>
<clus scale="  182.568">  2  6  1 -1</clus>
<clus scale="   38.795">  1  3  2 -1</clus>
</clustering>
</event>
<event>
 6    0  0.6207838E+002  0.6047207E+02  0.7546771E-02  0.1395861E+00
         21   -1    0    0  506  501  0.00000000000E+00  0.00000000000E+00  0.28872141588E+03  0.28872141588E+03  0.00000000000E+00 0.  1.
         21   -1    0    0  505  502 -0.00000000000E+00 -0.00000000000E+00 -0.10126543682E+04  0.10126543682E+04  0.00000000000E+00 0.  1.
         21    1    1    2  503  501  0.60005143848E+02 -0.70171298534E+01  0.26490979233E+03  0.27171134586E+03  0.00000000000E+00 0.  1.
         21    1    1    2  504  502 -0.44046630437E+02 -0.53734548602E+02 -0.82971832876E+02  0.10822121981E+03  0.00000000000E+00 0. -1.
         21    1    1    2  505  503  0.44561274306E+02  0.34411623881E+02 -0.75082607934E+03  0.75293403991E+03  0.00000000000E+00 0.  1.
         21    1    1    2  506  504 -0.60519787717E+02  0.26340054574E+02 -0.15504483240E+03  0.16850917849E+03  0.00000000000E+00 0.  1.
<scales pt_clust_3="14000.00000" pt_clust_4="49.58559" pt_clust_5="56.30157" pt_clust_6="60.47207"></scales>
<clustering>
<clus scale="   56.302">  2  5  1 -1</clus>
<clus scale="   49.586">  2  4  1 -1</clus>
<clus scale="   60.472">  2  6  1 -1</clus>
<clus scale="   60.472">  1  3  2 -1</clus>
</clustering>
</event>
<event>
 6    0  0.6207838E+002  0.8488844E+02  0.7546771E-02  0.1315725E+00
         21   -1    0    0  506  501  0.00000000000E+00  0.00000000000E+00  0.35625868943E+03  0.35625868943E+03  0.00000000000E+00 0.  1.
         21   -1    0    0  504  502 -0.00000000000E+00 -0.00000000000E+00 -0.23864251032E+03  0.23864251032E+03  0.00000000000E+00 0. -1.
         21    1    1    2  503  502  0.65354752573E+02 -0.52390937700E+02 -0.17744520935E+03  0.19622144724E+03  0.00000000000E+00 0. -1.
         21    1    1    2  504  505 -0.38185357673E+02  0.99444130300E+02  0.37152953305E+02  0.11281665892E+03  0.00000000000E+00 0. -1.
         21    1    1    2  505  501 -0.48781482840E+02 -0.68187383448E+02  0.22968090808E+03  0.24450454365E+03  0.00000000000E+00 0.  1.
         21    1    1    2  506  503  0.21612087940E+02  0.21134190849E+02  0.28227527067E+02  0.41358549929E+02  0.00000000000E+00 0. -1.
<scales pt_clust_3="14000.00000" pt_clust_4="84.88844" pt_clust_5="62.01094" pt_clust_6="30.22807"></scales>
<clustering>
<clus scale="   30.228">  1  6  2 -1</clus>
<clus scale="   62.011">  1  5  2 -1</clus>
<clus scale="   84.888">  1  4  2 -1</clus>
<clus scale="   30.228">  1  3  2 -1</clus>
</clustering>
</event>
<event>
 6    0  0.6207838E+002  0.1119436E+03  0.7546771E-02  0.1257012E+00
         21   -1    0    0  505  501  0.00000000000E+00  0.00000000000E+00  0.16695107335E+03  0.16695107335E+03  0.00000000000E+00 0. -1.
         21   -1    0    0  504  502 -0.00000000000E+00 -0.00000000000E+00 -0.30538657506E+03  0.30538657506E+03  0.00000000000E+00 0. -1.
         21    1    1    2  503  506  0.45753084578E+02 -0.19859343276E+01  0.44877367964E+01  0.46015524175E+02  0.00000000000E+00 0.  1.
         21    1    1    2  504  503 -0.54629409635E+02  0.80123809566E+02 -0.20734995763E+03  0.22890653592E+03  0.00000000000E+00 0. -1.
         21    1    1    2  505  502 -0.23212118565E+02 -0.12499750310E+03  0.59617974029E+02  0.14041894835E+03  0.00000000000E+00 0. -1.
         21    1    1    2  506  501  0.32088443622E+02  0.46859627861E+02  0.48087451042E+01  0.56996639961E+02  0.00000000000E+00 0. -1.
<scales pt_clust_3="44.46694" pt_clust_4="96.97524" pt_clust_5="100.39542" pt_clust_6="44.46694"></scales>
<clustering>
<clus scale="   44.467">  3  6 -1 -1</clus>
<clus scale="   96.975">  2  4  1 -1</clus>
<clus scale="  100.395">  1  5  2 -1</clus>
<clus scale="  100.395">  1  3  2 -1</clus>
</clustering>
</event>
<event>
 6    0  0.6207838E+002  0.1267969E+03  0.7546771E-02  0.1232287E+00
         21   -1    0    0  505  501  0.00000000000E+00  0.00000000000E+00  0.83317193282E+02  0.83317193282E+02  0.00000000000E+00 0. -1.
         21   -1    0    0  506  502 -0.00000000000E+00 -0.00000000000E+00 -0.12109917568E+04  0.12109917568E+04  0.00000000000E+00 0. -1.
         21    1    1    2  503  502 -0.53962218783E+02  0.22021059111E+01 -0.53081088412E+03  0.53355127685E+03  0.00000000000E+00 0. -1.
         21    1    1    2  504  501 -0.46190645217E+02  0.14638551314E+02  0.38838528120E+02  0.62099067277E+02  0.00000000000E+00 0. -1.
         21    1    1    2  505  503 -0.74117751794E+02 -0.61353489387E+02 -0.12865412180E+03  0.16065358647E+03  0.00000000000E+00 0. -1.
         21    1    1    2  506  504  0.17427061579E+03  0.44512832162E+02 -0.50704808571E+03  0.53800501948E+03  0.00000000000E+00 0. -1.
<scales pt_clust_3="55.95969" pt_clust_4="48.45475" pt_clust_5="14000.00000" pt_clust_6="126.79693"></scales>
<clustering>
<clus scale="   48.455">  1  4  2 -1</clus>
<clus scale="   55.960">  2  3  1 -1</clus>
<clus scale="  126.797">  2  6  1 -1</clus>
<clus scale="   48.455">  1  3  2 -1</clus>
</clustering>
</event>
<event>
 6    0  0.6207838E+002  0.1501596E+03  0.7546771E-02  0.1200277E+00
         21   -1    0    0  505  501  0.00000000000E+00  0.00000000000E+00  0.49905173149E+02  0.49905173149E+02  0.00000000000E+00 0. -1.
         21   -1    0    0  503  502 -0.00000000000E+00 -0.00000000000E+00 -0.85610274472E+03  0.85610274472E+03  0.00000000000E+00 0.  1.
         21    1    1    2  503  504 -0.19379068786E+02 -0.25427716440E+02 -0.31838427457E+03  0.31998541118E+03  0.00000000000E+00 0.  1.
         21    1    1    2  504  501 -0.13015660994E+03  0.22832918738E+02 -0.10062983909E+03  0.16609771162E+03  0.00000000000E+00 0. -1.
         21    1    1    2  505  506  0.76334800107E+02  0.31709332551E+02 -0.17355121216E+03  0.19223034807E+03  0.00000000000E+00 0.  1.
         21    1    1    2  506  502  0.73200878623E+02 -0.29114534849E+02 -0.21363224575E+03  0.22769444700E+03  0.00000000000E+00 0.  1.
<scales pt_clust_3="31.97057" pt_clust_4="135.97701" pt_clust_5="62.50131" pt_clust_6="62.50131"></scales>
<clustering>
<clus scale="   31.971">  2  3  1 -1</clus>
<clus scale="   62.501">  5  6 -1 -1</clus>
<clus scale="  135.977">  1  4  2 -1</clus>
<clus scale="  135.977">  1  3  2 -1</clus>
</clustering>
</event>
<event>
 6    0  0.6207838E+002  0.9501856E+02  0.7546771E-02  0.1291134E+00
         21   -1    0    0  506  501  0.00000000000E+00  0.00000000000E+00  0.92748320921E+03  0.92748320921E+03  0.00000000000E+00 0.  1.
         21   -1    0    0  504  502 -0.00000000000E+00 -0.00000000000E+00 -0.14770703759E+03  0.14770703759E+03  0.00000000000E+00 0.  1.
         21    1    1    2  503  505  0.30491812380E+02  0.73198466588E+02 -0.52781596735E+01  0.79470907272E+02  0.00000000000E+00 0.  1.
         21    1    1    2  504  503  0.34846308878E+02  0.26185510887E+02 -0.35959472163E+02  0.56506901004E+02  0.00000000000E+00 0.  1.
         21    1    1    2  505  501 -0.76373225314E+02 -0.22653149735E+02  0.85200920789E+03  0.85572526261E+03  0.00000000000E+00 0.  1.
         21    1    1    2  506  502  0.11035104056E+02 -0.76730827740E+02 -0.30995404423E+02  0.83487175917E+02  0.00000000000E+00 0.  1.
<scales pt_clust_3="38.11750" pt_clust_4="38.11750" pt_clust_5="79.90839" pt_clust_6="77.52028"></scales>
<clustering>
<clus scale="   38.117">  3  4 -1 -1</clus>
<clus scale="   77.520">  2  6  1 -1</clus>
<clus scale="   79.908">  1  5  2 -1</clus>
<clus scale="   79.908">  1  3  2 -1</clus>
</clustering>
</event>
<event>
 6    0  0.6207838E+002  0.2441205E+03  0.7546771E-02  0.1117078E+00
         21   -1    0    0  506  501  0.00000000000E+00  0.00000000000E+00  0.10564571836E+04  0.10564571836E+04  0.00000000000E+00 0. -1.
         21   -1    0    0  501  502 -0.00000000000E+00 -0.00000000000E+00 -0.21748819874E+03  0.21748819874E+03  0.00000000000E+00 0. -1.
         21    1    1    2  503  502  0.19927010479E+03 -0.14988057324E+03 -0.35288734376E+02  0.25182941780E+03  0.00000000000E+00 0. -1.
         21    1    1    2  504  505 -0.99895749214E+02  0.39150533730E+02  0.49384932626E+02  0.11811349022E+03  0.00000000000E+00 0. -1.
         21    1    1    2  505  503 -0.94894286571E+02  0.79880187955E+02  0.58756014039E+02  0.13725173674E+03  0.00000000000E+00 0. -1.
         21    1    1    2  506  504 -0.44800690006E+01  0.30849851551E+02  0.76611677257E+03  0.76675073757E+03  0.00000000000E+00 0. -1.
<scales pt_clust_3="241.22473" pt_clust_4="34.52360" pt_clust_5="34.52360" pt_clust_6="31.17346"></scales>
<clustering>
<clus scale="   31.173">  1  6  2 -1</clus>
<clus scale="   34.524">  4  5 -1 -1</clus>
<clus scale="  241.225">  2  3  1 -1</clus>
<clus scale="   31.173">  1  3  2 -1</clus>
</clustering>
</event>
<event>
 6    0  0.6207838E+002  0.6534791E+02  0.7546771E-02  0.1376668E+00
         21   -1    0    0  506  501  0.00000000000E+00  0.00000000000E+00  0.20402065599E+03  0.20402065599E+03  0.00000000000E+00 0. -1.
         21   -1    0    0  504  502 -0.00000000000E+00 -0.00000000000E+00 -0.12688635498E+03  0.12688635498E+03  0.00000000000E+00 0.  1.
         21    1    1    2  503  501  0.49428081707E+02 -0.58388896392E+02  0.80538481085E+02  0.11108035568E+03  0.00000000000E+00 0. -1.
         21    1    1    2  504  503  0.32622072101E+02 -0.37220166821E+02 -0.43897506268E+01  0.49687124257E+02  0.00000000000E+00 0. -1.
         21    1    1    2  505  502 -0.30417874251E+02  0.68667257253E+02 -0.52045453961E+02  0.91373784920E+02  0.00000000000E+00 0.  1.
         21    1    1    2  506  505 -0.51632279557E+02  0.26941805960E+02  0.53031024513E+02  0.78765746118E+02  0.00000000000E+00 0.  1.
<scales pt_clust_3="65.34791" pt_clust_4="49.49283" pt_clust_5="42.51457" pt_clust_6="14000.00000"></scales>
<clustering>
<clus scale="   49.493">  2  4  1 -1</clus>
<clus scale="   42.515">  2  5  1 -1</clus>
<clus scale="   65.348">  2  3  1 -1</clus>
<clus scale="   65.348">  1  3  2 -1</clus>
</clustering>
</event>
<event>
 6    0  0.6207838E+002  0.9950281E+02  0.7546771E-02  0.1281345E+00
         21   -1    0    0  503  501  0.00000000000E+00  0.00000000000E+00  0.42335609665E+03  0.42335609665E+03  0.00000000000E+00 0.  1.
         21   -1    0    0  505  502 -0.00000000000E+00 -0.00000000000E+00 -0.57579420659E+02  0.57579420659E+02  0.00000000000E+00 0. -1.
         21    1    1    2  503  504 -0.17130506153E+02 -0.48012029220E+02  0.26955244063E+02  0.57664498379E+02  0.00000000000E+00 0. -1.
         21    1    1    2  504  502  0.22806274831E+01 -0.44982541079E+02 -0.21644882422E+01  0.45092297268E+02  0.00000000000E+00 0. -1.
         21    1    1    2  505  506  0.70374393644E+02  0.79355164871E+02  0.23241627290E+03  0.25547430670E+03  0.00000000000E+00 0.  1.
         21    1    1    2  506  501 -0.55524514974E+02  0.13639405427E+02  0.10856964727E+03  0.12270441496E+03  0.00000000000E+00 0.  1.
<scales pt_clust_3="30.83153" pt_clust_4="30.83153" pt_clust_5="93.94115" pt_clust_6="57.17521"></scales>
<clustering>
<clus scale="   30.832">  3  4 -1 -1</clus>
<clus scale="   57.175">  1  6  2 -1</clus>
<clus scale="   93.941">  1  5  2 -1</clus>
<clus scale="   57.175">  1  3  2 -1</clus>
</clustering>
</event>
<event>
 6    0  0.6207838E+002  0.1814735E+03  0.7546771E-02  0.1166385E+00
         21   -1    0    0  504  501  0.00000000000E+00  0.00000000000E+00  0.19005137191E+03  0.19005137191E+03  0.00000000000E+00 0. -1.
         21   -1    0    0  506  502 -0.00000000000E+00 -0.00000000000E+00 -0.14395595168E+04  0.14395595168E+04  0.00000000000E+00 0. -1.
         21    1    1    2  503  505  0.21671954935E+02  0.44261640129E+02  0.66000063602E+02  0.82369744525E+02  0.00000000000E+00 0. -1.
         21    1    1    2  504  502 -0.14002115597E+02 -0.63355261395E+02 -0.10736188357E+03  0.12544529657E+03  0.00000000000E+00 0. -1.
         21    1    1    2  505  501  0.11505316306E+03  0.53829259055E+02  0.64716460512E+02  0.14255889913E+03  0.00000000000E+00 0. -1.
         21    1    1    2  506  503 -0.12272300239E+03 -0.34735637789E+02 -0.12728627854E+04  0.12792369485E+04  0.00000000000E+00 0. -1.
<scales pt_clust_3="44.87558" pt_clust_4="64.88412" pt_clust_5="44.87558" pt_clust_6="166.55963"></scales>
<clustering>
<clus scale="   44.876">  3  5 -1 -1</clus>
<clus scale="   64.884">  2  4  1 -1</clus>
<clus scale="  166.560">  2  6  1 -1</clus>
<clus scale="  181.473">  1  3  2 -1</clus>
</clustering>
</event>
<event>
 6    0  0.6207838E+002  0.2105238E+03  0.7546771E-02  0.1141152E+00
         21   -1    0    0  504  501  0.00000000000E+00  0.00000000000E+00  0.32808171979E+03  0.32808171979E+03  0.00000000000E+00 0. -1.
         21   -1    0    0  505  502 -0.00000000000E+00 -0.00000000000E+00 -0.19920941649E+03  0.19920941649E+03  0.00000000000E+00 0. -1.
         21    1    1    2  503  501 -0.79811396152E+02 -0.36261599291E+02  0.89058334705E+02  0.12496459306E+03  0.00000000000E+00 0. -1.
         21    1    1    2  504  506  0.84566458235E+02  0.16070527716E+03  0.51494609306E+02  0.18875742834E+03  0.00000000000E+00 0. -1.
         21    1    1    2  505  503 -0.40113644186E+02 -0.11699076403E+03  0.56833097324E+02  0.13611004470E+03  0.00000000000E+00 0. -1.
         21    1    1    2  506  502  0.35358582103E+02 -0.74529138451E+01 -0.68513738038E+02  0.77459070179E+02  0.00000000000E+00 0. -1.
<scales pt_clust_3="78.29490" pt_clust_4="187.91731" pt_clust_5="78.29490" pt_clust_6="36.13551"></scales>
<clustering>
<clus scale="   36.136">  2  6  1 -1</clus>
<clus scale="   78.295">  3  5 -1 -1</clus>
<clus scale="  187.917">  2  4  1 -1</clus>
<clus scale="  210.524">  1  3  2 -1</clus>
</clustering>
</event>
<event>
 6    0  0.6207838E+002  0.8878032E+02  0.7546771E-02  0.1305832E+00
         21   -1    0    0  503  501  0.00000000000E+00  0.00000000000E+00  0.92791175370E+02  0.92791175370E+02  0.00000000000E+00 0. -1.
         21   -1    0    0  505  502 -0.00000000000E+00 -0.00000000000E+00 -0.75591198027E+03  0.75591198027E+03  0.00000000000E+00 0. -1.
         21    1    1    2  503  502 -0.66257083849E+02 -0.35609976725E+02 -0.59296067495E+02  0.95781497289E+02  0.00000000000E+00 0. -1.
         21    1    1    2  504  501  0.76191087457E+02 -0.41895036224E+02  0.19842100879E+02  0.89185115548E+02  0.00000000000E+00 0. -1.
         21    1    1    2  505  506  0.46098094831E+02 -0.15739341855E+02 -0.48524314293E+03  0.48768193425E+03  0.00000000000E+00 0. -1.
         21    1    1    2  506  504 -0.56032098439E+02  0.93244354804E+02 -0.13842369535E+03  0.17605460855E+03  0.00000000000E+00 0. -1.
<scales pt_clust_3="66.47754" pt_clust_4="14000.00000" pt_clust_5="48.71100" pt_clust_6="88.78032"></scales>
<clustering>
<clus scale="   48.711">  2  5  1 -1</clus>
<clus scale="   66.478">  2  3  1 -1</clus>
<clus scale="   88.780">  2  6  1 -1</clus>
<clus scale="   88.780">  1  3  2 -1</clus>
</clustering>
</event>
<event>
 6    0  0.6207838E+002  0.1282982E+03  0.7546771E-02  0.1230003E+00
         21   -1    0    0  503  501  0.00000000000E+00  0.00000000000E+00  0.29420208302E+03  0.29420208302E+03  0.00000000000E+00 0. -1.
         21   -1    0    0  504  502 -0.00000000000E+00 -0.00000000000E+00 -0.41408335065E+03  0.41408335065E+03  0.00000000000E+00 0. -1.
         21    1    1    2  503  506  0.94429368208E+01  0.38824165223E+02  0.18480488572E+03  0.18907493395E+03  0.00000000000E+00 0. -1.
         21    1    1    2  504  505  0.42849266616E+02 -0.38996239087E+02 -0.24327739622E+03  0.25008130243E+03  0.00000000000E+00 0. -1.
         21    1    1    2  505  501 -0.11693422530E+03 -0.90470669343E+02 -0.54542128116E+02  0.15758616309E+03  0.00000000000E+00 0.  1.
         21    1    1    2  506  502  0.64642021860E+02  0.90642743207E+02 -0.68666290150E+01  0.11154303421E+03  0.00000000000E+00 0.  1.
<scales pt_clust_3="39.95604" pt_clust_4="57.34110" pt_clust_5="14000.00000" pt_clust_6="128.29817"></scales>
<clustering>
<clus scale="   39.956">  1  3  2 -1</clus>
<clus scale="   57.341">  2  4  1 -1</clus>
<clus scale="  128.298">  1  6  2 -1</clus>
<clus scale="   39.956">  1  3  2 -1</clus>
</clustering>
</event>
<event>
 6    0  0.6207838E+002  0.1226334E+03  0.7546771E-02  0.1238815E+00
         21   -1    0    0  505  501  0.00000000000E+00  0.00000000000E+00  0.11058038439E+04  0.11058038439E+04  0.00000000000E+00 0.  1.
         21   -1    0    0  503  502 -0.00000000000E+00 -0.00000000000E+00 -0.47331913592E+02  0.47331913592E+02  0.00000000000E+00 0.  1.
         21    1    1    2  503  506 -0.34463172084E+02  0.32883110982E+02  0.70357914228E+02  0.84966142153E+02  0.00000000000E+00 0. -1.
         21    1    1    2  504  502  0.13907203323E+03  0.97825401972E+02  0.30295291429E+03  0.34740654567E+03  0.00000000000E+00 0.  1.
         21    1    1    2  505  504 -0.29598099073E+02 -0.75194085798E+02  0.55359430207E+03  0.55946121340E+03  0.00000000000E+00 0.  1.
         21    1    1    2  506  501 -0.75010762071E+02 -0.55514427156E+02  0.13156679972E+03  0.16130185628E+03  0.00000000000E+00 0.  1.
<scales pt_clust_3="47.63412" pt_clust_4="122.63339" pt_clust_5="79.55803" pt_clust_6="14000.00000"></scales>
<clustering>
<clus scale="   47.634">  2  3  1 -1</clus>
<clus scale="   79.558">  1  5  2 -1</clus>
<clus scale="  122.633">  1  4  2 -1</clus>
<clus scale="   79.558">  1  3  2 -1</clus>
</clustering>
</event>
<event>
 6    0  0.6207838E+002  0.2440724E+03  0.7546771E-02  0.1117109E+00
         21   -1    0    0  506  501  0.00000000000E+00  0.00000000000E+00  0.11695886458E+03  0.11695886458E+03  0.00000000000E+00 0.  1.
         21   -1    0    0  503  502 -0.00000000000E+00 -0.00000000000E+00 -0.59917518355E+03  0.59917518355E+03  0.00000000000E+00 0.  1.
         21    1    1    2  503  505  0.24903468629E+02  0.16471197912E+03 -0.32883734507E+03  0.36862476629E+03  0.00000000000E+00 0.  1.
         21    1    1    2  504  502 -0.17119829348E+02 -0.46030793645E+02 -0.59666096781E+02  0.77278493940E+02  0.00000000000E+00 0.  1.
         21    1    1    2  505  501  0.58031071742E+02  0.38610907117E+02 -0.68757240728E+02  0.97907944460E+02  0.00000000000E+00 0.  1.
         21    1    1    2  506  504 -0.65814711022E+02 -0.15729209259E+03 -0.24955636396E+02  0.17232284343E+03  0.00000000000E+00 0.  1.
<scales pt_clust_3="68.92263" pt_clust_4="44.65044" pt_clust_5="68.92263" pt_clust_6="234.81906"></scales>
<clustering>
<clus scale="   44.650">  4  6 -1 -1</clus>
<clus scale="   68.923">  3  5 -1 -1</clus>
<clus scale="  234.819">  1  4  2 -1</clus>
<clus scale="  234.819">  1  3  2 -1</clus>
</clustering>
</event>
<event>
 6    0  0.6207838E+002  0.1046547E+03  0.7546771E-02  0.1270801E+00
         21   -1    0    0  506  501  0.00000000000E+00  0.00000000000E+00  0.75683734693E+03  0.75683734693E+03  0.00000000000E+00 0.  1.
         21   -1    0    0  505  502 -0.00000000000E+00 -0.00000000000E+00 -0.48115775291E+03  0.48115775291E+03  0.00000000000E+00 0. -1.
         21    1    1    2  503  502 -0.98711406764E+02  0.34279433274E+02 -0.45961415449E+03  0.47134296683E+03  0.00000000000E+00 0. -1.
         21    1    1    2  504  501  0.32712436469E+02 -0.84247438322E+00  0.35000077197E+03  0.35152717340E+03  0.00000000000E+00 0.  1.
         21    1    1    2  505  504  0.99938094606E+02 -0.55023658438E+02  0.27490868547E+03  0.29764074165E+03  0.00000000000E+00 0.  1.
         21    1    1    2  506  503 -0.33939124312E+02  0.21586699547E+02  0.11038429107E+03  0.11748421797E+03  0.00000000000E+00 0.  1.
<scales pt_clust_3="104.65470" pt_clust_4="32.72328" pt_clust_5="14000.00000" pt_clust_6="32.69456"></scales>
<clustering>
<clus scale="   32.723">  1  4  2 -1</clus>
<clus scale="   32.695">  1  6  2 -1</clus>
<clus scale="  104.655">  2  3  1 -1</clus>
<clus scale="   32.723">  1  3  2 -1</clus>
</clustering>
</event>
<event>
 6    0  0.6207838E+002  0.1349559E+03  0.7546771E-02  0.1220282E+00
         21   -1    0    0  506  501  0.00000000000E+00  0.00000000000E+00  0.97729927266E+03  0.97729927266E+03  0.00000000000E+00 0.  1.
         21   -1    0    0  505  502 -0.00000000000E+00 -0.00000000000E+00 -0.85898248685E+02  0.85898248685E+02  0.00000000000E+00 0. -1.
         21    1    1    2  503  504 -0.34217476140E+02  0.41265857058E+02  0.28905104776E+03  0.29397995654E+03  0.00000000000E+00 0.  1.
         21    1    1    2  504  502  0.69451912064E+02  0.28146825917E+02 -0.34805080995E+02  0.82626905797E+02  0.00000000000E+00 0. -1.
         21    1    1    2  505  501  0.53182329580E+02 -0.93105744688E+02  0.11804961723E+03  0.15947649357E+03  0.00000000000E+00 0.  1.
         21    1    1    2  506  503 -0.88416765504E+02  0.23693061713E+02  0.51910543997E+03  0.52711416543E+03  0.00000000000E+00 0.  1.
<scales pt_clust_3="32.64596" pt_clust_4="74.93872" pt_clust_5="128.03622" pt_clust_6="32.64596"></scales>
<clustering>
<clus scale="   32.646">  3  6 -1 -1</clus>
<clus scale="   74.939">  2  4  1 -1</clus>
<clus scale="  128.036">  2  5  1 -1</clus>
<clus scale="  134.956">  1  3  2 -1</clus>
</clustering>
</event>
<event>
 6    0  0.6207838E+002  0.1558140E+03  0.7546771E-02  0.1193505E+00
         21   -1    0    0  503  501  0.00000000000E+00  0.00000000000E+00  0.10053297391E+04  0.10053297391E+04  0.00000000000E+00 0.  1.
         21   -1    0    0  506  502 -0.00000000000E+00 -0.00000000000E+00 -0.12951008757E+04  0.12951008757E+04  0.00000000000E+00 0.  1.
         21    1    1    2  503  504  0.10414068517E+03  0.10932668714E+02  0.14203881227E+03  0.17646481163E+03  0.00000000000E+00 0.  1.
         21    1    1    2  504  502  0.11798340942E+03 -0.22860819008E+02  0.11180962226E+03  0.16414656126E+03  0.00000000000E+00 0.  1.
         21    1    1    2  505  501 -0.11597405582E+03  0.80755636854E+02  0.69780179857E+03  0.71196826094E+03  0.00000000000E+00 0.  1.
         21    1    1    2  506  505 -0.10615003877E+03 -0.68827486559E+02 -0.12414213696E+04  0.12478509809E+04  0.00000000000E+00 0.  1.
<scales pt_clust_3="42.73180" pt_clust_4="42.73180" pt_clust_5="148.93729" pt_clust_6="126.51108"></scales>
<clustering>
<clus scale="   42.732">  3  4 -1 -1</clus>
<clus scale="  126.511">  2  6  1 -1</clus>
<clus scale="  148.937">  1  5  2 -1</clus>
<clus scale="  148.937">  1  3  2 -1</clus>
</clustering>
</event>
<event>
 6    0  0.6207838E+002  0.1022409E+03  0.7546771E-02  0.1275653E+00
         21   -1    0    0  506  501  0.00000000000E+00  0.00000000000E+00  0.41677244635E+03  0.41677244635E+03  0.00000000000E+00 0. -1.
         21   -1    0    0  504  502 -0.00000000000E+00 -0.00000000000E+00 -0.25845364249E+03  0.25845364249E+03  0.00000000000E+00 0.  1.
         21    1    1    2  503  502  0.11212636476E+02  0.65812930481E+02  0.17871340643E+03  0.19077616903E+03  0.00000000000E+00 0. -1.
         21    1    1    2  504  505  0.15405792524E+01 -0.10461309663E+03 -0.21513237255E+03  0.23922418583E+03  0.00000000000E+00 0.  1.
         21    1    1    2  505  501  0.34658576550E+02  0.37132157462E+02  0.66263076610E+01  0.51224232542E+02  0.00000000000E+00 0. -1.
         21    1    1    2  506  503 -0.47411792278E+02  0.16680086870E+01  0.18811146233E+03  0.19400150143E+03  0.00000000000E+00 0. -1.
<scales pt_clust_3="102.24089" pt_clust_4="14000.00000" pt_clust_5="47.02865" pt_clust_6="47.44112"></scales>
<clustering>
<clus scale="   47.441">  1  6  2 -1</clus>
<clus scale="   47.029">  1  5  2 -1</clus>
<clus scale="  102.241">  1  3  2 -1</clus>
<clus scale="   47.441">  1  3  2 -1</clus>
</clustering>
</event>
<event>
 6    0  0.6207838E+002  0.8783240E+02  0.7546771E-02  0.1308187E+00
         21   -1    0    0  504  501  0.00000000000E+00  0.00000000000E+00  0.80293573270E+02  0.80293573270E+02  0.00000000000E+00 0.  1.
         21   -1    0    0  506  502 -0.00000000000E+00 -0.00000000000E+00 -0.66928321479E+03  0.66928321479E+03  0.00000000000E+00 0.  1.
         21    1    1    2  503  501 -0.71658411562E+02 -0.43464827849E+02  0.18827958697E+02  0.85898843044E+02  0.00000000000E+00 0.  1.
         21    1    1    2  504  505  0.11210671484E+03  0.14099791305E+02 -0.12486880507E+03  0.16840112264E+03  0.00000000000E+00 0.  1.
         21    1    1    2  505  502 -0.39598895618E+02 -0.47356844730E+01 -0.43275711575E+03  0.43459086561E+03  0.00000000000E+00 0.  1.
         21    1    1    2  506  503 -0.84940766218E+00  0.34100721017E+02 -0.50191679400E+02  0.60685956764E+02  0.00000000000E+00 0.  1.
<scales pt_clust_3="87.83240" pt_clust_4="14000.00000" pt_clust_5="44.61633" pt_clust_6="34.11130"></scales>
<clustering>
<clus scale="   34.111">  2  6  1 -1</clus>
<clus scale="   44.616">  2  5  1 -1</clus>
<clus scale="   87.832">  1  3  2 -1</clus>
<clus scale="   87.832">  1  3  2 -1</clus>
</clustering>
</event>
<event>
 6    0  0.6207838E+002  0.1367212E+03  0.7546771E-02  0.1217810E+00
         21   -1    0    0  506  501  0.00000000000E+00  0.00000000000E+00  0.19247869791E+03  0.19247869791E+03  0.00000000000E+00 0. -1.
         21   -1    0    0  504  502 -0.00000000000E+00 -0.00000000000E+00 -0.17270832277E+03  0.17270832277E+03  0.00000000000E+00 0. -1.
         21    1    1    2  503  502 -0.39196198128E+02 -0.10432522038E+02 -0.65979103032E+02  0.77449477084E+02  0.00000000000E+00 0. -1.
         21    1    1    2  504  505  0.67773486715E+02  0.23764810126E+00  0.70287037911E+02  0.97640000391E+02  0.00000000000E+00 0. -1.
         21    1    1    2  505  501  0.71388633011E+02 -0.28860521254E+02  0.28236600635E+02  0.82015682803E+02  0.00000000000E+00 0. -1.
         21    1    1    2  506  503 -0.99965921598E+02  0.39055395190E+02 -0.12774160373E+02  0.10808186040E+03  0.00000000000E+00 0. -1.
<scales pt_clust_3="40.56081" pt_clust_4="46.56976" pt_clust_5="46.56976" pt_clust_6="127.70585"></scales>
<clustering>
<clus scale="   40.561">  2  3  1 -1</clus>
<clus scale="   46.570">  4  5 -1 -1</clus>
<clus scale="  127.706">  2  6  1 -1</clus>
<clus scale="  136.721">  1  3  2 -1</clus>
</clustering>
</event>
<event>
 6    0  0.6207838E+002  0.1052901E+03  0.7546771E-02  0.1269549E+00
         21   -1    0    0  503  501  0.00000000000E+00  0.00000000000E+00  0.40270960495E+03  0.40270960495E+03  0.00000000000E+00 0. -1.
         21   -1    0    0  501  502 -0.00000000000E+00 -0.00000000000E+00 -0.61412747186E+02  0.61412747186E+02  0.00000000000E+00 0. -1.
         21    1    1    2  503  505  0.16260497505E+02  0.57673954872E+02  0.17314566769E+03  0.18322148097E+03  0.00000000000E+00 0. -1.
         21    1    1    2  504  506 -0.27023041391E+02  0.26921327854E+02  0.90179064741E+02  0.97914587151E+02  0.00000000000E+00 0. -1.
         21    1    1    2  505  504 -0.44639385685E+02  0.12234725437E+02  0.49670070629E+02  0.67893145289E+02  0.00000000000E+00 0. -1.
         21    1    1    2  506  502  0.55401929572E+02 -0.96830008163E+02  0.28302054706E+02  0.11509313873E+03  0.00000000000E+00 0. -1.
<scales pt_clust_3="59.92236" pt_clust_4="32.29699" pt_clust_5="32.29699" pt_clust_6="99.09736"></scales>
<clustering>
<clus scale="   32.297">  4  5 -1 -1</clus>
<clus scale="   59.922">  1  3  2 -1</clus>
<clus scale="   99.097">  2  6  1 -1</clus>
<clus scale="   59.922">  1  3  2 -1</clus>
</clustering>
</event>
<event>
 6    0  0.6207838E+002  0.6918486E+02  0.7546771E-02  0.1362887E+00
         21   -1    0    0  503  501  0.00000000000E+00  0.00000000000E+00  0.57393539423E+03  0.57393539423E+03  0.00000000000E+00 0. -1.
         21   -1    0    0  506  502 -0.00000000000E+00 -0.00000000000E+00 -0.19647465515E+03  0.19647465515E+03  0.00000000000E+00 0.  1.
         21    1    1    2  503  504  0.61642546181E+02 -0.23171501235E+02  0.40906247222E+03  0.41432937157E+03  0.00000000000E+00 0. -1.
         21    1    1    2  504  505  0.26020583138E+02 -0.32563625880E+02  0.41395244303E+02  0.58745440063E+02  0.00000000000E+00 0.  1.
         21    1    1    2  505  502  0.58209256303E+00 -0.38672659441E+02 -0.14453948092E+03  0.14962478059E+03  0.00000000000E+00 0.  1.
         21    1    1    2  506  501 -0.88245221881E+02  0.94407786556E+02  0.71542503488E+02  0.14771045715E+03  0.00000000000E+00 0.  1.
<scales pt_clust_3="14000.00000" pt_clust_4="47.23654" pt_clust_5="38.67704" pt_clust_6="69.18486"></scales>
<clustering>
<clus scale="   38.677">  2  5  1 -1</clus>
<clus scale="   47.237">  2  4  1 -1</clus>
<clus scale="   69.185">  2  6  1 -1</clus>
<clus scale="   69.185">  1  3  2 -1</clus>
</clustering>
</event>
<event>
 6    0  0.6207838E+002  0.8500367E+02  0.7546771E-02  0.1315423E+00
         21   -1    0    0  504  501  0.00000000000E+00  0.00000000000E+00  0.32734124576E+03  0.32734124576E+03  0.00000000000E+00 0.  1.
         21   -1    0    0  506  502 -0.00000000000E+00 -0.00000000000E+00 -0.98368187681E+02  0.98368187681E+02  0.00000000000E+00 0.  1.
         21    1    1    2  503  505  0.66307524438E+02 -0.20588528403E+02  0.99648259260E+02  0.12145102253E+03  0.00000000000E+00 0.  1.
         21    1    1    2  504  503 -0.12038246887E+02 -0.38787537507E+02  0.10740855576E+03  0.11483026737E+03  0.00000000000E+00 0.  1.
         21    1    1    2  505  502 -0.10210629341E+03  0.62891986396E+02  0.54209211331E+02  0.13160446687E+03  0.00000000000E+00 0.  1.
         21    1    1    2  506  501  0.47837015861E+02 -0.35159204864E+01 -0.32292968277E+02  0.57823676669E+02  0.00000000000E+00 0.  1.
<scales pt_clust_3="14000.00000" pt_clust_4="40.61271" pt_clust_5="85.00367" pt_clust_6="47.48259"></scales>
<clustering>
<clus scale="   40.613">  1  4  2 -1</clus>
<clus scale="   47.483">  2  6  1 -1</clus>
<clus scale="   85.004">  2  5  1 -1</clus>
<clus scale="   40.613">  1  3  2 -1</clus>
</clustering>
</event>
<event>
 6    0  0.6207838E+002  0.1093499E+03  0.7546771E-02  0.1261779E+00
         21   -1    0    0  503  501  0.00000000000E+00  0.00000000000E+00  0.66277174180E+03  0.66277174180E+03  0.00000000000E+00 0.  1.
         21   -1    0    0  506  502 -0.00000000000E+00 -0.00000000000E+00 -0.11896314016E+04  0.11896314016E+04  0.00000000000E+00 0. -1.
         21    1    1    2  503  504 -0.10438340357E+03 -0.25584754405E+02  0.59006582169E+03  0.59977341432E+03  0.00000000000E+00 0.  1.
         21    1    1    2  504  502  0.12566910743E+01 -0.59025234194E+02 -0.18641153962E+02  0.61911631905E+02  0.00000000000E+00 0. -1.
         21    1    1    2  505  501  0.16941314475E+03  0.62395240794E+02 -0.13633725495E+03  0.22623400888E+03  0.00000000000E+00 0.  1.
         21    1    1    2  506  505 -0.66286432257E+02  0.22214747804E+02 -0.96194707258E+03  0.96448408830E+03  0.00000000000E+00 0. -1.
<scales pt_clust_3="14000.00000" pt_clust_4="59.03861" pt_clust_5="109.34989" pt_clust_6="70.69661"></scales>
<clustering>
<clus scale="   59.039">  2  4  1 -1</clus>
<clus scale="   70.697">  2  6  1 -1</clus>
<clus scale="  109.350">  2  5  1 -1</clus>
<clus scale="  109.350">  1  3  2 -1</clus>
</clustering>
</event>
<event>
 6    0  0.6207838E+002  0.1154449E+03  0.7546771E-02  0.1250806E+00
         21   -1    0    0  504  501  0.00000000000E+00  0.00000000000E+00  0.97837951432E+03  0.97837951432E+03  0.00000000000E+00 0. -1.
         21   -1    0    0  505  502 -0.00000000000E+00 -0.00000000000E+00 -0.19695893672E+03  0.19695893672E+03  0.00000000000E+00 0. -1.
         21    1    1    2  503  501  0.46319437957E+02 -0.51497020189E+01  0.51312480278E+03  0.51523690958E+03  0.00000000000E+00 0. -1.
         21    1    1    2  504  502 -0.12906441169E+03 -0.12668663212E+03  0.14712899495E+03  0.23313958539E+03  0.00000000000E+00 0. -1.
         21    1    1    2  505  506  0.75542212357E+02  0.78131544702E+02 -0.13032837591E+03  0.16969575626E+03  0.00000000000E+00 0. -1.
         21    1    1    2  506  503  0.72027613752E+01  0.53704789439E+02  0.25149515578E+03  0.25726619980E+03  0.00000000000E+00 0. -1.
<scales pt_clust_3="46.60483" pt_clust_4="115.44491" pt_clust_5="14000.00000" pt_clust_6="60.42258"></scales>
<clustering>
<clus scale="   46.605">  1  3  2 -1</clus>
<clus scale="   60.423">  1  6  2 -1</clus>
<clus scale="  115.445">  1  4  2 -1</clus>
<clus scale="   46.605">  1  3  2 -1</clus>
</clustering>
</event>
<event>
 6    0  0.6207838E+002  0.6926851E+02  0.7546771E-02  0.1362598E+00
         21   -1    0    0  505  501  0.00000000000E+00  0.00000000000E+00  0.43562592951E+03  0.43562592951E+03  0.00000000000E+00 0.  1.
         21   -1    0    0  506  502 -0.00000000000E+00 -0.00000000000E+00 -0.17517576278E+03  0.17517576278E+03  0.00000000000E+00 0.  1.
         21    1    1    2  503  502  0.19972873116E+01 -0.58004652134E+02 -0.16345260488E+02  0.60296735950E+02  0.00000000000E+00 0.  1.
         21    1    1    2  504  501 -0.87907473210E+02  0.58392825475E+02 -0.17300325547E+02  0.10694272849E+03  0.00000000000E+00 0.  1.
         21    1    1    2  505  503  0.34526945854E+02  0.92952962916E+01  0.35868409845E+03  0.36046191894E+03  0.00000000000E+00 0.  1.
         21    1    1    2  506  504  0.51383240044E+02 -0.96834696327E+01 -0.64588345693E+02  0.83100308909E+02  0.00000000000E+00 0.  1.
<scales pt_clust_3="69.26851" pt_clust_4="14000.00000" pt_clust_5="35.75629" pt_clust_6="56.23938"></scales>
<clustering>
<clus scale="   35.756">  1  5  2 -1</clus>
<clus scale="   56.239">  2  6  1 -1</clus>
<clus scale="   69.269">  1  3  2 -1</clus>
<clus scale="   35.756">  1  3  2 -1</clus>
</clustering>
</event>
<event>
 6    0  0.6207838E+002  0.2085127E+03  0.7546771E-02  0.1142749E+00
         21   -1    0    0  503  501  0.00000000000E+00  0.00000000000E+00  0.61987543148E+03  0.61987543148E+03  0.00000000000E+00 0.  1.
         21   -1    0    0  506  502 -0.00000000000E+00 -0.00000000000E+00 -0.37006321205E+03  0.37006321205E+03  0.00000000000E+00 0.  1.
         21    1    1    2  503  505  0.19024457256E+02  0.41366653859E+02  0.25710695453E+03  0.26110747996E+03  0.00000000000E+00 0.  1.
         21    1    1    2  504  502  0.38631156111E+02 -0.20018688294E+03  0.16846583406E+03  0.26447663710E+03  0.00000000000E+00 0.  1.
         21    1    1    2  505  504  0.62880915594E+02 -0.15317281917E+02  0.98488441847E+02  0.11784991238E+03  0.00000000000E+00 0. -1.
         21    1    1    2  506  501 -0.12053652896E+03  0.17413751100E+03 -0.27424901100E+03  0.34650461409E+03  0.00000000000E+00 0.  1.
<scales pt_clust_3="45.53164" pt_clust_4="14000.00000" pt_clust_5="68.64691" pt_clust_6="208.51274"></scales>
<clustering>
<clus scale="   45.532">  1  3  2 -1</clus>
<clus scale="   68.647">  1  5  2 -1</clus>
<clus scale="  208.513">  2  6  1 -1</clus>
<clus scale="   45.532">  1  3  2 -1</clus>
</clustering>
</event>
<event>
 6    0  0.6207838E+002  0.1158717E+03  0.7546771E-02  0.1250067E+00
         21   -1    0    0  504  501  0.00000000000E+00  0.00000000000E+00  0.61639795069E+03  0.61639795069E+03  0.00000000000E+00 0.  1.
         21   -1    0    0  501  502 -0.00000000000E+00 -0.00000000000E+00 -0.51061272443E+02  0.51061272443E+02  0.00000000000E+00 0.  1.
         21    1    1    2  503  505  0.10157922300E+02  0.55039170619E+02  0.17205486166E+03  0.18092918258E+03  0.00000000000E+00 0.  1.
         21    1    1    2  504  503 -0.52892071130E+02 -0.39772094153E+02  0.25862039397E+03  0.26695298994E+03  0.00000000000E+00 0.  1.
         21    1    1    2  505  506  0.32793776338E+02  0.73179823125E+02  0.88093969774E+02  0.11912709931E+03  0.00000000000E+00 0.  1.
         21    1    1    2  506  502  0.99403724919E+01 -0.88446899591E+02  0.46567452842E+02  0.10044995130E+03  0.00000000000E+00 0.  1.
<scales pt_clust_3="53.30642" pt_clust_4="66.17696" pt_clust_5="53.30642" pt_clust_6="96.72047"></scales>
<clustering>
<clus scale="   53.306">  3  5 -1 -1</clus>
<clus scale="   66.177">  1  4  2 -1</clus>
<clus scale="   96.720">  2  6  1 -1</clus>
<clus scale="   66.177">  1  3  2 -1</clus>
</clustering>
</event>
<event>
 6    0  0.6207838E+002  0.6297867E+02  0.7546771E-02  0.1385740E+00
         21   -1    0    0  503  501  0.00000000000E+00  0.00000000000E+00  0.77064946527E+03  0.77064946527E+03  0.00000000000E+00 0. -1.
         21   -1    0    0  505  502 -0.00000000000E+00 -0.00000000000E+00 -0.23729062281E+03  0.23729062281E+03  0.00000000000E+00 0.  1.
         21    1    1    2  503  504  0.16745221888E+01  0.55064610380E+02  0.68038239852E+03  0.68260905616E+03  0.00000000000E+00 0. -1.
         21    1    1    2  504  506 -0.80547911511E+02 -0.37960578512E+02  0.20817695776E+02  0.91445874851E+02  0.00000000000E+00 0.  1.
         21    1    1    2  505  501  0.42186945024E+02 -0.53754613187E+02 -0.11660112821E+02  0.69319946627E+02  0.00000000000E+00 0.  1.
         21    1    1    2  506  502  0.36686444298E+02  0.36650581319E+02 -0.15618113901E+03  0.16456521045E+03  0.00000000000E+00 0.  1.
<scales pt_clust_3="55.63883" pt_clust_4="62.97867" pt_clust_5="14000.00000" pt_clust_6="51.85711"></scales>
<clustering>
<clus scale="   51.857">  2  6  1 -1</clus>
<clus scale="   55.639">  1  3  2 -1</clus>
<clus scale="   62.979">  1  4  2 -1</clus>
<clus scale="   55.639">  1  3  2 -1</clus>
</clustering>
</event>
<event>
 6    0  0.6207838E+002  0.1683098E+03  0.7546771E-02  0.1179622E+00
         21   -1    0    0  502  501  0.00000000000E+00  0.00000000000E+00  0.10351576527E+03  0.10351576527E+03  0.00000000000E+00 0. -1.
         21   -1    0    0  505  502 -0.00000000000E+00 -0.00000000000E+00 -0.26012232550E+04  0.26012232550E+04  0.00000000000E+00 0. -1.
         21    1    1    2  503  506  0.33205956513E+02  0.79584697432E+02 -0.37452907754E+02  0.94016381086E+02  0.00000000000E+00 0. -1.
         21    1    1    2  504  501 -0.10456450264E+02  0.36280001722E+02  0.34513421669E+02  0.51154199753E+02  0.00000000000E+00 0. -1.
         21    1    1    2  505  503 -0.41339359332E+02 -0.15898557217E+03 -0.25059252513E+04  0.25113037888E+04  0.00000000000E+00 0. -1.
         21    1    1    2  506  504  0.18589853082E+02  0.43120873011E+02  0.11157247599E+02  0.48264650634E+02  0.00000000000E+00 0. -1.
<scales pt_clust_3="31.42003" pt_clust_4="37.75680" pt_clust_5="162.83495" pt_clust_6="31.42003"></scales>
<clustering>
<clus scale="   31.420">  3  6 -1 -1</clus>
<clus scale="   37.757">  1  4  2 -1</clus>
<clus scale="  162.835">  2  5  1 -1</clus>
<clus scale="   37.757">  1  3  2 -1</clus>
</clustering>
</event>
<event>
 6    0  0.6207838E+002  0.1037917E+03  0.7546771E-02  0.1272519E+00
         21   -1    0    0  502  501  0.00000000000E+00  0.00000000000E+00  0.59544513902E+03  0.59544513902E+03  0.00000000000E+00 0.  1.
         21   -1    0    0  506  502 -0.00000000000E+00 -0.00000000000E+00 -0.11746399136E+03  0.11746399136E+03  0.00000000000E+00 0. -1.
         21    1    1    2  503  504  0.65692186589E+02 -0.55664975864E+02  0.17687361039E+03  0.19671890344E+03  0.00000000000E+00 0.  1.
         21    1    1    2  504  501  0.43389662183E+02 -0.35057271922E+02  0.33388973430E+03  0.33851739951E+03  0.00000000000E+00 0.  1.
         21    1    1    2  505  503 -0.88182326005E+02  0.20654560784E+02  0.12861491157E+02  0.91477600841E+02  0.00000000000E+00 0. -1.
         21    1    1    2  506  505 -0.20899522767E+02  0.70067687002E+02 -0.45643688192E+02  0.86195226581E+02  0.00000000000E+00 0. -1.
<scales pt_clust_3="103.79169" pt_clust_4="55.78239" pt_clust_5="14000.00000" pt_clust_6="69.56450"></scales>
<clustering>
<clus scale="   55.782">  1  4  2 -1</clus>
<clus scale="   69.565">  2  6  1 -1</clus>
<clus scale="  103.792">  1  3  2 -1</clus>
<clus scale="   55.782">  1  3  2 -1</clus>
</clustering>
</event>
<event>
 6    0  0.6207838E+002  0.2465839E+03  0.7546771E-02  0.1115483E+00
         21   -1    0    0  506  501  0.00000000000E+00  0.00000000000E+00  0.39729662178E+03  0.39729662178E+03  0.00000000000E+00 0. -1.
         21   -1    0    0  505  502 -0.00000000000E+00 -0.00000000000E+00 -0.18291290547E+03  0.18291290547E+03  0.00000000000E+00 0.  1.
         21    1    1    2  503  501  0.60851412588E+02  0.22399833851E+02  0.19071338791E+02  0.67589665880E+02  0.00000000000E+00 0. -1.
         21    1    1    2  504  503  0.16383567393E+03 -0.55224322012E+02  0.14748016269E+03  0.22724931723E+03  0.00000000000E+00 0. -1.
         21    1    1    2  505  504  0.15135217247E+01 -0.40216820445E+02 -0.83912736992E+01  0.41110787745E+02  0.00000000000E+00 0.  1.
         21    1    1    2  506  502 -0.22620060825E+03  0.73041308606E+02  0.56223488526E+02  0.24425975640E+03  0.00000000000E+00 0.  1.
<scales pt_clust_3="52.23031" pt_clust_4="52.23031" pt_clust_5="40.24529" pt_clust_6="230.59644"></scales>
<clustering>
<clus scale="   40.245">  2  5  1 -1</clus>
<clus scale="   52.230">  3  4 -1 -1</clus>
<clus scale="  230.596">  2  6  1 -1</clus>
<clus scale="  246.584">  1  3  2 -1</clus>
</clustering>
</event>
<event>
 6    0  0.6207838E+002  0.1335844E+03  0.7546771E-02  0.1222232E+00
         21   -1    0    0  505  501  0.00000000000E+00  0.00000000000E+00  0.10325571675E+04  0.10325571675E+04  0.00000000000E+00 0. -1.
         21   -1    0    0  504  502 -0.00000000000E+00 -0.00000000000E+00 -0.14274370141E+03  0.14274370141E+03  0.00000000000E+00 0. -1.
         21    1    1    2  503  502  0.19329854906E+02 -0.75993000998E+02 -0.71739110052E+02  0.10627831106E+03  0.00000000000E+00 0. -1.
         21    1    1    2  504  501 -0.34397531497E+02  0.21524371583E+02  0.32783904101E+02  0.52165823229E+02  0.00000000000E+00 0.  1.
         21    1    1    2  505  506  0.79174417402E+01  0.12270041205E+03  0.93941745643E+03  0.94742980450E+03  0.00000000000E+00 0. -1.
         21    1    1    2  506  503  0.71502348503E+01 -0.68231782639E+02 -0.10648784376E+02  0.69426930144E+02  0.00000000000E+00 0. -1.
<scales pt_clust_3="50.76406" pt_clust_4="40.57695" pt_clust_5="123.54032" pt_clust_6="50.76406"></scales>
<clustering>
<clus scale="   40.577">  2  4  1 -1</clus>
<clus scale="   50.764">  3  6 -1 -1</clus>
<clus scale="  123.540">  1  5  2 -1</clus>
<clus scale="  123.540">  1  3  2 -1</clus>
</clustering>
</event>
<event>
 6    0  0.6207838E+002  0.8384720E+02  0.7546771E-02  0.1318475E+00
         21   -1    0    0  504  501  0.00000000000E+00  0.00000000000E+00  0.85293898350E+03  0.85293898350E+03  0.00000000000E+00 0.  1.
         21   -1    0    0  503  502 -0.00000000000E+00 -0.00000000000E+00 -0.65028054532E+02  0.65028054532E+02  0.00000000000E+00 0.  1.
         21    1    1    2  503  506 -0.40962379091E+02  0.12393076501E+03  0.10632028227E+03  0.16834712186E+03  0.00000000000E+00 0.  1.
         21    1    1    2  504  505  0.71627366887E+02 -0.25337306240E+01  0.79588623157E+02  0.10710391409E+03  0.00000000000E+00 0. -1.
         21    1    1    2  505  502  0.30727078624E+02 -0.61402575442E+02  0.52719186748E+02  0.86566403894E+02  0.00000000000E+00 0.  1.
         21    1    1    2  506  501 -0.61392066420E+02 -0.59994458947E+02  0.54928283679E+03  0.55594959818E+03  0.00000000000E+00 0.  1.
<scales pt_clust_3="83.84720" pt_clust_4="82.88782" pt_clust_5="68.66170" pt_clust_6="14000.00000"></scales>
<clustering>
<clus scale="   68.662">  2  5  1 -1</clus>
<clus scale="   82.888">  2  4  1 -1</clus>
<clus scale="   83.847">  2  3  1 -1</clus>
<clus scale="   83.847">  1  3  2 -1</clus>
</clustering>
</event>
<event>
 6    0  0.6207838E+002  0.2045121E+03  0.7546771E-02  0.1145987E+00
         21   -1    0    0  505  501  0.00000000000E+00  0.00000000000E+00  0.12779852868E+03  0.12779852868E+03  0.00000000000E+00 0. -1.
         21   -1    0    0  503  502 -0.00000000000E+00 -0.00000000000E+00 -0.47981158939E+03  0.47981158939E+03  0.00000000000E+00 0. -1.
         21    1    1    2  503  506  0.54962879850E+01 -0.53030298289E+02 -0.91930760548E+02  0.10627175755E+03  0.00000000000E+00 0. -1.
         21    1    1    2  504  501  0.51106009301E+02 -0.69219958568E+01 -0.48224523863E+02  0.70606960812E+02  0.00000000000E+00 0. -1.
         21    1    1    2  505  502 -0.18148292189E+03  0.10535728900E+03 -0.21137507090E+03  0.29785169108E+03  0.00000000000E+00 0. -1.
         21    1    1    2  506  504  0.12488062460E+03 -0.45404994852E+02 -0.48270540360E+00  0.13287970862E+03  0.00000000000E+00 0. -1.
<scales pt_clust_3="53.31437" pt_clust_4="45.46137" pt_clust_5="191.05018" pt_clust_6="45.46137"></scales>
<clustering>
<clus scale="   45.461">  4  6 -1 -1</clus>
<clus scale="   53.314">  2  3  1 -1</clus>
<clus scale="  191.050">  2  5  1 -1</clus>
<clus scale="  204.512">  1  3  2 -1</clus>
</clustering>
</event>
<event>
 6    0  0.6207838E+002  0.1579632E+03  0.7546771E-02  0.1191016E+00
         21   -1    0    0  505  501  0.00000000000E+00  0.00000000000E+00  0.41890449480E+03  0.41890449480E+03  0.00000000000E+00 0.  1.
         21   -1    0    0  506  502 -0.00000000000E+00 -0.00000000000E+00 -0.19158138499E+03  0.19158138499E+03  0.00000000000E+00 0.  1.
         21    1    1    2  503  501  0.13607307320E+03  0.55342369662E+02  0.32565719807E+03  0.35725518861E+03  0.00000000000E+00 0.  1.
         21    1    1    2  504  502 -0.68693089223E+02  0.90023130999E+00 -0.22512968636E+02  0.72293738873E+02  0.00000000000E+00 0.  1.
         21    1    1    2  505  504 -0.10186625575E+03 -0.57087307899E+02 -0.24845480363E+02  0.11938589815E+03  0.00000000000E+00 0.  1.
         21    1    1    2  506  503  0.34486271771E+02  0.84470692700E+00 -0.50975639259E+02  0.61551054161E+02  0.00000000000E+00 0. -1.
<scales pt_clust_3="150.67042" pt_clust_4="35.54313" pt_clust_5="35.54313" pt_clust_6="34.49662"></scales>
<clustering>
<clus scale="   34.497">  2  6  1 -1</clus>
<clus scale="   35.543">  4  5 -1 -1</clus>
<clus scale="  150.670">  1  3  2 -1</clus>
<clus scale="  150.670">  1  3  2 -1</clus>
</clustering>
</event>
<event>
 6    0  0.6207838E+002  0.1377361E+03  0.7546771E-02  0.1216408E+00
         21   -1    0    0  506  501  0.00000000000E+00  0.00000000000E+00  0.81671399803E+02  0.81671399803E+02  0.00000000000E+00 0.  1.
         21   -1    0    0  503  502 -0.00000000000E+00 -0.00000000000E+00 -0.34056605557E+03  0.34056605557E+03  0.00000000000E+00 0.  1.
         21    1    1    2  503  501  0.66794674694E+02 -0.11593638781E+03 -0.44511340189E+02  0.14101075843E+03  0.00000000000E+00 0.  1.
         21    1    1    2  504  505 -0.44942895530E+02  0.79729224583E+02 -0.13735089293E+03  0.16505114631E+03  0.00000000000E+00 0.  1.
         21    1    1    2  505  502 -0.43879908488E+02  0.63507831288E+01 -0.61818541649E+02  0.76074377466E+02  0.00000000000E+00 0.  1.
         21    1    1    2  506  504  0.22028129324E+02  0.29856380100E+02 -0.15213881001E+02  0.40101173166E+02  0.00000000000E+00 0.  1.
<scales pt_clust_3="125.68791" pt_clust_4="37.79314" pt_clust_5="37.79314" pt_clust_6="37.10313"></scales>
<clustering>
<clus scale="   37.103">  1  6  2 -1</clus>
<clus scale="   37.793">  4  5 -1 -1</clus>
<clus scale="  125.688">  1  3  2 -1</clus>
<clus scale="   37.103">  1  3  2 -1</clus>
</clustering>
</event>
<event>
 6    0  0.6207838E+002  0.8551968E+02  0.7546771E-02  0.1314079E+00
         21   -1    0    0  506  501  0.00000000000E+00  0.00000000000E+00  0.23006019249E+04  0.23006019249E+04  0.00000000000E+00 0. -1.
         21   -1    0    0  503  502 -0.00000000000E+00 -0.00000000000E+00 -0.11086424243E+04  0.11086424243E+04  0.00000000000E+00 0.  1.
         21    1    1    2  503  501 -0.44215062495E+02 -0.21994172622E+01 -0.11399509821E+03  0.12228937650E+03  0.00000000000E+00 0.  1.
         21    1    1    2  504  502 -0.28995954189E+02  0.55220175077E+02 -0.81670589715E+03  0.81908397343E+03  0.00000000000E+00 0.  1.
         21    1    1    2  505  504  0.20690450987E+02 -0.10999928299E+03 -0.15373102634E+03  0.19016089367E+03  0.00000000000E+00 0.  1.
         21    1    1    2  506  505  0.52520565696E+02  0.56978525179E+02  0.22763915223E+04  0.22777101056E+04  0.00000000000E+00 0. -1.
<scales pt_clust_3="44.26973" pt_clust_4="14000.00000" pt_clust_5="85.51968" pt_clust_6="77.47067"></scales>
<clustering>
<clus scale="   44.270">  2  3  1 -1</clus>
<clus scale="   77.471">  1  6  2 -1</clus>
<clus scale="   85.520">  1  5  2 -1</clus>
<clus scale="   77.471">  1  3  2 -1</clus>
</clustering>
</event>
<event>
 6    0  0.6207838E+002  0.1084517E+03  0.7546771E-02  0.1263464E+00
         21   -1    0    0  506  501  0.00000000000E+00  0.00000000000E+00  0.48890824661E+02  0.48890824661E+02  0.00000000000E+00 0.  1.
         21   -1    0    0  504  502 -0.00000000000E+00 -0.00000000000E+00 -0.63083393013E+03  0.63083393013E+03  0.00000000000E+00 0.  1.
         21    1    1    2  503  501  0.36034972569E+02 -0.32676655760E+02 -0.16537336952E+03  0.17237933295E+03  0.00000000000E+00 0.  1.
         21    1    1    2  504  503 -0.25505421966E+01 -0.33601118984E+02 -0.82943216243E+02  0.89527189073E+02  0.00000000000E+00 0. -1.
         21    1    1    2  505  502 -0.10957278110E+03 -0.19156228371E+02 -0.25723004869E+03  0.28025069740E+03  0.00000000000E+00 0.  1.
         21    1    1    2  506  505  0.76088350730E+02  0.85434003115E+02 -0.76396471010E+02  0.13756753537E+03  0.00000000000E+00 0.  1.
<scales pt_clust_3="83.27004" pt_clust_4="31.36320" pt_clust_5="14000.00000" pt_clust_6="108.45168"></scales>
<clustering>
<clus scale="   31.363">  3  4 -1 -1</clus>
<clus scale="   83.270">  2  3  1 -1</clus>
<clus scale="  108.452">  1  6  2 -1</clus>
<clus scale="  108.452">  1  3  2 -1</clus>
</clustering>
</event>
<event>
 6    0  0.6207838E+002  0.1269701E+03  0.7546771E-02  0.1232022E+00
         21   -1    0    0  506  501  0.00000000000E+00  0.00000000000E+00  0.20282036315E+03  0.20282036315E+03  0.00000000000E+00 0. -1.
         21   -1    0    0  501  502 -0.00000000000E+00 -0.00000000000E+00 -0.26555169785E+03  0.26555169785E+03  0.00000000000E+00 0.  1.
         21    1    1    2  503  504 -0.36895806527E+02 -0.10918886529E+02 -0.69162281038E+02  0.79145080332E+02  0.00000000000E+00 0. -1.
         21    1    1    2  504  505 -0.57622522092E+02 -0.72137325504E+02 -0.55918587857E+02  0.10793997059E+03  0.00000000000E+00 0. -1.
         21    1    1    2  505  502 -0.81405848651E+01  0.40019794552E+02 -0.86360485708E+02  0.95530029675E+02  0.00000000000E+00 0.  1.
         21    1    1    2  506  503  0.10265891348E+03  0.43036417482E+02  0.14871001990E+03  0.18575698040E+03  0.00000000000E+00 0. -1.
<scales pt_clust_3="38.32047" pt_clust_4="38.32047" pt_clust_5="40.83936" pt_clust_6="112.24024"></scales>
<clustering>
<clus scale="   38.320">  3  4 -1 -1</clus>
<clus scale="   40.839">  2  5  1 -1</clus>
<clus scale="  112.240">  1  6  2 -1</clus>
<clus scale="  112.240">  1  3  2 -1</clus>
</clustering>
</event>
<event>
 6    0  0.6207838E+002  0.1280762E+03  0.7546771E-02  0.1230339E+00
         21   -1    0    0  505  501  0.00000000000E+00  0.00000000000E+00  0.19150769828E+04  0.19150769828E+04  0.00000000000E+00 0.  1.
         21   -1    0    0  503  502 -0.00000000000E+00 -0.00000000000E+00 -0.63763650598E+02  0.63763650598E+02  0.00000000000E+00 0.  1.
         21    1    1    2  503  506 -0.62886663321E+02 -0.10874451185E+03  0.30242114949E+02  0.12920792080E+03  0.00000000000E+00 0.  1.
         21    1    1    2  504  501  0.11836740420E+02  0.82433895700E+02  0.14109044503E+04  0.14133601181E+04  0.00000000000E+00 0.  1.
         21    1    1    2  505  502  0.75027367492E+01 -0.55442347794E+02  0.14778413108E+03  0.15801991769E+03  0.00000000000E+00 0.  1.
         21    1    1    2  506  504  0.43547186152E+02  0.81752963946E+02  0.26238263585E+03  0.27825267678E+03  0.00000000000E+00 0.  1.
<scales pt_clust_3="14000.00000" pt_clust_4="82.15335" pt_clust_5="55.94770" pt_clust_6="128.07619"></scales>
<clustering>
<clus scale="   55.948">  2  5  1 -1</clus>
<clus scale="   82.153">  1  4  2 -1</clus>
<clus scale="  128.076">  1  6  2 -1</clus>
<clus scale="   82.153">  1  3  2 -1</clus>
</clustering>
</event>
<event>
 6    0  0.6207838E+002  0.2582221E+03  0.7546771E-02  0.1108216E+00
         21   -1    0    0  506  501  0.00000000000E+00  0.00000000000E+00  0.13824477411E+04  0.13824477411E+04  0.00000000000E+00 0.  1.
         21   -1    0    0  505  502 -0.00000000000E+00 -0.00000000000E+00 -0.30272857490E+03  0.30272857490E+03  0.00000000000E+00 0. -1.
         21    1    1    2  503  504  0.84509400641E+02 -0.55511425554E+02 -0.52570684767E+02  0.11396066892E+03  0.00000000000E+00 0. -1.
         21    1    1    2  504  501  0.35795179092E+01  0.63442578235E+02  0.92575602171E+03  0.92793425705E+03  0.00000000000E+00 0.  1.
         21    1    1    2  505  503  0.11295870731E+03 -0.11111910808E+03 -0.15193607090E+03  0.21952606993E+03  0.00000000000E+00 0. -1.
         21    1    1    2  506  502 -0.20104762586E+03  0.10318795540E+03  0.35846990013E+03  0.42375532009E+03  0.00000000000E+00 0.  1.
<scales pt_clust_3="40.97414" pt_clust_4="63.54348" pt_clust_5="40.97414" pt_clust_6="253.07635"></scales>
<clustering>
<clus scale="   40.974">  3  5 -1 -1</clus>
<clus scale="   63.543">  1  4  2 -1</clus>
<clus scale="  253.076">  1  6  2 -1</clus>
<clus scale="   63.543">  1  3  2 -1</clus>
</clustering>
</event>
<event>
 6    0  0.6207838E+002  0.1640241E+03  0.7546771E-02  0.1184227E+00
         21   -1    0    0  505  501  0.00000000000E+00  0.00000000000E+00  0.13890814129E+04  0.13890814129E+04  0.00000000000E+00 0.  1.
         21   -1    0    0  504  502 -0.00000000000E+00 -0.00000000000E+00 -0.25788094187E+03  0.25788094187E+03  0.00000000000E+00 0. -1.
         21    1    1    2  503  502  0.15773557223E+03  0.24630668420E+02 -0.56111675703E+01  0.15974562834E+03  0.00000000000E+00 0. -1.
         21    1    1    2  504  506 -0.28129226842E+02 -0.39603661583E+02 -0.14882409717E+03  0.15655131846E+03  0.00000000000E+00 0. -1.
         21    1    1    2  505  503  0.17112007679E+02  0.32292204512E+02 -0.23197726640E-01  0.36545968549E+02  0.00000000000E+00 0.  1.
         21    1    1    2  506  501 -0.14671835306E+03 -0.17319211349E+02  0.12856589335E+04  0.12941194395E+04  0.00000000000E+00 0.  1.
<scales pt_clust_3="32.75483" pt_clust_4="48.57678" pt_clust_5="32.75483" pt_clust_6="149.05417"></scales>
<clustering>
<clus scale="   32.755">  3  5 -1 -1</clus>
<clus scale="   48.577">  2  4  1 -1</clus>
<clus scale="  149.054">  1  6  2 -1</clus>
<clus scale="  149.054">  1  3  2 -1</clus>
</clustering>
</event>
<event>
 6    0  0.6207838E+002  0.9461250E+02  0.7546771E-02  0.1292051E+00
         21   -1    0    0  503  501  0.00000000000E+00  0.00000000000E+00  0.14394224895E+03  0.14394224895E+03  0.00000000000E+00 0.  1.
         21   -1    0    0  505  502 -0.00000000000E+00 -0.00000000000E+00 -0.73483121893E+03  0.73483121893E+03  0.00000000000E+00 0. -1.
         21    1    1    2  503  502 -0.26670802055E+01  0.59222021675E+02 -0.84304830057E+02  0.10306146486E+03  0.00000000000E+00 0.  1.
         21    1    1    2  504  501  0.52464805731E+02  0.13703447201E+02  0.10694987430E+03  0.11991086656E+03  0.00000000000E+00 0.  1.
         21    1    1    2  505  506 -0.10680764254E+03 -0.53472189193E+01 -0.50307333411E+03  0.51431434429E+03  0.00000000000E+00 0. -1.
         21    1    1    2  506  504  0.57009917016E+02 -0.67578249957E+02 -0.11046068012E+03  0.14148679217E+03  0.00000000000E+00 0. -1.
<scales pt_clust_3="64.84606" pt_clust_4="54.22490" pt_clust_5="14000.00000" pt_clust_6="94.61250"></scales>
<clustering>
<clus scale="   54.225">  1  4  2 -1</clus>
<clus scale="   64.846">  1  3  2 -1</clus>
<clus scale="   94.613">  1  6  2 -1</clus>
<clus scale="   54.225">  1  3  2 -1</clus>
</clustering>
</event>
<event>
 6    0  0.6207838E+002  0.1160343E+03  0.7546771E-02  0.1249786E+00
         21   -1    0    0  504  501  0.00000000000E+00  0.00000000000E+00  0.18552581455E+03  0.18552581455E+03  0.00000000000E+00 0. -1.
         21   -1    0    0  505  502 -0.00000000000E+00 -0.00000000000E+00 -0.15746659790E+03  0.15746659790E+03  0.00000000000E+00 0. -1.
         21    1    1    2  503  501 -0.40665390675E+02 -0.70698128473E+02  0.41482311811E+02  0.91502358229E+02  0.00000000000E+00 0. -1.
         21    1    1    2  504  502  0.68245211946E+02  0.62353454305E+02  0.42405017032E+02  0.10170323341E+03  0.00000000000E+00 0. -1.
         21    1    1    2  505  506  0.22266126923E+02  0.48099194189E+02 -0.66609247395E+02  0.85124054934E+02  0.00000000000E+00 0. -1.
         21    1    1    2  506  503 -0.49845948195E+02 -0.39754520021E+02  0.10781135206E+02  0.64662765870E+02  0.00000000000E+00 0. -1.
<scales pt_clust_3="31.43412" pt_clust_4="110.45347" pt_clust_5="53.00295" pt_clust_6="31.43412"></scales>
<clustering>
<clus scale="   31.434">  3  6 -1 -1</clus>
<clus scale="   53.003">  2  5  1 -1</clus>
<clus scale="  110.453">  1  4  2 -1</clus>
<clus scale="  110.453">  1  3  2 -1</clus>
</clustering>
</event>
<event>
 6    0  0.6207838E+002  0.6301645E+02  0.7546771E-02  0.1385592E+00
         21   -1    0    0  506  501  0.00000000000E+00  0.00000000000E+00  0.16180643625E+04  0.16180643625E+04  0.00000000000E+00 0.  1.
         21   -1    0    0  505  502 -0.00000000000E+00 -0.00000000000E+00 -0.11790494606E+03  0.11790494606E+03  0.00000000000E+00 0. -1.
         21    1    1    2  503  504  0.49525917057E+02 -0.58671653055E+02  0.29613917669E+02  0.82293155561E+02  0.00000000000E+00 0. -1.
         21    1    1    2  504  501  0.11127499547E+02 -0.33930438715E+02  0.22416770968E+03  0.22699396023E+03  0.00000000000E+00 0.  1.
         21    1    1    2  505  503  0.13813463506E+02  0.59503000892E+02 -0.78406906054E+02  0.99393469635E+02  0.00000000000E+00 0. -1.
         21    1    1    2  506  502 -0.74466880111E+02  0.33099090878E+02  0.13247846951E+04  0.13272887231E+04  0.00000000000E+00 0.  1.
<scales pt_clust_3="63.01645" pt_clust_4="35.70849" pt_clust_5="60.85540" pt_clust_6="14000.00000"></scales>
<clustering>
<clus scale="   35.708">  1  4  2 -1</clus>
<clus scale="   60.855">  2  5  1 -1</clus>
<clus scale="   63.016">  2  3  1 -1</clus>
<clus scale="   35.708">  1  3  2 -1</clus>
</clustering>
</event>
<event>
 6    0  0.6207838E+002  0.9900887E+02  0.7546771E-02  0.1282394E+00
         21   -1    0    0  504  501  0.00000000000E+00  0.00000000000E+00  0.26426201750E+03  0.26426201750E+03  0.00000000000E+00 0. -1.
         21   -1    0    0  506  502 -0.00000000000E+00 -0.00000000000E+00 -0.32107434846E+03  0.32107434846E+03  0.00000000000E+00 0. -1.
         21    1    1    2  503  501  0.13104696434E+02 -0.79086198494E+02 -0.37098493915E+02  0.88332655975E+02  0.00000000000E+00 0. -1.
         21    1    1    2  504  505 -0.21524174032E+02 -0.25527269561E+02  0.21446253008E+03  0.21704632769E+03  0.00000000000E+00 0. -1.
         21    1    1    2  505  502 -0.18328750029E+02  0.12057715224E+03 -0.19339670699E+03  0.22864181375E+03  0.00000000000E+00 0. -1.
         21    1    1    2  506  503  0.26748227627E+02 -0.15963684182E+02 -0.40779660131E+02  0.51315568537E+02  0.00000000000E+00 0. -1.
<scales pt_clust_3="14000.00000" pt_clust_4="33.36724" pt_clust_5="99.00887" pt_clust_6="31.14975"></scales>
<clustering>
<clus scale="   31.150">  2  6  1 -1</clus>
<clus scale="   33.367">  1  4  2 -1</clus>
<clus scale="   99.009">  2  5  1 -1</clus>
<clus scale="   33.367">  1  3  2 -1</clus>
</clustering>
</event>
<event>
 6    0  0.6207838E+002  0.2851269E+03  0.7546771E-02  0.1092921E+00
         21   -1    0    0  504  501  0.00000000000E+00  0.00000000000E+00  0.13832905408E+04  0.13832905408E+04  0.00000000000E+00 0.  1.
         21   -1    0    0  505  502 -0.00000000000E+00 -0.00000000000E+00 -0.81826828622E+03  0.81826828622E+03  0.00000000000E+00 0. -1.
         21    1    1    2  503  506  0.62622528337E+02 -0.20016318844E+03 -0.37691532234E+03  0.43133750506E+03  0.00000000000E+00 0. -1.
         21    1    1    2  504  503 -0.11133226574E+03  0.26569047134E+03  0.13135599557E+04  0.13447773263E+04  0.00000000000E+00 0.  1.
         21    1    1    2  505  501 -0.35978115308E+02 -0.49715936742E+02 -0.21731031590E+02  0.65102510560E+02  0.00000000000E+00 0. -1.
         21    1    1    2  506  502  0.84687852713E+02 -0.15811346163E+02 -0.34989134721E+03  0.36034148514E+03  0.00000000000E+00 0. -1.
<scales pt_clust_3="285.12689" pt_clust_4="14000.00000" pt_clust_5="61.36855" pt_clust_6="78.36310"></scales>
<clustering>
<clus scale="   61.369">  2  5  1 -1</clus>
<clus scale="   78.363">  2  6  1 -1</clus>
<clus scale="  285.127">  2  3  1 -1</clus>
<clus scale="  285.127">  1  3  2 -1</clus>
</clustering>
</event>
<event>
 6    0  0.6207838E+002  0.1869781E+03  0.7546771E-02  0.1161215E+00
         21   -1    0    0  505  501  0.00000000000E+00  0.00000000000E+00  0.10985483387E+04  0.10985483387E+04  0.00000000000E+00 0. -1.
         21   -1    0    0  504  502 -0.00000000000E+00 -0.00000000000E+00 -0.92636552735E+02  0.92636552735E+02  0.00000000000E+00 0. -1.
         21    1    1    2  503  501 -0.67686992788E+02  0.11225162876E+03  0.57847801242E+03  0.59314312608E+03  0.00000000000E+00 0. -1.
         21    1    1    2  504  506  0.84475283974E+01  0.45002373105E+02 -0.44418440552E+02  0.63793198557E+02  0.00000000000E+00 0. -1.
         21    1    1    2  505  502  0.52486004681E+02 -0.19870344309E+03  0.35660809402E+03  0.41159102481E+03  0.00000000000E+00 0. -1.
         21    1    1    2  506  503  0.67534597097E+01  0.41449441225E+02  0.11524412002E+03  0.12265754194E+03  0.00000000000E+00 0. -1.
<scales pt_clust_3="34.81532" pt_clust_4="45.78836" pt_clust_5="176.57160" pt_clust_6="34.81532"></scales>
<clustering>
<clus scale="   34.815">  3  6 -1 -1</clus>
<clus scale="   45.788">  2  4  1 -1</clus>
<clus scale="  176.572">  2  5  1 -1</clus>
<clus scale="  186.978">  1  3  2 -1</clus>
</clustering>
</event>
<event>
 6    0  0.6207838E+002  0.1174861E+03  0.7546771E-02  0.1247303E+00
         21   -1    0    0  503  501  0.00000000000E+00  0.00000000000E+00  0.20994840700E+03  0.20994840700E+03  0.00000000000E+00 0.  1.
         21   -1    0    0  504  502 -0.00000000000E+00 -0.00000000000E+00 -0.23317330395E+03  0.23317330395E+03  0.00000000000E+00 0. -1.
         21    1    1    2  503  506  0.77865037191E+02 -0.21906222886E+02  0.77089600207E+00  0.80891537867E+02  0.00000000000E+00 0. -1.
         21    1    1    2  504  505 -0.39452007917E+02 -0.40649617906E+02 -0.12946043133E+03  0.14131120142E+03  0.00000000000E+00 0. -1.
         21    1    1    2  505  501 -0.89880004685E+02  0.27135413632E+02  0.12419947495E+03  0.15569282415E+03  0.00000000000E+00 0.  1.
         21    1    1    2  506  502  0.51466975411E+02  0.35420427160E+02 -0.18734836568E+02  0.65226147513E+02  0.00000000000E+00 0. -1.
<scales pt_clust_3="56.39987" pt_clust_4="56.64673" pt_clust_5="98.41093" pt_clust_6="56.39987"></scales>
<clustering>
<clus scale="   56.400">  3  6 -1 -1</clus>
<clus scale="   56.647">  2  4  1 -1</clus>
<clus scale="   98.411">  1  5  2 -1</clus>
<clus scale="   98.411">  1  3  2 -1</clus>
</clustering>
</event>
<event>
 6    0  0.6207838E+002  0.1101854E+03  0.7546771E-02  0.1260227E+00
         21   -1    0    0  503  501  0.00000000000E+00  0.00000000000E+00  0.21336408169E+03  0.21336408169E+03  0.00000000000E+00 0. -1.
         21   -1    0    0  504  502 -0.00000000000E+00 -0.00000000000E+00 -0.41794030039E+03  0.41794030039E+03  0.00000000000E+00 0. -1.
         21    1    1    2  503  506 -0.11866473472E+03 -0.33045674202E+02 -0.18616523939E+03  0.22322820657E+03  0.00000000000E+00 0. -1.
         21    1    1    2  504  505  0.34346056516E+02  0.73368479702E+02 -0.77249890288E+02  0.11193806753E+03  0.00000000000E+00 0. -1.
         21    1    1    2  505  501  0.99411551427E+02  0.44982157952E+02  0.13995215108E+03  0.17746170202E+03  0.00000000000E+00 0. -1.
         21    1    1    2  506  502 -0.15092873219E+02 -0.85304963453E+02 -0.81113240112E+02  0.11867640597E+03  0.00000000000E+00 0.  1.
<scales pt_clust_3="14000.00000" pt_clust_4="81.00979" pt_clust_5="110.18541" pt_clust_6="62.79860"></scales>
<clustering>
<clus scale="   81.010">  2  4  1 -1</clus>
<clus scale="   62.799">  2  6  1 -1</clus>
<clus scale="  110.185">  1  5  2 -1</clus>
<clus scale="  110.185">  1  3  2 -1</clus>
</clustering>
</event>
<event>
 6    0  0.6207838E+002  0.1317143E+03  0.7546771E-02  0.1224934E+00
         21   -1    0    0  505  501  0.00000000000E+00  0.00000000000E+00  0.13653308077E+03  0.13653308077E+03  0.00000000000E+00 0.  1.
         21   -1    0    0  506  502 -0.00000000000E+00 -0.00000000000E+00 -0.32042661806E+04  0.32042661806E+04  0.00000000000E+00 0. -1.
         21    1    1    2  503  502 -0.14489572632E+02 -0.54200892342E+02 -0.27276392590E+04  0.27282161960E+04  0.00000000000E+00 0. -1.
         21    1    1    2  504  501 -0.57063836472E+01  0.11361018859E+03  0.78119451341E+01  0.11402133244E+03  0.00000000000E+00 0.  1.
         21    1    1    2  505  503 -0.10047289271E+03 -0.45505391107E+02 -0.35997747305E+03  0.37649611405E+03  0.00000000000E+00 0. -1.
         21    1    1    2  506  504  0.12066884899E+03 -0.13903905138E+02  0.12071687111E+02  0.12206561893E+03  0.00000000000E+00 0.  1.
<scales pt_clust_3="56.10423" pt_clust_4="107.81649" pt_clust_5="131.71434" pt_clust_6="14000.00000"></scales>
<clustering>
<clus scale="   56.104">  2  3  1 -1</clus>
<clus scale="  107.816">  1  4  2 -1</clus>
<clus scale="  131.714">  2  5  1 -1</clus>
<clus scale="  107.816">  1  3  2 -1</clus>
</clustering>
</event>
<event>
 6    0  0.6207838E+002  0.1646992E+03  0.7546771E-02  0.1183491E+00
         21   -1    0    0  502  501  0.00000000000E+00  0.00000000000E+00  0.39672636197E+03  0.39672636197E+03  0.00000000000E+00 0. -1.
         21   -1    0    0  506  502 -0.00000000000E+00 -0.00000000000E+00 -0.14645711130E+04  0.14645711130E+04  0.00000000000E+00 0. -1.
         21    1    1    2  503  501 -0.14349236280E+03 -0.74587819650E+02  0.33328966342E+03  0.37045296701E+03  0.00000000000E+00 0. -1.
         21    1    1    2  504  503  0.59801484569E+02  0.65202998981E+02 -0.77737020556E+02  0.11777390627E+03  0.00000000000E+00 0.  1.
         21    1    1    2  505  504  0.25910432562E+02  0.63154131675E+02 -0.25646073991E+02  0.72921299867E+02  0.00000000000E+00 0.  1.
         21    1    1    2  506  505  0.57780445664E+02 -0.53769311006E+02 -0.12977513199E+04  0.13001493018E+04  0.00000000000E+00 0. -1.
<scales pt_clust_3="158.96956" pt_clust_4="37.82672" pt_clust_5="37.82672" pt_clust_6="78.92857"></scales>
<clustering>
<clus scale="   37.827">  4  5 -1 -1</clus>
<clus scale="   78.929">  2  6  1 -1</clus>
<clus scale="  158.970">  1  3  2 -1</clus>
<clus scale="  158.970">  1  3  2 -1</clus>
</clustering>
</event>
<event>
 6    0  0.6207838E+002  0.7848235E+02  0.7546771E-02  0.1333414E+00
         21   -1    0    0  506  501  0.00000000000E+00  0.00000000000E+00  0.87106726204E+02  0.87106726204E+02  0.00000000000E+00 0. -1.
         21   -1    0    0  504  502 -0.00000000000E+00 -0.00000000000E+00 -0.24762915689E+03  0.24762915689E+03  0.00000000000E+00 0. -1.
         21    1    1    2  503  502 -0.63638214661E+02 -0.30532994503E+02 -0.41400141640E+02  0.81829443640E+02  0.00000000000E+00 0. -1.
         21    1    1    2  504  505  0.41703397376E+02  0.86805111864E+02 -0.87390967116E+02  0.13004415378E+03  0.00000000000E+00 0. -1.
         21    1    1    2  505  501 -0.29976952666E+02 -0.59802839181E+01  0.17676823336E+02  0.35310785465E+02  0.00000000000E+00 0. -1.
         21    1    1    2  506  503  0.51911769951E+02 -0.50291833443E+02 -0.49408145266E+02  0.87551500211E+02  0.00000000000E+00 0. -1.
<scales pt_clust_3="78.48235" pt_clust_4="14000.00000" pt_clust_5="30.56765" pt_clust_6="67.27996"></scales>
<clustering>
<clus scale="   30.568">  1  5  2 -1</clus>
<clus scale="   67.280">  1  6  2 -1</clus>
<clus scale="   78.482">  2  3  1 -1</clus>
<clus scale="   30.568">  1  3  2 -1</clus>
</clustering>
</event>
<event>
 6    0  0.6207838E+002  0.1245414E+03  0.7546771E-02  0.1235788E+00
         21   -1    0    0  506  501  0.00000000000E+00  0.00000000000E+00  0.63272291196E+03  0.63272291196E+03  0.00000000000E+00 0. -1.
         21   -1    0    0  505  502 -0.00000000000E+00 -0.00000000000E+00 -0.47496417870E+03  0.47496417870E+03  0.00000000000E+00 0. -1.
         21    1    1    2  503  501  0.42737772657E+02  0.65628978218E+01 -0.10132712073E+03  0.11016702880E+03  0.00000000000E+00 0.  1.
         21    1    1    2  504  502 -0.75854544779E+02 -0.99425545260E+01  0.24084042026E+02  0.80204784361E+02  0.00000000000E+00 0. -1.
         21    1    1    2  505  503  0.79701319006E+02 -0.31568549393E+02 -0.33426237366E+03  0.34508000233E+03  0.00000000000E+00 0. -1.
         21    1    1    2  506  504 -0.46584546884E+02  0.34948206097E+02  0.56926418562E+03  0.57223527517E+03  0.00000000000E+00 0. -1.
<scales pt_clust_3="30.91650" pt_clust_4="116.68556" pt_clust_5="30.91650" pt_clust_6="58.23656"></scales>
<clustering>
<clus scale="   30.916">  3  5 -1 -1</clus>
<clus scale="   58.237">  1  6  2 -1</clus>
<clus scale="  116.686">  1  4  2 -1</clus>
<clus scale="   58.237">  1  3  2 -1</clus>
</clustering>
</event>
<event>
 6    0  0.6207838E+002  0.1823787E+03  0.7546771E-02  0.1165521E+00
         21   -1    0    0  506  501  0.00000000000E+00  0.00000000000E+00  0.10015618472E+04  0.10015618472E+04  0.00000000000E+00 0.  1.
         21   -1    0    0  504  502 -0.00000000000E+00 -0.00000000000E+00 -0.42634212979E+03  0.42634212979E+03  0.00000000000E+00 0.  1.
         21    1    1    2  503  505  0.92541819680E+02  0.93184270188E+02 -0.22602974375E+03  0.26141297149E+03  0.00000000000E+00 0.  1.
         21    1    1    2  504  503  0.97239143278E+02 -0.52588131507E+02 -0.13763483368E+03  0.17653416101E+03  0.00000000000E+00 0. -1.
         21    1    1    2  505  501 -0.11146477421E+03 -0.10170524950E+03  0.82565329690E+03  0.83932813628E+03  0.00000000000E+00 0.  1.
         21    1    1    2  506  502 -0.78316188751E+02  0.61109110813E+02  0.11323099795E+03  0.15062870822E+03  0.00000000000E+00 0.  1.
<scales pt_clust_3="14000.00000" pt_clust_4="108.35824" pt_clust_5="182.37868" pt_clust_6="99.33654"></scales>
<clustering>
<clus scale="   99.337">  1  6  2 -1</clus>
<clus scale="  108.358">  2  4  1 -1</clus>
<clus scale="  182.379">  1  5  2 -1</clus>
<clus scale="   99.337">  1  3  2 -1</clus>
</clustering>
</event>
<event>
 6    0  0.6207838E+002  0.1025751E+03  0.7546771E-02  0.1274972E+00
         21   -1    0    0  504  501  0.00000000000E+00  0.00000000000E+00  0.10313082862E+03  0.10313082862E+03  0.00000000000E+00 0. -1.
         21   -1    0    0  506  502 -0.00000000000E+00 -0.00000000000E+00 -0.38912997620E+03  0.38912997620E+03  0.00000000000E+00 0.  1.
         21    1    1    2  503  501  0.70932386285E+02 -0.24466378905E+02 -0.16968370438E+02  0.76928100952E+02  0.00000000000E+00 0.  1.
         21    1    1    2  504  505 -0.39953700830E+02 -0.90291032734E+02  0.14862120760E+02  0.99848141874E+02  0.00000000000E+00 0. -1.
         21    1    1    2  505  502 -0.21228891972E+02  0.29634240998E+02 -0.29015144971E+02  0.46591122884E+02  0.00000000000E+00 0.  1.
         21    1    1    2  506  503 -0.97497934825E+01  0.85123170641E+02 -0.25487775293E+03  0.26889343911E+03  0.00000000000E+00 0.  1.
<scales pt_clust_3="71.11619" pt_clust_4="14000.00000" pt_clust_5="36.45345" pt_clust_6="102.57507"></scales>
<clustering>
<clus scale="   36.453">  2  5  1 -1</clus>
<clus scale="   71.116">  1  3  2 -1</clus>
<clus scale="  102.575">  2  6  1 -1</clus>
<clus scale="   71.116">  1  3  2 -1</clus>
</clustering>
</event>
<event>
 6    0  0.6207838E+002  0.1188150E+03  0.7546771E-02  0.1245065E+00
         21   -1    0    0  505  501  0.00000000000E+00  0.00000000000E+00  0.56964688003E+03  0.56964688003E+03  0.00000000000E+00 0. -1.
         21   -1    0    0  506  502 -0.00000000000E+00 -0.00000000000E+00 -0.17683421901E+03  0.17683421901E+03  0.00000000000E+00 0. -1.
         21    1    1    2  503  501 -0.22400181540E+02  0.11611535149E+03  0.44169642729E+02  0.12623589158E+03  0.00000000000E+00 0. -1.
         21    1    1    2  504  502  0.36138953469E+02  0.50221433812E+01  0.35771101358E+01  0.36661172907E+02  0.00000000000E+00 0. -1.
         21    1    1    2  505  504 -0.75199258830E+02 -0.10098895115E+03  0.44615085278E+03  0.46357769599E+03  0.00000000000E+00 0. -1.
         21    1    1    2  506  503  0.61460486901E+02 -0.20148543717E+02 -0.10108494462E+03  0.12000633856E+03  0.00000000000E+00 0. -1.
<scales pt_clust_3="118.81503" pt_clust_4="36.48624" pt_clust_5="14000.00000" pt_clust_6="87.98035"></scales>
<clustering>
<clus scale="   36.486">  2  4  1 -1</clus>
<clus scale="   87.980">  2  6  1 -1</clus>
<clus scale="  118.815">  2  3  1 -1</clus>
<clus scale="  118.815">  1  3  2 -1</clus>
</clustering>
</event>
<event>
 6    0  0.6207838E+002  0.5899051E+02  0.7546771E-02  0.1402118E+00
         21   -1    0    0  505  501  0.00000000000E+00  0.00000000000E+00  0.17938319448E+03  0.17938319448E+03  0.00000000000E+00 0.  1.
         21   -1    0    0  504  502 -0.00000000000E+00 -0.00000000000E+00 -0.46219509288E+03  0.46219509288E+03  0.00000000000E+00 0.  1.
         21    1    1    2  503  502  0.86514105964E+00  0.43987013645E+02 -0.92039676254E+02  0.10201425314E+03  0.00000000000E+00 0.  1.
         21    1    1    2  504  506  0.41410474126E+02 -0.16944418629E+02 -0.23409952516E+03  0.23833700587E+03  0.00000000000E+00 0.  1.
         21    1    1    2  505  503  0.56797692025E+02  0.58398814114E+01  0.14479788702E+03  0.15564867529E+03  0.00000000000E+00 0.  1.
         21    1    1    2  506  501 -0.99073307210E+02 -0.32882476428E+02 -0.10147058401E+03  0.14557835305E+03  0.00000000000E+00 0.  1.
<scales pt_clust_3="43.99552" pt_clust_4="43.51969" pt_clust_5="14000.00000" pt_clust_6="58.99051"></scales>
<clustering>
<clus scale="   43.996">  2  3  1 -1</clus>
<clus scale="   43.520">  2  4  1 -1</clus>
<clus scale="   58.991">  2  6  1 -1</clus>
<clus scale="   58.991">  1  3  2 -1</clus>
</clustering>
</event>
<event>
 6    0  0.6207838E+002  0.1482875E+03  0.7546771E-02  0.1202593E+00
         21   -1    0    0  504  501  0.00000000000E+00  0.00000000000E+00  0.78329638005E+03  0.78329638005E+03  0.00000000000E+00 0. -1.
         21   -1    0    0  505  502 -0.00000000000E+00 -0.00000000000E+00 -0.91926007258E+03  0.91926007258E+03  0.00000000000E+00 0.  1.
         21    1    1    2  503  506 -0.41802287829E+02  0.16633868057E+03  0.26779185008E+03  0.31800701705E+03  0.00000000000E+00 0.  1.
         21    1    1    2  504  503  0.34752220198E+02  0.10481249407E+02  0.42387162380E+02  0.55805420278E+02  0.00000000000E+00 0.  1.
         21    1    1    2  505  501  0.94155752983E+01 -0.13775684856E+03  0.43005239117E+03  0.45167539399E+03  0.00000000000E+00 0. -1.
         21    1    1    2  506  502 -0.23655076667E+01 -0.39063081418E+02 -0.87619509617E+03  0.87706862132E+03  0.00000000000E+00 0.  1.
<scales pt_clust_3="148.28749" pt_clust_4="36.29839" pt_clust_5="14000.00000" pt_clust_6="39.12717"></scales>
<clustering>
<clus scale="   36.298">  1  4  2 -1</clus>
<clus scale="   39.127">  2  6  1 -1</clus>
<clus scale="  148.287">  2  3  1 -1</clus>
<clus scale="   36.298">  1  3  2 -1</clus>
</clustering>
</event>
<event>
 6    0  0.6207838E+002  0.1297441E+03  0.7546771E-02  0.1227836E+00
         21   -1    0    0  505  501  0.00000000000E+00  0.00000000000E+00  0.16881273193E+04  0.16881273193E+04  0.00000000000E+00 0. -1.
         21   -1    0    0  504  502 -0.00000000000E+00 -0.00000000000E+00 -0.26578139461E+03  0.26578139461E+03  0.00000000000E+00 0. -1.
         21    1    1    2  503  501 -0.83079700405E+02  0.23962372067E+02  0.85812568074E+03  0.86247093623E+03  0.00000000000E+00 0. -1.
         21    1    1    2  504  503 -0.21813573107E+02 -0.20082635339E+03  0.66115389387E+03  0.69132591993E+03  0.00000000000E+00 0. -1.
         21    1    1    2  505  506  0.49630654184E+02  0.61216239590E+02  0.12269167834E+03  0.14582138992E+03  0.00000000000E+00 0. -1.
         21    1    1    2  506  502  0.55262619328E+02  0.11564774173E+03 -0.21962532821E+03  0.25429046788E+03  0.00000000000E+00 0. -1.
<scales pt_clust_3="80.24162" pt_clust_4="14000.00000" pt_clust_5="78.80755" pt_clust_6="129.74414"></scales>
<clustering>
<clus scale="   78.808">  1  5  2 -1</clus>
<clus scale="   80.242">  1  3  2 -1</clus>
<clus scale="  129.744">  2  6  1 -1</clus>
<clus scale="   78.808">  1  3  2 -1</clus>
</clustering>
</event>
<event>
 6    0  0.6207838E+002  0.1207844E+03  0.7546771E-02  0.1241809E+00
         21   -1    0    0  505  501  0.00000000000E+00  0.00000000000E+00  0.30935514480E+03  0.30935514480E+03  0.00000000000E+00 0.  1.
         21   -1    0    0  503  502 -0.00000000000E+00 -0.00000000000E+00 -0.12565350989E+03  0.12565350989E+03  0.00000000000E+00 0.  1.
         21    1    1    2  503  504  0.35416562609E+02 -0.91779950666E+02 -0.43881687868E+02  0.10771951904E+03  0.00000000000E+00 0.  1.
         21    1    1    2  504  506  0.42312956366E+02 -0.26755527464E+02  0.19352975361E+01  0.50099799429E+02  0.00000000000E+00 0.  1.
         21    1    1    2  505  502 -0.93562119974E+01  0.41036430498E+02  0.19084292488E+02  0.46214040623E+02  0.00000000000E+00 0. -1.
         21    1    1    2  506  501 -0.68373306978E+02  0.77499047631E+02  0.20656373276E+03  0.23097529561E+03  0.00000000000E+00 0.  1.
<scales pt_clust_3="39.42840" pt_clust_4="39.42840" pt_clust_5="42.08952" pt_clust_6="107.39631"></scales>
<clustering>
<clus scale="   39.428">  3  4 -1 -1</clus>
<clus scale="   42.090">  2  5  1 -1</clus>
<clus scale="  107.396">  1  6  2 -1</clus>
<clus scale="  107.396">  1  3  2 -1</clus>
</clustering>
</event>
<event>
 6    0  0.6207838E+002  0.8767224E+02  0.7546771E-02  0.1308589E+00
         21   -1    0    0  505  501  0.00000000000E+00  0.00000000000E+00  0.11953385697E+04  0.11953385697E+04  0.00000000000E+00 0. -1.
         21   -1    0    0  504  502 -0.00000000000E+00 -0.00000000000E+00 -0.65901334547E+02  0.65901334547E+02  0.00000000000E+00 0. -1.
         21    1    1    2  503  501 -0.11720636770E+02  0.30103023511E+02  0.83259200545E+03  0.83321846648E+03  0.00000000000E+00 0. -1.
         21    1    1    2  504  503  0.83358602758E+02 -0.31469421393E+02  0.18972724434E+03  0.20960774885E+03  0.00000000000E+00 0. -1.
         21    1    1    2  505  506 -0.10650126053E+03 -0.10082813779E+02  0.13505759883E+03  0.17229259017E+03  0.00000000000E+00 0. -1.
         21    1    1    2  506  502  0.34863294540E+02  0.11449211661E+02 -0.27939613421E+02  0.46121098772E+02  0.00000000000E+00 0. -1.
<scales pt_clust_3="32.30426" pt_clust_4="14000.00000" pt_clust_5="87.67224" pt_clust_6="36.66035"></scales>
<clustering>
<clus scale="   32.304">  1  3  2 -1</clus>
<clus scale="   36.660">  2  6  1 -1</clus>
<clus scale="   87.672">  2  5  1 -1</clus>
<clus scale="   32.304">  1  3  2 -1</clus>
</clustering>
</event>
<event>
 6    0  0.6207838E+002  0.1320303E+03  0.7546771E-02  0.1224474E+00
         21   -1    0    0  504  501  0.00000000000E+00  0.00000000000E+00  0.13036689524E+03  0.13036689524E+03  0.00000000000E+00 0. -1.
         21   -1    0    0  506  502 -0.00000000000E+00 -0.00000000000E+00 -0.49172211526E+03  0.49172211526E+03  0.00000000000E+00 0. -1.
         21    1    1    2  503  501  0.47027367491E+02 -0.13152110482E+03  0.53763914179E+02  0.14966607089E+03  0.00000000000E+00 0. -1.
         21    1    1    2  504  502 -0.66537237600E+02 -0.48144863225E+01 -0.10242796092E+03  0.12223694386E+03  0.00000000000E+00 0. -1.
         21    1    1    2  505  503  0.14993279208E+01  0.10967175474E+03 -0.15898859935E+03  0.19315153764E+03  0.00000000000E+00 0. -1.
         21    1    1    2  506  505  0.18010542188E+02  0.26663836409E+02 -0.15370257392E+03  0.15703445811E+03  0.00000000000E+00 0. -1.
<scales pt_clust_3="14000.00000" pt_clust_4="60.66031" pt_clust_5="132.03029" pt_clust_6="32.17670"></scales>
<clustering>
<clus scale="   32.177">  2  6  1 -1</clus>
<clus scale="   60.660">  2  4  1 -1</clus>
<clus scale="  132.030">  2  5  1 -1</clus>
<clus scale="  132.030">  1  3  2 -1</clus>
</clustering>
</event>
<event>
 6    0  0.6207838E+002  0.9712663E+02  0.7546771E-02  0.1286457E+00
         21   -1    0    0  505  501  0.00000000000E+00  0.00000000000E+00  0.10626208939E+03  0.10626208939E+03  0.00000000000E+00 0. -1.
         21   -1    0    0  506  502 -0.00000000000E+00 -0.00000000000E+00 -0.45014373351E+03  0.45014373351E+03  0.00000000000E+00 0. -1.
         21    1    1    2  503  502  0.66019046272E+02 -0.64709048794E+02 -0.22388554388E+03  0.24221996661E+03  0.00000000000E+00 0. -1.
         21    1    1    2  504  503  0.28911478307E+02  0.78621861805E+02 -0.72059165983E+02  0.11049793724E+03  0.00000000000E+00 0. -1.
         21    1    1    2  505  504  0.14068689867E+02 -0.70904836298E+02 -0.17679257400E+01  0.72308709064E+02  0.00000000000E+00 0.  1.
         21    1    1    2  506  501 -0.10899921445E+03  0.56992023288E+02 -0.46169008507E+02  0.13137920998E+03  0.00000000000E+00 0. -1.
<scales pt_clust_3="97.12663" pt_clust_4="67.83851" pt_clust_5="72.28709" pt_clust_6="14000.00000"></scales>
<clustering>
<clus scale="   72.287">  1  5  2 -1</clus>
<clus scale="   67.839">  1  4  2 -1</clus>
<clus scale="   97.127">  2  3  1 -1</clus>
<clus scale="   72.287">  1  3  2 -1</clus>
</clustering>
</event>
<event>
 6    0  0.6207838E+002  0.1427401E+03  0.7546771E-02  0.1209689E+00
         21   -1    0    0  506  501  0.00000000000E+00  0.00000000000E+00  0.20326635507E+03  0.20326635507E+03  0.00000000000E+00 0. -1.
         21   -1    0    0  505  502 -0.00000000000E+00 -0.00000000000E+00 -0.21453368292E+03  0.21453368292E+03  0.00000000000E+00 0.  1.
         21    1    1    2  503  502  0.85911206172E+01  0.48436724427E+02 -0.41035944419E+02  0.64061473297E+02  0.00000000000E+00 0.  1.
         21    1    1    2  504  501  0.67851283880E+02 -0.11428794047E+03  0.13085780482E+03  0.18651888683E+03  0.00000000000E+00 0. -1.
         21    1    1    2  505  504 -0.26369568888E+02 -0.15220050246E+02 -0.51433333049E+02  0.59769489218E+02  0.00000000000E+00 0.  1.
         21    1    1    2  506  503 -0.50072835610E+02  0.81071266289E+02 -0.49655855209E+02  0.10745018865E+03  0.00000000000E+00 0.  1.
<scales pt_clust_3="34.76302" pt_clust_4="132.95313" pt_clust_5="30.44674" pt_clust_6="34.76302"></scales>
<clustering>
<clus scale="   30.447">  2  5  1 -1</clus>
<clus scale="   34.763">  3  6 -1 -1</clus>
<clus scale="  132.953">  1  4  2 -1</clus>
<clus scale="  132.953">  1  3  2 -1</clus>
</clustering>
</event>
<event>
 6    0  0.6207838E+002  0.7688467E+02  0.7546771E-02  0.1338132E+00
         21   -1    0    0  503  501  0.00000000000E+00  0.00000000000E+00  0.21633807668E+03  0.21633807668E+03  0.00000000000E+00 0. -1.
         21   -1    0    0  505  502 -0.00000000000E+00 -0.00000000000E+00 -0.67617768960E+03  0.67617768960E+03  0.00000000000E+00 0. -1.
         21    1    1    2  503  504 -0.57036914167E+02 -0.95360094824E+01  0.14303893014E+03  0.15428635906E+03  0.00000000000E+00 0. -1.
         21    1    1    2  504  506  0.91006274540E+02 -0.91796681094E+02 -0.44660394397E+02  0.13676009467E+03  0.00000000000E+00 0. -1.
         21    1    1    2  505  501  0.13632045963E+02  0.44574062629E+02 -0.92439861524E+01  0.47519796047E+02  0.00000000000E+00 0. -1.
         21    1    1    2  506  502 -0.47601406337E+02  0.56758627948E+02 -0.54897416251E+03  0.55394951651E+03  0.00000000000E+00 0. -1.
<scales pt_clust_3="52.59020" pt_clust_4="14000.00000" pt_clust_5="46.61201" pt_clust_6="76.88467"></scales>
<clustering>
<clus scale="   46.612">  1  5  2 -1</clus>
<clus scale="   52.590">  1  3  2 -1</clus>
<clus scale="   76.885">  2  6  1 -1</clus>
<clus scale="   46.612">  1  3  2 -1</clus>
</clustering>
</event>
<event>
 6    0  0.6207838E+002  0.9577763E+02  0.7546771E-02  0.1289434E+00
         21   -1    0    0  503  501  0.00000000000E+00  0.00000000000E+00  0.23010947019E+04  0.23010947019E+04  0.00000000000E+00 0. -1.
         21   -1    0    0  506  502 -0.00000000000E+00 -0.00000000000E+00 -0.23015831049E+02  0.23015831049E+02  0.00000000000E+00 0. -1.
         21    1    1    2  503  505  0.55766868697E+02 -0.19083277210E+02  0.12498299347E+04  0.12512189980E+04  0.00000000000E+00 0. -1.
         21    1    1    2  504  501 -0.65178403325E+02 -0.47640723188E+02  0.65050864575E+03  0.65549932187E+03  0.00000000000E+00 0. -1.
         21    1    1    2  505  502  0.53775824661E+02  0.52171270756E+02  0.59312727202E+02  0.95559826383E+02  0.00000000000E+00 0. -1.
         21    1    1    2  506  504 -0.44364290032E+02  0.14552729642E+02  0.31842756310E+03  0.32183238668E+03  0.00000000000E+00 0. -1.
<scales pt_clust_3="58.94162" pt_clust_4="43.32370" pt_clust_5="76.99272" pt_clust_6="43.32370"></scales>
<clustering>
<clus scale="   43.324">  4  6 -1 -1</clus>
<clus scale="   58.942">  1  3  2 -1</clus>
<clus scale="   76.993">  2  5  1 -1</clus>
<clus scale="   58.942">  1  3  2 -1</clus>
</clustering>
</event>
<event>
 6    0  0.6207838E+002  0.1700472E+03  0.7546771E-02  0.1177799E+00
         21   -1    0    0  506  501  0.00000000000E+00  0.00000000000E+00  0.12845697106E+03  0.12845697106E+03  0.00000000000E+00 0.  1.
         21   -1    0    0  504  502 -0.00000000000E+00 -0.00000000000E+00 -0.64571943002E+03  0.64571943002E+03  0.00000000000E+00 0. -1.
         21    1    1    2  503  502 -0.18274693925E+02  0.75307416236E+02 -0.20437640385E+03  0.21857466877E+03  0.00000000000E+00 0. -1.
         21    1    1    2  504  505  0.94199447942E+02 -0.90440748089E+02 -0.67639539832E+02  0.14706519730E+03  0.00000000000E+00 0. -1.
         21    1    1    2  505  501  0.86692126592E+01 -0.41373416768E+02  0.67509106277E+02  0.79651706156E+02  0.00000000000E+00 0.  1.
         21    1    1    2  506  503 -0.84593966676E+02  0.56506748621E+02 -0.31275562156E+03  0.32888482886E+03  0.00000000000E+00 0. -1.
<scales pt_clust_3="56.58543" pt_clust_4="156.80115" pt_clust_5="42.27192" pt_clust_6="56.58543"></scales>
<clustering>
<clus scale="   42.272">  1  5  2 -1</clus>
<clus scale="   56.585">  3  6 -1 -1</clus>
<clus scale="  156.801">  1  4  2 -1</clus>
<clus scale="   42.272">  1  3  2 -1</clus>
</clustering>
</event>
<event>
 6    0  0.6207838E+002  0.1080673E+03  0.7546771E-02  0.1264191E+00
         21   -1    0    0  504  501  0.00000000000E+00  0.00000000000E+00  0.20934261098E+03  0.20934261098E+03  0.00000000000E+00 0. -1.
         21   -1    0    0  505  502 -0.00000000000E+00 -0.00000000000E+00 -0.38272455331E+03  0.38272455331E+03  0.00000000000E+00 0. -1.
         21    1    1    2  503  501 -0.40807585304E+02 -0.55970672971E+01  0.75961580957E+02  0.86410346384E+02  0.00000000000E+00 0. -1.
         21    1    1    2  504  506  0.70218934148E+02 -0.12553015316E+02  0.19065805763E+01  0.71357634181E+02  0.00000000000E+00 0. -1.
         21    1    1    2  505  503 -0.84520866307E+02  0.72948713616E+02 -0.31473321127E+03  0.33394952603E+03  0.00000000000E+00 0. -1.
         21    1    1    2  506  502  0.55109517463E+02 -0.54798631003E+02  0.63483107402E+02  0.10034965770E+03  0.00000000000E+00 0. -1.
<scales pt_clust_3="41.18964" pt_clust_4="60.24068" pt_clust_5="14000.00000" pt_clust_6="108.06728"></scales>
<clustering>
<clus scale="   41.190">  1  3  2 -1</clus>
<clus scale="   60.241">  1  4  2 -1</clus>
<clus scale="  108.067">  1  6  2 -1</clus>
<clus scale="   41.190">  1  3  2 -1</clus>
</clustering>
</event>
<event>
 6    0  0.6207838E+002  0.6975551E+02  0.7546771E-02  0.1360926E+00
         21   -1    0    0  504  501  0.00000000000E+00  0.00000000000E+00  0.77846785919E+03  0.77846785919E+03  0.00000000000E+00 0. -1.
         21   -1    0    0  506  502 -0.00000000000E+00 -0.00000000000E+00 -0.85182372830E+02  0.85182372830E+02  0.00000000000E+00 0. -1.
         21    1    1    2  503  501 -0.21155872009E+01 -0.68549872658E+02  0.52748367235E+03  0.53192347697E+03  0.00000000000E+00 0. -1.
         21    1    1    2  504  505 -0.12534229606E+02  0.83852569304E+02  0.42701869282E+02  0.94930553200E+02  0.00000000000E+00 0. -1.
         21    1    1    2  505  502  0.40793056707E+02  0.52053416360E+02 -0.26040820477E+02  0.71075705845E+02  0.00000000000E+00 0. -1.
         21    1    1    2  506  503 -0.26143239900E+02 -0.67356113007E+02  0.14914076521E+03  0.16572049601E+03  0.00000000000E+00 0. -1.
<scales pt_clust_3="14000.00000" pt_clust_4="69.75551" pt_clust_5="66.13344" pt_clust_6="58.08949"></scales>
<clustering>
<clus scale="   66.133">  2  5  1 -1</clus>
<clus scale="   58.089">  2  6  1 -1</clus>
<clus scale="   69.756">  2  4  1 -1</clus>
<clus scale="   69.756">  1  3  2 -1</clus>
</clustering>
</event>
<event>
 6    0  0.6207838E+002  0.7041682E+02  0.7546771E-02  0.1358681E+00
         21   -1    0    0  506  501  0.00000000000E+00  0.00000000000E+00  0.63109459619E+03  0.63109459619E+03  0.00000000000E+00 0. -1.
         21   -1    0    0  505  502 -0.00000000000E+00 -0.00000000000E+00 -0.14118516147E+04  0.14118516147E+04  0.00000000000E+00 0.  1.
         21    1    1    2  503  501  0.36145586816E+02  0.63603047051E+01  0.20904251708E+03  0.21223979568E+03  0.00000000000E+00 0. -1.
         21    1    1    2  504  503  0.57706259072E+02 -0.76111155242E+02  0.19801222623E+03  0.21984485899E+03  0.00000000000E+00 0. -1.
         21    1    1    2  505  504 -0.19316627825E+02  0.67633113240E+02 -0.13918495770E+04  0.13936257084E+04  0.00000000000E+00 0.  1.
         21    1    1    2  506  502 -0.74535218064E+02  0.21177372963E+01  0.20403781519E+03  0.21723584780E+03  0.00000000000E+00 0. -1.
<scales pt_clust_3="36.70091" pt_clust_4="14000.00000" pt_clust_5="70.41682" pt_clust_6="56.67591"></scales>
<clustering>
<clus scale="   36.701">  1  3  2 -1</clus>
<clus scale="   56.676">  1  6  2 -1</clus>
<clus scale="   70.417">  2  5  1 -1</clus>
<clus scale="   36.701">  1  3  2 -1</clus>
</clustering>
</event>
<event>
 6    0  0.6207838E+002  0.8258363E+02  0.7546771E-02  0.1321875E+00
         21   -1    0    0  505  501  0.00000000000E+00  0.00000000000E+00  0.96806051531E+02  0.96806051531E+02  0.00000000000E+00 0.  1.
         21   -1    0    0  506  502 -0.00000000000E+00 -0.00000000000E+00 -0.27640350017E+03  0.27640350017E+03  0.00000000000E+00 0.  1.
         21    1    1    2  503  501  0.22587839004E+02 -0.30882340237E+02  0.61916720427E+01  0.38759079092E+02  0.00000000000E+00 0.  1.
         21    1    1    2  504  502 -0.52962291275E+01  0.93530283028E+02 -0.22481037284E+02  0.96339820031E+02  0.00000000000E+00 0.  1.
         21    1    1    2  505  504 -0.81834991026E+02 -0.56118130539E+01 -0.51049677496E+02  0.96615359930E+02  0.00000000000E+00 0.  1.
         21    1    1    2  506  503  0.64543381150E+02 -0.57036129738E+02 -0.11225840590E+03  0.14149529265E+03  0.00000000000E+00 0.  1.
<scales pt_clust_3="38.26133" pt_clust_4="82.58363" pt_clust_5="76.41392" pt_clust_6="14000.00000"></scales>
<clustering>
<clus scale="   38.261">  1  3  2 -1</clus>
<clus scale="   76.414">  1  5  2 -1</clus>
<clus scale="   82.584">  1  4  2 -1</clus>
<clus scale="   38.261">  1  3  2 -1</clus>
</clustering>
</event>
<event>
 6    0  0.6207838E+002  0.1961414E+03  0.7546771E-02  0.1153036E+00
         21   -1    0    0  503  501  0.00000000000E+00  0.00000000000E+00  0.61020734604E+03  0.61020734604E+03  0.00000000000E+00 0.  1.
         21   -1    0    0  506  502 -0.00000000000E+00 -0.00000000000E+00 -0.84712793295E+03  0.84712793295E+03  0.00000000000E+00 0. -1.
         21    1    1    2  503  505 -0.13742182614E+03  0.11449466299E+03  0.15149691657E+03  0.23440371560E+03  0.00000000000E+00 0.  1.
         21    1    1    2  504  501 -0.14319576463E+02  0.27458468539E+02  0.37596077303E+03  0.37723403959E+03  0.00000000000E+00 0.  1.
         21    1    1    2  505  502  0.82735542577E+01 -0.34885023108E+02 -0.60485868263E+03  0.60592032685E+03  0.00000000000E+00 0. -1.
         21    1    1    2  506  504  0.14346784835E+03 -0.10706810842E+03 -0.15951959388E+03  0.23977719696E+03  0.00000000000E+00 0. -1.
<scales pt_clust_3="196.14138" pt_clust_4="30.96801" pt_clust_5="35.78449" pt_clust_6="14000.00000"></scales>
<clustering>
<clus scale="   30.968">  1  4  2 -1</clus>
<clus scale="   35.784">  2  5  1 -1</clus>
<clus scale="  196.141">  1  3  2 -1</clus>
<clus scale="   30.968">  1  3  2 -1</clus>
</clustering>
</event>
<event>
 6    0  0.6207838E+002  0.1138749E+03  0.7546771E-02  0.1253558E+00
         21   -1    0    0  504  501  0.00000000000E+00  0.00000000000E+00  0.44169541436E+03  0.44169541436E+03  0.00000000000E+00 0.  1.
         21   -1    0    0  506  502 -0.00000000000E+00 -0.00000000000E+00 -0.80918872576E+03  0.80918872576E+03  0.00000000000E+00 0. -1.
         21    1    1    2  503  501 -0.21970424219E+02  0.32564771127E+02  0.11460945312E+02  0.40920864194E+02  0.00000000000E+00 0.  1.
         21    1    1    2  504  505 -0.34037781612E+02  0.64710399642E+02  0.30618301923E+03  0.31479207052E+03  0.00000000000E+00 0.  1.
         21    1    1    2  505  502  0.97371251633E+02 -0.11844628217E+03  0.47917782743E+02  0.16064493863E+03  0.00000000000E+00 0.  1.
         21    1    1    2  506  503 -0.41363045802E+02  0.21171111401E+02 -0.73305505868E+03  0.73452626677E+03  0.00000000000E+00 0. -1.
<scales pt_clust_3="39.28312" pt_clust_4="113.87491" pt_clust_5="14000.00000" pt_clust_6="46.52721"></scales>
<clustering>
<clus scale="   39.283">  1  3  2 -1</clus>
<clus scale="   46.527">  2  6  1 -1</clus>
<clus scale="  113.875">  1  4  2 -1</clus>
<clus scale="   39.283">  1  3  2 -1</clus>
</clustering>
</event>
<event>
 6    0  0.6207838E+002  0.6529109E+02  0.7546771E-02  0.1376880E+00
         21   -1    0    0  504  501  0.00000000000E+00  0.00000000000E+00  0.17035560695E+03  0.17035560695E+03  0.00000000000E+00 0.  1.
         21   -1    0    0  506  502 -0.00000000000E+00 -0.00000000000E+00 -0.70056837563E+03  0.70056837563E+03  0.00000000000E+00 0. -1.
         21    1    1    2  503  502  0.95647924663E+02 -0.23769218467E+02 -0.12576909859E+03  0.15978537918E+03  0.00000000000E+00 0. -1.
         21    1    1    2  504  503 -0.45839942570E+02 -0.57327085052E+02  0.85181064584E+02  0.11244335809E+03  0.00000000000E+00 0.  1.
         21    1    1    2  505  501 -0.19882628208E+02  0.68821744206E+02  0.30288942385E+02  0.77776419376E+02  0.00000000000E+00 0.  1.
         21    1    1    2  506  505 -0.29925353885E+02  0.12274559313E+02 -0.51991367706E+03  0.52091882593E+03  0.00000000000E+00 0. -1.
<scales pt_clust_3="73.28860" pt_clust_4="14000.00000" pt_clust_5="65.29109" pt_clust_6="32.34489"></scales>
<clustering>
<clus scale="   32.345">  2  6  1 -1</clus>
<clus scale="   73.289">  2  3  1 -1</clus>
<clus scale="   65.291">  2  5  1 -1</clus>
<clus scale="   65.291">  1  3  2 -1</clus>
</clustering>
</event>
<event>
 6    0  0.6207838E+002  0.1206655E+03  0.7546771E-02  0.1242003E+00
         21   -1    0    0  505  501  0.00000000000E+00  0.00000000000E+00  0.82037951385E+03  0.82037951385E+03  0.00000000000E+00 0.  1.
         21   -1    0    0  501  502 -0.00000000000E+00 -0.00000000000E+00 -0.15390434237E+03  0.15390434237E+03  0.00000000000E+00 0. -1.
         21    1    1    2  503  502  0.16224387105E+02  0.29701774390E+02 -0.15499514102E+02  0.37224468784E+02  0.00000000000E+00 0.  1.
         21    1    1    2  504  506  0.10217731283E+03 -0.10820429735E+03 -0.46209958864E+02  0.15583238919E+03  0.00000000000E+00 0. -1.
         21    1    1    2  505  504 -0.64013217480E+02  0.10079160060E+03  0.70960730724E+03  0.71958263546E+03  0.00000000000E+00 0.  1.
         21    1    1    2  506  503 -0.54388482453E+02 -0.22289077637E+02  0.18577337201E+02  0.61644362783E+02  0.00000000000E+00 0. -1.
<scales pt_clust_3="33.84414" pt_clust_4="14000.00000" pt_clust_5="120.66555" pt_clust_6="54.46145"></scales>
<clustering>
<clus scale="   33.844">  2  3  1 -1</clus>
<clus scale="   54.461">  2  6  1 -1</clus>
<clus scale="  120.666">  1  5  2 -1</clus>
<clus scale="  120.666">  1  3  2 -1</clus>
</clustering>
</event>
<event>
 6    0  0.6207838E+002  0.1475505E+03  0.7546771E-02  0.1203516E+00
         21   -1    0    0  504  501  0.00000000000E+00  0.00000000000E+00  0.73351254771E+03  0.73351254771E+03  0.00000000000E+00 0. -1.
         21   -1    0    0  503  502 -0.00000000000E+00 -0.00000000000E+00 -0.13004384384E+03  0.13004384384E+03  0.00000000000E+00 0. -1.
         21    1    1    2  503  506 -0.30846534915E+02 -0.11853052536E+02 -0.74010575399E+01  0.33864128859E+02  0.00000000000E+00 0.  1.
         21    1    1    2  504  505  0.14991196177E+03 -0.47226646251E+02  0.64136662528E+03  0.66034468304E+03  0.00000000000E+00 0. -1.
         21    1    1    2  505  502 -0.58610512086E+02  0.33362874321E+02 -0.66261973745E+02  0.94545876031E+02  0.00000000000E+00 0. -1.
         21    1    1    2  506  501 -0.60454914771E+02  0.25716824466E+02  0.35765109872E+02  0.74801703622E+02  0.00000000000E+00 0. -1.
<scales pt_clust_3="33.04548" pt_clust_4="14000.00000" pt_clust_5="147.55045" pt_clust_6="70.05351"></scales>
<clustering>
<clus scale="   33.045">  2  3  1 -1</clus>
<clus scale="   70.054">  2  6  1 -1</clus>
<clus scale="  147.550">  2  5  1 -1</clus>
<clus scale="  147.550">  1  3  2 -1</clus>
</clustering>
</event>
<event>
 6    0  0.6207838E+002  0.1982832E+03  0.7546771E-02  0.1151196E+00
         21   -1    0    0  502  501  0.00000000000E+00  0.00000000000E+00  0.11403096163E+04  0.11403096163E+04  0.00000000000E+00 0.  1.
         21   -1    0    0  506  502 -0.00000000000E+00 -0.00000000000E+00 -0.85337707200E+03  0.85337707200E+03  0.00000000000E+00 0.  1.
         21    1    1    2  503  501 -0.35301934815E+02  0.36572752899E+01  0.78368770032E+03  0.78449092659E+03  0.00000000000E+00 0.  1.
         21    1    1    2  504  503 -0.19696766818E+02  0.10284265802E+03  0.91366351291E+02  0.13896900762E+03  0.00000000000E+00 0.  1.
         21    1    1    2  505  504 -0.75516672229E+02  0.50895713772E+02  0.21922673782E+03  0.23738892990E+03  0.00000000000E+00 0.  1.
         21    1    1    2  506  505  0.13051537386E+03 -0.15739564708E+03 -0.80734824512E+03  0.83283782421E+03  0.00000000000E+00 0.  1.
<scales pt_clust_3="35.49088" pt_clust_4="108.57739" pt_clust_5="198.28325" pt_clust_6="14000.00000"></scales>
<clustering>
<clus scale="   35.491">  1  3  2 -1</clus>
<clus scale="  108.577">  1  4  2 -1</clus>
<clus scale="  198.283">  1  5  2 -1</clus>
<clus scale="   35.491">  1  3  2 -1</clus>
</clustering>
</event>
<event>
 6    0  0.6207838E+002  0.2052986E+03  0.7546771E-02  0.1145344E+00
         21   -1    0    0  503  501  0.00000000000E+00  0.00000000000E+00  0.99587185047E+03  0.99587185047E+03  0.00000000000E+00 0.  1.
         21   -1    0    0  506  502 -0.00000000000E+00 -0.00000000000E+00 -0.16402448990E+03  0.16402448990E+03  0.00000000000E+00 0.  1.
         21    1    1    2  503  504  0.13584079808E+03  0.16013163157E+03  0.84486926629E+03  0.87057391356E+03  0.00000000000E+00 0.  1.
         21    1    1    2  504  502 -0.34360822599E+02  0.95360267652E+01 -0.51320375667E+02  0.62493062772E+02  0.00000000000E+00 0.  1.
         21    1    1    2  505  501 -0.11897549431E+03 -0.13536282860E+03  0.49190504651E+02  0.18680998196E+03  0.00000000000E+00 0.  1.
         21    1    1    2  506  505  0.17495518828E+02 -0.34304829732E+02 -0.10892034705E+02  0.40019382079E+02  0.00000000000E+00 0.  1.
<scales pt_clust_3="205.29860" pt_clust_4="35.65953" pt_clust_5="14000.00000" pt_clust_6="33.36951"></scales>
<clustering>
<clus scale="   35.660">  2  4  1 -1</clus>
<clus scale="   33.370">  2  6  1 -1</clus>
<clus scale="  205.299">  1  3  2 -1</clus>
<clus scale="  205.299">  1  3  2 -1</clus>
</clustering>
</event>
<event>
 6    0  0.6207838E+002  0.1079490E+03  0.7546771E-02  0.1264416E+00
         21   -1    0    0  506  501  0.00000000000E+00  0.00000000000E+00  0.33148675537E+03  0.33148675537E+03  0.00000000000E+00 0.  1.
         21   -1    0    0  504  502 -0.00000000000E+00 -0.00000000000E+00 -0.61824272519E+03  0.61824272519E+03  0.00000000000E+00 0. -1.
         21    1    1    2  503  505  0.49544220275E+02 -0.96403468331E+02 -0.35401780803E+03  0.37023893214E+03  0.00000000000E+00 0. -1.
         21    1    1    2  504  501  0.36699298209E+02  0.26635479232E+02 -0.17727486006E+02  0.48688304582E+02  0.00000000000E+00 0.  1.
         21    1    1    2  505  502  0.14301599272E+02  0.28687647220E+02 -0.21208582066E+03  0.21449455044E+03  0.00000000000E+00 0. -1.
         21    1    1    2  506  503 -0.10054511776E+03  0.41080341879E+02  0.29707514487E+03  0.31630769339E+03  0.00000000000E+00 0.  1.
<scales pt_clust_3="107.94900" pt_clust_4="47.69276" pt_clust_5="32.05490" pt_clust_6="14000.00000"></scales>
<clustering>
<clus scale="   32.055">  2  5  1 -1</clus>
<clus scale="   47.693">  2  4  1 -1</clus>
<clus scale="  107.949">  2  3  1 -1</clus>
<clus scale="  107.949">  1  3  2 -1</clus>
</clustering>
</event>
<event>
 6    0  0.6207838E+002  0.1251952E+03  0.7546771E-02  0.1234765E+00
         21   -1    0    0  503  501  0.00000000000E+00  0.00000000000E+00  0.88557868357E+03  0.88557868357E+03  0.00000000000E+00 0.  1.
         21   -1    0    0  506  502 -0.00000000000E+00 -0.00000000000E+00 -0.21900059765E+03  0.21900059765E+03  0.00000000000E+00 0. -1.
         21    1    1    2  503  505  0.77820553318E+02  0.39187394645E+01  0.57868826781E+03  0.58391052939E+03  0.00000000000E+00 0.  1.
         21    1    1    2  504  501  0.34630936776E+02 -0.65816043103E+02  0.26800631343E+03  0.27813384790E+03  0.00000000000E+00 0.  1.
         21    1    1    2  505  502 -0.96983720974E+02  0.88706490162E+02 -0.14368522964E+03  0.19473091369E+03  0.00000000000E+00 0. -1.
         21    1    1    2  506  504 -0.15467769120E+02 -0.26809186524E+02 -0.36431265673E+02  0.47803990233E+02  0.00000000000E+00 0.  1.
<scales pt_clust_3="14000.00000" pt_clust_4="74.84781" pt_clust_5="125.19517" pt_clust_6="30.95132"></scales>
<clustering>
<clus scale="   30.951">  2  6  1 -1</clus>
<clus scale="   74.848">  1  4  2 -1</clus>
<clus scale="  125.195">  2  5  1 -1</clus>
<clus scale="   74.848">  1  3  2 -1</clus>
</clustering>
</event>
<event>
 6    0  0.6207838E+002  0.8459909E+02  0.7546771E-02  0.1316484E+00
         21   -1    0    0  504  501  0.00000000000E+00  0.00000000000E+00  0.12748482399E+02  0.12748482399E+02  0.00000000000E+00 0. -1.
         21   -1    0    0  503  502 -0.00000000000E+00 -0.00000000000E+00 -0.15341454611E+04  0.15341454611E+04  0.00000000000E+00 0. -1.
         21    1    1    2  503  505  0.66671941492E+02 -0.65831084598E+02 -0.67515803189E+03  0.68162837933E+03  0.00000000000E+00 0. -1.
         21    1    1    2  504  506 -0.53670110635E+02  0.62290793292E+02 -0.36672723829E+03  0.37583173230E+03  0.00000000000E+00 0. -1.
         21    1    1    2  505  501  0.29622001830E+02  0.15302284824E+02 -0.69920980545E+02  0.77463323151E+02  0.00000000000E+00 0. -1.
         21    1    1    2  506  502 -0.42623832687E+02 -0.11761993518E+02 -0.40959072799E+03  0.41197050872E+03  0.00000000000E+00 0. -1.
<scales pt_clust_3="84.59909" pt_clust_4="14000.00000" pt_clust_5="33.34101" pt_clust_6="39.90302"></scales>
<clustering>
<clus scale="   33.341">  1  5  2 -1</clus>
<clus scale="   39.903">  2  6  1 -1</clus>
<clus scale="   84.599">  2  3  1 -1</clus>
<clus scale="   33.341">  1  3  2 -1</clus>
</clustering>
</event>
<event>
 6    0  0.6207838E+002  0.8984097E+02  0.7546771E-02  0.1303237E+00
         21   -1    0    0  504  501  0.00000000000E+00  0.00000000000E+00  0.16010866743E+03  0.16010866743E+03  0.00000000000E+00 0. -1.
         21   -1    0    0  505  502 -0.00000000000E+00 -0.00000000000E+00 -0.38745358064E+03  0.38745358064E+03  0.00000000000E+00 0. -1.
         21    1    1    2  503  506  0.12668143875E+02 -0.37329374603E+02 -0.31551081702E+01  0.39546413049E+02  0.00000000000E+00 0.  1.
         21    1    1    2  504  503  0.56748008225E+01 -0.88620543310E+02  0.62502178206E+02  0.10859247829E+03  0.00000000000E+00 0. -1.
         21    1    1    2  505  501 -0.26553636058E+02  0.51854423444E+02  0.35832338374E+02  0.68395418648E+02  0.00000000000E+00 0. -1.
         21    1    1    2  506  502  0.82106913608E+01  0.74095494469E+02 -0.32252432162E+03  0.33102793808E+03  0.00000000000E+00 0. -1.
<scales pt_clust_3="31.41515" pt_clust_4="31.41515" pt_clust_5="58.25785" pt_clust_6="76.47345"></scales>
<clustering>
<clus scale="   31.415">  3  4 -1 -1</clus>
<clus scale="   58.258">  1  5  2 -1</clus>
<clus scale="   76.473">  2  6  1 -1</clus>
<clus scale="   58.258">  1  3  2 -1</clus>
</clustering>
</event>
<event>
 6    0  0.6207838E+002  0.1749857E+03  0.7546771E-02  0.1172746E+00
         21   -1    0    0  505  501  0.00000000000E+00  0.00000000000E+00  0.37890942490E+03  0.37890942490E+03  0.00000000000E+00 0.  1.
         21   -1    0    0  506  502 -0.00000000000E+00 -0.00000000000E+00 -0.35854353714E+03  0.35854353714E+03  0.00000000000E+00 0.  1.
         21    1    1    2  503  501  0.17353935680E+03 -0.30267710097E+02  0.29947290645E+03  0.34744217408E+03  0.00000000000E+00 0.  1.
         21    1    1    2  504  503 -0.57897388416E+02 -0.23451530002E+01 -0.14568018289E+03  0.15678113092E+03  0.00000000000E+00 0.  1.
         21    1    1    2  505  502 -0.64145457674E+02  0.71694812876E+02 -0.13711082550E+02  0.97173966257E+02  0.00000000000E+00 0. -1.
         21    1    1    2  506  504 -0.51496510712E+02 -0.39081949778E+02 -0.11971575326E+03  0.13605569078E+03  0.00000000000E+00 0.  1.
<scales pt_clust_3="170.24931" pt_clust_4="38.28366" pt_clust_5="96.20180" pt_clust_6="38.28366"></scales>
<clustering>
<clus scale="   38.284">  4  6 -1 -1</clus>
<clus scale="   96.202">  2  5  1 -1</clus>
<clus scale="  170.249">  1  3  2 -1</clus>
<clus scale="  170.249">  1  3  2 -1</clus>
</clustering>
</event>
<event>
 6    0  0.6207838E+002  0.7495671E+02  0.7546771E-02  0.1344005E+00
         21   -1    0    0  503  501  0.00000000000E+00  0.00000000000E+00  0.32155353491E+03  0.32155353491E+03  0.00000000000E+00 0. -1.
         21   -1    0    0  504  502 -0.00000000000E+00 -0.00000000000E+00 -0.10486519143E+04  0.10486519143E+04  0.00000000000E+00 0. -1.
         21    1    1    2  503  506  0.61295652435E+02  0.43354271453E+02  0.30580396967E+03  0.31488540412E+03  0.00000000000E+00 0. -1.
         21    1    1    2  504  505  0.54305302995E+02 -0.42627745213E+02 -0.58291341950E+03  0.58698743191E+03  0.00000000000E+00 0. -1.
         21    1    1    2  505  501 -0.90416048132E+02  0.17027774361E+02 -0.39214025854E+03  0.40278901329E+03  0.00000000000E+00 0. -1.
         21    1    1    2  506  502 -0.25184907299E+02 -0.17754300601E+02 -0.57848670980E+02  0.65543599837E+02  0.00000000000E+00 0. -1.
<scales pt_clust_3="74.95671" pt_clust_4="66.14865" pt_clust_5="14000.00000" pt_clust_6="30.81387"></scales>
<clustering>
<clus scale="   30.814">  2  6  1 -1</clus>
<clus scale="   66.149">  2  4  1 -1</clus>
<clus scale="   74.957">  1  3  2 -1</clus>
<clus scale="   74.957">  1  3  2 -1</clus>
</clustering>
</event>
<event>
 6    0  0.6207838E+002  0.9939513E+02  0.7546771E-02  0.1281573E+00
         21   -1    0    0  503  501  0.00000000000E+00  0.00000000000E+00  0.19244829350E+02  0.19244829350E+02  0.00000000000E+00 0. -1.
         21   -1    0    0  506  502 -0.00000000000E+00 -0.00000000000E+00 -0.11645299970E+04  0.11645299970E+04  0.00000000000E+00 0.  1.
         21    1    1    2  503  502  0.45286329111E+02  0.11250793234E+02 -0.14479261013E+03  0.15212603952E+03  0.00000000000E+00 0.  1.
         21    1    1    2  504  501 -0.56337899779E+02 -0.50214210279E+02 -0.15292848095E+03  0.17053605528E+03  0.00000000000E+00 0. -1.
         21    1    1    2  505  504 -0.50644523380E+02 -0.19958178934E+02 -0.17805713952E+03  0.18619221678E+03  0.00000000000E+00 0.  1.
         21    1    1    2  506  505  0.61696094048E+02  0.58921595979E+02 -0.66950693707E+03  0.67492051479E+03  0.00000000000E+00 0.  1.
<scales pt_clust_3="46.66296" pt_clust_4="31.02167" pt_clust_5="31.02167" pt_clust_6="92.44034"></scales>
<clustering>
<clus scale="   31.022">  4  5 -1 -1</clus>
<clus scale="   46.663">  1  3  2 -1</clus>
<clus scale="   92.440">  2  6  1 -1</clus>
<clus scale="   46.663">  1  3  2 -1</clus>
</clustering>
</event>
<event>
 6    0  0.6207838E+002  0.1917371E+03  0.7546771E-02  0.1156904E+00
         21   -1    0    0  504  501  0.00000000000E+00  0.00000000000E+00  0.31194342347E+04  0.31194342347E+04  0.00000000000E+00 0.  1.
         21   -1    0    0  505  502 -0.00000000000E+00 -0.00000000000E+00 -0.12150854170E+03  0.12150854170E+03  0.00000000000E+00 0. -1.
         21    1    1    2  503  502  0.17427548944E+03  0.90047286705E+02 -0.24034735934E+02  0.19763129457E+03  0.00000000000E+00 0. -1.
         21    1    1    2  504  506 -0.67012437150E+01 -0.46568022815E+02  0.18209175592E+04  0.18215252523E+04  0.00000000000E+00 0.  1.
         21    1    1    2  505  501 -0.18368101052E+02  0.28003990000E+02  0.59174531681E+02  0.67994380591E+02  0.00000000000E+00 0.  1.
         21    1    1    2  506  503 -0.14920614467E+03 -0.71483253890E+02  0.11418683381E+04  0.11537918489E+04  0.00000000000E+00 0.  1.
<scales pt_clust_3="14000.00000" pt_clust_4="46.98261" pt_clust_5="33.49046" pt_clust_6="191.73705"></scales>
<clustering>
<clus scale="   33.490">  2  5  1 -1</clus>
<clus scale="   46.983">  1  4  2 -1</clus>
<clus scale="  191.737">  1  6  2 -1</clus>
<clus scale="   46.983">  1  3  2 -1</clus>
</clustering>
</event>
<event>
 6    0  0.6207838E+002  0.9779024E+02  0.7546771E-02  0.1285013E+00
         21   -1    0    0  503  501  0.00000000000E+00  0.00000000000E+00  0.51208994403E+02  0.51208994403E+02  0.00000000000E+00 0.  1.
         21   -1    0    0  505  502 -0.00000000000E+00 -0.00000000000E+00 -0.77916004384E+03  0.77916004384E+03  0.00000000000E+00 0. -1.
         21    1    1    2  503  504 -0.21778130350E+02 -0.22606683656E+02 -0.28896224551E+02  0.42665453247E+02  0.00000000000E+00 0.  1.
         21    1    1    2  504  502  0.67175846307E+02 -0.23950136655E+01 -0.30917274738E+03  0.31639550903E+03  0.00000000000E+00 0.  1.
         21    1    1    2  505  506 -0.11577453696E+03  0.77701430962E+02 -0.34601308446E+03  0.37305001058E+03  0.00000000000E+00 0. -1.
         21    1    1    2  506  501  0.70376821002E+02 -0.52699733641E+02 -0.43868993054E+02  0.98258065378E+02  0.00000000000E+00 0.  1.
<scales pt_clust_3="31.39027" pt_clust_4="65.53854" pt_clust_5="14000.00000" pt_clust_6="97.79024"></scales>
<clustering>
<clus scale="   31.390">  1  3  2 -1</clus>
<clus scale="   65.539">  2  4  1 -1</clus>
<clus scale="   97.790">  1  6  2 -1</clus>
<clus scale="   31.390">  1  3  2 -1</clus>
</clustering>
</event>
<event>
 6    0  0.6207838E+002  0.1092240E+03  0.7546771E-02  0.1262014E+00
         21   -1    0    0  506  501  0.00000000000E+00  0.00000000000E+00  0.85775219269E+02  0.85775219269E+02  0.00000000000E+00 0.  1.
         21   -1    0    0  503  502 -0.00000000000E+00 -0.00000000000E+00 -0.16435251293E+04  0.16435251293E+04  0.00000000000E+00 0.  1.
         21    1    1    2  503  501  0.43297297554E+01 -0.12854910625E+03 -0.87949682055E+03  0.88885222429E+03  0.00000000000E+00 0.  1.
         21    1    1    2  504  502 -0.54055559098E+01  0.39548863638E+02 -0.47625759307E+03  0.47792742923E+03  0.00000000000E+00 0.  1.
         21    1    1    2  505  504 -0.85141281383E+01  0.47912497262E+02 -0.27442066578E+03  0.27870199062E+03  0.00000000000E+00 0.  1.
         21    1    1    2  506  505  0.95899542926E+01  0.41087745350E+02  0.72425169405E+02  0.83818704385E+02  0.00000000000E+00 0.  1.
<scales pt_clust_3="103.93702" pt_clust_4="30.40433" pt_clust_5="30.40433" pt_clust_6="42.19206"></scales>
<clustering>
<clus scale="   30.404">  4  5 -1 -1</clus>
<clus scale="   42.192">  1  6  2 -1</clus>
<clus scale="  103.937">  1  3  2 -1</clus>
<clus scale="   42.192">  1  3  2 -1</clus>
</clustering>
</event>
<event>
 6    0  0.6207838E+002  0.7598961E+02  0.7546771E-02  0.1340834E+00
         21   -1    0    0  504  501  0.00000000000E+00  0.00000000000E+00  0.24276236093E+04  0.24276236093E+04  0.00000000000E+00 0.  1.
         21   -1    0    0  503  502 -0.00000000000E+00 -0.00000000000E+00 -0.28864754676E+02  0.28864754676E+02  0.00000000000E+00 0. -1.
         21    1    1    2  503  501  0.11370078340E+02 -0.33796632828E+02  0.43466580242E+03  0.43612595756E+03  0.00000000000E+00 0. -1.
         21    1    1    2  504  506 -0.73904989191E+02  0.32849549471E+01  0.14267390319E+04  0.14286556630E+04  0.00000000000E+00 0.  1.
         21    1    1    2  505  502 -0.15115625793E+02 -0.47558021907E+02  0.74164209302E+01  0.50450479584E+02  0.00000000000E+00 0. -1.
         21    1    1    2  506  505  0.77650536644E+02  0.78069699788E+02  0.52993759936E+03  0.54125626378E+03  0.00000000000E+00 0. -1.
<scales pt_clust_3="35.65797" pt_clust_4="14000.00000" pt_clust_5="50.32107" pt_clust_6="75.98961"></scales>
<clustering>
<clus scale="   35.658">  1  3  2 -1</clus>
<clus scale="   50.321">  2  5  1 -1</clus>
<clus scale="   75.990">  2  6  1 -1</clus>
<clus scale="   35.658">  1  3  2 -1</clus>
</clustering>
</event>
<event>
 6    0  0.6207838E+002  0.7482002E+02  0.7546771E-02  0.1344429E+00
         21   -1    0    0  505  501  0.00000000000E+00  0.00000000000E+00  0.17551464466E+04  0.17551464466E+04  0.00000000000E+00 0. -1.
         21   -1    0    0  503  502 -0.00000000000E+00 -0.00000000000E+00 -0.50345734278E+03  0.50345734278E+03  0.00000000000E+00 0. -1.
         21    1    1    2  503  506 -0.13624049917E+02 -0.73479796538E+02 -0.48840887951E+03  0.49409323900E+03  0.00000000000E+00 0. -1.
         21    1    1    2  504  502  0.45227868441E+02  0.10163235593E+03  0.10764682543E+04  0.10822008124E+04  0.00000000000E+00 0. -1.
         21    1    1    2  505  504 -0.52026484460E+02  0.17610056829E+02  0.59393244117E+03  0.59646677516E+03  0.00000000000E+00 0. -1.
         21    1    1    2  506  501  0.20422665936E+02 -0.45762616219E+02  0.69697287778E+02  0.85842962733E+02  0.00000000000E+00 0.  1.
<scales pt_clust_3="14000.00000" pt_clust_4="74.82002" pt_clust_5="44.80072" pt_clust_6="50.11290"></scales>
<clustering>
<clus scale="   50.113">  1  6  2 -1</clus>
<clus scale="   44.801">  1  5  2 -1</clus>
<clus scale="   74.820">  1  4  2 -1</clus>
<clus scale="   50.113">  1  3  2 -1</clus>
</clustering>
</event>
<event>
 6    0  0.6207838E+002  0.8346443E+02  0.7546771E-02  0.1319498E+00
         21   -1    0    0  503  501  0.00000000000E+00  0.00000000000E+00  0.23802599913E+03  0.23802599913E+03  0.00000000000E+00 0. -1.
         21   -1    0    0  504  502 -0.00000000000E+00 -0.00000000000E+00 -0.28835780037E+03  0.28835780037E+03  0.00000000000E+00 0. -1.
         21    1    1    2  503  505 -0.14073050186E+02  0.82034337442E+02  0.39384535676E+01  0.83325834395E+02  0.00000000000E+00 0. -1.
         21    1    1    2  504  506  0.10068018631E+03 -0.39535379311E+02  0.50152220550E+02  0.11922579988E+03  0.00000000000E+00 0. -1.
         21    1    1    2  505  502 -0.34317902905E+02 -0.43375998420E+01 -0.20298573897E+03  0.20591197988E+03  0.00000000000E+00 0. -1.
         21    1    1    2  506  501 -0.52289233216E+02 -0.38161358289E+02  0.98563263618E+02  0.11792018534E+03  0.00000000000E+00 0. -1.
<scales pt_clust_3="14000.00000" pt_clust_4="83.46443" pt_clust_5="34.59094" pt_clust_6="68.25336"></scales>
<clustering>
<clus scale="   34.591">  2  5  1 -1</clus>
<clus scale="   68.253">  1  6  2 -1</clus>
<clus scale="   83.464">  1  4  2 -1</clus>
<clus scale="   68.253">  1  3  2 -1</clus>
</clustering>
</event>
<event>
 6    0  0.6207838E+002  0.1193984E+03  0.7546771E-02  0.1244093E+00
         21   -1    0    0  503  501  0.00000000000E+00  0.00000000000E+00  0.20155925802E+04  0.20155925802E+04  0.00000000000E+00 0. -1.
         21   -1    0    0  506  502 -0.00000000000E+00 -0.00000000000E+00 -0.50163531649E+02  0.50163531649E+02  0.00000000000E+00 0. -1.
         21    1    1    2  503  502 -0.88202826089E+02  0.64980968328E+02  0.67082998786E+02  0.12846164214E+03  0.00000000000E+00 0. -1.
         21    1    1    2  504  501  0.85243154094E+01  0.33799008294E+02  0.15785468380E+04  0.15789316504E+04  0.00000000000E+00 0. -1.
         21    1    1    2  505  504  0.10324962386E+03 -0.79464990613E+02  0.27330204060E+03  0.30276917769E+03  0.00000000000E+00 0. -1.
         21    1    1    2  506  505 -0.23571113181E+02 -0.19314986009E+02  0.46497171163E+02  0.55593641608E+02  0.00000000000E+00 0. -1.
<scales pt_clust_3="119.39841" pt_clust_4="34.75415" pt_clust_5="14000.00000" pt_clust_6="30.47402"></scales>
<clustering>
<clus scale="   30.474">  2  6  1 -1</clus>
<clus scale="   34.754">  1  4  2 -1</clus>
<clus scale="  119.398">  2  3  1 -1</clus>
<clus scale="   34.754">  1  3  2 -1</clus>
</clustering>
</event>
<event>
 6    0  0.6207838E+002  0.1266892E+03  0.7546771E-02  0.1232453E+00
         21   -1    0    0  504  501  0.00000000000E+00  0.00000000000E+00  0.33506326697E+03  0.33506326697E+03  0.00000000000E+00 0.  1.
         21   -1    0    0  503  502 -0.00000000000E+00 -0.00000000000E+00 -0.18019010121E+03  0.18019010121E+03  0.00000000000E+00 0. -1.
         21    1    1    2  503  501 -0.37648492205E+02 -0.49986565091E+02  0.15694113125E+02  0.64516438539E+02  0.00000000000E+00 0.  1.
         21    1    1    2  504  506  0.56163950582E+01  0.76974591307E+02  0.14069429291E+03  0.16047278790E+03  0.00000000000E+00 0.  1.
         21    1    1    2  505  502 -0.59457357810E+01 -0.65138016362E+02 -0.13298520346E+03  0.14820046319E+03  0.00000000000E+00 0. -1.
         21    1    1    2  506  505  0.37977832928E+02  0.38149990146E+02  0.13146996319E+03  0.14206367855E+03  0.00000000000E+00 0.  1.
<scales pt_clust_3="62.57848" pt_clust_4="40.05941" pt_clust_5="117.25765" pt_clust_6="40.05941"></scales>
<clustering>
<clus scale="   40.059">  4  6 -1 -1</clus>
<clus scale="   62.578">  2  3  1 -1</clus>
<clus scale="  117.258">  2  5  1 -1</clus>
<clus scale="  126.689">  1  3  2 -1</clus>
</clustering>
</event>
<event>
 6    0  0.6207838E+002  0.1345568E+03  0.7546771E-02  0.1220847E+00
         21   -1    0    0  503  501  0.00000000000E+00  0.00000000000E+00  0.39705559812E+03  0.39705559812E+03  0.00000000000E+00 0.  1.
         21   -1    0    0  506  502 -0.00000000000E+00 -0.00000000000E+00 -0.81980074072E+03  0.81980074072E+03  0.00000000000E+00 0.  1.
         21    1    1    2  503  502 -0.15852201673E+02 -0.28522770138E+02  0.30266746040E+03  0.30442147148E+03  0.00000000000E+00 0.  1.
         21    1    1    2  504  505  0.10267029591E+03 -0.47004898745E+02  0.17456541855E+02  0.11426014626E+03  0.00000000000E+00 0.  1.
         21    1    1    2  505  501 -0.31013443673E-01 -0.31301095770E+02  0.99750164219E+01  0.32852100555E+02  0.00000000000E+00 0.  1.
         21    1    1    2  506  504 -0.86787080797E+02  0.10682876465E+03 -0.75284416128E+03  0.76532262055E+03  0.00000000000E+00 0.  1.
<scales pt_clust_3="56.10945" pt_clust_4="134.55680" pt_clust_5="31.30111" pt_clust_6="14000.00000"></scales>
<clustering>
<clus scale="   31.301">  1  5  2 -1</clus>
<clus scale="   56.109">  1  3  2 -1</clus>
<clus scale="  134.557">  1  4  2 -1</clus>
<clus scale="   31.301">  1  3  2 -1</clus>
</clustering>
</event>
<event>
 6    0  0.6207838E+002  0.9623447E+02  0.7546771E-02  0.1288420E+00
         21   -1    0    0  505  501  0.00000000000E+00  0.00000000000E+00  0.94420039983E+03  0.94420039983E+03  0.00000000000E+00 0.  1.
         21   -1    0    0  503  502 -0.00000000000E+00 -0.00000000000E+00 -0.27245803560E+02  0.27245803560E+02  0.00000000000E+00 0.  1.
         21    1    1    2  503  504  0.66811720704E+01  0.36307911291E+02  0.76499513340E+02  0.84941615383E+02  0.00000000000E+00 0.  1.
         21    1    1    2  504  506 -0.12414898801E+03 -0.42712727590E+02  0.46450524593E+03  0.48270329584E+03  0.00000000000E+00 0.  1.
         21    1    1    2  505  502  0.79989211285E+02 -0.13923263328E+02  0.12364737980E+03  0.14792162018E+03  0.00000000000E+00 0.  1.
         21    1    1    2  506  501  0.37478604655E+02  0.20328079627E+02  0.25230245720E+03  0.25587967199E+03  0.00000000000E+00 0.  1.
<scales pt_clust_3="36.91751" pt_clust_4="14000.00000" pt_clust_5="96.23447" pt_clust_6="44.49352"></scales>
<clustering>
<clus scale="   36.918">  2  3  1 -1</clus>
<clus scale="   44.494">  1  6  2 -1</clus>
<clus scale="   96.234">  2  5  1 -1</clus>
<clus scale="   44.494">  1  3  2 -1</clus>
</clustering>
</event>
<event>
 6    0  0.6207838E+002  0.1531585E+03  0.7546771E-02  0.1196645E+00
         21   -1    0    0  505  501  0.00000000000E+00  0.00000000000E+00  0.16043406233E+03  0.16043406233E+03  0.00000000000E+00 0. -1.
         21   -1    0    0  503  502 -0.00000000000E+00 -0.00000000000E+00 -0.53835000399E+03  0.53835000399E+03  0.00000000000E+00 0. -1.
         21    1    1    2  503  504  0.40481298281E+02  0.88631290801E+02 -0.37228281612E+03  0.38482299359E+03  0.00000000000E+00 0. -1.
         21    1    1    2  504  506 -0.11323296946E+03 -0.31032939764E+02 -0.12311577360E+02  0.11805220735E+03  0.00000000000E+00 0. -1.
         21    1    1    2  505  502  0.12473792808E+03 -0.18671797011E+02 -0.15955424947E+02  0.12713285291E+03  0.00000000000E+00 0. -1.
         21    1    1    2  506  501 -0.51986256899E+02 -0.38926554026E+02  0.22633876762E+02  0.68776012475E+02  0.00000000000E+00 0. -1.
<scales pt_clust_3="97.43840" pt_clust_4="37.97106" pt_clust_5="144.39882" pt_clust_6="37.97106"></scales>
<clustering>
<clus scale="   37.971">  4  6 -1 -1</clus>
<clus scale="   97.438">  2  3  1 -1</clus>
<clus scale="  144.399">  1  5  2 -1</clus>
<clus scale="  144.399">  1  3  2 -1</clus>
</clustering>
</event>
<event>
 6    0  0.6207838E+002  0.7743788E+02  0.7546771E-02  0.1336484E+00
         21   -1    0    0  505  501  0.00000000000E+00  0.00000000000E+00  0.82585956627E+03  0.82585956627E+03  0.00000000000E+00 0. -1.
         21   -1    0    0  503  502 -0.00000000000E+00 -0.00000000000E+00 -0.90764175434E+02  0.90764175434E+02  0.00000000000E+00 0. -1.
         21    1    1    2  503  501  0.12552475063E+03  0.12717697558E+02  0.21219532876E+02  0.12793932713E+03  0.00000000000E+00 0. -1.
         21    1    1    2  504  506 -0.67247105389E+02 -0.32821978583E+02  0.11225548282E+03  0.13491015116E+03  0.00000000000E+00 0. -1.
         21    1    1    2  505  504  0.25457857016E+01  0.30325298774E+02  0.59028020851E+03  0.59106414993E+03  0.00000000000E+00 0. -1.
         21    1    1    2  506  502 -0.60823430940E+02 -0.10221017750E+02  0.11340166632E+02  0.62710113494E+02  0.00000000000E+00 0. -1.
<scales pt_clust_3="77.43788" pt_clust_4="14000.00000" pt_clust_5="30.43197" pt_clust_6="60.66767"></scales>
<clustering>
<clus scale="   30.432">  1  5  2 -1</clus>
<clus scale="   60.668">  2  6  1 -1</clus>
<clus scale="   77.438">  2  3  1 -1</clus>
<clus scale="   30.432">  1  3  2 -1</clus>
</clustering>
</event>
<event>
 6    0  0.6207838E+002  0.1833976E+03  0.7546771E-02  0.1164555E+00
         21   -1    0    0  505  501  0.00000000000E+00  0.00000000000E+00  0.33831414551E+03  0.33831414551E+03  0.00000000000E+00 0. -1.
         21   -1    0    0  506  502 -0.00000000000E+00 -0.00000000000E+00 -0.64875790815E+03  0.64875790815E+03  0.00000000000E+00 0. -1.
         21    1    1    2  503  504  0.83885496869E+02  0.42748884710E+02 -0.12158651048E+02  0.94931957339E+02  0.00000000000E+00 0. -1.
         21    1    1    2  504  501  0.53796334828E+02  0.44979438999E+02  0.43065676748E+02  0.82291239433E+02  0.00000000000E+00 0. -1.
         21    1    1    2  505  502 -0.16298897675E+03 -0.70921082270E+02  0.20004209557E+03  0.26760427212E+03  0.00000000000E+00 0. -1.
         21    1    1    2  506  503  0.25307145056E+02 -0.16807241440E+02 -0.54139288392E+03  0.54224458477E+03  0.00000000000E+00 0. -1.
<scales pt_clust_3="51.63787" pt_clust_4="51.63787" pt_clust_5="172.72642" pt_clust_6="30.37984"></scales>
<clustering>
<clus scale="   30.380">  2  6  1 -1</clus>
<clus scale="   51.638">  3  4 -1 -1</clus>
<clus scale="  172.726">  1  5  2 -1</clus>
<clus scale="  172.726">  1  3  2 -1</clus>
</clustering>
</event>
<event>
 6    0  0.6207838E+002  0.1804587E+03  0.7546771E-02  0.1167360E+00
         21   -1    0    0  505  501  0.00000000000E+00  0.00000000000E+00  0.41128397820E+02  0.41128397820E+02  0.00000000000E+00 0. -1.
         21   -1    0    0  504  502 -0.00000000000E+00 -0.00000000000E+00 -0.17694677349E+04  0.17694677349E+04  0.00000000000E+00 0. -1.
         21    1    1    2  503  501  0.10347522018E+03 -0.17089848392E+03 -0.31806844118E+03  0.37560743639E+03  0.00000000000E+00 0. -1.
         21    1    1    2  504  506 -0.62642778351E+02  0.51364033803E+02 -0.88268146979E+03  0.88639097399E+03  0.00000000000E+00 0. -1.
         21    1    1    2  505  502  0.15833196843E+02  0.65371308627E+02 -0.17693386693E+03  0.18928732494E+03  0.00000000000E+00 0. -1.
         21    1    1    2  506  503 -0.56665638669E+02  0.54163141495E+02 -0.35065555914E+03  0.35931039737E+03  0.00000000000E+00 0. -1.
<scales pt_clust_3="165.17909" pt_clust_4="72.55952" pt_clust_5="67.26142" pt_clust_6="72.55952"></scales>
<clustering>
<clus scale="   67.261">  1  5  2 -1</clus>
<clus scale="   72.560">  4  6 -1 -1</clus>
<clus scale="  165.179">  1  3  2 -1</clus>
<clus scale="   67.261">  1  3  2 -1</clus>
</clustering>
</event>
<event>
 6    0  0.6207838E+002  0.7769103E+02  0.7546771E-02  0.1335735E+00
         21   -1    0    0  503  501  0.00000000000E+00  0.00000000000E+00  0.16866100568E+03  0.16866100568E+03  0.00000000000E+00 0.  1.
         21   -1    0    0  504  502 -0.00000000000E+00 -0.00000000000E+00 -0.10784479381E+04  0.10784479381E+04  0.00000000000E+00 0. -1.
         21    1    1    2  503  505  0.72398640941E+02 -0.30075745943E+02  0.14518509236E+03  0.16499946893E+03  0.00000000000E+00 0.  1.
         21    1    1    2  504  506  0.42491240516E+02  0.27366761140E+02 -0.86628057461E+02  0.10029389550E+03  0.00000000000E+00 0. -1.
         21    1    1    2  505  502 -0.71108586063E+02 -0.46391401192E+02 -0.71683510239E+03  0.72184566019E+03  0.00000000000E+00 0. -1.
         21    1    1    2  506  501 -0.43781295394E+02  0.49100385994E+02 -0.25150886492E+03  0.25996991916E+03  0.00000000000E+00 0.  1.
<scales pt_clust_3="77.69103" pt_clust_4="50.54152" pt_clust_5="47.99386" pt_clust_6="14000.00000"></scales>
<clustering>
<clus scale="   50.542">  2  4  1 -1</clus>
<clus scale="   47.994">  2  5  1 -1</clus>
<clus scale="   77.691">  1  3  2 -1</clus>
<clus scale="   77.691">  1  3  2 -1</clus>
</clustering>
</event>
<event>
 6    0  0.6207838E+002  0.1933253E+03  0.7546771E-02  0.1155496E+00
         21   -1    0    0  504  501  0.00000000000E+00  0.00000000000E+00  0.23907530940E+03  0.23907530940E+03  0.00000000000E+00 0.  1.
         21   -1    0    0  506  502 -0.00000000000E+00 -0.00000000000E+00 -0.10273834494E+04  0.10273834494E+04  0.00000000000E+00 0. -1.
         21    1    1    2  503  501  0.59606538021E+02  0.54358252152E+02 -0.39128066459E+02  0.89659157572E+02  0.00000000000E+00 0.  1.
         21    1    1    2  504  505  0.15408724296E+02 -0.33011244441E+02  0.72873230733E+02  0.81471951011E+02  0.00000000000E+00 0.  1.
         21    1    1    2  505  502  0.12097727297E+03 -0.54738786280E+02  0.90937937629E+02  0.16093956567E+03  0.00000000000E+00 0.  1.
         21    1    1    2  506  503 -0.19599253528E+03  0.33391778570E+02 -0.91299124189E+03  0.93438808454E+03  0.00000000000E+00 0. -1.
<scales pt_clust_3="79.16237" pt_clust_4="36.43036" pt_clust_5="193.32527" pt_clust_6="14000.00000"></scales>
<clustering>
<clus scale="   36.430">  1  4  2 -1</clus>
<clus scale="   79.162">  1  3  2 -1</clus>
<clus scale="  193.325">  1  5  2 -1</clus>
<clus scale="   36.430">  1  3  2 -1</clus>
</clustering>
</event>
<event>
 6    0  0.6207838E+002  0.2198511E+03  0.7546771E-02  0.1133994E+00
         21   -1    0    0  502  501  0.00000000000E+00  0.00000000000E+00  0.11350370846E+04  0.11350370846E+04  0.00000000000E+00 0. -1.
         21   -1    0    0  505  502 -0.00000000000E+00 -0.00000000000E+00 -0.11904549423E+03  0.11904549423E+03  0.00000000000E+00 0.  1.
         21    1    1    2  503  504  0.14950154940E+02  0.14074025805E+03  0.45641147816E+03  0.47785224156E+03  0.00000000000E+00 0. -1.
         21    1    1    2  504  501 -0.14517563833E+02  0.77703088446E+02  0.49320394678E+03  0.49949841115E+03  0.00000000000E+00 0. -1.
         21    1    1    2  505  506 -0.13042385265E+02 -0.50459584541E+02 -0.49811111009E+02  0.72093136050E+02  0.00000000000E+00 0.  1.
         21    1    1    2  506  503  0.12609794157E+02 -0.16798376196E+03  0.11618727642E+03  0.20463879005E+03  0.00000000000E+00 0.  1.
<scales pt_clust_3="57.60628" pt_clust_4="57.60628" pt_clust_5="52.11788" pt_clust_6="206.41542"></scales>
<clustering>
<clus scale="   52.118">  2  5  1 -1</clus>
<clus scale="   57.606">  3  4 -1 -1</clus>
<clus scale="  206.415">  2  6  1 -1</clus>
<clus scale="  219.851">  1  3  2 -1</clus>
</clustering>
</event>
<event>
 6    0  0.6207838E+002  0.1297875E+03  0.7546771E-02  0.1227771E+00
         21   -1    0    0  505  501  0.00000000000E+00  0.00000000000E+00  0.57307288265E+03  0.57307288265E+03  0.00000000000E+00 0. -1.
         21   -1    0    0  506  502 -0.00000000000E+00 -0.00000000000E+00 -0.12685073378E+03  0.12685073378E+03  0.00000000000E+00 0. -1.
         21    1    1    2  503  501 -0.32275119088E+02  0.70544327741E+01  0.39000444877E+03  0.39140122432E+03  0.00000000000E+00 0. -1.
         21    1    1    2  504  503  0.19035188636E+02 -0.63015353161E+02 -0.24851727642E+02  0.70362500717E+02  0.00000000000E+00 0. -1.
         21    1    1    2  505  502 -0.33051409622E+02  0.10683595450E+03  0.11590354380E+03  0.16105883496E+03  0.00000000000E+00 0. -1.
         21    1    1    2  506  504  0.46291340075E+02 -0.50875034111E+02 -0.34834116062E+02  0.77101056436E+02  0.00000000000E+00 0. -1.
<scales pt_clust_3="33.03708" pt_clust_4="30.06553" pt_clust_5="126.09625" pt_clust_6="30.06553"></scales>
<clustering>
<clus scale="   30.066">  4  6 -1 -1</clus>
<clus scale="   33.037">  1  3  2 -1</clus>
<clus scale="  126.096">  1  5  2 -1</clus>
<clus scale="   33.037">  1  3  2 -1</clus>
</clustering>
</event>
<event>
 6    0  0.6207838E+002  0.9426244E+02  0.7546771E-02  0.1292846E+00
         21   -1    0    0  505  501  0.00000000000E+00  0.00000000000E+00  0.20422654788E+04  0.20422654788E+04  0.00000000000E+00 0.  1.
         21   -1    0    0  501  502 -0.00000000000E+00 -0.00000000000E+00 -0.20187871592E+03  0.20187871592E+03  0.00000000000E+00 0. -1.
         21    1    1    2  503  504 -0.22315622990E+02 -0.67810925212E+02  0.11329216506E+03  0.13390826439E+03  0.00000000000E+00 0.  1.
         21    1    1    2  504  506 -0.42486731927E+02  0.12159958560E+03 -0.51553982070E+02  0.13874218780E+03  0.00000000000E+00 0. -1.
         21    1    1    2  505  503  0.13748756902E+02 -0.31393761704E+02  0.18668424292E+04  0.18671569972E+04  0.00000000000E+00 0.  1.
         21    1    1    2  506  502  0.51053598015E+02 -0.22394898682E+02 -0.88193849365E+02  0.10433674532E+03  0.00000000000E+00 0. -1.
<scales pt_clust_3="14000.00000" pt_clust_4="94.26244" pt_clust_5="34.27239" pt_clust_6="56.92011"></scales>
<clustering>
<clus scale="   34.272">  1  5  2 -1</clus>
<clus scale="   56.920">  2  6  1 -1</clus>
<clus scale="   94.262">  2  4  1 -1</clus>
<clus scale="   34.272">  1  3  2 -1</clus>
</clustering>
</event>
<event>
 6    0  0.6207838E+002  0.7220414E+02  0.7546771E-02  0.1352754E+00
         21   -1    0    0  504  501  0.00000000000E+00  0.00000000000E+00  0.12199378282E+03  0.12199378282E+03  0.00000000000E+00 0.  1.
         21   -1    0    0  506  502 -0.00000000000E+00 -0.00000000000E+00 -0.41941463782E+03  0.41941463782E+03  0.00000000000E+00 0.  1.
         21    1    1    2  503  505  0.58757376665E+02  0.83738075338E+01 -0.31293440007E+02  0.67095673129E+02  0.00000000000E+00 0.  1.
         21    1    1    2  504  502 -0.13228324059E+03 -0.37139272664E+01 -0.65403720985E+02  0.14761536409E+03  0.00000000000E+00 0.  1.
         21    1    1    2  505  501  0.56154112777E+02  0.31718745728E+02  0.44388317129E+02  0.78292310669E+02  0.00000000000E+00 0.  1.
         21    1    1    2  506  503  0.17371751153E+02 -0.36378625996E+02 -0.24511201113E+03  0.24840507275E+03  0.00000000000E+00 0.  1.
<scales pt_clust_3="63.73819" pt_clust_4="14000.00000" pt_clust_5="72.20414" pt_clust_6="40.31355"></scales>
<clustering>
<clus scale="   40.314">  2  6  1 -1</clus>
<clus scale="   63.738">  2  3  1 -1</clus>
<clus scale="   72.204">  1  5  2 -1</clus>
<clus scale="   72.204">  1  3  2 -1</clus>
</clustering>
</event>
<event>
 6    0  0.6207838E+002  0.1392368E+03  0.7546771E-02  0.1214360E+00
         21   -1    0    0  503  501  0.00000000000E+00  0.00000000000E+00  0.10838701711E+04  0.10838701711E+04  0.00000000000E+00 0. -1.
         21   -1    0    0  506  502 -0.00000000000E+00 -0.00000000000E+00 -0.12944189550E+03  0.12944189550E+03  0.00000000000E+00 0. -1.
         21    1    1    2  503  504  0.24226780104E+02  0.19923827759E+02  0.38538230294E+03  0.38665671494E+03  0.00000000000E+00 0. -1.
         21    1    1    2  504  502 -0.17912726397E+03 -0.51090835603E+02  0.41286025830E+03  0.45293536301E+03  0.00000000000E+00 0. -1.
         21    1    1    2  505  501  0.10834389082E+03 -0.13415683567E+02  0.24252983846E+03  0.26596823455E+03  0.00000000000E+00 0. -1.
         21    1    1    2  506  505  0.46556593038E+02  0.44582691411E+02 -0.86344124149E+02  0.10775175406E+03  0.00000000000E+00 0. -1.
<scales pt_clust_3="31.36711" pt_clust_4="14000.00000" pt_clust_5="139.23680" pt_clust_6="64.94008"></scales>
<clustering>
<clus scale="   31.367">  1  3  2 -1</clus>
<clus scale="   64.940">  2  6  1 -1</clus>
<clus scale="  139.237">  1  5  2 -1</clus>
<clus scale="   31.367">  1  3  2 -1</clus>
</clustering>
</event>
<event>
 6    0  0.6207838E+002  0.9389083E+02  0.7546771E-02  0.1293694E+00
         21   -1    0    0  503  501  0.00000000000E+00  0.00000000000E+00  0.46564526988E+03  0.46564526988E+03  0.00000000000E+00 0.  1.
         21   -1    0    0  504  502 -0.00000000000E+00 -0.00000000000E+00 -0.30811760550E+03  0.30811760550E+03  0.00000000000E+00 0.  1.
         21    1    1    2  503  505 -0.12350991585E+03 -0.26554722254E+02 -0.21930581023E+03  0.25309067740E+03  0.00000000000E+00 0.  1.
         21    1    1    2  504  506  0.40522421357E+02 -0.13750867719E-01 -0.98216930109E+00  0.40534324692E+02  0.00000000000E+00 0.  1.
         21    1    1    2  505  502  0.12826080095E+02 -0.35268720599E+02 -0.38312070084E+02  0.53630268482E+02  0.00000000000E+00 0. -1.
         21    1    1    2  506  501  0.70161414398E+02  0.61837193721E+02  0.41612771400E+03  0.42650760480E+03  0.00000000000E+00 0.  1.
<scales pt_clust_3="93.89083" pt_clust_4="41.63277" pt_clust_5="37.52854" pt_clust_6="14000.00000"></scales>
<clustering>
<clus scale="   37.529">  2  5  1 -1</clus>
<clus scale="   41.633">  2  4  1 -1</clus>
<clus scale="   93.891">  2  3  1 -1</clus>
<clus scale="   93.891">  1  3  2 -1</clus>
</clustering>
</event>
<event>
 6    0  0.6207838E+002  0.1399392E+03  0.7546771E-02  0.1213411E+00
         21   -1    0    0  505  501  0.00000000000E+00  0.00000000000E+00  0.58535450422E+02  0.58535450422E+02  0.00000000000E+00 0.  1.
         21   -1    0    0  501  502 -0.00000000000E+00 -0.00000000000E+00 -0.10262548981E+04  0.10262548981E+04  0.00000000000E+00 0.  1.
         21    1    1    2  503  504  0.74990973269E+02  0.11921430852E+02 -0.67797257049E+02  0.10179506201E+03  0.00000000000E+00 0.  1.
         21    1    1    2  504  506  0.62998422141E+02  0.32819307098E+02 -0.83183438318E+01  0.71519947950E+02  0.00000000000E+00 0.  1.
         21    1    1    2  505  503 -0.30128563650E+02  0.21668694202E+02 -0.62006780094E+02  0.72264122728E+02  0.00000000000E+00 0. -1.
         21    1    1    2  506  502 -0.10786083176E+03 -0.66409432152E+02 -0.82959706669E+03  0.83921121582E+03  0.00000000000E+00 0.  1.
<scales pt_clust_3="54.96394" pt_clust_4="54.96394" pt_clust_5="37.11149" pt_clust_6="127.98939"></scales>
<clustering>
<clus scale="   37.111">  1  5  2 -1</clus>
<clus scale="   54.964">  3  4 -1 -1</clus>
<clus scale="  127.989">  2  6  1 -1</clus>
<clus scale="   37.111">  1  3  2 -1</clus>
</clustering>
</event>
<event>
 6    0  0.6207838E+002  0.7150504E+02  0.7546771E-02  0.1355049E+00
         21   -1    0    0  505  501  0.00000000000E+00  0.00000000000E+00  0.90039498465E+02  0.90039498465E+02  0.00000000000E+00 0.  1.
         21   -1    0    0  504  502 -0.00000000000E+00 -0.00000000000E+00 -0.32570982555E+03  0.32570982555E+03  0.00000000000E+00 0.  1.
         21    1    1    2  503  501  0.58464529108E+02  0.36276008934E+02 -0.82701982853E+01  0.69299683749E+02  0.00000000000E+00 0.  1.
         21    1    1    2  504  503  0.65397121766E+02 -0.26304171717E+02 -0.17283260755E+03  0.18665423439E+03  0.00000000000E+00 0.  1.
         21    1    1    2  505  506 -0.99492186684E+02  0.18642634127E+02 -0.10333714175E+02  0.10174983374E+03  0.00000000000E+00 0.  1.
         21    1    1    2  506  502 -0.24369464190E+02 -0.28614471344E+02 -0.44233807074E+02  0.58045572127E+02  0.00000000000E+00 0.  1.
<scales pt_clust_3="63.76889" pt_clust_4="71.50504" pt_clust_5="14000.00000" pt_clust_6="37.58535"></scales>
<clustering>
<clus scale="   37.585">  2  6  1 -1</clus>
<clus scale="   63.769">  1  3  2 -1</clus>
<clus scale="   71.505">  2  4  1 -1</clus>
<clus scale="   63.769">  1  3  2 -1</clus>
</clustering>
</event>
<event>
 6    0  0.6207838E+002  0.9578875E+02  0.7546771E-02  0.1289409E+00
         21   -1    0    0  505  501  0.00000000000E+00  0.00000000000E+00  0.15050348854E+04  0.15050348854E+04  0.00000000000E+00 0.  1.
         21   -1    0    0  504  502 -0.00000000000E+00 -0.00000000000E+00 -0.42268868105E+03  0.42268868105E+03  0.00000000000E+00 0.  1.
         21    1    1    2  503  502  0.15548438865E+02 -0.94524249815E+02 -0.40506283582E+03  0.41623609732E+03  0.00000000000E+00 0.  1.
         21    1    1    2  504  506  0.49524353369E+01  0.97064938063E+02  0.77262575997E+03  0.77871477049E+03  0.00000000000E+00 0.  1.
         21    1    1    2  505  503 -0.21884685211E+02 -0.58298519891E+02  0.61752379472E+03  0.62065553563E+03  0.00000000000E+00 0. -1.
         21    1    1    2  506  501  0.13838110095E+01  0.55757831643E+02  0.97259485470E+02  0.11211716299E+03  0.00000000000E+00 0. -1.
<scales pt_clust_3="14000.00000" pt_clust_4="95.78875" pt_clust_5="39.80870" pt_clust_6="55.77500"></scales>
<clustering>
<clus scale="   55.775">  1  6  2 -1</clus>
<clus scale="   39.809">  1  5  2 -1</clus>
<clus scale="   95.789">  1  4  2 -1</clus>
<clus scale="   55.775">  1  3  2 -1</clus>
</clustering>
</event>
<event>
 6    0  0.6207838E+002  0.1475332E+03  0.7546771E-02  0.1203537E+00
         21   -1    0    0  505  501  0.00000000000E+00  0.00000000000E+00  0.12297115584E+04  0.12297115584E+04  0.00000000000E+00 0. -1.
         21   -1    0    0  504  502 -0.00000000000E+00 -0.00000000000E+00 -0.41011220007E+02  0.41011220007E+02  0.00000000000E+00 0. -1.
         21    1    1    2  503  501  0.18490255058E+02 -0.65557088429E+02  0.28365172039E+03  0.29171547757E+03  0.00000000000E+00 0. -1.
         21    1    1    2  504  506  0.22630925368E+02  0.18338407695E+03  0.43547428133E+03  0.47305362081E+03  0.00000000000E+00 0. -1.
         21    1    1    2  505  502 -0.56693884347E+01 -0.68937356877E+02  0.58862289696E+02  0.90825493594E+02  0.00000000000E+00 0. -1.
         21    1    1    2  506  503 -0.35451791991E+02 -0.48889631640E+02  0.41071204701E+03  0.41512818646E+03  0.00000000000E+00 0. -1.
<scales pt_clust_3="60.30015" pt_clust_4="132.90929" pt_clust_5="69.17009" pt_clust_6="60.30015"></scales>
<clustering>
<clus scale="   60.300">  3  6 -1 -1</clus>
<clus scale="   69.170">  2  5  1 -1</clus>
<clus scale="  132.909">  2  4  1 -1</clus>
<clus scale="  147.533">  1  3  2 -1</clus>
</clustering>
</event>
<event>
 6    0  0.6207838E+002  0.8983087E+02  0.7546771E-02  0.1303262E+00
         21   -1    0    0  503  501  0.00000000000E+00  0.00000000000E+00  0.76813347883E+02  0.76813347883E+02  0.00000000000E+00 0.  1.
         21   -1    0    0  501  502 -0.00000000000E+00 -0.00000000000E+00 -0.13385164085E+04  0.13385164085E+04  0.00000000000E+00 0.  1.
         21    1    1    2  503  505 -0.53031977493E+02 -0.30770888590E+02  0.54932583010E+02  0.82321485030E+02  0.00000000000E+00 0.  1.
         21    1    1    2  504  506  0.44105179174E+02  0.17441529787E+02 -0.37273172074E+03  0.37573715472E+03  0.00000000000E+00 0.  1.
         21    1    1    2  505  504  0.71984209285E+02  0.34298178280E+02 -0.31780279001E+03  0.32765333015E+03  0.00000000000E+00 0.  1.
         21    1    1    2  506  502 -0.63057410966E+02 -0.20968819477E+02 -0.62610113287E+03  0.62961778648E+03  0.00000000000E+00 0.  1.
<scales pt_clust_3="61.31263" pt_clust_4="32.41514" pt_clust_5="32.41514" pt_clust_6="79.39184"></scales>
<clustering>
<clus scale="   32.415">  4  5 -1 -1</clus>
<clus scale="   61.313">  1  3  2 -1</clus>
<clus scale="   79.392">  2  6  1 -1</clus>
<clus scale="   61.313">  1  3  2 -1</clus>
</clustering>
</event>
<event>
 6    0  0.6207838E+002  0.1205092E+03  0.7546771E-02  0.1242259E+00
         21   -1    0    0  503  501  0.00000000000E+00  0.00000000000E+00  0.33721344709E+03  0.33721344709E+03  0.00000000000E+00 0. -1.
         21   -1    0    0  506  502 -0.00000000000E+00 -0.00000000000E+00 -0.38580360666E+03  0.38580360666E+03  0.00000000000E+00 0.  1.
         21    1    1    2  503  505  0.11018004318E+02 -0.71674919031E+02  0.77825586402E+02  0.10637439700E+03  0.00000000000E+00 0. -1.
         21    1    1    2  504  502  0.11757326828E+03  0.43100448911E+02 -0.33449753436E+03  0.35716903926E+03  0.00000000000E+00 0.  1.
         21    1    1    2  505  504 -0.70973245231E+02 -0.25866311081E+02  0.94919300058E+02  0.12130927875E+03  0.00000000000E+00 0. -1.
         21    1    1    2  506  501 -0.57618027369E+02  0.54440781201E+02  0.11316248833E+03  0.13816433874E+03  0.00000000000E+00 0. -1.
<scales pt_clust_3="72.51683" pt_clust_4="14000.00000" pt_clust_5="120.50924" pt_clust_6="54.89923"></scales>
<clustering>
<clus scale="   72.517">  1  3  2 -1</clus>
<clus scale="   54.899">  1  6  2 -1</clus>
<clus scale="  120.509">  1  5  2 -1</clus>
<clus scale="   72.517">  1  3  2 -1</clus>
</clustering>
</event>
<event>
 6    0  0.6207838E+002  0.7652567E+02  0.7546771E-02  0.1339211E+00
         21   -1    0    0  506  501  0.00000000000E+00  0.00000000000E+00  0.11963980155E+04  0.11963980155E+04  0.00000000000E+00 0. -1.
         21   -1    0    0  505  502 -0.00000000000E+00 -0.00000000000E+00 -0.25958805225E+02  0.25958805225E+02  0.00000000000E+00 0. -1.
         21    1    1    2  503  501  0.40531609542E+02  0.14309053496E+02  0.62299771773E+03  0.62447875599E+03  0.00000000000E+00 0. -1.
         21    1    1    2  504  503 -0.72430580031E+02  0.43991176023E+01  0.25686570932E+03  0.26691859018E+03  0.00000000000E+00 0. -1.
         21    1    1    2  505  504 -0.35082816581E+02 -0.66888790125E+02  0.12733476297E+03  0.14805085655E+03  0.00000000000E+00 0. -1.
         21    1    1    2  506  502  0.66981787069E+02  0.48180619026E+02  0.16324102026E+03  0.18290861802E+03  0.00000000000E+00 0. -1.
<scales pt_clust_3="42.98326" pt_clust_4="54.99417" pt_clust_5="14000.00000" pt_clust_6="76.52567"></scales>
<clustering>
<clus scale="   42.983">  1  3  2 -1</clus>
<clus scale="   54.994">  1  4  2 -1</clus>
<clus scale="   76.526">  1  6  2 -1</clus>
<clus scale="   42.983">  1  3  2 -1</clus>
</clustering>
</event>
<event>
 6    0  0.6207838E+002  0.1066905E+03  0.7546771E-02  0.1266824E+00
         21   -1    0    0  503  501  0.00000000000E+00  0.00000000000E+00  0.58228900139E+03  0.58228900139E+03  0.00000000000E+00 0. -1.
         21   -1    0    0  506  502 -0.00000000000E+00 -0.00000000000E+00 -0.17287897822E+03  0.17287897822E+03  0.00000000000E+00 0. -1.
         21    1    1    2  503  504 -0.65860392087E+02  0.39840637421E+02  0.10137693322E+03  0.12728766721E+03  0.00000000000E+00 0. -1.
         21    1    1    2  504  505  0.68575118545E+02 -0.54749940411E+02  0.14307437305E+03  0.16784033807E+03  0.00000000000E+00 0. -1.
         21    1    1    2  505  502  0.46153910319E+02  0.97091092222E+02 -0.11902844746E+03  0.16038901126E+03  0.00000000000E+00 0. -1.
         21    1    1    2  506  501 -0.48868636777E+02 -0.82181789232E+02  0.28398716437E+03  0.29965096307E+03  0.00000000000E+00 0. -1.
<scales pt_clust_3="76.97316" pt_clust_4="62.48189" pt_clust_5="106.69050" pt_clust_6="14000.00000"></scales>
<clustering>
<clus scale="   76.973">  1  3  2 -1</clus>
<clus scale="   62.482">  1  4  2 -1</clus>
<clus scale="  106.690">  2  5  1 -1</clus>
<clus scale="   76.973">  1  3  2 -1</clus>
</clustering>
</event>
<event>
 6    0  0.6207838E+002  0.1480216E+03  0.7546771E-02  0.1202925E+00
         21   -1    0    0  506  501  0.00000000000E+00  0.00000000000E+00  0.35337295848E+03  0.35337295848E+03  0.00000000000E+00 0. -1.
         21   -1    0    0  504  502 -0.00000000000E+00 -0.00000000000E+00 -0.31317391925E+03  0.31317391925E+03  0.00000000000E+00 0. -1.
         21    1    1    2  503  501 -0.19194085845E+02  0.98974135273E+02  0.18048704104E+03  0.20673621930E+03  0.00000000000E+00 0. -1.
         21    1    1    2  504  503 -0.14822816032E+03 -0.22616587916E+02  0.57705958204E+02  0.16066448012E+03  0.00000000000E+00 0. -1.
         21    1    1    2  505  502  0.13647134289E+03 -0.68579487804E+02 -0.21441849237E+03  0.26325437024E+03  0.00000000000E+00 0. -1.
         21    1    1    2  506  505  0.30950903269E+02 -0.77780595523E+01  0.16424532353E+02  0.35891808071E+02  0.00000000000E+00 0.  1.
<scales pt_clust_3="94.37600" pt_clust_4="14000.00000" pt_clust_5="148.02158" pt_clust_6="31.91327"></scales>
<clustering>
<clus scale="   31.913">  1  6  2 -1</clus>
<clus scale="   94.376">  1  3  2 -1</clus>
<clus scale="  148.022">  2  5  1 -1</clus>
<clus scale="   31.913">  1  3  2 -1</clus>
</clustering>
</event>
<event>
 6    0  0.6207838E+002  0.1052373E+03  0.7546771E-02  0.1269653E+00
         21   -1    0    0  506  501  0.00000000000E+00  0.00000000000E+00  0.81678322371E+02  0.81678322371E+02  0.00000000000E+00 0. -1.
         21   -1    0    0  505  502 -0.00000000000E+00 -0.00000000000E+00 -0.15361464120E+04  0.15361464120E+04  0.00000000000E+00 0.  1.
         21    1    1    2  503  501  0.28856144157E+02 -0.15799253023E+02 -0.61759877742E+01  0.33472918556E+02  0.00000000000E+00 0.  1.
         21    1    1    2  504  502 -0.54091662014E+02 -0.29954036619E+02  0.32821194140E+01  0.61918692792E+02  0.00000000000E+00 0. -1.
         21    1    1    2  505  503  0.89541402104E+02  0.37462059650E+02 -0.14543021352E+04  0.14575375704E+04  0.00000000000E+00 0.  1.
         21    1    1    2  506  504 -0.64305884248E+02  0.82912299918E+01  0.27279138978E+01  0.64895552682E+02  0.00000000000E+00 0. -1.
<scales pt_clust_3="32.89823" pt_clust_4="37.61419" pt_clust_5="97.55212" pt_clust_6="37.61419"></scales>
<clustering>
<clus scale="   32.898">  1  3  2 -1</clus>
<clus scale="   37.614">  4  6 -1 -1</clus>
<clus scale="   97.552">  2  5  1 -1</clus>
<clus scale="   32.898">  1  3  2 -1</clus>
</clustering>
</event>
<event>
 6    0  0.6207838E+002  0.1172585E+03  0.7546771E-02  0.1247689E+00
         21   -1    0    0  505  501  0.00000000000E+00  0.00000000000E+00  0.30058390862E+02  0.30058390862E+02  0.00000000000E+00 0.  1.
         21   -1    0    0  506  502 -0.00000000000E+00 -0.00000000000E+00 -0.26404390586E+04  0.26404390586E+04  0.00000000000E+00 0.  1.
         21    1    1    2  503  501  0.33141197591E+02 -0.12916539705E+02  0.32057916791E+01  0.35713485913E+02  0.00000000000E+00 0.  1.
         21    1    1    2  504  502 -0.12152382196E+03  0.23138558759E+02 -0.13860056742E+04  0.13915154189E+04  0.00000000000E+00 0.  1.
         21    1    1    2  505  504  0.95623017591E+02  0.39126260924E+02 -0.36762208617E+03  0.38186466716E+03  0.00000000000E+00 0.  1.
         21    1    1    2  506  503 -0.72403932245E+01 -0.49348279978E+02 -0.85995869911E+03  0.86140387751E+03  0.00000000000E+00 0.  1.
<scales pt_clust_3="35.56931" pt_clust_4="14000.00000" pt_clust_5="117.25848" pt_clust_6="50.47525"></scales>
<clustering>
<clus scale="   35.569">  1  3  2 -1</clus>
<clus scale="   50.475">  2  6  1 -1</clus>
<clus scale="  117.258">  1  5  2 -1</clus>
<clus scale="   35.569">  1  3  2 -1</clus>
</clustering>
</event>
<event>
 6    0  0.6207838E+002  0.7401320E+02  0.7546771E-02  0.1346954E+00
         21   -1    0    0  504  501  0.00000000000E+00  0.00000000000E+00  0.22921495219E+03  0.22921495219E+03  0.00000000000E+00 0.  1.
         21   -1    0    0  503  502 -0.00000000000E+00 -0.00000000000E+00 -0.16918712116E+04  0.16918712116E+04  0.00000000000E+00 0.  1.
         21    1    1    2  503  505 -0.46632071736E+02 -0.38119534457E+02 -0.90596051316E+01  0.60907515684E+02  0.00000000000E+00 0.  1.
         21    1    1    2  504  506  0.72069308193E+02 -0.76103279695E+02 -0.10475428639E+03  0.14818621691E+03  0.00000000000E+00 0.  1.
         21    1    1    2  505  501 -0.33825162234E+02  0.64073345758E+02  0.17390599181E+03  0.18839540659E+03  0.00000000000E+00 0.  1.
         21    1    1    2  506  502  0.83879257770E+01  0.50149468394E+02 -0.15227483597E+04  0.15235970246E+04  0.00000000000E+00 0.  1.
<scales pt_clust_3="52.76117" pt_clust_4="14000.00000" pt_clust_5="74.01320" pt_clust_6="50.84611"></scales>
<clustering>
<clus scale="   50.846">  2  6  1 -1</clus>
<clus scale="   52.761">  2  3  1 -1</clus>
<clus scale="   74.013">  1  5  2 -1</clus>
<clus scale="   74.013">  1  3  2 -1</clus>
</clustering>
</event>
<event>
 6    0  0.6207838E+002  0.1683979E+03  0.7546771E-02  0.1179529E+00
         21   -1    0    0  504  501  0.00000000000E+00  0.00000000000E+00  0.46851802597E+03  0.46851802597E+03  0.00000000000E+00 0. -1.
         21   -1    0    0  506  502 -0.00000000000E+00 -0.00000000000E+00 -0.42959626924E+03  0.42959626924E+03  0.00000000000E+00 0.  1.
         21    1    1    2  503  502  0.87381865554E+02  0.13690837569E+03 -0.38801215124E+03  0.42063395402E+03  0.00000000000E+00 0.  1.
         21    1    1    2  504  505 -0.29176936394E+02 -0.56287065248E+02  0.11421790549E+03  0.13063405860E+03  0.00000000000E+00 0. -1.
         21    1    1    2  505  503 -0.19891127358E+02 -0.83516706843E+02  0.28948234975E+03  0.30194490903E+03  0.00000000000E+00 0. -1.
         21    1    1    2  506  501 -0.38313801802E+02  0.28953963982E+01  0.23233652734E+02  0.44901373567E+02  0.00000000000E+00 0. -1.
<scales pt_clust_3="161.74038" pt_clust_4="40.06682" pt_clust_5="40.06682" pt_clust_6="38.42305"></scales>
<clustering>
<clus scale="   38.423">  1  6  2 -1</clus>
<clus scale="   40.067">  4  5 -1 -1</clus>
<clus scale="  161.740">  2  3  1 -1</clus>
<clus scale="   38.423">  1  3  2 -1</clus>
</clustering>
</event>
<event>
 6    0  0.6207838E+002  0.1361292E+03  0.7546771E-02  0.1218634E+00
         21   -1    0    0  506  501  0.00000000000E+00  0.00000000000E+00  0.33912820179E+03  0.33912820179E+03  0.00000000000E+00 0. -1.
         21   -1    0    0  504  502 -0.00000000000E+00 -0.00000000000E+00 -0.15456717406E+03  0.15456717406E+03  0.00000000000E+00 0. -1.
         21    1    1    2  503  505 -0.10804833319E+03 -0.53393961815E+02  0.64888963002E+02  0.13687927156E+03  0.00000000000E+00 0. -1.
         21    1    1    2  504  501  0.14792300964E+03  0.35268251155E+02  0.14234240800E+03  0.20829408881E+03  0.00000000000E+00 0. -1.
         21    1    1    2  505  502 -0.44826304535E+02 -0.23530131316E+02 -0.69285284489E+02  0.85810927654E+02  0.00000000000E+00 0. -1.
         21    1    1    2  506  503  0.49516280811E+01  0.41655841976E+02  0.46614941224E+02  0.62711087829E+02  0.00000000000E+00 0. -1.
<scales pt_clust_3="14000.00000" pt_clust_4="136.12921" pt_clust_5="49.94710" pt_clust_6="41.94911"></scales>
<clustering>
<clus scale="   41.949">  1  6  2 -1</clus>
<clus scale="   49.947">  2  5  1 -1</clus>
<clus scale="  136.129">  2  4  1 -1</clus>
<clus scale="   41.949">  1  3  2 -1</clus>
</clustering>
</event>
<event>
 6    0  0.6207838E+002  0.1174265E+03  0.7546771E-02  0.1247404E+00
         21   -1    0    0  505  501  0.00000000000E+00  0.00000000000E+00  0.71645725688E+03  0.71645725688E+03  0.00000000000E+00 0.  1.
         21   -1    0    0  506  502 -0.00000000000E+00 -0.00000000000E+00 -0.14676235744E+03  0.14676235744E+03  0.00000000000E+00 0.  1.
         21    1    1    2  503  502 -0.69209024706E+02  0.63328430739E+02  0.25280615813E+03  0.26965039000E+03  0.00000000000E+00 0.  1.
         21    1    1    2  504  501  0.41624004740E+02 -0.15718472595E+02  0.14743522410E+03  0.15400251120E+03  0.00000000000E+00 0.  1.
         21    1    1    2  505  503 -0.35132004055E+02  0.36997544257E+02  0.28132892367E+03  0.28591788906E+03  0.00000000000E+00 0.  1.
         21    1    1    2  506  504  0.62717024021E+02 -0.84607502402E+02 -0.11187540646E+03  0.15364882406E+03  0.00000000000E+00 0.  1.
<scales pt_clust_3="36.15482" pt_clust_4="44.49301" pt_clust_5="36.15482" pt_clust_6="106.70290"></scales>
<clustering>
<clus scale="   36.155">  3  5 -1 -1</clus>
<clus scale="   44.493">  1  4  2 -1</clus>
<clus scale="  106.703">  2  6  1 -1</clus>
<clus scale="   44.493">  1  3  2 -1</clus>
</clustering>
</event>
<event>
 6    0  0.6207838E+002  0.8251118E+02  0.7546771E-02  0.1322072E+00
         21   -1    0    0  505  501  0.00000000000E+00  0.00000000000E+00  0.18439032834E+03  0.18439032834E+03  0.00000000000E+00 0. -1.
         21   -1    0    0  503  502 -0.00000000000E+00 -0.00000000000E+00 -0.36130758268E+03  0.36130758268E+03  0.00000000000E+00 0.  1.
         21    1    1    2  503  504  0.67839116338E+02  0.19969190237E+02 -0.30662083464E+03  0.31467006610E+03  0.00000000000E+00 0.  1.
         21    1    1    2  504  501  0.51877404439E+02 -0.36031336715E+02  0.34152094789E+02  0.71804511664E+02  0.00000000000E+00 0.  1.
         21    1    1    2  505  506 -0.65731881285E+02 -0.11267179865E+02  0.54160934517E+02  0.85912958202E+02  0.00000000000E+00 0. -1.
         21    1    1    2  506  502 -0.53984639493E+02  0.27329326344E+02  0.41390550996E+02  0.73310375059E+02  0.00000000000E+00 0. -1.
<scales pt_clust_3="71.94546" pt_clust_4="63.16267" pt_clust_5="38.47933" pt_clust_6="38.47933"></scales>
<clustering>
<clus scale="   38.479">  5  6 -1 -1</clus>
<clus scale="   63.163">  1  4  2 -1</clus>
<clus scale="   71.945">  2  3  1 -1</clus>
<clus scale="   63.163">  1  3  2 -1</clus>
</clustering>
</event>
<event>
 6    0  0.6207838E+002  0.1162694E+03  0.7546771E-02  0.1249381E+00
         21   -1    0    0  504  501  0.00000000000E+00  0.00000000000E+00  0.16077983694E+03  0.16077983694E+03  0.00000000000E+00 0.  1.
         21   -1    0    0  505  502 -0.00000000000E+00 -0.00000000000E+00 -0.35417195179E+03  0.35417195179E+03  0.00000000000E+00 0.  1.
         21    1    1    2  503  502  0.10323324633E+03  0.15500327446E+02 -0.26696940807E+03  0.28665314955E+03  0.00000000000E+00 0.  1.
         21    1    1    2  504  503  0.43088816842E+02 -0.41255969453E+02  0.94396184707E+01  0.60397082291E+02  0.00000000000E+00 0.  1.
         21    1    1    2  505  506 -0.53241545386E+02 -0.10102035411E+01  0.43769026395E+02  0.68930474667E+02  0.00000000000E+00 0.  1.
         21    1    1    2  506  501 -0.93080517788E+02  0.26765845548E+02  0.20368648360E+02  0.98971082219E+02  0.00000000000E+00 0.  1.
<scales pt_clust_3="107.30693" pt_clust_4="59.65485" pt_clust_5="33.19216" pt_clust_6="33.19216"></scales>
<clustering>
<clus scale="   33.192">  5  6 -1 -1</clus>
<clus scale="   59.655">  1  4  2 -1</clus>
<clus scale="  107.307">  2  3  1 -1</clus>
<clus scale="   59.655">  1  3  2 -1</clus>
</clustering>
</event>
<event>
 6    0  0.6207838E+002  0.7037666E+02  0.7546771E-02  0.1358817E+00
         21   -1    0    0  506  501  0.00000000000E+00  0.00000000000E+00  0.79867114379E+03  0.79867114379E+03  0.00000000000E+00 0. -1.
         21   -1    0    0  504  502 -0.00000000000E+00 -0.00000000000E+00 -0.51893432980E+03  0.51893432980E+03  0.00000000000E+00 0. -1.
         21    1    1    2  503  505  0.46490445163E+02 -0.56597644402E+02  0.17952366350E+03  0.19389017665E+03  0.00000000000E+00 0. -1.
         21    1    1    2  504  501 -0.56325436437E+02  0.66106459787E+02  0.22905637480E+03  0.24496824621E+03  0.00000000000E+00 0. -1.
         21    1    1    2  505  502 -0.44776399615E+02  0.26323845352E+02 -0.49959386210E+03  0.50228666899E+03  0.00000000000E+00 0. -1.
         21    1    1    2  506  503  0.54611390889E+02 -0.35832660737E+02  0.37075063780E+03  0.37646038173E+03  0.00000000000E+00 0. -1.
<scales pt_clust_3="54.25000" pt_clust_4="14000.00000" pt_clust_5="51.94103" pt_clust_6="70.37666"></scales>
<clustering>
<clus scale="   51.941">  2  5  1 -1</clus>
<clus scale="   54.250">  2  3  1 -1</clus>
<clus scale="   70.377">  1  6  2 -1</clus>
<clus scale="   70.377">  1  3  2 -1</clus>
</clustering>
</event>
<event>
 6    0  0.6207838E+002  0.9720281E+02  0.7546771E-02  0.1286290E+00
         21   -1    0    0  503  501  0.00000000000E+00  0.00000000000E+00  0.75809656123E+02  0.75809656123E+02  0.00000000000E+00 0.  1.
         21   -1    0    0  505  502 -0.00000000000E+00 -0.00000000000E+00 -0.72460099570E+03  0.72460099570E+03  0.00000000000E+00 0. -1.
         21    1    1    2  503  504  0.12980304394E+03 -0.13553790867E+02 -0.17315499615E+03  0.21682985992E+03  0.00000000000E+00 0.  1.
         21    1    1    2  504  502 -0.26168916700E+02  0.23823643895E+02 -0.46226208683E+03  0.46361472704E+03  0.00000000000E+00 0. -1.
         21    1    1    2  505  506 -0.59085641139E+02 -0.14899962364E+02  0.19974537094E+02  0.64125689076E+02  0.00000000000E+00 0.  1.
         21    1    1    2  506  501 -0.44548486103E+02  0.46301093363E+01 -0.33348793693E+02  0.55840375781E+02  0.00000000000E+00 0. -1.
<scales pt_clust_3="14000.00000" pt_clust_4="35.38896" pt_clust_5="97.20281" pt_clust_6="49.77293"></scales>
<clustering>
<clus scale="   35.389">  2  4  1 -1</clus>
<clus scale="   49.773">  1  6  2 -1</clus>
<clus scale="   97.203">  1  5  2 -1</clus>
<clus scale="   49.773">  1  3  2 -1</clus>
</clustering>
</event>
<event>
 6    0  0.6207838E+002  0.1092580E+03  0.7546771E-02  0.1261950E+00
         21   -1    0    0  503  501  0.00000000000E+00  0.00000000000E+00  0.11754325545E+03  0.11754325545E+03  0.00000000000E+00 0.  1.
         21   -1    0    0  506  502 -0.00000000000E+00 -0.00000000000E+00 -0.62113595092E+03  0.62113595092E+03  0.00000000000E+00 0.  1.
         21    1    1    2  503  502  0.28293121065E+02  0.99824826612E+01 -0.11837383946E+03  0.12211681509E+03  0.00000000000E+00 0.  1.
         21    1    1    2  504  501 -0.10297360464E+03  0.64528415539E+02  0.57337921944E+02  0.13436933042E+03  0.00000000000E+00 0.  1.
         21    1    1    2  505  504  0.80625053062E+02 -0.17069032988E+02 -0.79280439882E+02  0.11435532002E+03  0.00000000000E+00 0.  1.
         21    1    1    2  506  505 -0.59445694911E+01 -0.57441865213E+02 -0.36327633807E+03  0.36783774084E+03  0.00000000000E+00 0.  1.
<scales pt_clust_3="30.00251" pt_clust_4="14000.00000" pt_clust_5="109.25804" pt_clust_6="52.26746"></scales>
<clustering>
<clus scale="   30.003">  2  3  1 -1</clus>
<clus scale="   52.267">  2  6  1 -1</clus>
<clus scale="  109.258">  2  5  1 -1</clus>
<clus scale="  109.258">  1  3  2 -1</clus>
</clustering>
</event>
<event>
 6    0  0.6207838E+002  0.1811941E+03  0.7546771E-02  0.1166652E+00
         21   -1    0    0  504  501  0.00000000000E+00  0.00000000000E+00  0.14811205178E+03  0.14811205178E+03  0.00000000000E+00 0. -1.
         21   -1    0    0  506  502 -0.00000000000E+00 -0.00000000000E+00 -0.45629579103E+03  0.45629579103E+03  0.00000000000E+00 0. -1.
         21    1    1    2  503  501  0.46477452247E+02  0.49297899367E+02 -0.39331809113E+02  0.78341736370E+02  0.00000000000E+00 0. -1.
         21    1    1    2  504  502  0.99545537914E+02 -0.12423582872E+03  0.42161348663E+02  0.16468586636E+03  0.00000000000E+00 0. -1.
         21    1    1    2  505  503 -0.91834536949E+02  0.22654827218E+01 -0.13338872089E+03  0.16196069107E+03  0.00000000000E+00 0. -1.
         21    1    1    2  506  505 -0.54188453211E+02  0.72672446634E+02 -0.17762455790E+03  0.19941954902E+03  0.00000000000E+00 0.  1.
<scales pt_clust_3="67.75276" pt_clust_4="160.94501" pt_clust_5="81.02827" pt_clust_6="81.02827"></scales>
<clustering>
<clus scale="   67.753">  1  3  2 -1</clus>
<clus scale="   81.028">  5  6 -1 -1</clus>
<clus scale="  160.945">  1  4  2 -1</clus>
<clus scale="   67.753">  1  3  2 -1</clus>
</clustering>
</event>
<event>
 6    0  0.6207838E+002  0.6421373E+02  0.7546771E-02  0.1380954E+00
         21   -1    0    0  505  501  0.00000000000E+00  0.00000000000E+00  0.15082595698E+04  0.15082595698E+04  0.00000000000E+00 0. -1.
         21   -1    0    0  503  502 -0.00000000000E+00 -0.00000000000E+00 -0.36919761532E+02  0.36919761532E+02  0.00000000000E+00 0. -1.
         21    1    1    2  503  506 -0.33724266288E+02  0.28735597235E+02  0.12822690258E+03  0.13566576292E+03  0.00000000000E+00 0. -1.
         21    1    1    2  504  502  0.78213470264E+02 -0.18811053068E+02  0.37640663669E+02  0.88814538279E+02  0.00000000000E+00 0. -1.
         21    1    1    2  505  504  0.51389533733E+02  0.28501691118E+02  0.91211408316E+03  0.91400510462E+03  0.00000000000E+00 0. -1.
         21    1    1    2  506  501 -0.95878737709E+02 -0.38426235285E+02  0.39335815889E+03  0.40669392553E+03  0.00000000000E+00 0. -1.
<scales pt_clust_3="44.30644" pt_clust_4="52.32912" pt_clust_5="14000.00000" pt_clust_6="64.21373"></scales>
<clustering>
<clus scale="   44.306">  2  3  1 -1</clus>
<clus scale="   52.329">  2  4  1 -1</clus>
<clus scale="   64.214">  2  6  1 -1</clus>
<clus scale="   64.214">  1  3  2 -1</clus>
</clustering>
</event>
<event>
 6    0  0.6207838E+002  0.1514657E+03  0.7546771E-02  0.1198683E+00
         21   -1    0    0  505  501  0.00000000000E+00  0.00000000000E+00  0.57772081165E+03  0.57772081165E+03  0.00000000000E+00 0. -1.
         21   -1    0    0  504  502 -0.00000000000E+00 -0.00000000000E+00 -0.36648088481E+03  0.36648088481E+03  0.00000000000E+00 0. -1.
         21    1    1    2  503  502  0.53296845518E+02  0.29821308033E+01 -0.65921984478E+02  0.84824258817E+02  0.00000000000E+00 0. -1.
         21    1    1    2  504  501 -0.68528924883E+02 -0.20821841207E+02 -0.14029274539E+03  0.15751767211E+03  0.00000000000E+00 0. -1.
         21    1    1    2  505  506 -0.10795755324E+03  0.85539566669E+02  0.51347492476E+03  0.53162801763E+03  0.00000000000E+00 0. -1.
         21    1    1    2  506  503  0.12318963260E+03 -0.67699856265E+02 -0.96020268056E+02  0.17023174791E+03  0.00000000000E+00 0. -1.
<scales pt_clust_3="36.41765" pt_clust_4="71.62236" pt_clust_5="139.46123" pt_clust_6="36.41765"></scales>
<clustering>
<clus scale="   36.418">  3  6 -1 -1</clus>
<clus scale="   71.622">  2  4  1 -1</clus>
<clus scale="  139.461">  1  5  2 -1</clus>
<clus scale="  139.461">  1  3  2 -1</clus>
</clustering>
</event>
<event>
 6    0  0.6207838E+002  0.1570023E+03  0.7546771E-02  0.1192123E+00
         21   -1    0    0  503  501  0.00000000000E+00  0.00000000000E+00  0.39959415430E+03  0.39959415430E+03  0.00000000000E+00 0. -1.
         21   -1    0    0  505  502 -0.00000000000E+00 -0.00000000000E+00 -0.10045106957E+04  0.10045106957E+04  0.00000000000E+00 0. -1.
         21    1    1    2  503  506  0.97500425903E+01  0.67558323089E+02 -0.48287376825E+02  0.83611369500E+02  0.00000000000E+00 0. -1.
         21    1    1    2  504  501 -0.21286526137E+02  0.27346163018E+02  0.34886015887E+03  0.35057715167E+03  0.00000000000E+00 0. -1.
         21    1    1    2  505  504  0.11312203863E+03 -0.14388931589E+03 -0.78003677084E+03  0.80122287456E+03  0.00000000000E+00 0. -1.
         21    1    1    2  506  502 -0.10158555509E+03  0.48984829787E+02 -0.12545255256E+03  0.16869345422E+03  0.00000000000E+00 0. -1.
<scales pt_clust_3="77.27386" pt_clust_4="34.65442" pt_clust_5="14000.00000" pt_clust_6="157.00227"></scales>
<clustering>
<clus scale="   34.654">  1  4  2 -1</clus>
<clus scale="   77.274">  1  3  2 -1</clus>
<clus scale="  157.002">  1  6  2 -1</clus>
<clus scale="   34.654">  1  3  2 -1</clus>
</clustering>
</event>
<event>
 6    0  0.6207838E+002  0.2225886E+03  0.7546771E-02  0.1131968E+00
         21   -1    0    0  503  501  0.00000000000E+00  0.00000000000E+00  0.93163190147E+02  0.93163190147E+02  0.00000000000E+00 0.  1.
         21   -1    0    0  506  502 -0.00000000000E+00 -0.00000000000E+00 -0.13525353379E+04  0.13525353379E+04  0.00000000000E+00 0.  1.
         21    1    1    2  503  505 -0.15343303874E+03 -0.12852327675E+03 -0.63432940572E+03  0.66515691758E+03  0.00000000000E+00 0.  1.
         21    1    1    2  504  502 -0.13374563686E+02  0.33922839249E+02 -0.26969883640E+03  0.27215271509E+03  0.00000000000E+00 0.  1.
         21    1    1    2  505  504 -0.52609210745E+02  0.19355436025E+02 -0.24534702110E+03  0.25166947117E+03  0.00000000000E+00 0.  1.
         21    1    1    2  506  501  0.21941681317E+03  0.75245001476E+02 -0.10999688451E+03  0.25671942418E+03  0.00000000000E+00 0.  1.
<scales pt_clust_3="222.58857" pt_clust_4="35.38639" pt_clust_5="95.48533" pt_clust_6="14000.00000"></scales>
<clustering>
<clus scale="   35.386">  4  5 -1 -1</clus>
<clus scale="   95.485">  2  4  1 -1</clus>
<clus scale="  222.589">  2  3  1 -1</clus>
<clus scale="  222.589">  1  3  2 -1</clus>
</clustering>
</event>
<event>
 6    0  0.6207838E+002  0.1843873E+03  0.7546771E-02  0.1163623E+00
         21   -1    0    0  503  501  0.00000000000E+00  0.00000000000E+00  0.77755455690E+02  0.77755455690E+02  0.00000000000E+00 0.  1.
         21   -1    0    0  504  502 -0.00000000000E+00 -0.00000000000E+00 -0.55089020677E+03  0.55089020677E+03  0.00000000000E+00 0.  1.
         21    1    1    2  503  502  0.32401662675E+02  0.15493452038E+03 -0.12459366197E+03  0.20144019945E+03  0.00000000000E+00 0.  1.
         21    1    1    2  504  505  0.32401943424E+02  0.23937827967E+02 -0.84345303833E+02  0.93472112547E+02  0.00000000000E+00 0.  1.
         21    1    1    2  505  506 -0.51575790480E+02 -0.14601705563E+03 -0.25292126691E+03  0.29656400650E+03  0.00000000000E+00 0.  1.
         21    1    1    2  506  501 -0.13227815620E+02 -0.32855292723E+02 -0.11274518357E+02  0.37169343957E+02  0.00000000000E+00 0.  1.
<scales pt_clust_3="169.15963" pt_clust_4="40.28530" pt_clust_5="35.09028" pt_clust_6="35.09028"></scales>
<clustering>
<clus scale="   35.090">  5  6 -1 -1</clus>
<clus scale="   40.285">  2  4  1 -1</clus>
<clus scale="  169.160">  1  3  2 -1</clus>
<clus scale="  169.160">  1  3  2 -1</clus>
</clustering>
</event>
<event>
 6    0  0.6207838E+002  0.8295508E+02  0.7546771E-02  0.1320869E+00
         21   -1    0    0  504  501  0.00000000000E+00  0.00000000000E+00  0.38074081087E+03  0.38074081087E+03  0.00000000000E+00 0. -1.
         21   -1    0    0  506  502 -0.00000000000E+00 -0.00000000000E+00 -0.18093959151E+03  0.18093959151E+03  0.00000000000E+00 0.  1.
         21    1    1    2  503  501  0.42070795104E+00 -0.54346029734E+02  0.94324108163E+02  0.10886094490E+03  0.00000000000E+00 0. -1.
         21    1    1    2  504  502 -0.77738242237E+02 -0.45876623120E+02  0.17365566336E+03  0.19571455815E+03  0.00000000000E+00 0.  1.
         21    1    1    2  505  503  0.57595760003E+02  0.18434432920E+02  0.71747222166E+02  0.93833702772E+02  0.00000000000E+00 0.  1.
         21    1    1    2  506  505  0.19721774282E+02  0.81788219935E+02 -0.13992577433E+03  0.16327119655E+03  0.00000000000E+00 0.  1.
<scales pt_clust_3="54.34766" pt_clust_4="82.95508" pt_clust_5="57.76699" pt_clust_6="14000.00000"></scales>
<clustering>
<clus scale="   54.348">  1  3  2 -1</clus>
<clus scale="   57.767">  1  5  2 -1</clus>
<clus scale="   82.955">  1  4  2 -1</clus>
<clus scale="   54.348">  1  3  2 -1</clus>
</clustering>
</event>
<event>
 6    0  0.6207838E+002  0.1060738E+03  0.7546771E-02  0.1268018E+00
         21   -1    0    0  505  501  0.00000000000E+00  0.00000000000E+00  0.12414641113E+04  0.12414641113E+04  0.00000000000E+00 0.  1.
         21   -1    0    0  503  502 -0.00000000000E+00 -0.00000000000E+00 -0.10657180107E+03  0.10657180107E+03  0.00000000000E+00 0. -1.
         21    1    1    2  503  504 -0.63086412139E+02 -0.12435519509E+03 -0.43125782466E+02  0.14595870326E+03  0.00000000000E+00 0. -1.
         21    1    1    2  504  501 -0.16484249544E+02  0.44467740286E+02  0.68447272503E+03  0.68611370903E+03  0.00000000000E+00 0.  1.
         21    1    1    2  505  506  0.54198541510E+02  0.58006719289E+02  0.46564484180E+03  0.47236361003E+03  0.00000000000E+00 0.  1.
         21    1    1    2  506  502  0.25372120173E+02  0.21880735518E+02  0.27900525850E+02  0.43599890041E+02  0.00000000000E+00 0.  1.
<scales pt_clust_3="106.07383" pt_clust_4="47.52272" pt_clust_5="14000.00000" pt_clust_6="33.50390"></scales>
<clustering>
<clus scale="   33.504">  2  6  1 -1</clus>
<clus scale="   47.523">  1  4  2 -1</clus>
<clus scale="  106.074">  2  3  1 -1</clus>
<clus scale="   47.523">  1  3  2 -1</clus>
</clustering>
</event>
<event>
 6    0  0.6207838E+002  0.7449877E+02  0.7546771E-02  0.1345430E+00
         21   -1    0    0  506  501  0.00000000000E+00  0.00000000000E+00  0.91361661104E+03  0.91361661104E+03  0.00000000000E+00 0.  1.
         21   -1    0    0  504  502 -0.00000000000E+00 -0.00000000000E+00 -0.30396319543E+02  0.30396319543E+02  0.00000000000E+00 0.  1.
         21    1    1    2  503  501 -0.43371642145E+02  0.15633681085E+02  0.22269486228E+03  0.22741704645E+03  0.00000000000E+00 0.  1.
         21    1    1    2  504  505 -0.56726337981E+02  0.15846877280E+02  0.78010322284E+02  0.97747692162E+02  0.00000000000E+00 0.  1.
         21    1    1    2  505  503  0.11681283642E+03  0.18239316479E+02  0.19679868460E+03  0.22958143148E+03  0.00000000000E+00 0.  1.
         21    1    1    2  506  502 -0.16714856292E+02 -0.49719874844E+02  0.38571642233E+03  0.38926676050E+03  0.00000000000E+00 0.  1.
<scales pt_clust_3="46.10327" pt_clust_4="14000.00000" pt_clust_5="74.49877" pt_clust_6="58.01435"></scales>
<clustering>
<clus scale="   46.103">  1  3  2 -1</clus>
<clus scale="   58.014">  1  6  2 -1</clus>
<clus scale="   74.499">  1  5  2 -1</clus>
<clus scale="   46.103">  1  3  2 -1</clus>
</clustering>
</event>
<event>
 6    0  0.1413247E+003  0.1091129E+03  0.7546771E-02  0.1262222E+00
         21   -1    0    0  504  501  0.00000000000E+00  0.00000000000E+00  0.13209565419E+04  0.13209565419E+04  0.00000000000E+00 0. -1.
         21   -1    0    0  503  502 -0.00000000000E+00 -0.00000000000E+00 -0.27031163237E+03  0.27031163237E+03  0.00000000000E+00 0. -1.
         21    1    1    2  503  505  0.21003893858E+02 -0.50435799427E+02 -0.23845737706E+03  0.24463616678E+03  0.00000000000E+00 0. -1.
         21    1    1    2  504  506 -0.66724689508E+02  0.93614052424E+02  0.10088026451E+04  0.10153317446E+04  0.00000000000E+00 0. -1.
         21    1    1    2  505  501  0.29148109622E+02  0.18463886946E+02  0.26288028326E+03  0.26513500474E+03  0.00000000000E+00 0.  1.
         21    1    1    2  506  502  0.16572686028E+02 -0.61642139943E+02  0.17419358310E+02  0.66165258126E+02  0.00000000000E+00 0. -1.
<scales pt_clust_3="54.61757" pt_clust_4="109.11291" pt_clust_5="34.50402" pt_clust_6="14000.00000"></scales>
<clustering>
<clus scale="   34.504">  1  5  2 -1</clus>
<clus scale="   54.618">  2  3  1 -1</clus>
<clus scale="  109.113">  1  4  2 -1</clus>
<clus scale="   34.504">  1  3  2 -1</clus>
</clustering>
</event>
<event>
 6    0  0.6207838E+002  0.1068756E+03  0.7546771E-02  0.1266468E+00
         21   -1    0    0  505  501  0.00000000000E+00  0.00000000000E+00  0.12786948292E+04  0.12786948292E+04  0.00000000000E+00 0.  1.
         21   -1    0    0  503  502 -0.00000000000E+00 -0.00000000000E+00 -0.30935536533E+02  0.30935536533E+02  0.00000000000E+00 0. -1.
         21    1    1    2  503  501  0.64757389946E+02 -0.42199291549E+02  0.49169875091E+02  0.91607730986E+02  0.00000000000E+00 0. -1.
         21    1    1    2  504  506 -0.51247562560E+02  0.31417573770E+00  0.63765623751E+03  0.63971234833E+03  0.00000000000E+00 0.  1.
         21    1    1    2  505  504 -0.56011023921E+02 -0.92955433377E+01  0.40237672986E+03  0.40636273779E+03  0.00000000000E+00 0.  1.
         21    1    1    2  506  502  0.42501196535E+02  0.51180659149E+02  0.15855645021E+03  0.17194754863E+03  0.00000000000E+00 0. -1.
<scales pt_clust_3="101.99482" pt_clust_4="30.33441" pt_clust_5="30.33441" pt_clust_6="66.52677"></scales>
<clustering>
<clus scale="   30.334">  4  5 -1 -1</clus>
<clus scale="   66.527">  2  6  1 -1</clus>
<clus scale="  101.995">  2  3  1 -1</clus>
<clus scale="  106.876">  1  3  2 -1</clus>
</clustering>
</event>
<event>
 6    0  0.6207838E+002  0.5835631E+02  0.7546771E-02  0.1404862E+00
         21   -1    0    0  506  501  0.00000000000E+00  0.00000000000E+00  0.64904554305E+03  0.64904554305E+03  0.00000000000E+00 0.  1.
         21   -1    0    0  503  502 -0.00000000000E+00 -0.00000000000E+00 -0.16236591522E+03  0.16236591522E+03  0.00000000000E+00 0. -1.
         21    1    1    2  503  505 -0.24864730538E+02 -0.52365642158E+02 -0.14084317810E+03  0.15230632331E+03  0.00000000000E+00 0. -1.
         21    1    1    2  504  501 -0.32763853846E+02 -0.20377292734E+02  0.16569589603E+03  0.17012887509E+03  0.00000000000E+00 0.  1.
         21    1    1    2  505  504 -0.20344342920E+02  0.73127073728E+02  0.15775487006E+03  0.17506587397E+03  0.00000000000E+00 0.  1.
         21    1    1    2  506  502  0.77972927304E+02 -0.38413883573E+00  0.30407203985E+03  0.31391038589E+03  0.00000000000E+00 0.  1.
<scales pt_clust_3="58.35631" pt_clust_4="38.58373" pt_clust_5="14000.00000" pt_clust_6="57.68288"></scales>
<clustering>
<clus scale="   38.584">  1  4  2 -1</clus>
<clus scale="   58.356">  2  3  1 -1</clus>
<clus scale="   57.683">  1  6  2 -1</clus>
<clus scale="   38.584">  1  3  2 -1</clus>
</clustering>
</event>
<event>
 6    0  0.6207838E+002  0.1507453E+03  0.7546771E-02  0.1199560E+00
         21   -1    0    0  503  501  0.00000000000E+00  0.00000000000E+00  0.11137790407E+03  0.11137790407E+03  0.00000000000E+00 0.  1.
         21   -1    0    0  505  502 -0.00000000000E+00 -0.00000000000E+00 -0.49321026198E+03  0.49321026198E+03  0.00000000000E+00 0.  1.
         21    1    1    2  503  506  0.57080965385E+02  0.48250318653E+02 -0.11007065950E+03  0.13304841202E+03  0.00000000000E+00 0.  1.
         21    1    1    2  504  501 -0.13429677926E+03 -0.27821986166E+02  0.41391678914E+01  0.13721086161E+03  0.00000000000E+00 0.  1.
         21    1    1    2  505  504 -0.29144441560E+02 -0.60110555378E+02 -0.15340109421E+03  0.16731578840E+03  0.00000000000E+00 0.  1.
         21    1    1    2  506  502  0.10636025543E+03  0.39682222892E+02 -0.12249977210E+03  0.16701310402E+03  0.00000000000E+00 0.  1.
<scales pt_clust_3="31.45463" pt_clust_4="145.67571" pt_clust_5="66.80327" pt_clust_6="31.45463"></scales>
<clustering>
<clus scale="   31.455">  3  6 -1 -1</clus>
<clus scale="   66.803">  2  5  1 -1</clus>
<clus scale="  145.676">  1  4  2 -1</clus>
<clus scale="  145.676">  1  3  2 -1</clus>
</clustering>
</event>
<event>
 6    0  0.6207838E+002  0.2143806E+03  0.7546771E-02  0.1138143E+00
         21   -1    0    0  504  501  0.00000000000E+00  0.00000000000E+00  0.10042140585E+04  0.10042140585E+04  0.00000000000E+00 0. -1.
         21   -1    0    0  506  502 -0.00000000000E+00 -0.00000000000E+00 -0.10365519385E+03  0.10365519385E+03  0.00000000000E+00 0.  1.
         21    1    1    2  503  501 -0.35501361916E+02  0.20288251548E+03  0.58532059988E+03  0.62050130252E+03  0.00000000000E+00 0. -1.
         21    1    1    2  504  505  0.61994922842E+02  0.48471762226E+02  0.25742405744E+02  0.82798270785E+02  0.00000000000E+00 0.  1.
         21    1    1    2  505  502 -0.41973093481E+02 -0.13266323177E+02  0.44884557986E+02  0.62867793445E+02  0.00000000000E+00 0.  1.
         21    1    1    2  506  503  0.15479532555E+02 -0.23808795453E+03  0.24461130100E+03  0.34170188556E+03  0.00000000000E+00 0.  1.
<scales pt_clust_3="14000.00000" pt_clust_4="66.42991" pt_clust_5="44.01972" pt_clust_6="214.38065"></scales>
<clustering>
<clus scale="   44.020">  2  5  1 -1</clus>
<clus scale="   66.430">  2  4  1 -1</clus>
<clus scale="  214.381">  2  6  1 -1</clus>
<clus scale="  214.381">  1  3  2 -1</clus>
</clustering>
</event>
<event>
 6    0  0.6207838E+002  0.2333639E+03  0.7546771E-02  0.1124294E+00
         21   -1    0    0  502  501  0.00000000000E+00  0.00000000000E+00  0.11416978153E+04  0.11416978153E+04  0.00000000000E+00 0.  1.
         21   -1    0    0  504  502 -0.00000000000E+00 -0.00000000000E+00 -0.38314735148E+03  0.38314735148E+03  0.00000000000E+00 0. -1.
         21    1    1    2  503  505  0.25335583803E+02 -0.97797000444E+02 -0.19124809793E+03  0.21629142393E+03  0.00000000000E+00 0. -1.
         21    1    1    2  504  503 -0.43906611203E+02 -0.25848569551E+02 -0.82392507561E+02  0.96873445058E+02  0.00000000000E+00 0. -1.
         21    1    1    2  505  506  0.26680308618E+02 -0.92013948831E+02 -0.50078691518E+02  0.10810310352E+03  0.00000000000E+00 0.  1.
         21    1    1    2  506  501 -0.81092812185E+01  0.21565951883E+03  0.10822697609E+04  0.11035771943E+04  0.00000000000E+00 0.  1.
<scales pt_clust_3="84.46969" pt_clust_4="50.95036" pt_clust_5="84.46969" pt_clust_6="214.94041"></scales>
<clustering>
<clus scale="   50.950">  2  4  1 -1</clus>
<clus scale="   84.470">  3  5 -1 -1</clus>
<clus scale="  214.940">  1  6  2 -1</clus>
<clus scale="  214.940">  1  3  2 -1</clus>
</clustering>
</event>
<event>
 6    0  0.6207838E+002  0.1356230E+03  0.7546771E-02  0.1219343E+00
         21   -1    0    0  506  501  0.00000000000E+00  0.00000000000E+00  0.37718296799E+03  0.37718296799E+03  0.00000000000E+00 0.  1.
         21   -1    0    0  505  502 -0.00000000000E+00 -0.00000000000E+00 -0.88051480976E+03  0.88051480976E+03  0.00000000000E+00 0. -1.
         21    1    1    2  503  501  0.77162319697E+02  0.46007080135E+02 -0.62373753789E+03  0.63017393724E+03  0.00000000000E+00 0. -1.
         21    1    1    2  504  502 -0.63146399654E+02  0.70544453811E+02 -0.17401073309E+03  0.19810028517E+03  0.00000000000E+00 0.  1.
         21    1    1    2  505  503  0.31346337506E+02  0.12738498903E+02 -0.49077229791E+02  0.59610709720E+02  0.00000000000E+00 0. -1.
         21    1    1    2  506  504 -0.45362257549E+02 -0.12929003285E+03  0.34349365901E+03  0.36981284561E+03  0.00000000000E+00 0.  1.
<scales pt_clust_3="135.62297" pt_clust_4="92.38649" pt_clust_5="33.83581" pt_clust_6="14000.00000"></scales>
<clustering>
<clus scale="   33.836">  2  5  1 -1</clus>
<clus scale="   92.386">  2  4  1 -1</clus>
<clus scale="  135.623">  2  3  1 -1</clus>
<clus scale="  135.623">  1  3  2 -1</clus>
</clustering>
</event>
<event>
 6    0  0.6207838E+002  0.7222866E+02  0.7546771E-02  0.1352674E+00
         21   -1    0    0  506  501  0.00000000000E+00  0.00000000000E+00  0.17749130157E+04  0.17749130157E+04  0.00000000000E+00 0. -1.
         21   -1    0    0  504  502 -0.00000000000E+00 -0.00000000000E+00 -0.52894419856E+02  0.52894419856E+02  0.00000000000E+00 0. -1.
         21    1    1    2  503  501  0.10445135282E+03  0.11952268524E+02  0.42722551045E+02  0.11348197300E+03  0.00000000000E+00 0. -1.
         21    1    1    2  504  503  0.22984153327E+02 -0.26748736103E+02  0.28961986117E+02  0.45635105205E+02  0.00000000000E+00 0. -1.
         21    1    1    2  505  502 -0.58597940560E+02 -0.50598105164E+01  0.95176263279E+02  0.11188315965E+03  0.00000000000E+00 0.  1.
         21    1    1    2  506  505 -0.68837565587E+02  0.19856278095E+02  0.15551577954E+04  0.15568071977E+04  0.00000000000E+00 0. -1.
<scales pt_clust_3="72.22866" pt_clust_4="35.26707" pt_clust_5="55.21587" pt_clust_6="14000.00000"></scales>
<clustering>
<clus scale="   35.267">  2  4  1 -1</clus>
<clus scale="   55.216">  2  5  1 -1</clus>
<clus scale="   72.229">  2  3  1 -1</clus>
<clus scale="   72.229">  1  3  2 -1</clus>
</clustering>
</event>
<event>
 6    0  0.6207838E+002  0.1931647E+03  0.7546771E-02  0.1155638E+00
         21   -1    0    0  504  501  0.00000000000E+00  0.00000000000E+00  0.24280973667E+03  0.24280973667E+03  0.00000000000E+00 0. -1.
         21   -1    0    0  505  502 -0.00000000000E+00 -0.00000000000E+00 -0.28151508847E+03  0.28151508847E+03  0.00000000000E+00 0. -1.
         21    1    1    2  503  502 -0.56467673310E+02 -0.60250976773E+02 -0.99413125180E+02  0.12923524206E+03  0.00000000000E+00 0. -1.
         21    1    1    2  504  503 -0.86427292593E+02 -0.70032709909E+02 -0.38684355346E+02  0.11777409185E+03  0.00000000000E+00 0. -1.
         21    1    1    2  505  506  0.30502213256E+02 -0.85218243694E+01 -0.39811336247E+02  0.50871888090E+02  0.00000000000E+00 0. -1.
         21    1    1    2  506  501  0.11239275265E+03  0.13880551105E+03  0.13920346498E+03  0.22644360315E+03  0.00000000000E+00 0. -1.
<scales pt_clust_3="57.51110" pt_clust_4="57.51110" pt_clust_5="31.67028" pt_clust_6="181.00477"></scales>
<clustering>
<clus scale="   31.670">  2  5  1 -1</clus>
<clus scale="   57.511">  3  4 -1 -1</clus>
<clus scale="  181.005">  1  6  2 -1</clus>
<clus scale="  181.005">  1  3  2 -1</clus>
</clustering>
</event>
<event>
 6    0  0.6207838E+002  0.6081060E+02  0.7546771E-02  0.1394461E+00
         21   -1    0    0  503  501  0.00000000000E+00  0.00000000000E+00  0.23675884611E+03  0.23675884611E+03  0.00000000000E+00 0.  1.
         21   -1    0    0  504  502 -0.00000000000E+00 -0.00000000000E+00 -0.11598558760E+04  0.11598558760E+04  0.00000000000E+00 0.  1.
         21    1    1    2  503  505 -0.52274817069E+02 -0.20843515173E+02 -0.25566315547E+03  0.26178379952E+03  0.00000000000E+00 0.  1.
         21    1    1    2  504  506  0.10544184980E+03 -0.41457964592E+02 -0.78482939112E+03  0.79296527016E+03  0.00000000000E+00 0.  1.
         21    1    1    2  505  502  0.83416265168E+00  0.34924693561E+02 -0.10537468650E+03  0.11101465941E+03  0.00000000000E+00 0. -1.
         21    1    1    2  506  501 -0.54001195387E+02  0.27376786205E+02  0.22277020322E+03  0.23085099300E+03  0.00000000000E+00 0.  1.
<scales pt_clust_3="53.49153" pt_clust_4="14000.00000" pt_clust_5="34.93465" pt_clust_6="60.81060"></scales>
<clustering>
<clus scale="   34.935">  2  5  1 -1</clus>
<clus scale="   53.492">  2  3  1 -1</clus>
<clus scale="   60.811">  1  6  2 -1</clus>
<clus scale="   60.811">  1  3  2 -1</clus>
</clustering>
</event>
<event>
 6    0  0.6207838E+002  0.7378259E+02  0.7546771E-02  0.1347683E+00
         21   -1    0    0  506  501  0.00000000000E+00  0.00000000000E+00  0.89360376211E+02  0.89360376211E+02  0.00000000000E+00 0. -1.
         21   -1    0    0  503  502 -0.00000000000E+00 -0.00000000000E+00 -0.81240948806E+03  0.81240948806E+03  0.00000000000E+00 0. -1.
         21    1    1    2  503  504  0.33491165063E+02 -0.43770959902E+02 -0.20594837046E+03  0.21319541825E+03  0.00000000000E+00 0. -1.
         21    1    1    2  504  501 -0.61474566193E+01 -0.60276708157E+02  0.45482181756E+02  0.75760818544E+02  0.00000000000E+00 0. -1.
         21    1    1    2  505  502  0.55588420710E+01  0.10750722775E+03 -0.56901639858E+03  0.57910997798E+03  0.00000000000E+00 0. -1.
         21    1    1    2  506  505 -0.32902550514E+02 -0.34595596862E+01  0.64334754315E+01  0.33703649501E+02  0.00000000000E+00 0. -1.
<scales pt_clust_3="54.23224" pt_clust_4="73.78259" pt_clust_5="14000.00000" pt_clust_6="33.08393"></scales>
<clustering>
<clus scale="   33.084">  1  6  2 -1</clus>
<clus scale="   54.232">  2  3  1 -1</clus>
<clus scale="   73.783">  1  4  2 -1</clus>
<clus scale="   33.084">  1  3  2 -1</clus>
</clustering>
</event>
<event>
 6    0  0.6207838E+002  0.2348683E+03  0.7546771E-02  0.1123259E+00
         21   -1    0    0  504  501  0.00000000000E+00  0.00000000000E+00  0.20980003198E+03  0.20980003198E+03  0.00000000000E+00 0.  1.
         21   -1    0    0  506  502 -0.00000000000E+00 -0.00000000000E+00 -0.12229223820E+04  0.12229223820E+04  0.00000000000E+00 0. -1.
         21    1    1    2  503  501  0.27500585975E+02 -0.11998434426E+02  0.13426985363E+03  0.13758138774E+03  0.00000000000E+00 0.  1.
         21    1    1    2  504  505  0.44111807079E+02 -0.11260716862E+03 -0.56492376479E+02  0.13348263763E+03  0.00000000000E+00 0. -1.
         21    1    1    2  505  502  0.71403511990E+02 -0.57393546886E+02 -0.71222325098E+02  0.11603921898E+03  0.00000000000E+00 0. -1.
         21    1    1    2  506  503 -0.14301590504E+03  0.18199914993E+03 -0.10196775021E+04  0.10456191696E+04  0.00000000000E+00 0. -1.
<scales pt_clust_3="30.00408" pt_clust_4="53.00821" pt_clust_5="53.00821" pt_clust_6="226.84146"></scales>
<clustering>
<clus scale="   30.004">  1  3  2 -1</clus>
<clus scale="   53.008">  4  5 -1 -1</clus>
<clus scale="  226.841">  2  6  1 -1</clus>
<clus scale="   30.004">  1  3  2 -1</clus>
</clustering>
</event>
<event>
 6    0  0.6207838E+002  0.9416640E+02  0.7546771E-02  0.1293065E+00
         21   -1    0    0  506  501  0.00000000000E+00  0.00000000000E+00  0.93358917338E+03  0.93358917338E+03  0.00000000000E+00 0.  1.
         21   -1    0    0  503  502 -0.00000000000E+00 -0.00000000000E+00 -0.37310436123E+03  0.37310436123E+03  0.00000000000E+00 0.  1.
         21    1    1    2  503  504 -0.37927007331E+02 -0.33444418097E+02 -0.31285148586E+03  0.31691172144E+03  0.00000000000E+00 0.  1.
         21    1    1    2  504  505  0.84308741847E+02  0.17065258215E+02 -0.82636613124E+01  0.86414553682E+02  0.00000000000E+00 0.  1.
         21    1    1    2  505  501 -0.22988255108E+02 -0.84559886189E+02  0.29706296808E+03  0.30971800275E+03  0.00000000000E+00 0.  1.
         21    1    1    2  506  502 -0.23393479408E+02  0.10093904607E+03  0.58453699123E+03  0.59364925673E+03  0.00000000000E+00 0.  1.
<scales pt_clust_3="50.56666" pt_clust_4="54.42207" pt_clust_5="14000.00000" pt_clust_6="94.16640"></scales>
<clustering>
<clus scale="   50.567">  2  3  1 -1</clus>
<clus scale="   54.422">  2  4  1 -1</clus>
<clus scale="   94.166">  1  6  2 -1</clus>
<clus scale="   94.166">  1  3  2 -1</clus>
</clustering>
</event>
<event>
 6    0  0.6207838E+002  0.1642076E+03  0.7546771E-02  0.1184027E+00
         21   -1    0    0  504  501  0.00000000000E+00  0.00000000000E+00  0.29067052434E+04  0.29067052434E+04  0.00000000000E+00 0.  1.
         21   -1    0    0  505  502 -0.00000000000E+00 -0.00000000000E+00 -0.14834557533E+02  0.14834557533E+02  0.00000000000E+00 0.  1.
         21    1    1    2  503  501 -0.78002414945E+02 -0.47482590090E+02  0.52184469737E+03  0.52977434939E+03  0.00000000000E+00 0.  1.
         21    1    1    2  504  502  0.12330214457E+03  0.13154821731E+03  0.16043623677E+04  0.16144618172E+04  0.00000000000E+00 0.  1.
         21    1    1    2  505  506 -0.12421536798E+02 -0.61190146858E+02  0.18484508030E+03  0.19510569535E+03  0.00000000000E+00 0.  1.
         21    1    1    2  506  503 -0.32878192830E+02 -0.22875480359E+02  0.58081854054E+03  0.58219793902E+03  0.00000000000E+00 0.  1.
<scales pt_clust_3="38.45431" pt_clust_4="153.59930" pt_clust_5="62.43820" pt_clust_6="38.45431"></scales>
<clustering>
<clus scale="   38.454">  3  6 -1 -1</clus>
<clus scale="   62.438">  2  5  1 -1</clus>
<clus scale="  153.599">  2  4  1 -1</clus>
<clus scale="  164.208">  1  3  2 -1</clus>
</clustering>
</event>
<event>
 6    0  0.6207838E+002  0.2303128E+03  0.7546771E-02  0.1126420E+00
         21   -1    0    0  503  501  0.00000000000E+00  0.00000000000E+00  0.25715142442E+03  0.25715142442E+03  0.00000000000E+00 0. -1.
         21   -1    0    0  506  502 -0.00000000000E+00 -0.00000000000E+00 -0.23441983993E+04  0.23441983993E+04  0.00000000000E+00 0. -1.
         21    1    1    2  503  505  0.13641424102E+03  0.19159208753E+03 -0.13362937819E+03  0.27050542300E+03  0.00000000000E+00 0. -1.
         21    1    1    2  504  501 -0.14081253603E+03 -0.18008760958E+03  0.10483736306E+03  0.25149670002E+03  0.00000000000E+00 0. -1.
         21    1    1    2  505  502  0.29548085301E+02  0.27858849546E+02 -0.20158504302E+04  0.20162594480E+04  0.00000000000E+00 0. -1.
         21    1    1    2  506  504 -0.25149790289E+02 -0.39363327494E+02 -0.42404529628E+02  0.63088252757E+02  0.00000000000E+00 0.  1.
<scales pt_clust_3="14000.00000" pt_clust_4="230.31277" pt_clust_5="40.61040" pt_clust_6="40.41222"></scales>
<clustering>
<clus scale="   40.610">  2  5  1 -1</clus>
<clus scale="   40.412">  2  6  1 -1</clus>
<clus scale="  230.313">  1  4  2 -1</clus>
<clus scale="  230.313">  1  3  2 -1</clus>
</clustering>
</event>
<event>
 6    0  0.6207838E+002  0.7041376E+02  0.7546771E-02  0.1358692E+00
         21   -1    0    0  505  501  0.00000000000E+00  0.00000000000E+00  0.66058272373E+03  0.66058272373E+03  0.00000000000E+00 0. -1.
         21   -1    0    0  503  502 -0.00000000000E+00 -0.00000000000E+00 -0.40168919875E+02  0.40168919875E+02  0.00000000000E+00 0. -1.
         21    1    1    2  503  504  0.77061672445E+01  0.45550038606E+02  0.19041657000E+02  0.49967746916E+02  0.00000000000E+00 0. -1.
         21    1    1    2  504  501 -0.41142322467E+02  0.62377326181E+02  0.11240082327E+03  0.13497246605E+03  0.00000000000E+00 0. -1.
         21    1    1    2  505  506  0.55243150273E+02 -0.26107516804E+02  0.33084967666E+03  0.33644452237E+03  0.00000000000E+00 0. -1.
         21    1    1    2  506  502 -0.21806995050E+02 -0.81819847983E+02  0.15812164692E+03  0.17936690827E+03  0.00000000000E+00 0. -1.
<scales pt_clust_3="46.19731" pt_clust_4="70.41376" pt_clust_5="59.89885" pt_clust_6="14000.00000"></scales>
<clustering>
<clus scale="   46.197">  2  3  1 -1</clus>
<clus scale="   59.899">  1  5  2 -1</clus>
<clus scale="   70.414">  1  4  2 -1</clus>
<clus scale="   59.899">  1  3  2 -1</clus>
</clustering>
</event>
<event>
 6    0  0.6207838E+002  0.7668980E+02  0.7546771E-02  0.1338717E+00
         21   -1    0    0  506  501  0.00000000000E+00  0.00000000000E+00  0.11152481520E+03  0.11152481520E+03  0.00000000000E+00 0.  1.
         21   -1    0    0  504  502 -0.00000000000E+00 -0.00000000000E+00 -0.37960363961E+03  0.37960363961E+03  0.00000000000E+00 0. -1.
         21    1    1    2  503  501 -0.94196656775E+01 -0.36025777216E+02  0.40556445331E+01  0.37457108512E+02  0.00000000000E+00 0. -1.
         21    1    1    2  504  503  0.22588635589E+02 -0.71540731071E+02 -0.25027471583E+03  0.26127716327E+03  0.00000000000E+00 0. -1.
         21    1    1    2  505  502  0.54958713500E+02  0.10877472241E+03 -0.24049163796E+02  0.12422062109E+03  0.00000000000E+00 0.  1.
         21    1    1    2  506  505 -0.68127683412E+02 -0.12082141218E+01  0.21894106838E+01  0.68173561940E+02  0.00000000000E+00 0.  1.
<scales pt_clust_3="37.23690" pt_clust_4="76.68980" pt_clust_5="14000.00000" pt_clust_6="73.36458"></scales>
<clustering>
<clus scale="   37.237">  1  3  2 -1</clus>
<clus scale="   73.365">  1  6  2 -1</clus>
<clus scale="   76.690">  2  4  1 -1</clus>
<clus scale="   37.237">  1  3  2 -1</clus>
</clustering>
</event>
<event>
 6    0  0.6207838E+002  0.9132966E+02  0.7546771E-02  0.1299663E+00
         21   -1    0    0  506  501  0.00000000000E+00  0.00000000000E+00  0.11679269171E+03  0.11679269171E+03  0.00000000000E+00 0.  1.
         21   -1    0    0  504  502 -0.00000000000E+00 -0.00000000000E+00 -0.78668008283E+03  0.78668008283E+03  0.00000000000E+00 0.  1.
         21    1    1    2  503  502 -0.32817925699E+02 -0.47859546645E+02 -0.54908719065E+03  0.55214517600E+03  0.00000000000E+00 0.  1.
         21    1    1    2  504  505  0.12328775435E+03  0.44008570062E+02 -0.16899447883E+03  0.21376566256E+03  0.00000000000E+00 0.  1.
         21    1    1    2  505  501 -0.60422548923E+02  0.18891434844E+02  0.72381484480E+02  0.96160542970E+02  0.00000000000E+00 0.  1.
         21    1    1    2  506  503 -0.30047279731E+02 -0.15040458260E+02 -0.24187206119E+02  0.41401393017E+02  0.00000000000E+00 0.  1.
<scales pt_clust_3="58.44654" pt_clust_4="91.32966" pt_clust_5="14000.00000" pt_clust_6="33.60140"></scales>
<clustering>
<clus scale="   33.601">  1  6  2 -1</clus>
<clus scale="   58.447">  2  3  1 -1</clus>
<clus scale="   91.330">  2  4  1 -1</clus>
<clus scale="   33.601">  1  3  2 -1</clus>
</clustering>
</event>
<event>
 6    0  0.6207838E+002  0.2060269E+03  0.7546771E-02  0.1144751E+00
         21   -1    0    0  506  501  0.00000000000E+00  0.00000000000E+00  0.43480652783E+02  0.43480652783E+02  0.00000000000E+00 0. -1.
         21   -1    0    0  505  502 -0.00000000000E+00 -0.00000000000E+00 -0.22223636413E+04  0.22223636413E+04  0.00000000000E+00 0. -1.
         21    1    1    2  503  502 -0.25705704550E+02  0.14354229411E+03 -0.48430119683E+03  0.50577942099E+03  0.00000000000E+00 0. -1.
         21    1    1    2  504  501  0.75013822512E+02 -0.16472369450E+03 -0.36204359736E+03  0.40476726089E+03  0.00000000000E+00 0. -1.
         21    1    1    2  505  504 -0.23991342296E+02 -0.67100418947E+02 -0.11373734795E+04  0.11396036515E+04  0.00000000000E+00 0. -1.
         21    1    1    2  506  503 -0.25316775665E+02  0.88281819340E+02 -0.19516471485E+03  0.21569396069E+03  0.00000000000E+00 0.  1.
<scales pt_clust_3="39.71310" pt_clust_4="199.85710" pt_clust_5="71.26044" pt_clust_6="39.71310"></scales>
<clustering>
<clus scale="   39.713">  3  6 -1 -1</clus>
<clus scale="   71.260">  2  5  1 -1</clus>
<clus scale="  199.857">  1  4  2 -1</clus>
<clus scale="  199.857">  1  3  2 -1</clus>
</clustering>
</event>
<event>
 6    0  0.6207838E+002  0.8097907E+02  0.7546771E-02  0.1326296E+00
         21   -1    0    0  504  501  0.00000000000E+00  0.00000000000E+00  0.56031443241E+03  0.56031443241E+03  0.00000000000E+00 0. -1.
         21   -1    0    0  506  502 -0.00000000000E+00 -0.00000000000E+00 -0.77518276094E+02  0.77518276094E+02  0.00000000000E+00 0. -1.
         21    1    1    2  503  502 -0.10698803577E+03  0.12753842065E+02  0.41361998440E+02  0.11541193699E+03  0.00000000000E+00 0. -1.
         21    1    1    2  504  503  0.48128467651E+02  0.63704144015E+02  0.53688274921E+02  0.96213295480E+02  0.00000000000E+00 0. -1.
         21    1    1    2  505  501  0.26211097867E+00 -0.54888130540E+02  0.34774961148E+03  0.35205477963E+03  0.00000000000E+00 0. -1.
         21    1    1    2  506  505  0.58597457142E+02 -0.21569855540E+02  0.39996271473E+02  0.74152696399E+02  0.00000000000E+00 0. -1.
<scales pt_clust_3="14000.00000" pt_clust_4="65.38186" pt_clust_5="54.88876" pt_clust_6="80.97907"></scales>
<clustering>
<clus scale="   54.889">  1  5  2 -1</clus>
<clus scale="   65.382">  1  4  2 -1</clus>
<clus scale="   80.979">  2  6  1 -1</clus>
<clus scale="   54.889">  1  3  2 -1</clus>
</clustering>
</event>
<event>
 6    0  0.6207838E+002  0.1269649E+03  0.7546771E-02  0.1232030E+00
         21   -1    0    0  505  501  0.00000000000E+00  0.00000000000E+00  0.18874217940E+04  0.18874217940E+04  0.00000000000E+00 0. -1.
         21   -1    0    0  504  502 -0.00000000000E+00 -0.00000000000E+00 -0.95879618357E+02  0.95879618357E+02  0.00000000000E+00 0.  1.
         21    1    1    2  503  506  0.34302458641E+02  0.37625099843E+02  0.70436348395E+02  0.86911368544E+02  0.00000000000E+00 0.  1.
         21    1    1    2  504  503  0.20406491979E+02 -0.22587652536E+02 -0.40850981878E+02  0.50945359772E+02  0.00000000000E+00 0.  1.
         21    1    1    2  505  502 -0.79111081140E+02 -0.10259068898E+03  0.17488177351E+04  0.17536096724E+04  0.00000000000E+00 0. -1.
         21    1    1    2  506  501  0.24402130520E+02  0.87553241673E+02  0.13139074085E+02  0.91835011674E+02  0.00000000000E+00 0.  1.
<scales pt_clust_3="50.67619" pt_clust_4="30.44055" pt_clust_5="126.96491" pt_clust_6="14000.00000"></scales>
<clustering>
<clus scale="   30.441">  2  4  1 -1</clus>
<clus scale="   50.676">  2  3  1 -1</clus>
<clus scale="  126.965">  1  5  2 -1</clus>
<clus scale="  126.965">  1  3  2 -1</clus>
</clustering>
</event>
<event>
 6    0  0.6207838E+002  0.1475758E+03  0.7546771E-02  0.1203484E+00
         21   -1    0    0  502  501  0.00000000000E+00  0.00000000000E+00  0.13586593763E+04  0.13586593763E+04  0.00000000000E+00 0.  1.
         21   -1    0    0  503  502 -0.00000000000E+00 -0.00000000000E+00 -0.21881529644E+03  0.21881529644E+03  0.00000000000E+00 0.  1.
         21    1    1    2  503  504  0.15131755194E+02 -0.28431752577E+02 -0.19592782166E+03  0.19855741203E+03  0.00000000000E+00 0.  1.
         21    1    1    2  504  505  0.41563798146E+02  0.12600445872E+02  0.72108131820E+02  0.84177807212E+02  0.00000000000E+00 0. -1.
         21    1    1    2  505  506  0.61770268309E+02 -0.58595112715E+02  0.15128784817E+03  0.17360001810E+03  0.00000000000E+00 0.  1.
         21    1    1    2  506  501 -0.11846582165E+03  0.74426419420E+02  0.11123759215E+04  0.11211394354E+04  0.00000000000E+00 0.  1.
<scales pt_clust_3="32.20768" pt_clust_4="41.32712" pt_clust_5="41.32712" pt_clust_6="134.26992"></scales>
<clustering>
<clus scale="   32.208">  2  3  1 -1</clus>
<clus scale="   41.327">  4  5 -1 -1</clus>
<clus scale="  134.270">  1  6  2 -1</clus>
<clus scale="  134.270">  1  3  2 -1</clus>
</clustering>
</event>
<event>
 6    0  0.6207838E+002  0.1041770E+03  0.7546771E-02  0.1271750E+00
         21   -1    0    0  503  501  0.00000000000E+00  0.00000000000E+00  0.66341027519E+02  0.66341027519E+02  0.00000000000E+00 0. -1.
         21   -1    0    0  505  502 -0.00000000000E+00 -0.00000000000E+00 -0.57854816495E+03  0.57854816495E+03  0.00000000000E+00 0.  1.
         21    1    1    2  503  506 -0.37775749066E+02 -0.84000317372E+02 -0.27856968902E+03  0.29340097508E+03  0.00000000000E+00 0.  1.
         21    1    1    2  504  501  0.21976089733E+01  0.33000156631E+02  0.21578425854E+02  0.39490103636E+02  0.00000000000E+00 0.  1.
         21    1    1    2  505  504  0.92724536589E+02  0.52672897747E+02 -0.98465302339E+02  0.14514713090E+03  0.00000000000E+00 0. -1.
         21    1    1    2  506  502 -0.57146396497E+02 -0.16727370058E+01 -0.15675057192E+03  0.16685098285E+03  0.00000000000E+00 0.  1.
<scales pt_clust_3="104.17704" pt_clust_4="33.07325" pt_clust_5="14000.00000" pt_clust_6="56.91460"></scales>
<clustering>
<clus scale="   33.073">  1  4  2 -1</clus>
<clus scale="   56.915">  2  6  1 -1</clus>
<clus scale="  104.177">  2  3  1 -1</clus>
<clus scale="   33.073">  1  3  2 -1</clus>
</clustering>
</event>
<event>
 6    0  0.6207838E+002  0.9566900E+02  0.7546771E-02  0.1289676E+00
         21   -1    0    0  506  501  0.00000000000E+00  0.00000000000E+00  0.35587161522E+03  0.35587161522E+03  0.00000000000E+00 0.  1.
         21   -1    0    0  504  502 -0.00000000000E+00 -0.00000000000E+00 -0.81655062222E+03  0.81655062222E+03  0.00000000000E+00 0. -1.
         21    1    1    2  503  502  0.79306414754E+02  0.62986209918E+02  0.14928382129E+03  0.18039520326E+03  0.00000000000E+00 0.  1.
         21    1    1    2  504  505 -0.21541114521E+02 -0.93510297280E+02 -0.77233609199E+03  0.77827452374E+03  0.00000000000E+00 0. -1.
         21    1    1    2  505  501 -0.60635969567E+02 -0.39691441002E+01  0.15301450079E+02  0.62662662605E+02  0.00000000000E+00 0.  1.
         21    1    1    2  506  503  0.28706693341E+01  0.34493231462E+02  0.14707181362E+03  0.15108984784E+03  0.00000000000E+00 0.  1.
<scales pt_clust_3="14000.00000" pt_clust_4="95.66900" pt_clust_5="60.14819" pt_clust_6="34.61248"></scales>
<clustering>
<clus scale="   34.612">  1  6  2 -1</clus>
<clus scale="   60.148">  1  5  2 -1</clus>
<clus scale="   95.669">  2  4  1 -1</clus>
<clus scale="   34.612">  1  3  2 -1</clus>
</clustering>
</event>
<event>
 6    0  0.6207838E+002  0.1337692E+03  0.7546771E-02  0.1221968E+00
         21   -1    0    0  506  501  0.00000000000E+00  0.00000000000E+00  0.11804903264E+03  0.11804903264E+03  0.00000000000E+00 0. -1.
         21   -1    0    0  504  502 -0.00000000000E+00 -0.00000000000E+00 -0.30509941694E+03  0.30509941694E+03  0.00000000000E+00 0. -1.
         21    1    1    2  503  505 -0.69012602599E+02 -0.67899755962E+02  0.37789865734E+02  0.10392877431E+03  0.00000000000E+00 0. -1.
         21    1    1    2  504  503  0.33128258191E+02  0.40655910776E+02 -0.30145435523E+02  0.60490758424E+02  0.00000000000E+00 0.  1.
         21    1    1    2  505  501 -0.39802900313E+00 -0.45324730399E+02  0.26022744393E+01  0.45401117223E+02  0.00000000000E+00 0. -1.
         21    1    1    2  506  502  0.36282373411E+02  0.72568575585E+02 -0.19729708895E+03  0.21332779963E+03  0.00000000000E+00 0. -1.
<scales pt_clust_3="37.66567" pt_clust_4="52.44411" pt_clust_5="37.66567" pt_clust_6="121.91771"></scales>
<clustering>
<clus scale="   37.666">  3  5 -1 -1</clus>
<clus scale="   52.444">  2  4  1 -1</clus>
<clus scale="  121.918">  2  6  1 -1</clus>
<clus scale="  133.769">  1  3  2 -1</clus>
</clustering>
</event>
<event>
 6    0  0.6207838E+002  0.8260417E+02  0.7546771E-02  0.1321820E+00
         21   -1    0    0  504  501  0.00000000000E+00  0.00000000000E+00  0.23841564899E+03  0.23841564899E+03  0.00000000000E+00 0. -1.
         21   -1    0    0  506  502 -0.00000000000E+00 -0.00000000000E+00 -0.16131083322E+03  0.16131083322E+03  0.00000000000E+00 0.  1.
         21    1    1    2  503  501 -0.70125548390E+02 -0.29925551775E+02  0.95714582264E+02  0.12236998179E+03  0.00000000000E+00 0. -1.
         21    1    1    2  504  502  0.65826977431E+02 -0.22276553944E+02  0.19534880501E+02  0.72187584594E+02  0.00000000000E+00 0. -1.
         21    1    1    2  505  503 -0.53006390844E+02  0.97980696023E+01  0.62054815399E+02  0.82197808684E+02  0.00000000000E+00 0. -1.
         21    1    1    2  506  505  0.57304961803E+02  0.42404036116E+02 -0.10019946239E+03  0.12297110713E+03  0.00000000000E+00 0.  1.
<scales pt_clust_3="31.35085" pt_clust_4="69.49414" pt_clust_5="31.35085" pt_clust_6="73.71052"></scales>
<clustering>
<clus scale="   31.351">  3  5 -1 -1</clus>
<clus scale="   69.494">  1  4  2 -1</clus>
<clus scale="   73.711">  2  6  1 -1</clus>
<clus scale="   69.494">  1  3  2 -1</clus>
</clustering>
</event>
<event>
 6    0  0.6207838E+002  0.1109884E+03  0.7546771E-02  0.1258750E+00
         21   -1    0    0  506  501  0.00000000000E+00  0.00000000000E+00  0.11699864946E+03  0.11699864946E+03  0.00000000000E+00 0.  1.
         21   -1    0    0  505  502 -0.00000000000E+00 -0.00000000000E+00 -0.11307912470E+04  0.11307912470E+04  0.00000000000E+00 0. -1.
         21    1    1    2  503  501  0.21724904547E+02 -0.77937911440E+02  0.23567648968E+02  0.84271724766E+02  0.00000000000E+00 0.  1.
         21    1    1    2  504  502 -0.10475535992E+03  0.41098701776E+02 -0.99148549276E+03  0.99785082606E+03  0.00000000000E+00 0. -1.
         21    1    1    2  505  503  0.10994882903E+03  0.52376655289E+02 -0.16495900750E+02  0.12289903891E+03  0.00000000000E+00 0.  1.
         21    1    1    2  506  504 -0.26918373659E+02 -0.15537445625E+02 -0.29378853007E+02  0.42768306736E+02  0.00000000000E+00 0. -1.
<scales pt_clust_3="85.96097" pt_clust_4="14000.00000" pt_clust_5="110.98844" pt_clust_6="31.08072"></scales>
<clustering>
<clus scale="   31.081">  1  6  2 -1</clus>
<clus scale="   85.961">  1  3  2 -1</clus>
<clus scale="  110.988">  1  5  2 -1</clus>
<clus scale="   31.081">  1  3  2 -1</clus>
</clustering>
</event>
<event>
 6    0  0.6207838E+002  0.8755368E+02  0.7546771E-02  0.1308886E+00
         21   -1    0    0  504  501  0.00000000000E+00  0.00000000000E+00  0.47255783501E+03  0.47255783501E+03  0.00000000000E+00 0. -1.
         21   -1    0    0  505  502 -0.00000000000E+00 -0.00000000000E+00 -0.34041898422E+03  0.34041898422E+03  0.00000000000E+00 0.  1.
         21    1    1    2  503  506  0.10074872918E+03 -0.21315432938E+02  0.59950800860E+02  0.11915851895E+03  0.00000000000E+00 0. -1.
         21    1    1    2  504  503 -0.54680039529E+02 -0.86222064285E+01  0.33656166737E+03  0.34108357496E+03  0.00000000000E+00 0. -1.
         21    1    1    2  505  501 -0.95013551678E+01 -0.51647314090E+02  0.18803724299E+02  0.55779035939E+02  0.00000000000E+00 0. -1.
         21    1    1    2  506  502 -0.36567334487E+02  0.81584953456E+02 -0.28317734174E+03  0.29695568939E+03  0.00000000000E+00 0.  1.
<scales pt_clust_3="14000.00000" pt_clust_4="78.97725" pt_clust_5="52.51401" pt_clust_6="87.55368"></scales>
<clustering>
<clus scale="   52.514">  1  5  2 -1</clus>
<clus scale="   78.977">  1  4  2 -1</clus>
<clus scale="   87.554">  2  6  1 -1</clus>
<clus scale="   52.514">  1  3  2 -1</clus>
</clustering>
</event>
<event>
 6    0  0.6207838E+002  0.1878139E+03  0.7546771E-02  0.1160448E+00
         21   -1    0    0  506  501  0.00000000000E+00  0.00000000000E+00  0.16056661511E+04  0.16056661511E+04  0.00000000000E+00 0. -1.
         21   -1    0    0  504  502 -0.00000000000E+00 -0.00000000000E+00 -0.36045302051E+03  0.36045302051E+03  0.00000000000E+00 0. -1.
         21    1    1    2  503  501  0.11882986797E+03  0.14267654063E+03  0.14800659846E+04  0.14916676746E+04  0.00000000000E+00 0. -1.
         21    1    1    2  504  505  0.10214019562E+03  0.28694626783E+02 -0.66590359138E+02  0.12526083625E+03  0.00000000000E+00 0. -1.
         21    1    1    2  505  503 -0.19154168279E+03 -0.18951276776E+03 -0.13566871462E+03  0.30167748593E+03  0.00000000000E+00 0. -1.
         21    1    1    2  506  502 -0.29428380810E+02  0.18141600349E+02 -0.32593780305E+02  0.47513174751E+02  0.00000000000E+00 0. -1.
<scales pt_clust_3="14000.00000" pt_clust_4="99.37299" pt_clust_5="187.81392" pt_clust_6="34.57090"></scales>
<clustering>
<clus scale="   34.571">  2  6  1 -1</clus>
<clus scale="   99.373">  2  4  1 -1</clus>
<clus scale="  187.814">  2  5  1 -1</clus>
<clus scale="  187.814">  1  3  2 -1</clus>
</clustering>
</event>
<event>
 6    0  0.6207838E+002  0.1713248E+03  0.7546771E-02  0.1176473E+00
         21   -1    0    0  505  501  0.00000000000E+00  0.00000000000E+00  0.22441081030E+03  0.22441081030E+03  0.00000000000E+00 0. -1.
         21   -1    0    0  503  502 -0.00000000000E+00 -0.00000000000E+00 -0.22048703415E+03  0.22048703415E+03  0.00000000000E+00 0. -1.
         21    1    1    2  503  506  0.72570454842E+02  0.41373418522E+02  0.17082163671E+02  0.85264476729E+02  0.00000000000E+00 0. -1.
         21    1    1    2  504  501  0.34712136630E+02 -0.22035386596E+02  0.82993001900E+02  0.92619269357E+02  0.00000000000E+00 0. -1.
         21    1    1    2  505  502 -0.15806297046E+03  0.23070139069E+02 -0.11659957106E+03  0.19776651364E+03  0.00000000000E+00 0. -1.
         21    1    1    2  506  504  0.50780378984E+02 -0.42408170995E+02  0.20448181649E+02  0.69247584720E+02  0.00000000000E+00 0.  1.
<scales pt_clust_3="79.28094" pt_clust_4="41.11558" pt_clust_5="148.67154" pt_clust_6="79.28094"></scales>
<clustering>
<clus scale="   41.116">  1  4  2 -1</clus>
<clus scale="   79.281">  3  6 -1 -1</clus>
<clus scale="  148.672">  2  5  1 -1</clus>
<clus scale="   41.116">  1  3  2 -1</clus>
</clustering>
</event>
<event>
 6    0  0.9369728E+002  0.7524672E+02  0.7546771E-02  0.1343109E+00
         21   -1    0    0  503  501  0.00000000000E+00  0.00000000000E+00  0.93525316165E+02  0.93525316165E+02  0.00000000000E+00 0. -1.
         21   -1    0    0  505  502 -0.00000000000E+00 -0.00000000000E+00 -0.24160119304E+04  0.24160119304E+04  0.00000000000E+00 0.  1.
         21    1    1    2  503  504 -0.22445241475E+02 -0.34644802404E+02 -0.77122550158E+02  0.87475361910E+02  0.00000000000E+00 0. -1.
         21    1    1    2  504  502 -0.84026790958E+02  0.29482773422E+02 -0.35140361356E+03  0.36251101384E+03  0.00000000000E+00 0.  1.
         21    1    1    2  505  506  0.13246309643E+02 -0.41496388297E+02 -0.19435985858E+04  0.19440866436E+04  0.00000000000E+00 0.  1.
         21    1    1    2  506  501  0.93225722790E+02  0.46658417280E+02  0.49638135310E+02  0.11546422723E+03  0.00000000000E+00 0. -1.
<scales pt_clust_3="41.28016" pt_clust_4="75.24672" pt_clust_5="43.63172" pt_clust_6="14000.00000"></scales>
<clustering>
<clus scale="   41.280">  1  3  2 -1</clus>
<clus scale="   43.632">  2  5  1 -1</clus>
<clus scale="   75.247">  2  4  1 -1</clus>
<clus scale="   41.280">  1  3  2 -1</clus>
</clustering>
</event>
<event>
 6    0  0.6207838E+002  0.1831175E+03  0.7546771E-02  0.1164820E+00
         21   -1    0    0  506  501  0.00000000000E+00  0.00000000000E+00  0.54948416891E+03  0.54948416891E+03  0.00000000000E+00 0.  1.
         21   -1    0    0  503  502 -0.00000000000E+00 -0.00000000000E+00 -0.86357792635E+02  0.86357792635E+02  0.00000000000E+00 0.  1.
         21    1    1    2  503  505 -0.14082016421E+03  0.14708481602E+01  0.17692020597E+03  0.22612660464E+03  0.00000000000E+00 0.  1.
         21    1    1    2  504  502  0.56790566540E+02 -0.29074770229E+01  0.40922774213E+00  0.56866416609E+02  0.00000000000E+00 0.  1.
         21    1    1    2  505  501 -0.40949073123E+02 -0.42120409884E+02  0.15922826152E+03  0.16971916446E+03  0.00000000000E+00 0.  1.
         21    1    1    2  506  504  0.12497867080E+03  0.43557038746E+02  0.12656868104E+03  0.18312977584E+03  0.00000000000E+00 0.  1.
<scales pt_clust_3="163.55331" pt_clust_4="53.98187" pt_clust_5="58.74483" pt_clust_6="53.98187"></scales>
<clustering>
<clus scale="   53.982">  4  6 -1 -1</clus>
<clus scale="   58.745">  1  5  2 -1</clus>
<clus scale="  163.553">  1  3  2 -1</clus>
<clus scale="   58.745">  1  3  2 -1</clus>
</clustering>
</event>
<event>
 6    0  0.6207838E+002  0.1022947E+03  0.7546771E-02  0.1275543E+00
         21   -1    0    0  504  501  0.00000000000E+00  0.00000000000E+00  0.99829189687E+03  0.99829189687E+03  0.00000000000E+00 0. -1.
         21   -1    0    0  505  502 -0.00000000000E+00 -0.00000000000E+00 -0.16978651995E+03  0.16978651995E+03  0.00000000000E+00 0.  1.
         21    1    1    2  503  501 -0.57704772915E+00 -0.64506716731E+02  0.61161115707E+03  0.61500378612E+03  0.00000000000E+00 0. -1.
         21    1    1    2  504  506 -0.42032467050E+02  0.22502162285E+02  0.97509802013E+02  0.10854140723E+03  0.00000000000E+00 0. -1.
         21    1    1    2  505  503  0.10499262005E+03  0.11836397269E+03  0.24079649723E+03  0.28812572494E+03  0.00000000000E+00 0. -1.
         21    1    1    2  506  502 -0.62383105273E+02 -0.76359418247E+02 -0.12141207939E+03  0.15640749854E+03  0.00000000000E+00 0.  1.
<scales pt_clust_3="57.20722" pt_clust_4="47.67678" pt_clust_5="102.29470" pt_clust_6="14000.00000"></scales>
<clustering>
<clus scale="   47.677">  1  4  2 -1</clus>
<clus scale="   57.207">  1  3  2 -1</clus>
<clus scale="  102.295">  1  5  2 -1</clus>
<clus scale="   47.677">  1  3  2 -1</clus>
</clustering>
</event>
<event>
 6    0  0.6207838E+002  0.1136074E+03  0.7546771E-02  0.1254032E+00
         21   -1    0    0  506  501  0.00000000000E+00  0.00000000000E+00  0.46390512293E+02  0.46390512293E+02  0.00000000000E+00 0.  1.
         21   -1    0    0  503  502 -0.00000000000E+00 -0.00000000000E+00 -0.14841204400E+04  0.14841204400E+04  0.00000000000E+00 0. -1.
         21    1    1    2  503  501  0.39296440805E+02  0.24291685983E+02 -0.44561779090E+02  0.64187603348E+02  0.00000000000E+00 0. -1.
         21    1    1    2  504  502  0.96708708133E+02 -0.24557867825E+02 -0.12754613969E+04  0.12793582133E+04  0.00000000000E+00 0. -1.
         21    1    1    2  505  504 -0.48073781236E+02 -0.14890649015E+02 -0.68709497506E+02  0.85169330853E+02  0.00000000000E+00 0.  1.
         21    1    1    2  506  505 -0.87931367702E+02  0.15156830857E+02 -0.48997254266E+02  0.10179580479E+03  0.00000000000E+00 0.  1.
<scales pt_clust_3="46.19844" pt_clust_4="101.50386" pt_clust_5="38.32113" pt_clust_6="38.32113"></scales>
<clustering>
<clus scale="   38.321">  5  6 -1 -1</clus>
<clus scale="   46.198">  1  3  2 -1</clus>
<clus scale="  101.504">  2  4  1 -1</clus>
<clus scale="   46.198">  1  3  2 -1</clus>
</clustering>
</event>
<event>
 6    0  0.6207838E+002  0.2367194E+03  0.7546771E-02  0.1121998E+00
         21   -1    0    0  505  501  0.00000000000E+00  0.00000000000E+00  0.10599591988E+04  0.10599591988E+04  0.00000000000E+00 0.  1.
         21   -1    0    0  503  502 -0.00000000000E+00 -0.00000000000E+00 -0.24267373092E+03  0.24267373092E+03  0.00000000000E+00 0.  1.
         21    1    1    2  503  504  0.22245541644E+02  0.25318521516E+02 -0.74731089341E+02  0.81979432596E+02  0.00000000000E+00 0. -1.
         21    1    1    2  504  506  0.18909976997E+02 -0.51333128684E+02 -0.10623269103E+02  0.55727292927E+02  0.00000000000E+00 0.  1.
         21    1    1    2  505  502 -0.18093089972E+03  0.21036418092E+03  0.50610629677E+02  0.28204700836E+03  0.00000000000E+00 0.  1.
         21    1    1    2  506  501  0.13977538108E+03 -0.18434957375E+03  0.85202919662E+03  0.88287919581E+03  0.00000000000E+00 0.  1.
<scales pt_clust_3="33.70299" pt_clust_4="51.80771" pt_clust_5="14000.00000" pt_clust_6="236.71944"></scales>
<clustering>
<clus scale="   33.703">  2  3  1 -1</clus>
<clus scale="   51.808">  2  4  1 -1</clus>
<clus scale="  236.719">  1  6  2 -1</clus>
<clus scale="  236.719">  1  3  2 -1</clus>
</clustering>
</event>
<event>
 6    0  0.6207838E+002  0.1347784E+03  0.7546771E-02  0.1220533E+00
         21   -1    0    0  504  501  0.00000000000E+00  0.00000000000E+00  0.23883743162E+03  0.23883743162E+03  0.00000000000E+00 0. -1.
         21   -1    0    0  503  502 -0.00000000000E+00 -0.00000000000E+00 -0.14068655956E+04  0.14068655956E+04  0.00000000000E+00 0. -1.
         21    1    1    2  503  506  0.11702027599E+03 -0.69710824453E+02 -0.12669182941E+04  0.12742194897E+04  0.00000000000E+00 0. -1.
         21    1    1    2  504  502  0.33650376998E+02 -0.36605754129E+02  0.49839339061E+01  0.49971679026E+02  0.00000000000E+00 0. -1.
         21    1    1    2  505  501 -0.70193624000E+01  0.14627930687E+03  0.90919921464E+02  0.17237557595E+03  0.00000000000E+00 0. -1.
         21    1    1    2  506  505 -0.14365129058E+03 -0.39962728285E+02  0.29862747216E+01  0.14913628256E+03  0.00000000000E+00 0. -1.
<scales pt_clust_3="134.77841" pt_clust_4="49.72252" pt_clust_5="124.26339" pt_clust_6="14000.00000"></scales>
<clustering>
<clus scale="   49.723">  1  4  2 -1</clus>
<clus scale="  124.263">  1  5  2 -1</clus>
<clus scale="  134.778">  2  3  1 -1</clus>
<clus scale="   49.723">  1  3  2 -1</clus>
</clustering>
</event>
<event>
 6    0  0.6207838E+002  0.8431163E+02  0.7546771E-02  0.1317243E+00
         21   -1    0    0  505  501  0.00000000000E+00  0.00000000000E+00  0.11249133999E+04  0.11249133999E+04  0.00000000000E+00 0.  1.
         21   -1    0    0  506  502 -0.00000000000E+00 -0.00000000000E+00 -0.21282100973E+02  0.21282100973E+02  0.00000000000E+00 0.  1.
         21    1    1    2  503  502 -0.10379440127E+03 -0.41578353536E+02  0.23661109362E+03  0.26169991754E+03  0.00000000000E+00 0.  1.
         21    1    1    2  504  501  0.44369502068E+02  0.55784596187E+02  0.60856031522E+03  0.61272035313E+03  0.00000000000E+00 0.  1.
         21    1    1    2  505  503  0.33321356319E+02 -0.29474365641E+02  0.20994887890E+03  0.21461030443E+03  0.00000000000E+00 0.  1.
         21    1    1    2  506  504  0.26103542887E+02  0.15268122990E+02  0.48511011189E+02  0.57164925763E+02  0.00000000000E+00 0. -1.
<scales pt_clust_3="84.31163" pt_clust_4="14000.00000" pt_clust_5="45.95370" pt_clust_6="30.24088"></scales>
<clustering>
<clus scale="   30.241">  2  6  1 -1</clus>
<clus scale="   45.954">  1  5  2 -1</clus>
<clus scale="   84.312">  2  3  1 -1</clus>
<clus scale="   45.954">  1  3  2 -1</clus>
</clustering>
</event>
<event>
 6    0  0.6207838E+002  0.7068296E+02  0.7546771E-02  0.1357786E+00
         21   -1    0    0  505  501  0.00000000000E+00  0.00000000000E+00  0.18165579194E+04  0.18165579194E+04  0.00000000000E+00 0. -1.
         21   -1    0    0  504  502 -0.00000000000E+00 -0.00000000000E+00 -0.12300186013E+02  0.12300186013E+02  0.00000000000E+00 0. -1.
         21    1    1    2  503  501 -0.25257525707E+02 -0.41227274460E+02  0.49976217899E+03  0.50209547530E+03  0.00000000000E+00 0. -1.
         21    1    1    2  504  503 -0.56192710089E+02  0.37002638899E+01  0.35168876534E+03  0.35616892100E+03  0.00000000000E+00 0. -1.
         21    1    1    2  505  506  0.71876961334E+02 -0.41879899185E+02  0.71219092555E+03  0.71703287091E+03  0.00000000000E+00 0. -1.
         21    1    1    2  506  502  0.95732744620E+01  0.79406909754E+02  0.24061586346E+03  0.25356083816E+03  0.00000000000E+00 0. -1.
<scales pt_clust_3="48.34905" pt_clust_4="63.41957" pt_clust_5="70.68296" pt_clust_6="14000.00000"></scales>
<clustering>
<clus scale="   48.349">  1  3  2 -1</clus>
<clus scale="   63.420">  1  4  2 -1</clus>
<clus scale="   70.683">  1  5  2 -1</clus>
<clus scale="   48.349">  1  3  2 -1</clus>
</clustering>
</event>
<event>
 6    0  0.6207838E+002  0.1103499E+03  0.7546771E-02  0.1259923E+00
         21   -1    0    0  505  501  0.00000000000E+00  0.00000000000E+00  0.39958283972E+03  0.39958283972E+03  0.00000000000E+00 0.  1.
         21   -1    0    0  503  502 -0.00000000000E+00 -0.00000000000E+00 -0.30753759428E+03  0.30753759428E+03  0.00000000000E+00 0.  1.
         21    1    1    2  503  506  0.31041834923E+01 -0.85955956426E+02 -0.15547775184E+03  0.17768340867E+03  0.00000000000E+00 0.  1.
         21    1    1    2  504  502  0.50522387786E+01  0.11768718941E+03 -0.75735778198E+02  0.14004180721E+03  0.00000000000E+00 0.  1.
         21    1    1    2  505  504 -0.88062797828E+01  0.52137420679E+02 -0.25765426292E+01  0.52938641564E+02  0.00000000000E+00 0.  1.
         21    1    1    2  506  501  0.64985751196E+00 -0.83868653660E+02  0.32583531811E+03  0.33645657656E+03  0.00000000000E+00 0.  1.
<scales pt_clust_3="99.61407" pt_clust_4="31.80937" pt_clust_5="31.80937" pt_clust_6="83.87117"></scales>
<clustering>
<clus scale="   31.809">  4  5 -1 -1</clus>
<clus scale="   83.871">  1  6  2 -1</clus>
<clus scale="   99.614">  2  3  1 -1</clus>
<clus scale="   83.871">  1  3  2 -1</clus>
</clustering>
</event>
<event>
 6    0  0.6207838E+002  0.1605535E+03  0.7546771E-02  0.1188073E+00
         21   -1    0    0  506  501  0.00000000000E+00  0.00000000000E+00  0.29338700361E+02  0.29338700361E+02  0.00000000000E+00 0.  1.
         21   -1    0    0  504  502 -0.00000000000E+00 -0.00000000000E+00 -0.16617714314E+04  0.16617714314E+04  0.00000000000E+00 0.  1.
         21    1    1    2  503  505 -0.10699676504E+03 -0.14104706005E+03 -0.78456016141E+03  0.80428678203E+03  0.00000000000E+00 0.  1.
         21    1    1    2  504  501  0.13813767385E+03  0.87419559904E+02 -0.45172974604E+03  0.48039979168E+03  0.00000000000E+00 0.  1.
         21    1    1    2  505  502  0.12383568431E+02  0.39523149369E+02 -0.24607116524E+03  0.24953246375E+03  0.00000000000E+00 0.  1.
         21    1    1    2  506  503 -0.43524477243E+02  0.14104350781E+02 -0.15007165837E+03  0.15689109432E+03  0.00000000000E+00 0.  1.
<scales pt_clust_3="14000.00000" pt_clust_4="160.55350" pt_clust_5="41.41778" pt_clust_6="46.01665"></scales>
<clustering>
<clus scale="   41.418">  2  5  1 -1</clus>
<clus scale="   46.017">  1  6  2 -1</clus>
<clus scale="  160.554">  1  4  2 -1</clus>
<clus scale="   46.017">  1  3  2 -1</clus>
</clustering>
</event>
<event>
 6    0  0.6207838E+002  0.9161017E+02  0.7546771E-02  0.1298999E+00
         21   -1    0    0  504  501  0.00000000000E+00  0.00000000000E+00  0.16464183136E+03  0.16464183136E+03  0.00000000000E+00 0. -1.
         21   -1    0    0  506  502 -0.00000000000E+00 -0.00000000000E+00 -0.52661235311E+03  0.52661235311E+03  0.00000000000E+00 0.  1.
         21    1    1    2  503  502 -0.57870726109E+02 -0.40261008142E+02 -0.92921975906E+02  0.11663817267E+03  0.00000000000E+00 0. -1.
         21    1    1    2  504  503  0.33276748911E+02 -0.59852586650E+02  0.11109352014E+03  0.13050457602E+03  0.00000000000E+00 0. -1.
         21    1    1    2  505  501 -0.50586558694E+02  0.26862977692E+02 -0.84672817091E+01  0.57899174005E+02  0.00000000000E+00 0.  1.
         21    1    1    2  506  505  0.75180535893E+02  0.73250617100E+02 -0.37167478427E+03  0.38621226178E+03  0.00000000000E+00 0.  1.
<scales pt_clust_3="14000.00000" pt_clust_4="38.10679" pt_clust_5="57.27669" pt_clust_6="91.61017"></scales>
<clustering>
<clus scale="   57.277">  1  5  2 -1</clus>
<clus scale="   38.107">  1  4  2 -1</clus>
<clus scale="   91.610">  2  6  1 -1</clus>
<clus scale="   57.277">  1  3  2 -1</clus>
</clustering>
</event>
<event>
 6    0  0.6207838E+002  0.1160325E+03  0.7546771E-02  0.1249789E+00
         21   -1    0    0  506  501  0.00000000000E+00  0.00000000000E+00  0.84606459894E+03  0.84606459894E+03  0.00000000000E+00 0. -1.
         21   -1    0    0  504  502 -0.00000000000E+00 -0.00000000000E+00 -0.33456970277E+03  0.33456970277E+03  0.00000000000E+00 0. -1.
         21    1    1    2  503  501  0.41835643008E+02 -0.23212270156E+02  0.67161128304E+03  0.67331325995E+03  0.00000000000E+00 0. -1.
         21    1    1    2  504  505 -0.10043921573E+03  0.39459017336E+02 -0.11228385932E+03  0.15573283266E+03  0.00000000000E+00 0. -1.
         21    1    1    2  505  503  0.85235668179E+02  0.30938182616E+02  0.13403233383E+03  0.16182384492E+03  0.00000000000E+00 0. -1.
         21    1    1    2  506  502 -0.26632095458E+02 -0.47184929796E+02 -0.18186486138E+03  0.18976436419E+03  0.00000000000E+00 0. -1.
<scales pt_clust_3="47.84381" pt_clust_4="116.03254" pt_clust_5="14000.00000" pt_clust_6="54.18497"></scales>
<clustering>
<clus scale="   47.844">  1  3  2 -1</clus>
<clus scale="   54.185">  2  6  1 -1</clus>
<clus scale="  116.033">  2  4  1 -1</clus>
<clus scale="   47.844">  1  3  2 -1</clus>
</clustering>
</event>
<event>
 6    0  0.6207838E+002  0.2157941E+03  0.7546771E-02  0.1137058E+00
         21   -1    0    0  505  501  0.00000000000E+00  0.00000000000E+00  0.43180500519E+03  0.43180500519E+03  0.00000000000E+00 0.  1.
         21   -1    0    0  503  502 -0.00000000000E+00 -0.00000000000E+00 -0.27559797412E+03  0.27559797412E+03  0.00000000000E+00 0.  1.
         21    1    1    2  503  504 -0.86398055861E+02  0.60358593833E+02 -0.33297647996E+02  0.11052835504E+03  0.00000000000E+00 0.  1.
         21    1    1    2  504  501  0.17693356315E+03  0.12117293087E+03  0.29265088729E+03  0.36281249534E+03  0.00000000000E+00 0.  1.
         21    1    1    2  505  506 -0.40637037793E+02 -0.12664498028E+03 -0.47125879802E+02  0.14110693965E+03  0.00000000000E+00 0.  1.
         21    1    1    2  506  502 -0.49898469497E+02 -0.54886544427E+02 -0.56020328419E+02  0.92955189276E+02  0.00000000000E+00 0. -1.
<scales pt_clust_3="105.39347" pt_clust_4="208.73789" pt_clust_5="40.87365" pt_clust_6="40.87365"></scales>
<clustering>
<clus scale="   40.874">  5  6 -1 -1</clus>
<clus scale="  105.393">  2  3  1 -1</clus>
<clus scale="  208.738">  1  4  2 -1</clus>
<clus scale="  208.738">  1  3  2 -1</clus>
</clustering>
</event>
<event>
 6    0  0.6207838E+002  0.7088586E+02  0.7546771E-02  0.1357106E+00
         21   -1    0    0  503  501  0.00000000000E+00  0.00000000000E+00  0.10795898761E+04  0.10795898761E+04  0.00000000000E+00 0. -1.
         21   -1    0    0  505  502 -0.00000000000E+00 -0.00000000000E+00 -0.40356968323E+03  0.40356968323E+03  0.00000000000E+00 0.  1.
         21    1    1    2  503  502  0.38932171194E+02 -0.15232930452E+02  0.13619414186E+03  0.14246613773E+03  0.00000000000E+00 0. -1.
         21    1    1    2  504  501 -0.23127339155E+02  0.67668495917E+02  0.69516493861E+03  0.69883345013E+03  0.00000000000E+00 0. -1.
         21    1    1    2  505  506  0.30782720108E+02  0.63058148203E+02 -0.37922814545E+03  0.38566551857E+03  0.00000000000E+00 0.  1.
         21    1    1    2  506  504 -0.46587552146E+02 -0.11549371367E+03  0.22388925790E+03  0.25619445293E+03  0.00000000000E+00 0. -1.
<scales pt_clust_3="41.80617" pt_clust_4="56.66726" pt_clust_5="14000.00000" pt_clust_6="70.88586"></scales>
<clustering>
<clus scale="   41.806">  1  3  2 -1</clus>
<clus scale="   56.667">  1  4  2 -1</clus>
<clus scale="   70.886">  1  6  2 -1</clus>
<clus scale="   41.806">  1  3  2 -1</clus>
</clustering>
</event>
<event>
 6    0  0.6207838E+002  0.1096606E+03  0.7546771E-02  0.1261200E+00
         21   -1    0    0  503  501  0.00000000000E+00  0.00000000000E+00  0.10490584361E+03  0.10490584361E+03  0.00000000000E+00 0.  1.
         21   -1    0    0  506  502 -0.00000000000E+00 -0.00000000000E+00 -0.58590450110E+03  0.58590450110E+03  0.00000000000E+00 0. -1.
         21    1    1    2  503  504 -0.40622283918E+02  0.24140783493E+02 -0.28132623742E+02  0.54994471513E+02  0.00000000000E+00 0. -1.
         21    1    1    2  504  502  0.23283819720E+02  0.27177138315E+02 -0.34765768609E+03  0.34949477794E+03  0.00000000000E+00 0. -1.
         21    1    1    2  505  501  0.35597041103E+02 -0.11678891234E+03  0.37942742945E+02  0.12785324057E+03  0.00000000000E+00 0.  1.
         21    1    1    2  506  505 -0.18258576906E+02  0.65470990532E+02 -0.14315109060E+03  0.15846785469E+03  0.00000000000E+00 0. -1.
<scales pt_clust_3="46.59115" pt_clust_4="35.78733" pt_clust_5="14000.00000" pt_clust_6="109.66057"></scales>
<clustering>
<clus scale="   35.787">  2  4  1 -1</clus>
<clus scale="   46.591">  2  3  1 -1</clus>
<clus scale="  109.661">  2  6  1 -1</clus>
<clus scale="  109.661">  1  3  2 -1</clus>
</clustering>
</event>
<event>
 6    0  0.6207838E+002  0.1094515E+03  0.7546771E-02  0.1261589E+00
         21   -1    0    0  505  501  0.00000000000E+00  0.00000000000E+00  0.16397483862E+03  0.16397483862E+03  0.00000000000E+00 0. -1.
         21   -1    0    0  503  502 -0.00000000000E+00 -0.00000000000E+00 -0.79757628947E+03  0.79757628947E+03  0.00000000000E+00 0. -1.
         21    1    1    2  503  501 -0.10432875679E+03  0.35742070757E+01 -0.13813030752E+03  0.17313938403E+03  0.00000000000E+00 0.  1.
         21    1    1    2  504  502 -0.13501547698E+02 -0.58093107493E+02 -0.58694093871E+03  0.58996336028E+03  0.00000000000E+00 0. -1.
         21    1    1    2  505  506  0.25380483248E+02  0.20326083865E+02  0.94390974105E+02  0.99834736478E+02  0.00000000000E+00 0. -1.
         21    1    1    2  506  504  0.92449821237E+02  0.34192816552E+02 -0.29211787263E+01  0.98613647309E+02  0.00000000000E+00 0.  1.
<scales pt_clust_3="109.45147" pt_clust_4="59.06584" pt_clust_5="32.51644" pt_clust_6="14000.00000"></scales>
<clustering>
<clus scale="   32.516">  1  5  2 -1</clus>
<clus scale="   59.066">  2  4  1 -1</clus>
<clus scale="  109.451">  2  3  1 -1</clus>
<clus scale="   32.516">  1  3  2 -1</clus>
</clustering>
</event>
<event>
 6    0  0.6207838E+002  0.8826087E+02  0.7546771E-02  0.1307119E+00
         21   -1    0    0  505  501  0.00000000000E+00  0.00000000000E+00  0.10706931423E+04  0.10706931423E+04  0.00000000000E+00 0.  1.
         21   -1    0    0  503  502 -0.00000000000E+00 -0.00000000000E+00 -0.59304747825E+02  0.59304747825E+02  0.00000000000E+00 0.  1.
         21    1    1    2  503  506  0.29827410846E+02 -0.68844511066E+02 -0.81496042601E+01  0.75469577919E+02  0.00000000000E+00 0.  1.
         21    1    1    2  504  501 -0.47027888657E+01  0.45805657858E+02  0.54616460655E+03  0.54810222765E+03  0.00000000000E+00 0.  1.
         21    1    1    2  505  502 -0.10100173045E+03  0.13726575438E+02  0.30307006435E+03  0.31975182928E+03  0.00000000000E+00 0.  1.
         21    1    1    2  506  504  0.75877108466E+02  0.93122777709E+01  0.17030332784E+03  0.18667425527E+03  0.00000000000E+00 0.  1.
<scales pt_clust_3="72.21144" pt_clust_4="46.04644" pt_clust_5="88.26087" pt_clust_6="14000.00000"></scales>
<clustering>
<clus scale="   46.046">  1  4  2 -1</clus>
<clus scale="   72.211">  2  3  1 -1</clus>
<clus scale="   88.261">  2  5  1 -1</clus>
<clus scale="   46.046">  1  3  2 -1</clus>
</clustering>
</event>
<event>
 6    0  0.6207838E+002  0.2868532E+03  0.7546771E-02  0.1092004E+00
         21   -1    0    0  503  501  0.00000000000E+00  0.00000000000E+00  0.11628126437E+04  0.11628126437E+04  0.00000000000E+00 0. -1.
         21   -1    0    0  505  502 -0.00000000000E+00 -0.00000000000E+00 -0.90403571343E+02  0.90403571343E+02  0.00000000000E+00 0.  1.
         21    1    1    2  503  504  0.17785511256E+03 -0.92551265613E+02  0.27417284912E+03  0.33966001976E+03  0.00000000000E+00 0.  1.
         21    1    1    2  504  506  0.31137578202E+02 -0.73700041384E+02  0.81416846848E+02  0.11414879687E+03  0.00000000000E+00 0.  1.
         21    1    1    2  505  501 -0.19230814980E+03  0.19752024803E+03  0.71216737916E+03  0.76366160621E+03  0.00000000000E+00 0. -1.
         21    1    1    2  506  502 -0.16684540967E+02 -0.31268941034E+02  0.46519972099E+01  0.35745792181E+02  0.00000000000E+00 0.  1.
<scales pt_clust_3="58.86239" pt_clust_4="58.86239" pt_clust_5="272.22013" pt_clust_6="35.44179"></scales>
<clustering>
<clus scale="   35.442">  2  6  1 -1</clus>
<clus scale="   58.862">  3  4 -1 -1</clus>
<clus scale="  272.220">  1  5  2 -1</clus>
<clus scale="  272.220">  1  3  2 -1</clus>
</clustering>
</event>
<event>
 6    0  0.6207838E+002  0.9955982E+02  0.7546771E-02  0.1281224E+00
         21   -1    0    0  505  501  0.00000000000E+00  0.00000000000E+00  0.15883351434E+04  0.15883351434E+04  0.00000000000E+00 0.  1.
         21   -1    0    0  504  502 -0.00000000000E+00 -0.00000000000E+00 -0.53700641750E+02  0.53700641750E+02  0.00000000000E+00 0. -1.
         21    1    1    2  503  506 -0.28010475065E+02 -0.46366916379E+02  0.51627060763E+03  0.51910482367E+03  0.00000000000E+00 0.  1.
         21    1    1    2  504  501 -0.13049346845E+02  0.10019203466E+03  0.11590597854E+02  0.10170089096E+03  0.00000000000E+00 0. -1.
         21    1    1    2  505  503 -0.19765900896E+02 -0.31208743444E+02  0.85949567860E+03  0.86028919442E+03  0.00000000000E+00 0.  1.
         21    1    1    2  506  502  0.60825722806E+02 -0.22616374839E+02  0.14727761753E+03  0.16094087607E+03  0.00000000000E+00 0. -1.
<scales pt_clust_3="33.99265" pt_clust_4="90.65175" pt_clust_5="33.99265" pt_clust_6="64.89429"></scales>
<clustering>
<clus scale="   33.993">  3  5 -1 -1</clus>
<clus scale="   64.894">  2  6  1 -1</clus>
<clus scale="   90.652">  2  4  1 -1</clus>
<clus scale="   99.560">  1  3  2 -1</clus>
</clustering>
</event>
<event>
 6    0  0.6207838E+002  0.1930556E+03  0.7546771E-02  0.1155734E+00
         21   -1    0    0  503  501  0.00000000000E+00  0.00000000000E+00  0.47046570806E+03  0.47046570806E+03  0.00000000000E+00 0. -1.
         21   -1    0    0  505  502 -0.00000000000E+00 -0.00000000000E+00 -0.38570936087E+03  0.38570936087E+03  0.00000000000E+00 0. -1.
         21    1    1    2  503  502  0.19046784122E+03 -0.22061937226E+03  0.18349463143E+03  0.34441426468E+03  0.00000000000E+00 0. -1.
         21    1    1    2  504  501 -0.39104085580E+02 -0.23620715571E+01  0.13570133425E+02  0.41459105299E+02  0.00000000000E+00 0. -1.
         21    1    1    2  505  506 -0.14308614388E+03  0.11272122053E+03 -0.24006042827E+03  0.30134486448E+03  0.00000000000E+00 0. -1.
         21    1    1    2  506  504 -0.82776117527E+01  0.11026022329E+03  0.12775201061E+03  0.16895683446E+03  0.00000000000E+00 0. -1.
<scales pt_clust_3="14000.00000" pt_clust_4="39.17536" pt_clust_5="193.05556" pt_clust_6="111.53634"></scales>
<clustering>
<clus scale="   39.175">  1  4  2 -1</clus>
<clus scale="  111.536">  1  6  2 -1</clus>
<clus scale="  193.056">  2  5  1 -1</clus>
<clus scale="   39.175">  1  3  2 -1</clus>
</clustering>
</event>
<event>
 6    0  0.6207838E+002  0.1502710E+03  0.7546771E-02  0.1200140E+00
         21   -1    0    0  503  501  0.00000000000E+00  0.00000000000E+00  0.22241794580E+03  0.22241794580E+03  0.00000000000E+00 0.  1.
         21   -1    0    0  506  502 -0.00000000000E+00 -0.00000000000E+00 -0.26461191543E+03  0.26461191543E+03  0.00000000000E+00 0.  1.
         21    1    1    2  503  502 -0.99944507849E+02 -0.13603278731E+02 -0.12885296704E+03  0.16363691807E+03  0.00000000000E+00 0.  1.
         21    1    1    2  504  501 -0.39306995445E+02  0.12218349311E+03  0.19790650342E+02  0.12986730042E+03  0.00000000000E+00 0.  1.
         21    1    1    2  505  504  0.69887259264E+02 -0.51415205722E+02  0.10420546591E+02  0.87386155529E+02  0.00000000000E+00 0.  1.
         21    1    1    2  506  505  0.69364244031E+02 -0.57165008652E+02  0.56447800475E+02  0.10613948720E+03  0.00000000000E+00 0.  1.
<scales pt_clust_3="100.86602" pt_clust_4="144.15689" pt_clust_5="41.68489" pt_clust_6="41.68489"></scales>
<clustering>
<clus scale="   41.685">  5  6 -1 -1</clus>
<clus scale="  100.866">  2  3  1 -1</clus>
<clus scale="  144.157">  1  4  2 -1</clus>
<clus scale="  144.157">  1  3  2 -1</clus>
</clustering>
</event>
<event>
 6    0  0.1167243E+003  0.8715305E+02  0.7546771E-02  0.1309896E+00
         21   -1    0    0  504  501  0.00000000000E+00  0.00000000000E+00  0.18433162936E+03  0.18433162936E+03  0.00000000000E+00 0. -1.
         21   -1    0    0  503  502 -0.00000000000E+00 -0.00000000000E+00 -0.84547994275E+03  0.84547994275E+03  0.00000000000E+00 0.  1.
         21    1    1    2  503  506  0.83250811603E+02 -0.30943455947E+02 -0.78394457064E+03  0.78895962187E+03  0.00000000000E+00 0.  1.
         21    1    1    2  504  505 -0.52586138670E+02  0.34127656832E+02  0.12155340936E+03  0.13676706573E+03  0.00000000000E+00 0. -1.
         21    1    1    2  505  502 -0.55654046385E+02  0.26140121433E+02  0.14796787699E+02  0.63242578646E+02  0.00000000000E+00 0.  1.
         21    1    1    2  506  501  0.24989373452E+02 -0.29324322317E+02 -0.13553939803E+02  0.40842305874E+02  0.00000000000E+00 0. -1.
<scales pt_clust_3="87.15305" pt_clust_4="35.72980" pt_clust_5="14000.00000" pt_clust_6="38.52771"></scales>
<clustering>
<clus scale="   38.528">  1  6  2 -1</clus>
<clus scale="   35.730">  1  4  2 -1</clus>
<clus scale="   87.153">  2  3  1 -1</clus>
<clus scale="   38.528">  1  3  2 -1</clus>
</clustering>
</event>
<event>
 6    0  0.6207838E+002  0.1017762E+03  0.7546771E-02  0.1276605E+00
         21   -1    0    0  505  501  0.00000000000E+00  0.00000000000E+00  0.64202388183E+03  0.64202388183E+03  0.00000000000E+00 0.  1.
         21   -1    0    0  503  502 -0.00000000000E+00 -0.00000000000E+00 -0.12681106607E+03  0.12681106607E+03  0.00000000000E+00 0. -1.
         21    1    1    2  503  506 -0.40410597087E+02  0.51498786414E+02  0.39608371224E+02  0.76511204604E+02  0.00000000000E+00 0. -1.
         21    1    1    2  504  502 -0.60397146463E+02 -0.43234086851E+02 -0.70202604877E+02  0.10220277539E+03  0.00000000000E+00 0. -1.
         21    1    1    2  505  504  0.14578487431E+03  0.46925161113E+02  0.36960851872E+03  0.40008206337E+03  0.00000000000E+00 0.  1.
         21    1    1    2  506  501 -0.44977130760E+02 -0.55189860676E+02  0.17619853070E+03  0.19003890453E+03  0.00000000000E+00 0.  1.
<scales pt_clust_3="65.46099" pt_clust_4="101.77622" pt_clust_5="14000.00000" pt_clust_6="70.39506"></scales>
<clustering>
<clus scale="   65.461">  2  3  1 -1</clus>
<clus scale="   70.395">  1  6  2 -1</clus>
<clus scale="  101.776">  2  4  1 -1</clus>
<clus scale="   70.395">  1  3  2 -1</clus>
</clustering>
</event>
<event>
 6    0  0.6207838E+002  0.9181519E+02  0.7546771E-02  0.1298515E+00
         21   -1    0    0  506  501  0.00000000000E+00  0.00000000000E+00  0.22330818119E+02  0.22330818119E+02  0.00000000000E+00 0.  1.
         21   -1    0    0  503  502 -0.00000000000E+00 -0.00000000000E+00 -0.95696995575E+03  0.95696995575E+03  0.00000000000E+00 0.  1.
         21    1    1    2  503  501  0.91970399895E+02 -0.60066907079E+02 -0.33440496806E+03  0.35198475883E+03  0.00000000000E+00 0.  1.
         21    1    1    2  504  502 -0.88711865302E+02 -0.17020471783E+01 -0.43683057742E+03  0.44575065382E+03  0.00000000000E+00 0.  1.
         21    1    1    2  505  504 -0.22866534555E+02  0.35710680737E+02 -0.12002587654E+03  0.12729627709E+03  0.00000000000E+00 0. -1.
         21    1    1    2  506  505  0.19607999962E+02  0.26058273520E+02 -0.43377715604E+02  0.54269084131E+02  0.00000000000E+00 0. -1.
<scales pt_clust_3="14000.00000" pt_clust_4="91.81519" pt_clust_5="45.33262" pt_clust_6="32.61146"></scales>
<clustering>
<clus scale="   32.611">  1  6  2 -1</clus>
<clus scale="   45.333">  1  5  2 -1</clus>
<clus scale="   91.815">  2  4  1 -1</clus>
<clus scale="   32.611">  1  3  2 -1</clus>
</clustering>
</event>
<event>
 6    0  0.6207838E+002  0.1350789E+03  0.7546771E-02  0.1220108E+00
         21   -1    0    0  506  501  0.00000000000E+00  0.00000000000E+00  0.22088575785E+03  0.22088575785E+03  0.00000000000E+00 0. -1.
         21   -1    0    0  503  502 -0.00000000000E+00 -0.00000000000E+00 -0.98733381664E+02  0.98733381664E+02  0.00000000000E+00 0. -1.
         21    1    1    2  503  505 -0.35454990078E+02 -0.70107785148E+02 -0.29418952141E+02  0.83890599026E+02  0.00000000000E+00 0. -1.
         21    1    1    2  504  502  0.27950931932E+02  0.58031458013E+02  0.91044252695E+02  0.11152560542E+03  0.00000000000E+00 0. -1.
         21    1    1    2  505  501 -0.27102660034E+02 -0.38315329552E+02  0.21072750226E+02  0.51445888676E+02  0.00000000000E+00 0. -1.
         21    1    1    2  506  504  0.34606718180E+02  0.50391656687E+02  0.39454325409E+02  0.72757046396E+02  0.00000000000E+00 0. -1.
<scales pt_clust_3="39.23791" pt_clust_4="130.11617" pt_clust_5="39.23791" pt_clust_6="34.59675"></scales>
<clustering>
<clus scale="   34.597">  4  6 -1 -1</clus>
<clus scale="   39.238">  3  5 -1 -1</clus>
<clus scale="  130.116">  1  4  2 -1</clus>
<clus scale="  130.116">  1  3  2 -1</clus>
</clustering>
</event>
<event>
 6    0  0.6207838E+002  0.7514903E+02  0.7546771E-02  0.1343410E+00
         21   -1    0    0  506  501  0.00000000000E+00  0.00000000000E+00  0.55068841042E+03  0.55068841042E+03  0.00000000000E+00 0.  1.
         21   -1    0    0  503  502 -0.00000000000E+00 -0.00000000000E+00 -0.31583038037E+03  0.31583038037E+03  0.00000000000E+00 0.  1.
         21    1    1    2  503  504  0.71097350412E+02 -0.24033205062E+02 -0.26950364409E+03  0.27975818551E+03  0.00000000000E+00 0.  1.
         21    1    1    2  504  501  0.52945122834E+02 -0.24417275358E+02  0.45519672386E+02  0.73969114785E+02  0.00000000000E+00 0. -1.
         21    1    1    2  505  502 -0.72295772003E+02  0.24315436021E+02  0.32948354243E+02  0.83087382470E+02  0.00000000000E+00 0. -1.
         21    1    1    2  506  505 -0.51746701243E+02  0.24135044399E+02  0.42589364751E+03  0.42970410802E+03  0.00000000000E+00 0.  1.
<scales pt_clust_3="14000.00000" pt_clust_4="30.54565" pt_clust_5="75.14903" pt_clust_6="57.09835"></scales>
<clustering>
<clus scale="   57.098">  1  6  2 -1</clus>
<clus scale="   30.546">  1  4  2 -1</clus>
<clus scale="   75.149">  1  5  2 -1</clus>
<clus scale="   57.098">  1  3  2 -1</clus>
</clustering>
</event>
<event>
 6    0  0.6207838E+002  0.5809579E+02  0.7546771E-02  0.1406001E+00
         21   -1    0    0  505  501  0.00000000000E+00  0.00000000000E+00  0.33281025095E+03  0.33281025095E+03  0.00000000000E+00 0.  1.
         21   -1    0    0  503  502 -0.00000000000E+00 -0.00000000000E+00 -0.12951287543E+03  0.12951287543E+03  0.00000000000E+00 0.  1.
         21    1    1    2  503  504  0.50478310067E+02  0.15274483771E+02 -0.67131439327E+02  0.85369782639E+02  0.00000000000E+00 0.  1.
         21    1    1    2  504  506 -0.68419724234E+02  0.21582171688E+02  0.25538261217E+02  0.76152817315E+02  0.00000000000E+00 0.  1.
         21    1    1    2  505  502  0.10687635509E+02 -0.89761098698E+02  0.60350378145E+02  0.10868968918E+03  0.00000000000E+00 0.  1.
         21    1    1    2  506  501  0.72537786576E+01  0.52904443239E+02  0.18454017548E+03  0.19211083724E+03  0.00000000000E+00 0.  1.
<scales pt_clust_3="52.73869" pt_clust_4="52.97378" pt_clust_5="58.09579" pt_clust_6="14000.00000"></scales>
<clustering>
<clus scale="   52.739">  2  3  1 -1</clus>
<clus scale="   52.974">  2  4  1 -1</clus>
<clus scale="   58.096">  2  5  1 -1</clus>
<clus scale="   58.096">  1  3  2 -1</clus>
</clustering>
</event>
<event>
 6    0  0.6207838E+002  0.9770119E+02  0.7546771E-02  0.1285206E+00
         21   -1    0    0  506  501  0.00000000000E+00  0.00000000000E+00  0.12637533516E+04  0.12637533516E+04  0.00000000000E+00 0. -1.
         21   -1    0    0  505  502 -0.00000000000E+00 -0.00000000000E+00 -0.64214583711E+02  0.64214583711E+02  0.00000000000E+00 0. -1.
         21    1    1    2  503  502  0.49096285826E+02  0.45841535532E+01  0.27248670053E+02  0.56337818252E+02  0.00000000000E+00 0. -1.
         21    1    1    2  504  501 -0.26770575430E+02  0.95633923669E+02  0.11324476181E+04  0.11367937891E+04  0.00000000000E+00 0. -1.
         21    1    1    2  505  504 -0.19907834997E+02 -0.30362826801E+02  0.52470839538E+02  0.63807618256E+02  0.00000000000E+00 0.  1.
         21    1    1    2  506  503 -0.24178753992E+01 -0.69855250421E+02 -0.12628359840E+02  0.71028709724E+02  0.00000000000E+00 0. -1.
<scales pt_clust_3="44.24964" pt_clust_4="14000.00000" pt_clust_5="36.30734" pt_clust_6="97.70119"></scales>
<clustering>
<clus scale="   36.307">  2  5  1 -1</clus>
<clus scale="   44.250">  2  3  1 -1</clus>
<clus scale="   97.701">  2  6  1 -1</clus>
<clus scale="   97.701">  1  3  2 -1</clus>
</clustering>
</event>
<event>
 6    0  0.6207838E+002  0.9215116E+02  0.7546771E-02  0.1297724E+00
         21   -1    0    0  503  501  0.00000000000E+00  0.00000000000E+00  0.24679752137E+03  0.24679752137E+03  0.00000000000E+00 0. -1.
         21   -1    0    0  506  502 -0.00000000000E+00 -0.00000000000E+00 -0.11488119826E+04  0.11488119826E+04  0.00000000000E+00 0. -1.
         21    1    1    2  503  502 -0.14830588188E+02 -0.29748479340E+02 -0.67016960905E+02  0.74807696248E+02  0.00000000000E+00 0. -1.
         21    1    1    2  504  505 -0.29256823661E+01 -0.90210355183E+02 -0.50094474834E+03  0.50901091215E+03  0.00000000000E+00 0. -1.
         21    1    1    2  505  501 -0.30032839411E+02  0.87264597606E+02  0.22841303946E+03  0.24635258885E+03  0.00000000000E+00 0. -1.
         21    1    1    2  506  504  0.47789109965E+02  0.32694236917E+02 -0.56246579142E+03  0.56543830669E+03  0.00000000000E+00 0. -1.
<scales pt_clust_3="33.24031" pt_clust_4="92.15116" pt_clust_5="14000.00000" pt_clust_6="43.54104"></scales>
<clustering>
<clus scale="   33.240">  2  3  1 -1</clus>
<clus scale="   43.541">  2  6  1 -1</clus>
<clus scale="   92.151">  2  4  1 -1</clus>
<clus scale="   92.151">  1  3  2 -1</clus>
</clustering>
</event>
<event>
 6    0  0.6207838E+002  0.9290936E+02  0.7546771E-02  0.1295955E+00
         21   -1    0    0  503  501  0.00000000000E+00  0.00000000000E+00  0.13983521071E+04  0.13983521071E+04  0.00000000000E+00 0.  1.
         21   -1    0    0  506  502 -0.00000000000E+00 -0.00000000000E+00 -0.19277174452E+03  0.19277174452E+03  0.00000000000E+00 0. -1.
         21    1    1    2  503  502 -0.24932738639E+02 -0.76993427756E+02  0.13236069755E+04  0.13260788268E+04  0.00000000000E+00 0.  1.
         21    1    1    2  504  501  0.17730294501E+02  0.78617314076E+02 -0.37359408621E+02  0.88830010853E+02  0.00000000000E+00 0.  1.
         21    1    1    2  505  504  0.21853027617E+02  0.64741911611E+02 -0.83863173343E+02  0.10817625330E+03  0.00000000000E+00 0. -1.
         21    1    1    2  506  505 -0.14650583480E+02 -0.66365797931E+02  0.31959690373E+01  0.68038760640E+02  0.00000000000E+00 0. -1.
<scales pt_clust_3="81.45123" pt_clust_4="41.15695" pt_clust_5="41.15695" pt_clust_6="67.96366"></scales>
<clustering>
<clus scale="   41.157">  4  5 -1 -1</clus>
<clus scale="   67.964">  2  6  1 -1</clus>
<clus scale="   81.451">  1  3  2 -1</clus>
<clus scale="   81.451">  1  3  2 -1</clus>
</clustering>
</event>
<event>
 6    0  0.6207838E+002  0.1040057E+03  0.7546771E-02  0.1272091E+00
         21   -1    0    0  506  501  0.00000000000E+00  0.00000000000E+00  0.42028274940E+03  0.42028274940E+03  0.00000000000E+00 0. -1.
         21   -1    0    0  501  502 -0.00000000000E+00 -0.00000000000E+00 -0.38538668339E+03  0.38538668339E+03  0.00000000000E+00 0.  1.
         21    1    1    2  503  502 -0.72748138024E+01  0.10820983532E+03 -0.34208710817E+03  0.35886749776E+03  0.00000000000E+00 0.  1.
         21    1    1    2  504  503  0.47447524456E+02 -0.66580417014E+02  0.36341381878E+02  0.89470193604E+02  0.00000000000E+00 0. -1.
         21    1    1    2  505  504 -0.95738548070E+01 -0.41543603343E+02  0.52775814051E+02  0.67844058129E+02  0.00000000000E+00 0. -1.
         21    1    1    2  506  505 -0.30598855846E+02 -0.85814964171E-01  0.28786597825E+03  0.28948768329E+03  0.00000000000E+00 0. -1.
<scales pt_clust_3="104.00570" pt_clust_4="14000.00000" pt_clust_5="47.81127" pt_clust_6="30.59898"></scales>
<clustering>
<clus scale="   30.599">  1  6  2 -1</clus>
<clus scale="   47.811">  1  5  2 -1</clus>
<clus scale="  104.006">  2  3  1 -1</clus>
<clus scale="   30.599">  1  3  2 -1</clus>
</clustering>
</event>
<event>
 6    0  0.6207838E+002  0.9727287E+02  0.7546771E-02  0.1286138E+00
         21   -1    0    0  503  501  0.00000000000E+00  0.00000000000E+00  0.49723591573E+03  0.49723591573E+03  0.00000000000E+00 0. -1.
         21   -1    0    0  506  502 -0.00000000000E+00 -0.00000000000E+00 -0.62027874277E+03  0.62027874277E+03  0.00000000000E+00 0. -1.
         21    1    1    2  503  505 -0.53022880148E+02 -0.82206791326E+02  0.47868230135E+03  0.48857561133E+03  0.00000000000E+00 0. -1.
         21    1    1    2  504  501  0.21953664979E+02  0.78640511153E+02 -0.16294790657E+03  0.18225891928E+03  0.00000000000E+00 0. -1.
         21    1    1    2  505  502  0.60156671251E+01 -0.36066128483E+02 -0.20772068654E+03  0.21091428945E+03  0.00000000000E+00 0. -1.
         21    1    1    2  506  504  0.25053548044E+02  0.39632408656E+02 -0.23105653527E+03  0.23576583845E+03  0.00000000000E+00 0.  1.
<scales pt_clust_3="14000.00000" pt_clust_4="97.27287" pt_clust_5="36.56438" pt_clust_6="34.31043"></scales>
<clustering>
<clus scale="   36.564">  2  5  1 -1</clus>
<clus scale="   34.310">  2  6  1 -1</clus>
<clus scale="   97.273">  2  4  1 -1</clus>
<clus scale="   97.273">  1  3  2 -1</clus>
</clustering>
</event>
<event>
 6    0  0.6207838E+002  0.2943458E+03  0.7546771E-02  0.1088102E+00
         21   -1    0    0  506  501  0.00000000000E+00  0.00000000000E+00  0.21472712220E+04  0.21472712220E+04  0.00000000000E+00 0. -1.
         21   -1    0    0  504  502 -0.00000000000E+00 -0.00000000000E+00 -0.91553073569E+03  0.91553073569E+03  0.00000000000E+00 0.  1.
         21    1    1    2  503  501 -0.48483688977E+02  0.98561115913E+02  0.20034799077E+04  0.20064886500E+04  0.00000000000E+00 0. -1.
         21    1    1    2  504  503  0.27382099414E+03  0.79871893462E+02 -0.69794609482E+02  0.29364731177E+03  0.00000000000E+00 0. -1.
         21    1    1    2  505  502 -0.17399803933E+03 -0.10826210101E+03 -0.41504035511E+03  0.46287632968E+03  0.00000000000E+00 0.  1.
         21    1    1    2  506  505 -0.51339265832E+02 -0.70170908370E+02 -0.28690445688E+03  0.29978966623E+03  0.00000000000E+00 0.  1.
<scales pt_clust_3="109.84062" pt_clust_4="283.41100" pt_clust_5="51.77284" pt_clust_6="51.77284"></scales>
<clustering>
<clus scale="   51.773">  5  6 -1 -1</clus>
<clus scale="  109.841">  1  3  2 -1</clus>
<clus scale="  283.411">  1  4  2 -1</clus>
<clus scale="  109.841">  1  3  2 -1</clus>
</clustering>
</event>
<event>
 6    0  0.6207838E+002  0.9237711E+02  0.7546771E-02  0.1297195E+00
         21   -1    0    0  503  501  0.00000000000E+00  0.00000000000E+00  0.98569814841E+03  0.98569814841E+03  0.00000000000E+00 0. -1.
         21   -1    0    0  506  502 -0.00000000000E+00 -0.00000000000E+00 -0.50143415361E+02  0.50143415361E+02  0.00000000000E+00 0. -1.
         21    1    1    2  503  505  0.25295237926E+02  0.55263146517E+02  0.60094703719E+03  0.60401258756E+03  0.00000000000E+00 0. -1.
         21    1    1    2  504  501  0.26546650573E+02 -0.64252706534E+02  0.14926885740E+03  0.16466428497E+03  0.00000000000E+00 0. -1.
         21    1    1    2  505  502  0.21915080569E+02  0.38751287089E+02  0.18220805648E+03  0.18756787799E+03  0.00000000000E+00 0. -1.
         21    1    1    2  506  504 -0.73756969068E+02 -0.29761727072E+02  0.31307819781E+01  0.79596813254E+02  0.00000000000E+00 0. -1.
<scales pt_clust_3="40.14519" pt_clust_4="69.52075" pt_clust_5="40.14519" pt_clust_6="79.58220"></scales>
<clustering>
<clus scale="   40.145">  3  5 -1 -1</clus>
<clus scale="   69.521">  1  4  2 -1</clus>
<clus scale="   79.582">  2  6  1 -1</clus>
<clus scale="   69.521">  1  3  2 -1</clus>
</clustering>
</event>
<event>
 6    0  0.6207838E+002  0.1648350E+03  0.7546771E-02  0.1183344E+00
         21   -1    0    0  503  501  0.00000000000E+00  0.00000000000E+00  0.30945938828E+03  0.30945938828E+03  0.00000000000E+00 0. -1.
         21   -1    0    0  504  502 -0.00000000000E+00 -0.00000000000E+00 -0.49415617939E+03  0.49415617939E+03  0.00000000000E+00 0. -1.
         21    1    1    2  503  506 -0.14144413427E+02  0.13141970885E+03 -0.30845061675E+03  0.33557858585E+03  0.00000000000E+00 0. -1.
         21    1    1    2  504  505  0.33190323403E+02  0.37004523208E+02 -0.35830997734E+02  0.61276363339E+02  0.00000000000E+00 0. -1.
         21    1    1    2  505  501  0.18561842415E+02 -0.16634312914E+03  0.25452218005E+03  0.30462455374E+03  0.00000000000E+00 0. -1.
         21    1    1    2  506  502 -0.37607752391E+02 -0.20811029141E+01 -0.94937356672E+02  0.10213606474E+03  0.00000000000E+00 0. -1.
<scales pt_clust_3="14000.00000" pt_clust_4="46.55122" pt_clust_5="164.83498" pt_clust_6="37.66529"></scales>
<clustering>
<clus scale="   37.665">  2  6  1 -1</clus>
<clus scale="   46.551">  2  4  1 -1</clus>
<clus scale="  164.835">  1  5  2 -1</clus>
<clus scale="  164.835">  1  3  2 -1</clus>
</clustering>
</event>
<event>
 6    0  0.6207838E+002  0.1296649E+03  0.7546771E-02  0.1227954E+00
         21   -1    0    0  503  501  0.00000000000E+00  0.00000000000E+00  0.71111242058E+03  0.71111242058E+03  0.00000000000E+00 0. -1.
         21   -1    0    0  506  502 -0.00000000000E+00 -0.00000000000E+00 -0.61410647374E+02  0.61410647374E+02  0.00000000000E+00 0. -1.
         21    1    1    2  503  504 -0.60523429126E+02  0.49979328094E+02  0.16224841506E+03  0.18023752911E+03  0.00000000000E+00 0. -1.
         21    1    1    2  504  502 -0.72617185379E+02  0.14501957698E+02  0.13522493608E+03  0.15417310313E+03  0.00000000000E+00 0. -1.
         21    1    1    2  505  501  0.99152715251E+02 -0.54609732847E+02  0.37783561611E+03  0.39442773313E+03  0.00000000000E+00 0. -1.
         21    1    1    2  506  505  0.33987899254E+02 -0.98715529447E+01 -0.25607194045E+02  0.43684702586E+02  0.00000000000E+00 0. -1.
<scales pt_clust_3="36.37927" pt_clust_4="36.37927" pt_clust_5="123.92404" pt_clust_6="35.39244"></scales>
<clustering>
<clus scale="   35.392">  2  6  1 -1</clus>
<clus scale="   36.379">  3  4 -1 -1</clus>
<clus scale="  123.924">  1  5  2 -1</clus>
<clus scale="  123.924">  1  3  2 -1</clus>
</clustering>
</event>
<event>
 6    0  0.6207838E+002  0.8180223E+02  0.7546771E-02  0.1324013E+00
         21   -1    0    0  504  501  0.00000000000E+00  0.00000000000E+00  0.97444639639E+03  0.97444639639E+03  0.00000000000E+00 0.  1.
         21   -1    0    0  505  502 -0.00000000000E+00 -0.00000000000E+00 -0.36822447523E+02  0.36822447523E+02  0.00000000000E+00 0. -1.
         21    1    1    2  503  502  0.77097204696E+02 -0.30211540481E+02  0.66359189779E+02  0.10611436386E+03  0.00000000000E+00 0. -1.
         21    1    1    2  504  503 -0.44591129082E+02  0.70581632173E+02  0.69686475905E+03  0.70184800919E+03  0.00000000000E+00 0.  1.
         21    1    1    2  505  506 -0.24471016836E+02  0.26077523658E+02  0.79551896444E+02  0.87220250705E+02  0.00000000000E+00 0. -1.
         21    1    1    2  506  501 -0.80350587780E+01 -0.66447615350E+02  0.94848103590E+02  0.11608622016E+03  0.00000000000E+00 0. -1.
<scales pt_clust_3="14000.00000" pt_clust_4="81.80223" pt_clust_5="35.76126" pt_clust_6="60.19446"></scales>
<clustering>
<clus scale="   35.761">  2  5  1 -1</clus>
<clus scale="   60.194">  2  6  1 -1</clus>
<clus scale="   81.802">  1  4  2 -1</clus>
<clus scale="   81.802">  1  3  2 -1</clus>
</clustering>
</event>
<event>
 6    0  0.6207838E+002  0.1107131E+03  0.7546771E-02  0.1259255E+00
         21   -1    0    0  503  501  0.00000000000E+00  0.00000000000E+00  0.46580172376E+03  0.46580172376E+03  0.00000000000E+00 0. -1.
         21   -1    0    0  504  502 -0.00000000000E+00 -0.00000000000E+00 -0.14178634265E+03  0.14178634265E+03  0.00000000000E+00 0.  1.
         21    1    1    2  503  506 -0.20469447977E+02 -0.30840860168E+02  0.35024391198E+02  0.50959444024E+02  0.00000000000E+00 0. -1.
         21    1    1    2  504  505  0.48594438502E+02  0.18458505468E+02 -0.95782554468E+02  0.10897905128E+03  0.00000000000E+00 0.  1.
         21    1    1    2  505  501 -0.91466535796E+02 -0.57445553368E+02  0.30695857420E+03  0.32540695298E+03  0.00000000000E+00 0. -1.
         21    1    1    2  506  502  0.63341545271E+02  0.69827908069E+02  0.77814970175E+02  0.12224261812E+03  0.00000000000E+00 0.  1.
<scales pt_clust_3="37.01563" pt_clust_4="51.51364" pt_clust_5="14000.00000" pt_clust_6="110.71313"></scales>
<clustering>
<clus scale="   37.016">  1  3  2 -1</clus>
<clus scale="   51.514">  2  4  1 -1</clus>
<clus scale="  110.713">  2  6  1 -1</clus>
<clus scale="   37.016">  1  3  2 -1</clus>
</clustering>
</event>
<event>
 6    0  0.6207838E+002  0.1526668E+03  0.7546771E-02  0.1197234E+00
         21   -1    0    0  505  501  0.00000000000E+00  0.00000000000E+00  0.10414676360E+04  0.10414676360E+04  0.00000000000E+00 0. -1.
         21   -1    0    0  504  502 -0.00000000000E+00 -0.00000000000E+00 -0.11216606804E+03  0.11216606804E+03  0.00000000000E+00 0. -1.
         21    1    1    2  503  501  0.14996012156E+03 -0.65650798856E+01  0.92047895505E+03  0.93263746709E+03  0.00000000000E+00 0. -1.
         21    1    1    2  504  503 -0.56378883660E+02  0.69575477515E+02  0.35819435853E+02  0.96448730313E+02  0.00000000000E+00 0. -1.
         21    1    1    2  505  506 -0.42546160547E+02 -0.77713548774E+01  0.35042510470E+01  0.43391813851E+02  0.00000000000E+00 0. -1.
         21    1    1    2  506  502 -0.51035077348E+02 -0.55239042752E+02 -0.30501073957E+02  0.81155692817E+02  0.00000000000E+00 0. -1.
<scales pt_clust_3="145.77946" pt_clust_4="89.55069" pt_clust_5="34.38156" pt_clust_6="34.38156"></scales>
<clustering>
<clus scale="   34.382">  5  6 -1 -1</clus>
<clus scale="   89.551">  2  4  1 -1</clus>
<clus scale="  145.779">  1  3  2 -1</clus>
<clus scale="  145.779">  1  3  2 -1</clus>
</clustering>
</event>
<event>
 6    0  0.6207838E+002  0.9281890E+02  0.7546771E-02  0.1296165E+00
         21   -1    0    0  505  501  0.00000000000E+00  0.00000000000E+00  0.59169352328E+03  0.59169352328E+03  0.00000000000E+00 0.  1.
         21   -1    0    0  506  502 -0.00000000000E+00 -0.00000000000E+00 -0.41325578389E+03  0.41325578389E+03  0.00000000000E+00 0.  1.
         21    1    1    2  503  504  0.11242291457E+03  0.44469575716E+02  0.90546524022E+02  0.15104677387E+03  0.00000000000E+00 0.  1.
         21    1    1    2  504  501 -0.17927126439E+02 -0.32551535339E+02  0.45197234918E+03  0.45349750687E+03  0.00000000000E+00 0.  1.
         21    1    1    2  505  502 -0.34760024673E+02 -0.71961841614E+02 -0.20799468370E+03  0.22281955572E+03  0.00000000000E+00 0.  1.
         21    1    1    2  506  503 -0.59735763459E+02  0.60043801238E+02 -0.15608645011E+03  0.17758547072E+03  0.00000000000E+00 0.  1.
<scales pt_clust_3="92.81890" pt_clust_4="37.16160" pt_clust_5="81.89679" pt_clust_6="14000.00000"></scales>
<clustering>
<clus scale="   37.162">  1  4  2 -1</clus>
<clus scale="   81.897">  2  5  1 -1</clus>
<clus scale="   92.819">  1  3  2 -1</clus>
<clus scale="   37.162">  1  3  2 -1</clus>
</clustering>
</event>
<event>
 6    0  0.6207838E+002  0.1053263E+03  0.7546771E-02  0.1269478E+00
         21   -1    0    0  506  501  0.00000000000E+00  0.00000000000E+00  0.51642239731E+03  0.51642239731E+03  0.00000000000E+00 0. -1.
         21   -1    0    0  504  502 -0.00000000000E+00 -0.00000000000E+00 -0.22895917596E+03  0.22895917596E+03  0.00000000000E+00 0. -1.
         21    1    1    2  503  501  0.12654538972E+03  0.26242089600E+01  0.42936672295E+03  0.44763423116E+03  0.00000000000E+00 0. -1.
         21    1    1    2  504  503 -0.14375088007E+03 -0.18555176418E+02 -0.13036474946E+03  0.19494506404E+03  0.00000000000E+00 0. -1.
         21    1    1    2  505  502  0.44970996484E+02  0.31427275079E+02 -0.33385311043E+02  0.64223384659E+02  0.00000000000E+00 0. -1.
         21    1    1    2  506  505 -0.27765506130E+02 -0.15496307621E+02  0.21846558902E+02  0.38578893406E+02  0.00000000000E+00 0. -1.
<scales pt_clust_3="14000.00000" pt_clust_4="105.32626" pt_clust_5="53.86090" pt_clust_6="31.79715"></scales>
<clustering>
<clus scale="   31.797">  1  6  2 -1</clus>
<clus scale="   53.861">  2  5  1 -1</clus>
<clus scale="  105.326">  2  4  1 -1</clus>
<clus scale="   31.797">  1  3  2 -1</clus>
</clustering>
</event>
<event>
 6    0  0.6207838E+002  0.3040743E+03  0.7546771E-02  0.1083221E+00
         21   -1    0    0  506  501  0.00000000000E+00  0.00000000000E+00  0.76114327555E+03  0.76114327555E+03  0.00000000000E+00 0.  1.
         21   -1    0    0  504  502 -0.00000000000E+00 -0.00000000000E+00 -0.30862581811E+03  0.30862581811E+03  0.00000000000E+00 0.  1.
         21    1    1    2  503  505  0.12877453592E+02  0.24531528557E+03  0.34296972992E+03  0.42186923779E+03  0.00000000000E+00 0.  1.
         21    1    1    2  504  503 -0.40700850566E+01  0.50890424544E+02  0.29878966424E+02  0.59153643482E+02  0.00000000000E+00 0.  1.
         21    1    1    2  505  501  0.37233932883E+02 -0.28707763814E+01  0.24572097683E+03  0.24854256289E+03  0.00000000000E+00 0. -1.
         21    1    1    2  506  502 -0.46041301418E+02 -0.29333493374E+03 -0.16605221573E+03  0.34020364950E+03  0.00000000000E+00 0.  1.
<scales pt_clust_3="30.75566" pt_clust_4="30.75566" pt_clust_5="37.34444" pt_clust_6="296.49570"></scales>
<clustering>
<clus scale="   30.756">  3  4 -1 -1</clus>
<clus scale="   37.344">  1  5  2 -1</clus>
<clus scale="  296.496">  2  6  1 -1</clus>
<clus scale="   37.344">  1  3  2 -1</clus>
</clustering>
</event>
<event>
 6    0  0.6207838E+002  0.1374565E+03  0.7546771E-02  0.1216793E+00
         21   -1    0    0  506  501  0.00000000000E+00  0.00000000000E+00  0.11014236011E+03  0.11014236011E+03  0.00000000000E+00 0.  1.
         21   -1    0    0  505  502 -0.00000000000E+00 -0.00000000000E+00 -0.14113479304E+04  0.14113479304E+04  0.00000000000E+00 0. -1.
         21    1    1    2  503  501 -0.64945608897E+02 -0.75960896606E+01 -0.73122649843E+01  0.65795911061E+02  0.00000000000E+00 0.  1.
         21    1    1    2  504  502  0.10863204414E+03  0.67185988598E+02 -0.12958643595E+04  0.13021441227E+04  0.00000000000E+00 0. -1.
         21    1    1    2  505  503 -0.75239901742E+02 -0.57806880732E+02 -0.38332689343E+02  0.10233314881E+03  0.00000000000E+00 0.  1.
         21    1    1    2  506  504  0.31553466500E+02 -0.17830182063E+01  0.40303743531E+02  0.51217107930E+02  0.00000000000E+00 0.  1.
<scales pt_clust_3="37.19263" pt_clust_4="128.99576" pt_clust_5="37.19263" pt_clust_6="31.60380"></scales>
<clustering>
<clus scale="   31.604">  1  6  2 -1</clus>
<clus scale="   37.193">  3  5 -1 -1</clus>
<clus scale="  128.996">  2  4  1 -1</clus>
<clus scale="   31.604">  1  3  2 -1</clus>
</clustering>
</event>
<event>
 6    0  0.6207838E+002  0.1154495E+03  0.7546771E-02  0.1250799E+00
         21   -1    0    0  506  501  0.00000000000E+00  0.00000000000E+00  0.11148822587E+04  0.11148822587E+04  0.00000000000E+00 0. -1.
         21   -1    0    0  505  502 -0.00000000000E+00 -0.00000000000E+00 -0.11420601220E+03  0.11420601220E+03  0.00000000000E+00 0. -1.
         21    1    1    2  503  504  0.98857331048E+02 -0.40244970493E+02  0.43501477176E+02  0.11525974175E+03  0.00000000000E+00 0. -1.
         21    1    1    2  504  501 -0.11670360327E+03  0.84825227958E+02  0.79462414031E+03  0.80761536307E+03  0.00000000000E+00 0. -1.
         21    1    1    2  505  503 -0.43072399467E+02  0.11041128133E+02 -0.56643047563E+02  0.72010922390E+02  0.00000000000E+00 0. -1.
         21    1    1    2  506  502  0.60918671686E+02 -0.55621385599E+02  0.21919367660E+03  0.23420224371E+03  0.00000000000E+00 0. -1.
<scales pt_clust_3="75.16916" pt_clust_4="14000.00000" pt_clust_5="44.46502" pt_clust_6="115.44949"></scales>
<clustering>
<clus scale="   44.465">  2  5  1 -1</clus>
<clus scale="   75.169">  2  3  1 -1</clus>
<clus scale="  115.449">  2  6  1 -1</clus>
<clus scale="  115.449">  1  3  2 -1</clus>
</clustering>
</event>
<event>
 6    0  0.1203965E+003  0.1017550E+03  0.7546771E-02  0.1276648E+00
         21   -1    0    0  504  501  0.00000000000E+00  0.00000000000E+00  0.15367353397E+04  0.15367353397E+04  0.00000000000E+00 0. -1.
         21   -1    0    0  505  502 -0.00000000000E+00 -0.00000000000E+00 -0.32037147585E+03  0.32037147585E+03  0.00000000000E+00 0.  1.
         21    1    1    2  503  502 -0.46632721668E+02  0.90394792369E+02 -0.29493277915E+03  0.31197944393E+03  0.00000000000E+00 0.  1.
         21    1    1    2  504  503 -0.34919759207E+02 -0.13816115074E+03  0.11212159071E+04  0.11302358176E+04  0.00000000000E+00 0. -1.
         21    1    1    2  505  506  0.56299352398E+02  0.13305510288E+01  0.67037375613E+02  0.87552253972E+02  0.00000000000E+00 0. -1.
         21    1    1    2  506  501  0.25253128477E+02  0.46435807339E+02  0.32304336036E+03  0.32733930007E+03  0.00000000000E+00 0. -1.
<scales pt_clust_3="14000.00000" pt_clust_4="101.75495" pt_clust_5="58.06938" pt_clust_6="52.85835"></scales>
<clustering>
<clus scale="   52.858">  1  6  2 -1</clus>
<clus scale="   58.069">  1  5  2 -1</clus>
<clus scale="  101.755">  1  4  2 -1</clus>
<clus scale="   52.858">  1  3  2 -1</clus>
</clustering>
</event>
<event>
 6    0  0.6207838E+002  0.1773267E+03  0.7546771E-02  0.1170416E+00
         21   -1    0    0  504  501  0.00000000000E+00  0.00000000000E+00  0.44754827304E+03  0.44754827304E+03  0.00000000000E+00 0.  1.
         21   -1    0    0  505  502 -0.00000000000E+00 -0.00000000000E+00 -0.11982694571E+03  0.11982694571E+03  0.00000000000E+00 0.  1.
         21    1    1    2  503  502  0.91367346641E+02 -0.13487863722E+03  0.13169381483E+03  0.20948388882E+03  0.00000000000E+00 0.  1.
         21    1    1    2  504  503  0.49965180153E+02 -0.19037421232E+02  0.34934675639E+02  0.63869978839E+02  0.00000000000E+00 0.  1.
         21    1    1    2  505  506 -0.10504061213E+03  0.10736529152E+03  0.34163735358E+02  0.15403894583E+03  0.00000000000E+00 0.  1.
         21    1    1    2  506  501 -0.36291914666E+02  0.46550766931E+02  0.12692910151E+03  0.13998240526E+03  0.00000000000E+00 0.  1.
<scales pt_clust_3="32.87164" pt_clust_4="32.87164" pt_clust_5="167.78709" pt_clust_6="59.02607"></scales>
<clustering>
<clus scale="   32.872">  3  4 -1 -1</clus>
<clus scale="   59.026">  1  6  2 -1</clus>
<clus scale="  167.787">  2  5  1 -1</clus>
<clus scale="   59.026">  1  3  2 -1</clus>
</clustering>
</event>
<event>
 6    0  0.6207838E+002  0.5451604E+02  0.7546771E-02  0.1422402E+00
         21   -1    0    0  503  501  0.00000000000E+00  0.00000000000E+00  0.71962104424E+03  0.71962104424E+03  0.00000000000E+00 0. -1.
         21   -1    0    0  504  502 -0.00000000000E+00 -0.00000000000E+00 -0.76401556652E+02  0.76401556652E+02  0.00000000000E+00 0. -1.
         21    1    1    2  503  506 -0.76571632331E+01  0.50820317422E+02  0.11949928189E+03  0.13008234002E+03  0.00000000000E+00 0. -1.
         21    1    1    2  504  505  0.49766464431E+02 -0.13881936692E+02 -0.42133559360E+02  0.66668178111E+02  0.00000000000E+00 0. -1.
         21    1    1    2  505  501 -0.94071609761E+02 -0.46598840838E+01  0.13806650942E+03  0.16713330999E+03  0.00000000000E+00 0. -1.
         21    1    1    2  506  502  0.51962308563E+02 -0.32278496647E+02  0.42778725563E+03  0.43213877278E+03  0.00000000000E+00 0. -1.
<scales pt_clust_3="51.39394" pt_clust_4="54.51604" pt_clust_5="14000.00000" pt_clust_6="46.64082"></scales>
<clustering>
<clus scale="   51.394">  1  3  2 -1</clus>
<clus scale="   46.641">  1  6  2 -1</clus>
<clus scale="   54.516">  2  4  1 -1</clus>
<clus scale="   51.394">  1  3  2 -1</clus>
</clustering>
</event>
<event>
 6    0  0.6207838E+002  0.1442748E+03  0.7546771E-02  0.1207690E+00
         21   -1    0    0  506  501  0.00000000000E+00  0.00000000000E+00  0.13373218021E+04  0.13373218021E+04  0.00000000000E+00 0. -1.
         21   -1    0    0  505  502 -0.00000000000E+00 -0.00000000000E+00 -0.65748831686E+03  0.65748831686E+03  0.00000000000E+00 0.  1.
         21    1    1    2  503  501 -0.70870686748E+02 -0.11040620905E+03  0.13174162325E+04  0.13239326701E+04  0.00000000000E+00 0. -1.
         21    1    1    2  504  503  0.34668063389E+02  0.31349596869E+02 -0.27293213196E+03  0.27690543603E+03  0.00000000000E+00 0. -1.
         21    1    1    2  505  504 -0.82817699143E+01  0.80668949958E+02 -0.32295448535E+03  0.33297997959E+03  0.00000000000E+00 0.  1.
         21    1    1    2  506  502  0.44484393274E+02 -0.16123377717E+01 -0.41696129907E+02  0.60992033310E+02  0.00000000000E+00 0. -1.
<scales pt_clust_3="131.07350" pt_clust_4="52.97988" pt_clust_5="52.97988" pt_clust_6="44.51360"></scales>
<clustering>
<clus scale="   44.514">  2  6  1 -1</clus>
<clus scale="   52.980">  4  5 -1 -1</clus>
<clus scale="  131.074">  1  3  2 -1</clus>
<clus scale="  131.074">  1  3  2 -1</clus>
</clustering>
</event>
<event>
 6    0  0.6207838E+002  0.5618894E+02  0.7546771E-02  0.1414559E+00
         21   -1    0    0  504  501  0.00000000000E+00  0.00000000000E+00  0.26712643754E+03  0.26712643754E+03  0.00000000000E+00 0. -1.
         21   -1    0    0  505  502 -0.00000000000E+00 -0.00000000000E+00 -0.24151371724E+04  0.24151371724E+04  0.00000000000E+00 0. -1.
         21    1    1    2  503  502  0.29347085642E+02 -0.47788386399E+02 -0.23643214382E+04  0.23649864364E+04  0.00000000000E+00 0. -1.
         21    1    1    2  504  503 -0.43112262252E+02 -0.72092718110E+02  0.10939093568E+03  0.13792173132E+03  0.00000000000E+00 0. -1.
         21    1    1    2  505  506 -0.11219220838E+02  0.79802810857E+02  0.24268661700E+02  0.84162506365E+02  0.00000000000E+00 0. -1.
         21    1    1    2  506  501  0.24984397448E+02  0.40078293652E+02  0.82651105898E+02  0.95192935894E+02  0.00000000000E+00 0. -1.
<scales pt_clust_3="14000.00000" pt_clust_4="51.23771" pt_clust_5="56.18894" pt_clust_6="47.22806"></scales>
<clustering>
<clus scale="   47.228">  1  6  2 -1</clus>
<clus scale="   51.238">  1  4  2 -1</clus>
<clus scale="   56.189">  1  5  2 -1</clus>
<clus scale="   47.228">  1  3  2 -1</clus>
</clustering>
</event>
<event>
 6    0  0.6207838E+002  0.1166105E+03  0.7546771E-02  0.1248796E+00
         21   -1    0    0  505  501  0.00000000000E+00  0.00000000000E+00  0.13939261950E+02  0.13939261950E+02  0.00000000000E+00 0.  1.
         21   -1    0    0  503  502 -0.00000000000E+00 -0.00000000000E+00 -0.17456783328E+04  0.17456783328E+04  0.00000000000E+00 0.  1.
         21    1    1    2  503  504  0.94344388166E+02  0.50124763747E+02 -0.74891650177E+03  0.75649803842E+03  0.00000000000E+00 0.  1.
         21    1    1    2  504  501 -0.31117673660E+02  0.58415695965E+02 -0.25126769549E+03  0.25983871525E+03  0.00000000000E+00 0.  1.
         21    1    1    2  505  506 -0.42659351405E+02 -0.59323486507E+02 -0.31723257499E+03  0.32553894229E+03  0.00000000000E+00 0.  1.
         21    1    1    2  506  502 -0.20567363101E+02 -0.49216973205E+02 -0.41432229860E+03  0.41774189878E+03  0.00000000000E+00 0.  1.
<scales pt_clust_3="109.92167" pt_clust_4="66.18688" pt_clust_5="33.25867" pt_clust_6="33.25867"></scales>
<clustering>
<clus scale="   33.259">  5  6 -1 -1</clus>
<clus scale="   66.187">  1  4  2 -1</clus>
<clus scale="  109.922">  2  3  1 -1</clus>
<clus scale="   66.187">  1  3  2 -1</clus>
</clustering>
</event>
<event>
 6    0  0.6207838E+002  0.1284217E+03  0.7546771E-02  0.1229817E+00
         21   -1    0    0  503  501  0.00000000000E+00  0.00000000000E+00  0.10432375996E+04  0.10432375996E+04  0.00000000000E+00 0.  1.
         21   -1    0    0  505  502 -0.00000000000E+00 -0.00000000000E+00 -0.98490381693E+02  0.98490381693E+02  0.00000000000E+00 0.  1.
         21    1    1    2  503  506 -0.37099210230E+02  0.10515744209E+03  0.42641470883E+03  0.44075383484E+03  0.00000000000E+00 0.  1.
         21    1    1    2  504  502  0.74129907178E+02 -0.86390236076E+02 -0.49317799338E+02  0.12405950733E+03  0.00000000000E+00 0.  1.
         21    1    1    2  505  501  0.16051608400E+01 -0.38700569632E+02  0.44691729428E+03  0.44859266441E+03  0.00000000000E+00 0.  1.
         21    1    1    2  506  504 -0.38635857788E+02  0.19933363617E+02  0.12073301418E+03  0.12832197475E+03  0.00000000000E+00 0.  1.
<scales pt_clust_3="34.72661" pt_clust_4="115.75405" pt_clust_5="38.73384" pt_clust_6="34.72661"></scales>
<clustering>
<clus scale="   34.727">  3  6 -1 -1</clus>
<clus scale="   38.734">  1  5  2 -1</clus>
<clus scale="  115.754">  2  4  1 -1</clus>
<clus scale="   38.734">  1  3  2 -1</clus>
</clustering>
</event>
<event>
 6    0  0.6207838E+002  0.1448619E+03  0.7546771E-02  0.1206933E+00
         21   -1    0    0  503  501  0.00000000000E+00  0.00000000000E+00  0.55435509583E+03  0.55435509583E+03  0.00000000000E+00 0. -1.
         21   -1    0    0  504  502 -0.00000000000E+00 -0.00000000000E+00 -0.12093535096E+03  0.12093535096E+03  0.00000000000E+00 0.  1.
         21    1    1    2  503  505  0.34116433929E+02 -0.13162071601E+03  0.42423678414E+03  0.44549387534E+03  0.00000000000E+00 0. -1.
         21    1    1    2  504  506 -0.40836978932E+02  0.81141259555E+02  0.18006402460E+02  0.92605579638E+02  0.00000000000E+00 0.  1.
         21    1    1    2  505  502  0.13819037883E+02 -0.30520177569E+02 -0.38132708775E+02  0.50759733307E+02  0.00000000000E+00 0. -1.
         21    1    1    2  506  501 -0.70984928801E+01  0.80999634023E+02  0.29309267052E+02  0.86431258514E+02  0.00000000000E+00 0.  1.
<scales pt_clust_3="140.55969" pt_clust_4="33.15327" pt_clust_5="33.50294" pt_clust_6="33.15327"></scales>
<clustering>
<clus scale="   33.153">  4  6 -1 -1</clus>
<clus scale="   33.503">  2  5  1 -1</clus>
<clus scale="  140.560">  1  3  2 -1</clus>
<clus scale="  140.560">  1  3  2 -1</clus>
</clustering>
</event>
<event>
 6    0  0.6207838E+002  0.1139588E+03  0.7546771E-02  0.1253410E+00
         21   -1    0    0  505  501  0.00000000000E+00  0.00000000000E+00  0.10658077265E+04  0.10658077265E+04  0.00000000000E+00 0.  1.
         21   -1    0    0  503  502 -0.00000000000E+00 -0.00000000000E+00 -0.55209661595E+02  0.55209661595E+02  0.00000000000E+00 0.  1.
         21    1    1    2  503  506 -0.57889615390E+02  0.45478651229E+02  0.99901838063E+02  0.12409630347E+03  0.00000000000E+00 0. -1.
         21    1    1    2  504  502  0.82145417202E+02 -0.72891382338E+02  0.85423447526E+02  0.13913370754E+03  0.00000000000E+00 0.  1.
         21    1    1    2  505  504  0.22797651007E+01 -0.59398073830E+02  0.51324134222E+02  0.78533402175E+02  0.00000000000E+00 0.  1.
         21    1    1    2  506  501 -0.26535566912E+02  0.86810804938E+02  0.77394864509E+03  0.77925397490E+03  0.00000000000E+00 0.  1.
<scales pt_clust_3="73.61736" pt_clust_4="46.82511" pt_clust_5="46.82511" pt_clust_6="94.52852"></scales>
<clustering>
<clus scale="   46.825">  4  5 -1 -1</clus>
<clus scale="   73.617">  2  3  1 -1</clus>
<clus scale="   94.529">  1  6  2 -1</clus>
<clus scale="   94.529">  1  3  2 -1</clus>
</clustering>
</event>
<event>
 6    0  0.6207838E+002  0.1747746E+03  0.7546771E-02  0.1172958E+00
         21   -1    0    0  503  501  0.00000000000E+00  0.00000000000E+00  0.45663308809E+03  0.45663308809E+03  0.00000000000E+00 0.  1.
         21   -1    0    0  506  502 -0.00000000000E+00 -0.00000000000E+00 -0.26445741899E+04  0.26445741899E+04  0.00000000000E+00 0.  1.
         21    1    1    2  503  505 -0.84683656634E+02  0.13750764025E+03 -0.14912780584E+04  0.14999966401E+04  0.00000000000E+00 0.  1.
         21    1    1    2  504  501  0.56012885050E+02 -0.15362981742E+03  0.43614911423E+03  0.46579567831E+03  0.00000000000E+00 0.  1.
         21    1    1    2  505  502  0.79851435384E+01  0.40231868151E+02 -0.45039751179E+03  0.45226130098E+03  0.00000000000E+00 0. -1.
         21    1    1    2  506  504  0.20685628046E+02 -0.24109690982E+02 -0.68241464583E+03  0.68315365860E+03  0.00000000000E+00 0.  1.
<scales pt_clust_3="30.79191" pt_clust_4="163.74708" pt_clust_5="30.79191" pt_clust_6="31.76747"></scales>
<clustering>
<clus scale="   30.792">  3  5 -1 -1</clus>
<clus scale="   31.767">  2  6  1 -1</clus>
<clus scale="  163.747">  1  4  2 -1</clus>
<clus scale="  163.747">  1  3  2 -1</clus>
</clustering>
</event>
<event>
 6    0  0.6207838E+002  0.1322053E+03  0.7546771E-02  0.1224220E+00
         21   -1    0    0  503  501  0.00000000000E+00  0.00000000000E+00  0.11318232402E+03  0.11318232402E+03  0.00000000000E+00 0.  1.
         21   -1    0    0  506  502 -0.00000000000E+00 -0.00000000000E+00 -0.52068395877E+03  0.52068395877E+03  0.00000000000E+00 0.  1.
         21    1    1    2  503  505 -0.46091366016E+02 -0.93277172681E+01 -0.20793460914E+02  0.51417782404E+02  0.00000000000E+00 0.  1.
         21    1    1    2  504  502 -0.32598704748E+02 -0.98828074130E+02 -0.12222645803E+02  0.10478099474E+03  0.00000000000E+00 0.  1.
         21    1    1    2  505  504  0.87928913598E+02 -0.34013992043E+02 -0.21053300458E+02  0.96600657148E+02  0.00000000000E+00 0.  1.
         21    1    1    2  506  501 -0.92388428345E+01  0.14216978344E+03 -0.35343222757E+03  0.38106684850E+03  0.00000000000E+00 0.  1.
<scales pt_clust_3="47.02574" pt_clust_4="14000.00000" pt_clust_5="79.58886" pt_clust_6="132.20526"></scales>
<clustering>
<clus scale="   47.026">  1  3  2 -1</clus>
<clus scale="   79.589">  1  5  2 -1</clus>
<clus scale="  132.205">  2  6  1 -1</clus>
<clus scale="   47.026">  1  3  2 -1</clus>
</clustering>
</event>
<event>
 6    0  0.6207838E+002  0.9246803E+02  0.7546771E-02  0.1296983E+00
         21   -1    0    0  503  501  0.00000000000E+00  0.00000000000E+00  0.98431458316E+03  0.98431458316E+03  0.00000000000E+00 0. -1.
         21   -1    0    0  505  502 -0.00000000000E+00 -0.00000000000E+00 -0.21019122884E+03  0.21019122884E+03  0.00000000000E+00 0. -1.
         21    1    1    2  503  502  0.80939840923E+02  0.12963341488E+02 -0.38427358187E+02  0.90531585253E+02  0.00000000000E+00 0. -1.
         21    1    1    2  504  501 -0.37969094494E+02  0.87498379487E+02  0.85443642331E+03  0.85974369438E+03  0.00000000000E+00 0. -1.
         21    1    1    2  505  506  0.43057719201E+02 -0.65938022142E+02 -0.10561225310E+03  0.13174117789E+03  0.00000000000E+00 0. -1.
         21    1    1    2  506  504 -0.86028465629E+02 -0.34523698832E+02  0.63726542300E+02  0.11248935449E+03  0.00000000000E+00 0. -1.
<scales pt_clust_3="92.46803" pt_clust_4="14000.00000" pt_clust_5="78.75144" pt_clust_6="90.95171"></scales>
<clustering>
<clus scale="   78.751">  2  5  1 -1</clus>
<clus scale="   90.952">  2  6  1 -1</clus>
<clus scale="   92.468">  2  3  1 -1</clus>
<clus scale="   92.468">  1  3  2 -1</clus>
</clustering>
</event>
<event>
 6    0  0.6207838E+002  0.1810037E+03  0.7546771E-02  0.1166835E+00
         21   -1    0    0  506  501  0.00000000000E+00  0.00000000000E+00  0.13648085505E+04  0.13648085505E+04  0.00000000000E+00 0.  1.
         21   -1    0    0  504  502 -0.00000000000E+00 -0.00000000000E+00 -0.15818027538E+03  0.15818027538E+03  0.00000000000E+00 0.  1.
         21    1    1    2  503  502  0.98335992023E+02 -0.14756072477E+03 -0.56461322457E+02  0.18609679136E+03  0.00000000000E+00 0.  1.
         21    1    1    2  504  501  0.10650167077E+03  0.10085056156E+03  0.92212404101E+03  0.93371633200E+03  0.00000000000E+00 0.  1.
         21    1    1    2  505  503 -0.59717639274E+02  0.21394985723E+02  0.67982443060E+02  0.92981473525E+02  0.00000000000E+00 0. -1.
         21    1    1    2  506  505 -0.14512002352E+03  0.25315177488E+02  0.27298311347E+03  0.31019422895E+03  0.00000000000E+00 0.  1.
<scales pt_clust_3="174.95578" pt_clust_4="146.67461" pt_clust_5="30.44734" pt_clust_6="30.44734"></scales>
<clustering>
<clus scale="   30.447">  5  6 -1 -1</clus>
<clus scale="  146.675">  1  4  2 -1</clus>
<clus scale="  174.956">  2  3  1 -1</clus>
<clus scale="  146.675">  1  3  2 -1</clus>
</clustering>
</event>
<event>
 6    0  0.6207838E+002  0.1738770E+03  0.7546771E-02  0.1173864E+00
         21   -1    0    0  503  501  0.00000000000E+00  0.00000000000E+00  0.94273801002E+03  0.94273801002E+03  0.00000000000E+00 0. -1.
         21   -1    0    0  504  502 -0.00000000000E+00 -0.00000000000E+00 -0.71925236369E+02  0.71925236369E+02  0.00000000000E+00 0.  1.
         21    1    1    2  503  502 -0.34806396953E+02  0.60964366394E+02  0.49091008586E+03  0.49590407504E+03  0.00000000000E+00 0. -1.
         21    1    1    2  504  505 -0.14644342116E+03 -0.67362339255E+02  0.13969360925E+03  0.21330181625E+03  0.00000000000E+00 0.  1.
         21    1    1    2  505  506  0.55743128454E+02 -0.18481838099E+02  0.55812337334E+02  0.81017848083E+02  0.00000000000E+00 0. -1.
         21    1    1    2  506  501  0.12550668966E+03  0.24879810960E+02  0.18439674120E+03  0.22443950701E+03  0.00000000000E+00 0. -1.
<scales pt_clust_3="70.20071" pt_clust_4="165.89710" pt_clust_5="35.27726" pt_clust_6="35.27726"></scales>
<clustering>
<clus scale="   35.277">  5  6 -1 -1</clus>
<clus scale="   70.201">  1  3  2 -1</clus>
<clus scale="  165.897">  2  4  1 -1</clus>
<clus scale="   70.201">  1  3  2 -1</clus>
</clustering>
</event>
<event>
 6    0  0.6207838E+002  0.6939957E+02  0.7546771E-02  0.1362147E+00
         21   -1    0    0  504  501  0.00000000000E+00  0.00000000000E+00  0.99479522126E+03  0.99479522126E+03  0.00000000000E+00 0.  1.
         21   -1    0    0  506  502 -0.00000000000E+00 -0.00000000000E+00 -0.80209330453E+02  0.80209330453E+02  0.00000000000E+00 0.  1.
         21    1    1    2  503  505 -0.36734742363E+02  0.54719200655E+02  0.33189240228E+02  0.73791313064E+02  0.00000000000E+00 0.  1.
         21    1    1    2  504  502 -0.43626833238E+02 -0.10053206841E+03  0.46877035339E+03  0.48141005554E+03  0.00000000000E+00 0.  1.
         21    1    1    2  505  501  0.43638840230E+02  0.31921048273E+02  0.45720994958E+03  0.46039574248E+03  0.00000000000E+00 0.  1.
         21    1    1    2  506  503  0.36722735372E+02  0.13891819483E+02 -0.44583652390E+02  0.59407440629E+02  0.00000000000E+00 0.  1.
<scales pt_clust_3="69.39957" pt_clust_4="14000.00000" pt_clust_5="56.20711" pt_clust_6="39.26247"></scales>
<clustering>
<clus scale="   39.262">  2  6  1 -1</clus>
<clus scale="   56.207">  1  5  2 -1</clus>
<clus scale="   69.400">  2  3  1 -1</clus>
<clus scale="   56.207">  1  3  2 -1</clus>
</clustering>
</event>
<event>
 6    0  0.6207838E+002  0.1864085E+03  0.7546771E-02  0.1161741E+00
         21   -1    0    0  502  501  0.00000000000E+00  0.00000000000E+00  0.10451909457E+04  0.10451909457E+04  0.00000000000E+00 0. -1.
         21   -1    0    0  504  502 -0.00000000000E+00 -0.00000000000E+00 -0.13483589449E+03  0.13483589449E+03  0.00000000000E+00 0.  1.
         21    1    1    2  503  505  0.41206315170E+01 -0.10425003827E+03  0.59279692218E+03  0.60190800047E+03  0.00000000000E+00 0. -1.
         21    1    1    2  504  506 -0.11734206798E+01  0.16468563576E+03 -0.59003863417E+02  0.17494053687E+03  0.00000000000E+00 0.  1.
         21    1    1    2  505  501  0.37074037820E+02  0.27915442573E+02  0.10442017696E+03  0.11426867274E+03  0.00000000000E+00 0. -1.
         21    1    1    2  506  503 -0.40021248657E+02 -0.88351040069E+02  0.27214181547E+03  0.28890963008E+03  0.00000000000E+00 0. -1.
<scales pt_clust_3="81.28356" pt_clust_4="166.41857" pt_clust_5="46.40858" pt_clust_6="81.28356"></scales>
<clustering>
<clus scale="   46.409">  1  5  2 -1</clus>
<clus scale="   81.284">  3  6 -1 -1</clus>
<clus scale="  166.419">  2  4  1 -1</clus>
<clus scale="   46.409">  1  3  2 -1</clus>
</clustering>
</event>
<event>
 6    0  0.6207838E+002  0.7816506E+02  0.7546771E-02  0.1334341E+00
         21   -1    0    0  505  501  0.00000000000E+00  0.00000000000E+00  0.29136902340E+03  0.29136902340E+03  0.00000000000E+00 0.  1.
         21   -1    0    0  504  502 -0.00000000000E+00 -0.00000000000E+00 -0.12581882416E+03  0.12581882416E+03  0.00000000000E+00 0.  1.
         21    1    1    2  503  501 -0.29973019423E+02 -0.75164158712E+02  0.21682380109E+03  0.23143161705E+03  0.00000000000E+00 0.  1.
         21    1    1    2  504  506  0.18192718506E+02  0.28884011284E+02 -0.22022614134E+02  0.40623351016E+02  0.00000000000E+00 0.  1.
         21    1    1    2  505  502 -0.30963705003E+02  0.76903656388E+02  0.38626253865E+01  0.82993031444E+02  0.00000000000E+00 0.  1.
         21    1    1    2  506  503  0.42744005921E+02 -0.30623508959E+02 -0.33113613104E+02  0.62139848052E+02  0.00000000000E+00 0.  1.
<scales pt_clust_3="14000.00000" pt_clust_4="34.13592" pt_clust_5="78.16506" pt_clust_6="54.34241"></scales>
<clustering>
<clus scale="   34.136">  2  4  1 -1</clus>
<clus scale="   54.342">  2  6  1 -1</clus>
<clus scale="   78.165">  2  5  1 -1</clus>
<clus scale="   78.165">  1  3  2 -1</clus>
</clustering>
</event>
<event>
 6    0  0.6207838E+002  0.8378782E+02  0.7546771E-02  0.1318633E+00
         21   -1    0    0  503  501  0.00000000000E+00  0.00000000000E+00  0.15499445156E+03  0.15499445156E+03  0.00000000000E+00 0. -1.
         21   -1    0    0  504  502 -0.00000000000E+00 -0.00000000000E+00 -0.14701023713E+03  0.14701023713E+03  0.00000000000E+00 0. -1.
         21    1    1    2  503  506 -0.81732297504E+02  0.55242483679E+02  0.55057933989E+02  0.11297467218E+03  0.00000000000E+00 0. -1.
         21    1    1    2  504  505  0.71980706728E+02  0.30931641749E+01  0.32680351759E+00  0.72047877180E+02  0.00000000000E+00 0. -1.
         21    1    1    2  505  501  0.40919312993E+02 -0.52368837279E+02 -0.88435177853E+01  0.67045455480E+02  0.00000000000E+00 0. -1.
         21    1    1    2  506  502 -0.31167722216E+02 -0.59668105749E+01 -0.38557005296E+02  0.49936683850E+02  0.00000000000E+00 0.  1.
<scales pt_clust_3="14000.00000" pt_clust_4="61.11271" pt_clust_5="83.78782" pt_clust_6="31.73373"></scales>
<clustering>
<clus scale="   31.734">  2  6  1 -1</clus>
<clus scale="   61.113">  2  4  1 -1</clus>
<clus scale="   83.788">  2  5  1 -1</clus>
<clus scale="   83.788">  1  3  2 -1</clus>
</clustering>
</event>
<event>
 6    0  0.6207838E+002  0.1154746E+03  0.7546771E-02  0.1250755E+00
         21   -1    0    0  504  501  0.00000000000E+00  0.00000000000E+00  0.10445665304E+03  0.10445665304E+03  0.00000000000E+00 0.  1.
         21   -1    0    0  503  502 -0.00000000000E+00 -0.00000000000E+00 -0.43386165325E+03  0.43386165325E+03  0.00000000000E+00 0.  1.
         21    1    1    2  503  501  0.67020348238E+02  0.31642260880E+02 -0.61752769685E+02  0.96469499404E+02  0.00000000000E+00 0.  1.
         21    1    1    2  504  506  0.62384047986E+02  0.26958821270E+02  0.55006176028E+02  0.87431269513E+02  0.00000000000E+00 0.  1.
         21    1    1    2  505  502 -0.59064370911E+02 -0.76112699428E+01 -0.14062572297E+03  0.15271583186E+03  0.00000000000E+00 0.  1.
         21    1    1    2  506  505 -0.70340025312E+02 -0.50989812207E+02 -0.18203268359E+03  0.20170170550E+03  0.00000000000E+00 0.  1.
<scales pt_clust_3="109.59304" pt_clust_4="67.95990" pt_clust_5="30.12326" pt_clust_6="30.12326"></scales>
<clustering>
<clus scale="   30.123">  5  6 -1 -1</clus>
<clus scale="   67.960">  1  4  2 -1</clus>
<clus scale="  109.593">  1  3  2 -1</clus>
<clus scale="   67.960">  1  3  2 -1</clus>
</clustering>
</event>
<event>
 6    0  0.6207838E+002  0.1682484E+03  0.7546771E-02  0.1179687E+00
         21   -1    0    0  504  501  0.00000000000E+00  0.00000000000E+00  0.40503089557E+03  0.40503089557E+03  0.00000000000E+00 0. -1.
         21   -1    0    0  506  502 -0.00000000000E+00 -0.00000000000E+00 -0.52326744814E+03  0.52326744814E+03  0.00000000000E+00 0.  1.
         21    1    1    2  503  502  0.14790103630E+03  0.82450917349E+02 -0.46044926187E+03  0.49059799538E+03  0.00000000000E+00 0.  1.
         21    1    1    2  504  503 -0.11625014116E+03 -0.90342037535E+02  0.29835730475E+03  0.33270536570E+03  0.00000000000E+00 0. -1.
         21    1    1    2  505  501  0.25601577315E+02  0.24073730299E+02  0.22766300760E+02  0.41872302323E+02  0.00000000000E+00 0.  1.
         21    1    1    2  506  505 -0.57252472452E+02 -0.16182610113E+02  0.21089103786E+02  0.63122680317E+02  0.00000000000E+00 0. -1.
<scales pt_clust_3="168.24840" pt_clust_4="14000.00000" pt_clust_5="35.14236" pt_clust_6="56.00254"></scales>
<clustering>
<clus scale="   35.142">  1  5  2 -1</clus>
<clus scale="   56.003">  1  6  2 -1</clus>
<clus scale="  168.248">  2  3  1 -1</clus>
<clus scale="   35.142">  1  3  2 -1</clus>
</clustering>
</event>
<event>
 6    0  0.6207838E+002  0.2383081E+03  0.7546771E-02  0.1120925E+00
         21   -1    0    0  505  501  0.00000000000E+00  0.00000000000E+00  0.92085546339E+03  0.92085546339E+03  0.00000000000E+00 0. -1.
         21   -1    0    0  504  502 -0.00000000000E+00 -0.00000000000E+00 -0.30959536322E+03  0.30959536322E+03  0.00000000000E+00 0.  1.
         21    1    1    2  503  506  0.21148587466E+03  0.98585421476E+01  0.25131247056E+03  0.32860527064E+03  0.00000000000E+00 0. -1.
         21    1    1    2  504  501 -0.48041065038E+02  0.44788401458E+02  0.12244332850E+02  0.66812188425E+02  0.00000000000E+00 0.  1.
         21    1    1    2  505  503  0.41423591761E+02 -0.76171755205E+02  0.54377349982E+03  0.55064295996E+03  0.00000000000E+00 0. -1.
         21    1    1    2  506  502 -0.20486840138E+03  0.21524811599E+02 -0.19607020306E+03  0.28439040759E+03  0.00000000000E+00 0.  1.
<scales pt_clust_3="14000.00000" pt_clust_4="65.68063" pt_clust_5="85.94912" pt_clust_6="238.30813"></scales>
<clustering>
<clus scale="   65.681">  2  4  1 -1</clus>
<clus scale="   85.949">  1  5  2 -1</clus>
<clus scale="  238.308">  2  6  1 -1</clus>
<clus scale="   85.949">  1  3  2 -1</clus>
</clustering>
</event>
<event>
 6    0  0.6207838E+002  0.8984654E+02  0.7546771E-02  0.1303224E+00
         21   -1    0    0  505  501  0.00000000000E+00  0.00000000000E+00  0.16997186616E+03  0.16997186616E+03  0.00000000000E+00 0.  1.
         21   -1    0    0  503  502 -0.00000000000E+00 -0.00000000000E+00 -0.58815298114E+03  0.58815298114E+03  0.00000000000E+00 0. -1.
         21    1    1    2  503  506 -0.33093624425E+02  0.18768162988E+02 -0.16527114263E+03  0.16959358037E+03  0.00000000000E+00 0. -1.
         21    1    1    2  504  502  0.22496776119E+02  0.67627802773E+02 -0.72565587039E+02  0.10171228572E+03  0.00000000000E+00 0.  1.
         21    1    1    2  505  504  0.69381467269E+02 -0.38767599764E+01  0.13704218189E+03  0.15365343109E+03  0.00000000000E+00 0.  1.
         21    1    1    2  506  501 -0.58784618963E+02 -0.82519205784E+02 -0.31738656720E+03  0.33316555012E+03  0.00000000000E+00 0. -1.
<scales pt_clust_3="38.04513" pt_clust_4="89.84654" pt_clust_5="68.81753" pt_clust_6="14000.00000"></scales>
<clustering>
<clus scale="   38.045">  2  3  1 -1</clus>
<clus scale="   68.818">  1  5  2 -1</clus>
<clus scale="   89.847">  1  4  2 -1</clus>
<clus scale="   68.818">  1  3  2 -1</clus>
</clustering>
</event>
<event>
 6    0  0.6207838E+002  0.5709502E+02  0.7546771E-02  0.1410443E+00
         21   -1    0    0  504  501  0.00000000000E+00  0.00000000000E+00  0.19709672510E+04  0.19709672510E+04  0.00000000000E+00 0. -1.
         21   -1    0    0  505  502 -0.00000000000E+00 -0.00000000000E+00 -0.33663006874E+03  0.33663006874E+03  0.00000000000E+00 0.  1.
         21    1    1    2  503  502 -0.47014376736E+02  0.10907903522E+02 -0.90197064610E+02  0.10229782228E+03  0.00000000000E+00 0. -1.
         21    1    1    2  504  506 -0.63923145223E+02  0.76983885775E+02  0.64763745195E+02  0.11919324585E+03  0.00000000000E+00 0.  1.
         21    1    1    2  505  501  0.36014678622E+02 -0.43431150990E+02  0.18635919217E+04  0.18644458084E+04  0.00000000000E+00 0. -1.
         21    1    1    2  506  503  0.74922843337E+02 -0.44460638307E+02 -0.20382142003E+03  0.22166044319E+03  0.00000000000E+00 0.  1.
<scales pt_clust_3="48.26317" pt_clust_4="57.09502" pt_clust_5="14000.00000" pt_clust_6="48.18088"></scales>
<clustering>
<clus scale="   48.263">  2  3  1 -1</clus>
<clus scale="   48.181">  2  6  1 -1</clus>
<clus scale="   57.095">  2  4  1 -1</clus>
<clus scale="   57.095">  1  3  2 -1</clus>
</clustering>
</event>
<event>
 6    0  0.6207838E+002  0.1063539E+03  0.7546771E-02  0.1267475E+00
         21   -1    0    0  506  501  0.00000000000E+00  0.00000000000E+00  0.26213598230E+03  0.26213598230E+03  0.00000000000E+00 0. -1.
         21   -1    0    0  504  502 -0.00000000000E+00 -0.00000000000E+00 -0.15303627262E+03  0.15303627262E+03  0.00000000000E+00 0. -1.
         21    1    1    2  503  501  0.64543472840E+02  0.32995592656E+02  0.15809636982E+03  0.17392248610E+03  0.00000000000E+00 0. -1.
         21    1    1    2  504  503 -0.36785327559E+02  0.17358466857E+02  0.64620596765E+01  0.41185372531E+02  0.00000000000E+00 0. -1.
         21    1    1    2  505  502 -0.82482286893E+02 -0.46775384336E+02 -0.93620810875E+02  0.13325209364E+03  0.00000000000E+00 0. -1.
         21    1    1    2  506  505  0.54724141611E+02 -0.35786751780E+01  0.38162091065E+02  0.66812302651E+02  0.00000000000E+00 0. -1.
<scales pt_clust_3="106.35393" pt_clust_4="40.67526" pt_clust_5="14000.00000" pt_clust_6="50.87016"></scales>
<clustering>
<clus scale="   40.675">  2  4  1 -1</clus>
<clus scale="   50.870">  1  6  2 -1</clus>
<clus scale="  106.354">  1  3  2 -1</clus>
<clus scale="   50.870">  1  3  2 -1</clus>
</clustering>
</event>
<event>
 6    0  0.6207838E+002  0.9701636E+02  0.7546771E-02  0.1286698E+00
         21   -1    0    0  503  501  0.00000000000E+00  0.00000000000E+00  0.24271626195E+02  0.24271626195E+02  0.00000000000E+00 0.  1.
         21   -1    0    0  506  502 -0.00000000000E+00 -0.00000000000E+00 -0.10748404904E+04  0.10748404904E+04  0.00000000000E+00 0. -1.
         21    1    1    2  503  502  0.10276111138E+03 -0.54853197992E+02 -0.54553317099E+03  0.55783076286E+03  0.00000000000E+00 0.  1.
         21    1    1    2  504  501 -0.94696494548E+02 -0.26503407350E+02 -0.20104737323E+03  0.22380773660E+03  0.00000000000E+00 0. -1.
         21    1    1    2  505  504  0.12334554081E+02  0.34103062377E+02 -0.83103658395E+02  0.90671815503E+02  0.00000000000E+00 0.  1.
         21    1    1    2  506  505 -0.20399170915E+02  0.47253542965E+02 -0.22088466162E+03  0.22680180166E+03  0.00000000000E+00 0.  1.
<scales pt_clust_3="14000.00000" pt_clust_4="97.01636" pt_clust_5="34.57571" pt_clust_6="91.54561"></scales>
<clustering>
<clus scale="   34.576">  5  6 -1 -1</clus>
<clus scale="   91.546">  2  5  1 -1</clus>
<clus scale="   97.016">  1  4  2 -1</clus>
<clus scale="   97.016">  1  3  2 -1</clus>
</clustering>
</event>
<event>
 6    0  0.6207838E+002  0.1979303E+03  0.7546771E-02  0.1151497E+00
         21   -1    0    0  503  501  0.00000000000E+00  0.00000000000E+00  0.54346141312E+03  0.54346141312E+03  0.00000000000E+00 0. -1.
         21   -1    0    0  504  502 -0.00000000000E+00 -0.00000000000E+00 -0.40088038620E+03  0.40088038620E+03  0.00000000000E+00 0.  1.
         21    1    1    2  503  505  0.42739494550E+01 -0.36615459667E+02  0.35495003435E+02  0.51174737903E+02  0.00000000000E+00 0. -1.
         21    1    1    2  504  506 -0.97555787433E+02  0.84044645416E+00  0.13966640696E+03  0.17036590987E+03  0.00000000000E+00 0. -1.
         21    1    1    2  505  502  0.17927895593E+03  0.99735293896E+01 -0.34976089923E+03  0.39315785883E+03  0.00000000000E+00 0.  1.
         21    1    1    2  506  501 -0.85997117950E+02  0.25801483823E+02  0.31718051575E+03  0.32964329272E+03  0.00000000000E+00 0. -1.
<scales pt_clust_3="36.86405" pt_clust_4="77.02931" pt_clust_5="179.66016" pt_clust_6="77.02931"></scales>
<clustering>
<clus scale="   36.864">  1  3  2 -1</clus>
<clus scale="   77.029">  4  6 -1 -1</clus>
<clus scale="  179.660">  2  5  1 -1</clus>
<clus scale="   36.864">  1  3  2 -1</clus>
</clustering>
</event>
<event>
 6    0  0.6207838E+002  0.8076231E+02  0.7546771E-02  0.1326902E+00
         21   -1    0    0  503  501  0.00000000000E+00  0.00000000000E+00  0.16491973113E+03  0.16491973113E+03  0.00000000000E+00 0.  1.
         21   -1    0    0  505  502 -0.00000000000E+00 -0.00000000000E+00 -0.16341205943E+04  0.16341205943E+04  0.00000000000E+00 0. -1.
         21    1    1    2  503  506  0.30186010889E+02  0.77930167141E+01  0.49362901292E+02  0.58383408489E+02  0.00000000000E+00 0.  1.
         21    1    1    2  504  501 -0.14073316116E+03  0.20354565122E+02  0.33106809571E+02  0.14600065689E+03  0.00000000000E+00 0.  1.
         21    1    1    2  505  504  0.77048999837E+02 -0.21789938849E+02 -0.15579334303E+04  0.15599897189E+04  0.00000000000E+00 0. -1.
         21    1    1    2  506  502  0.33498150439E+02 -0.63576429872E+01  0.62628562644E+01  0.34666541156E+02  0.00000000000E+00 0.  1.
<scales pt_clust_3="31.17573" pt_clust_4="80.76231" pt_clust_5="14000.00000" pt_clust_6="39.36993"></scales>
<clustering>
<clus scale="   31.176">  1  3  2 -1</clus>
<clus scale="   39.370">  1  6  2 -1</clus>
<clus scale="   80.762">  1  4  2 -1</clus>
<clus scale="   31.176">  1  3  2 -1</clus>
</clustering>
</event>
<event>
 6    0  0.6207838E+002  0.6408572E+02  0.7546771E-02  0.1381444E+00
         21   -1    0    0  504  501  0.00000000000E+00  0.00000000000E+00  0.40265459576E+02  0.40265459576E+02  0.00000000000E+00 0.  1.
         21   -1    0    0  503  502 -0.00000000000E+00 -0.00000000000E+00 -0.12062393139E+04  0.12062393139E+04  0.00000000000E+00 0. -1.
         21    1    1    2  503  501  0.57489435390E+02 -0.26143985859E+02 -0.30234533653E+02  0.70019070282E+02  0.00000000000E+00 0.  1.
         21    1    1    2  504  506 -0.27021377902E+02 -0.32203551563E+02 -0.42568412076E+02  0.59827195352E+02  0.00000000000E+00 0. -1.
         21    1    1    2  505  502  0.52920796500E+02  0.37035188650E+02 -0.92945596467E+03  0.93169770106E+03  0.00000000000E+00 0. -1.
         21    1    1    2  506  505 -0.83388853988E+02  0.21312348771E+02 -0.16371494391E+03  0.18496080676E+03  0.00000000000E+00 0.  1.
<scales pt_clust_3="61.58305" pt_clust_4="42.03836" pt_clust_5="14000.00000" pt_clust_6="64.08572"></scales>
<clustering>
<clus scale="   42.038">  1  4  2 -1</clus>
<clus scale="   61.583">  1  3  2 -1</clus>
<clus scale="   64.086">  1  6  2 -1</clus>
<clus scale="   42.038">  1  3  2 -1</clus>
</clustering>
</event>
<event>
 6    0  0.6207838E+002  0.9676969E+02  0.7546771E-02  0.1287239E+00
         21   -1    0    0  505  501  0.00000000000E+00  0.00000000000E+00  0.57201711319E+02  0.57201711319E+02  0.00000000000E+00 0. -1.
         21   -1    0    0  506  502 -0.00000000000E+00 -0.00000000000E+00 -0.69833662506E+03  0.69833662506E+03  0.00000000000E+00 0.  1.
         21    1    1    2  503  504  0.53880489503E+02 -0.36975541026E+02 -0.23159313861E+03  0.24063598990E+03  0.00000000000E+00 0.  1.
         21    1    1    2  504  501 -0.86010855188E+02  0.18074873262E+02  0.34391015946E+01  0.87956782987E+02  0.00000000000E+00 0. -1.
         21    1    1    2  505  502 -0.32948748093E+02  0.25314766293E+02 -0.19445777921E+03  0.19884739196E+03  0.00000000000E+00 0. -1.
         21    1    1    2  506  503  0.65079113778E+02 -0.64140985283E+01 -0.21852309751E+03  0.22809817153E+03  0.00000000000E+00 0.  1.
<scales pt_clust_3="32.74554" pt_clust_4="91.05675" pt_clust_5="41.55066" pt_clust_6="32.74554"></scales>
<clustering>
<clus scale="   32.746">  3  6 -1 -1</clus>
<clus scale="   41.551">  2  5  1 -1</clus>
<clus scale="   91.057">  1  4  2 -1</clus>
<clus scale="   91.057">  1  3  2 -1</clus>
</clustering>
</event>
<event>
 6    0  0.6207838E+002  0.1121076E+03  0.7546771E-02  0.1256716E+00
         21   -1    0    0  504  501  0.00000000000E+00  0.00000000000E+00  0.36912019541E+03  0.36912019541E+03  0.00000000000E+00 0.  1.
         21   -1    0    0  501  502 -0.00000000000E+00 -0.00000000000E+00 -0.18350445332E+03  0.18350445332E+03  0.00000000000E+00 0.  1.
         21    1    1    2  503  506  0.26102697531E+02 -0.10081636481E+03  0.12375523729E+03  0.16174253920E+03  0.00000000000E+00 0. -1.
         21    1    1    2  504  503  0.29120816885E+02 -0.19598391384E+02  0.18802956017E+03  0.19127789840E+03  0.00000000000E+00 0.  1.
         21    1    1    2  505  502  0.79774693482E+01  0.72138822295E+02 -0.42220488663E+02  0.83965584391E+02  0.00000000000E+00 0.  1.
         21    1    1    2  506  505 -0.63200983765E+02  0.48275933898E+02 -0.83948566702E+02  0.11563862674E+03  0.00000000000E+00 0.  1.
<scales pt_clust_3="14000.00000" pt_clust_4="35.10155" pt_clust_5="70.77777" pt_clust_6="112.10761"></scales>
<clustering>
<clus scale="   35.102">  1  4  2 -1</clus>
<clus scale="   70.778">  2  5  1 -1</clus>
<clus scale="  112.108">  2  6  1 -1</clus>
<clus scale="   35.102">  1  3  2 -1</clus>
</clustering>
</event>
<event>
 6    0  0.6207838E+002  0.1676684E+03  0.7546771E-02  0.1180301E+00
         21   -1    0    0  505  501  0.00000000000E+00  0.00000000000E+00  0.32763797104E+03  0.32763797104E+03  0.00000000000E+00 0. -1.
         21   -1    0    0  504  502 -0.00000000000E+00 -0.00000000000E+00 -0.60031540571E+03  0.60031540571E+03  0.00000000000E+00 0.  1.
         21    1    1    2  503  506 -0.21540105762E+01 -0.14273313909E+03 -0.13864746334E+03  0.19899876343E+03  0.00000000000E+00 0.  1.
         21    1    1    2  504  503 -0.38706590287E+02 -0.46082801847E+02 -0.38356143561E+03  0.38825404009E+03  0.00000000000E+00 0.  1.
         21    1    1    2  505  502 -0.27695974867E+02  0.12370801535E+03  0.19184157463E+03  0.22994331876E+03  0.00000000000E+00 0. -1.
         21    1    1    2  506  501  0.68556575730E+02  0.65107925583E+02  0.57689889656E+02  0.11075725447E+03  0.00000000000E+00 0.  1.
<scales pt_clust_3="167.66841" pt_clust_4="60.18160" pt_clust_5="14000.00000" pt_clust_6="87.15001"></scales>
<clustering>
<clus scale="   60.182">  2  4  1 -1</clus>
<clus scale="   87.150">  1  6  2 -1</clus>
<clus scale="  167.668">  2  3  1 -1</clus>
<clus scale="   87.150">  1  3  2 -1</clus>
</clustering>
</event>
<event>
 6    0  0.6207838E+002  0.6915032E+02  0.7546771E-02  0.1363006E+00
         21   -1    0    0  504  501  0.00000000000E+00  0.00000000000E+00  0.68128440313E+03  0.68128440313E+03  0.00000000000E+00 0.  1.
         21   -1    0    0  506  502 -0.00000000000E+00 -0.00000000000E+00 -0.70838759160E+02  0.70838759160E+02  0.00000000000E+00 0.  1.
         21    1    1    2  503  501  0.31838483151E+02 -0.61404849270E+01  0.10276829681E+03  0.10776231899E+03  0.00000000000E+00 0.  1.
         21    1    1    2  504  505 -0.49532117317E+02 -0.32285762325E+02  0.20593182620E+03  0.21425153007E+03  0.00000000000E+00 0.  1.
         21    1    1    2  505  502 -0.49109538178E+02 -0.45573210577E+02 -0.35764709111E+02  0.75945893109E+02  0.00000000000E+00 0.  1.
         21    1    1    2  506  503  0.66803172344E+02  0.83999457829E+02  0.33751023007E+03  0.35416342012E+03  0.00000000000E+00 0.  1.
<scales pt_clust_3="32.42521" pt_clust_4="51.28257" pt_clust_5="69.15032" pt_clust_6="14000.00000"></scales>
<clustering>
<clus scale="   32.425">  1  3  2 -1</clus>
<clus scale="   51.283">  1  4  2 -1</clus>
<clus scale="   69.150">  2  5  1 -1</clus>
<clus scale="   32.425">  1  3  2 -1</clus>
</clustering>
</event>
<event>
 6    0  0.6207838E+002  0.1583666E+03  0.7546771E-02  0.1190553E+00
         21   -1    0    0  506  501  0.00000000000E+00  0.00000000000E+00  0.19016167761E+03  0.19016167761E+03  0.00000000000E+00 0.  1.
         21   -1    0    0  503  502 -0.00000000000E+00 -0.00000000000E+00 -0.80223693963E+03  0.80223693963E+03  0.00000000000E+00 0.  1.
         21    1    1    2  503  501  0.14523550485E+03  0.42770744864E+02 -0.74265192176E+03  0.75792781014E+03  0.00000000000E+00 0.  1.
         21    1    1    2  504  502 -0.70837170636E+02 -0.19752615581E+02  0.21312557325E+02  0.76565629794E+02  0.00000000000E+00 0.  1.
         21    1    1    2  505  504 -0.40123232373E+02 -0.52279824521E+02  0.46578225041E+02  0.80700587829E+02  0.00000000000E+00 0.  1.
         21    1    1    2  506  505 -0.34275101845E+02  0.29261695238E+02  0.62685877377E+02  0.77204589483E+02  0.00000000000E+00 0.  1.
<scales pt_clust_3="149.85784" pt_clust_4="46.06925" pt_clust_5="46.06925" pt_clust_6="45.06694"></scales>
<clustering>
<clus scale="   45.067">  1  6  2 -1</clus>
<clus scale="   46.069">  4  5 -1 -1</clus>
<clus scale="  149.858">  2  3  1 -1</clus>
<clus scale="   45.067">  1  3  2 -1</clus>
</clustering>
</event>
<event>
 6    0  0.6207838E+002  0.1664654E+03  0.7546771E-02  0.1181585E+00
         21   -1    0    0  505  501  0.00000000000E+00  0.00000000000E+00  0.21449008336E+03  0.21449008336E+03  0.00000000000E+00 0. -1.
         21   -1    0    0  506  502 -0.00000000000E+00 -0.00000000000E+00 -0.27843876346E+03  0.27843876346E+03  0.00000000000E+00 0. -1.
         21    1    1    2  503  504 -0.51822606783E+02  0.43777742290E+02  0.46998110181E+01  0.68001187618E+02  0.00000000000E+00 0. -1.
         21    1    1    2  504  501 -0.74141732147E+02  0.46834893068E+02  0.74487241313E+02  0.11506021368E+03  0.00000000000E+00 0. -1.
         21    1    1    2  505  502  0.11023769275E+03 -0.11694952308E+03  0.28025853318E+01  0.16074014538E+03  0.00000000000E+00 0. -1.
         21    1    1    2  506  503  0.15726646178E+02  0.26336887721E+02 -0.14593831777E+03  0.14912730014E+03  0.00000000000E+00 0. -1.
<scales pt_clust_3="49.97317" pt_clust_4="49.97317" pt_clust_5="156.67647" pt_clust_6="30.67506"></scales>
<clustering>
<clus scale="   30.675">  2  6  1 -1</clus>
<clus scale="   49.973">  3  4 -1 -1</clus>
<clus scale="  156.676">  2  5  1 -1</clus>
<clus scale="  166.465">  1  3  2 -1</clus>
</clustering>
</event>
<event>
 6    0  0.6207838E+002  0.1805766E+03  0.7546771E-02  0.1167246E+00
         21   -1    0    0  505  501  0.00000000000E+00  0.00000000000E+00  0.26315756593E+03  0.26315756593E+03  0.00000000000E+00 0. -1.
         21   -1    0    0  504  502 -0.00000000000E+00 -0.00000000000E+00 -0.94902089028E+03  0.94902089028E+03  0.00000000000E+00 0.  1.
         21    1    1    2  503  501  0.24639468574E+02 -0.57701151488E+02  0.42242330815E+02  0.75636901095E+02  0.00000000000E+00 0. -1.
         21    1    1    2  504  503  0.11167450836E+03  0.10017893257E+03  0.15095164039E+03  0.21282248961E+03  0.00000000000E+00 0. -1.
         21    1    1    2  505  506  0.44587197407E+02 -0.12135212465E+02 -0.30044747468E+02  0.55117768502E+02  0.00000000000E+00 0. -1.
         21    1    1    2  506  502 -0.18090117434E+03 -0.30342568618E+02 -0.84901254808E+03  0.86860129700E+03  0.00000000000E+00 0.  1.
<scales pt_clust_3="70.00496" pt_clust_4="180.57659" pt_clust_5="46.20911" pt_clust_6="14000.00000"></scales>
<clustering>
<clus scale="   46.209">  1  5  2 -1</clus>
<clus scale="   70.005">  1  3  2 -1</clus>
<clus scale="  180.577">  1  4  2 -1</clus>
<clus scale="   46.209">  1  3  2 -1</clus>
</clustering>
</event>
<event>
 6    0  0.6207838E+002  0.8455575E+02  0.7546771E-02  0.1316598E+00
         21   -1    0    0  503  501  0.00000000000E+00  0.00000000000E+00  0.15757450618E+03  0.15757450618E+03  0.00000000000E+00 0. -1.
         21   -1    0    0  506  502 -0.00000000000E+00 -0.00000000000E+00 -0.13843749784E+03  0.13843749784E+03  0.00000000000E+00 0. -1.
         21    1    1    2  503  505 -0.11358796553E+03  0.19585991650E+02  0.71497582143E+02  0.13563827349E+03  0.00000000000E+00 0. -1.
         21    1    1    2  504  501  0.52693128552E+02  0.24064070943E+02 -0.11327349414E+02  0.59025029875E+02  0.00000000000E+00 0.  1.
         21    1    1    2  505  502  0.31497490702E+02 -0.33183471678E+02  0.46903658548E+01  0.45991675823E+02  0.00000000000E+00 0. -1.
         21    1    1    2  506  504  0.29397346279E+02 -0.10466590915E+02 -0.45723590249E+02  0.55357024838E+02  0.00000000000E+00 0. -1.
<scales pt_clust_3="84.55575" pt_clust_4="14000.00000" pt_clust_5="52.39528" pt_clust_6="31.20502"></scales>
<clustering>
<clus scale="   31.205">  2  6  1 -1</clus>
<clus scale="   52.395">  2  5  1 -1</clus>
<clus scale="   84.556">  1  3  2 -1</clus>
<clus scale="   84.556">  1  3  2 -1</clus>
</clustering>
</event>
<event>
 6    0  0.6207838E+002  0.7369475E+02  0.7546771E-02  0.1347961E+00
         21   -1    0    0  505  501  0.00000000000E+00  0.00000000000E+00  0.50189279004E+03  0.50189279004E+03  0.00000000000E+00 0.  1.
         21   -1    0    0  503  502 -0.00000000000E+00 -0.00000000000E+00 -0.60485560230E+02  0.60485560230E+02  0.00000000000E+00 0.  1.
         21    1    1    2  503  501 -0.88451247420E+02 -0.60229776355E+02  0.24468519526E+03  0.26706196643E+03  0.00000000000E+00 0.  1.
         21    1    1    2  504  502  0.28715811300E+02  0.65325050886E+02 -0.10446626649E+02  0.72118597464E+02  0.00000000000E+00 0.  1.
         21    1    1    2  505  506  0.22184238469E+02 -0.30164751152E+02  0.82321991281E+02  0.90437618815E+02  0.00000000000E+00 0.  1.
         21    1    1    2  506  504  0.37551197651E+02  0.25069476622E+02  0.12484666992E+03  0.13276016757E+03  0.00000000000E+00 0.  1.
<scales pt_clust_3="14000.00000" pt_clust_4="73.69475" pt_clust_5="37.44399" pt_clust_6="47.12674"></scales>
<clustering>
<clus scale="   37.444">  1  5  2 -1</clus>
<clus scale="   47.127">  1  6  2 -1</clus>
<clus scale="   73.695">  2  4  1 -1</clus>
<clus scale="   37.444">  1  3  2 -1</clus>
</clustering>
</event>
<event>
 6    0  0.6207838E+002  0.1363760E+03  0.7546771E-02  0.1218290E+00
         21   -1    0    0  503  501  0.00000000000E+00  0.00000000000E+00  0.11622435362E+04  0.11622435362E+04  0.00000000000E+00 0.  1.
         21   -1    0    0  506  502 -0.00000000000E+00 -0.00000000000E+00 -0.45258954104E+02  0.45258954104E+02  0.00000000000E+00 0.  1.
         21    1    1    2  503  505 -0.81275787472E+02 -0.36476825070E+02  0.83471077405E+02  0.12208084682E+03  0.00000000000E+00 0.  1.
         21    1    1    2  504  501  0.12917672837E+03  0.23739427721E+02  0.93455520943E+03  0.94373917321E+03  0.00000000000E+00 0.  1.
         21    1    1    2  505  502 -0.16903091397E+02 -0.36514103949E+02  0.57710061189E+02  0.70352295260E+02  0.00000000000E+00 0.  1.
         21    1    1    2  506  504 -0.30997849500E+02  0.49251501298E+02  0.41248234072E+02  0.71330175016E+02  0.00000000000E+00 0. -1.
<scales pt_clust_3="31.02864" pt_clust_4="128.32291" pt_clust_5="31.02864" pt_clust_6="58.19430"></scales>
<clustering>
<clus scale="   31.029">  3  5 -1 -1</clus>
<clus scale="   58.194">  2  6  1 -1</clus>
<clus scale="  128.323">  1  4  2 -1</clus>
<clus scale="  128.323">  1  3  2 -1</clus>
</clustering>
</event>
<event>
 6    0  0.6207838E+002  0.3193254E+03  0.7546771E-02  0.1075960E+00
         21   -1    0    0  505  501  0.00000000000E+00  0.00000000000E+00  0.33677373952E+03  0.33677373952E+03  0.00000000000E+00 0.  1.
         21   -1    0    0  504  502 -0.00000000000E+00 -0.00000000000E+00 -0.68480601343E+03  0.68480601343E+03  0.00000000000E+00 0.  1.
         21    1    1    2  503  501  0.50804939117E+02  0.13170360693E+02  0.75136095045E+02  0.91651694027E+02  0.00000000000E+00 0.  1.
         21    1    1    2  504  506 -0.14620371185E+03  0.48680253834E+02 -0.14631835385E+03  0.21249553677E+03  0.00000000000E+00 0. -1.
         21    1    1    2  505  502  0.77878805665E+02 -0.35470464018E+03 -0.19809079064E+03  0.41366707806E+03  0.00000000000E+00 0.  1.
         21    1    1    2  506  503  0.17519967064E+02  0.29285402565E+03 -0.78759224463E+02  0.30376544409E+03  0.00000000000E+00 0.  1.
<scales pt_clust_3="52.48429" pt_clust_4="148.39044" pt_clust_5="319.32545" pt_clust_6="14000.00000"></scales>
<clustering>
<clus scale="   52.484">  1  3  2 -1</clus>
<clus scale="  148.390">  2  4  1 -1</clus>
<clus scale="  319.325">  2  5  1 -1</clus>
<clus scale="   52.484">  1  3  2 -1</clus>
</clustering>
</event>
<event>
 6    0  0.6207838E+002  0.1560347E+03  0.7546771E-02  0.1193248E+00
         21   -1    0    0  505  501  0.00000000000E+00  0.00000000000E+00  0.78536116961E+02  0.78536116961E+02  0.00000000000E+00 0. -1.
         21   -1    0    0  503  502 -0.00000000000E+00 -0.00000000000E+00 -0.10935413908E+04  0.10935413908E+04  0.00000000000E+00 0. -1.
         21    1    1    2  503  506  0.21620197329E+02 -0.23488162437E+02 -0.20377608245E+03  0.20626152934E+03  0.00000000000E+00 0. -1.
         21    1    1    2  504  501  0.35689290226E+02  0.15054719929E+03 -0.31567293004E+02  0.15790718362E+03  0.00000000000E+00 0. -1.
         21    1    1    2  505  502 -0.29898011409E+02  0.35032117662E+02 -0.21062197509E+03  0.21559860099E+03  0.00000000000E+00 0.  1.
         21    1    1    2  506  504 -0.27411476147E+02 -0.16209115452E+03 -0.56903992328E+03  0.59231019380E+03  0.00000000000E+00 0. -1.
<scales pt_clust_3="31.92376" pt_clust_4="156.03466" pt_clust_5="38.40545" pt_clust_6="14000.00000"></scales>
<clustering>
<clus scale="   31.924">  2  3  1 -1</clus>
<clus scale="   38.405">  2  5  1 -1</clus>
<clus scale="  156.035">  1  4  2 -1</clus>
<clus scale="  156.035">  1  3  2 -1</clus>
</clustering>
</event>
<event>
 6    0  0.6207838E+002  0.2483916E+03  0.7546771E-02  0.1114326E+00
         21   -1    0    0  505  501  0.00000000000E+00  0.00000000000E+00  0.55240481578E+02  0.55240481578E+02  0.00000000000E+00 0. -1.
         21   -1    0    0  504  502 -0.00000000000E+00 -0.00000000000E+00 -0.13679185912E+04  0.13679185912E+04  0.00000000000E+00 0. -1.
         21    1    1    2  503  506  0.42868361724E+02 -0.17294464803E+02 -0.15308168144E+03  0.15990871190E+03  0.00000000000E+00 0. -1.
         21    1    1    2  504  501 -0.24213106204E+03  0.37515393973E+02 -0.66431651977E+03  0.70806164592E+03  0.00000000000E+00 0. -1.
         21    1    1    2  505  503  0.18810382239E+03  0.29902510353E+02 -0.31853907846E+03  0.37113926312E+03  0.00000000000E+00 0. -1.
         21    1    1    2  506  502  0.11158877930E+02 -0.50123439522E+02 -0.17674082990E+03  0.18404945178E+03  0.00000000000E+00 0.  1.
<scales pt_clust_3="38.40940" pt_clust_4="235.83823" pt_clust_5="38.40940" pt_clust_6="51.35056"></scales>
<clustering>
<clus scale="   38.409">  3  5 -1 -1</clus>
<clus scale="   51.351">  2  6  1 -1</clus>
<clus scale="  235.838">  2  4  1 -1</clus>
<clus scale="  248.392">  1  3  2 -1</clus>
</clustering>
</event>
<event>
 6    0  0.6207838E+002  0.1911573E+03  0.7546771E-02  0.1157422E+00
         21   -1    0    0  505  501  0.00000000000E+00  0.00000000000E+00  0.16522712806E+03  0.16522712806E+03  0.00000000000E+00 0. -1.
         21   -1    0    0  506  502 -0.00000000000E+00 -0.00000000000E+00 -0.10383093823E+04  0.10383093823E+04  0.00000000000E+00 0.  1.
         21    1    1    2  503  502 -0.79679235210E+02  0.69065684912E+02 -0.67830096594E+02  0.12537851235E+03  0.00000000000E+00 0.  1.
         21    1    1    2  504  503 -0.59297999466E+02  0.12920422603E+02 -0.59874638572E+02  0.85253518432E+02  0.00000000000E+00 0.  1.
         21    1    1    2  505  504 -0.21902597497E+02  0.22996290561E+02  0.11089229626E+03  0.11535013882E+03  0.00000000000E+00 0. -1.
         21    1    1    2  506  501  0.16087983217E+03 -0.10498239808E+03 -0.85626981538E+03  0.87755434079E+03  0.00000000000E+00 0.  1.
<scales pt_clust_3="33.24826" pt_clust_4="33.24826" pt_clust_5="31.75773" pt_clust_6="185.79599"></scales>
<clustering>
<clus scale="   31.758">  1  5  2 -1</clus>
<clus scale="   33.248">  3  4 -1 -1</clus>
<clus scale="  185.796">  2  6  1 -1</clus>
<clus scale="   31.758">  1  3  2 -1</clus>
</clustering>
</event>
<event>
 6    0  0.6207838E+002  0.2782266E+03  0.7546771E-02  0.1096661E+00
         21   -1    0    0  506  501  0.00000000000E+00  0.00000000000E+00  0.45754029149E+03  0.45754029149E+03  0.00000000000E+00 0. -1.
         21   -1    0    0  505  502 -0.00000000000E+00 -0.00000000000E+00 -0.54971613008E+03  0.54971613008E+03  0.00000000000E+00 0. -1.
         21    1    1    2  503  501  0.84653178368E+02  0.71726530775E+02  0.28148156901E+03  0.30256029071E+03  0.00000000000E+00 0. -1.
         21    1    1    2  504  503 -0.23750287898E+03  0.47882494489E+02 -0.70024888178E+02  0.25219800904E+03  0.00000000000E+00 0. -1.
         21    1    1    2  505  504 -0.55213522619E+02  0.39829538767E+02 -0.32735316999E+02  0.75541552920E+02  0.00000000000E+00 0. -1.
         21    1    1    2  506  502  0.20806322323E+03 -0.15943856403E+03 -0.27089720242E+03  0.37695656890E+03  0.00000000000E+00 0. -1.
<scales pt_clust_3="110.95430" pt_clust_4="31.25861" pt_clust_5="31.25861" pt_clust_6="271.90584"></scales>
<clustering>
<clus scale="   31.259">  4  5 -1 -1</clus>
<clus scale="  110.954">  1  3  2 -1</clus>
<clus scale="  271.906">  2  6  1 -1</clus>
<clus scale="  110.954">  1  3  2 -1</clus>
</clustering>
</event>
<event>
 6    0  0.6207838E+002  0.9671638E+02  0.7546771E-02  0.1287357E+00
         21   -1    0    0  506  501  0.00000000000E+00  0.00000000000E+00  0.76078468166E+03  0.76078468166E+03  0.00000000000E+00 0.  1.
         21   -1    0    0  505  502 -0.00000000000E+00 -0.00000000000E+00 -0.28200166482E+02  0.28200166482E+02  0.00000000000E+00 0.  1.
         21    1    1    2  503  501  0.11001229416E+03  0.22356268880E+02  0.27157889322E+03  0.29386664130E+03  0.00000000000E+00 0.  1.
         21    1    1    2  504  502 -0.23134278241E+02 -0.56755473458E+02  0.15240633072E+03  0.16426828130E+03  0.00000000000E+00 0.  1.
         21    1    1    2  505  503  0.61861797408E+00  0.30156708308E+02  0.57881062197E+02  0.65268883132E+02  0.00000000000E+00 0.  1.
         21    1    1    2  506  504 -0.87496633893E+02  0.42424962692E+01  0.25071822905E+03  0.26558104242E+03  0.00000000000E+00 0.  1.
<scales pt_clust_3="96.71638" pt_clust_4="54.53699" pt_clust_5="30.16305" pt_clust_6="14000.00000"></scales>
<clustering>
<clus scale="   30.163">  2  5  1 -1</clus>
<clus scale="   54.537">  2  4  1 -1</clus>
<clus scale="   96.716">  2  3  1 -1</clus>
<clus scale="   96.716">  1  3  2 -1</clus>
</clustering>
</event>
<event>
 6    0  0.6207838E+002  0.2361257E+03  0.7546771E-02  0.1122401E+00
         21   -1    0    0  506  501  0.00000000000E+00  0.00000000000E+00  0.10144895090E+04  0.10144895090E+04  0.00000000000E+00 0. -1.
         21   -1    0    0  505  502 -0.00000000000E+00 -0.00000000000E+00 -0.20488147123E+03  0.20488147123E+03  0.00000000000E+00 0. -1.
         21    1    1    2  503  501 -0.12769709396E+03 -0.25837650257E+03  0.13506296182E+03  0.31828755638E+03  0.00000000000E+00 0. -1.
         21    1    1    2  504  502  0.60298523843E+02  0.91124318303E+02  0.51601825747E+02  0.12083998421E+03  0.00000000000E+00 0.  1.
         21    1    1    2  505  503 -0.13593223197E+03  0.53390316740E+02  0.38468752630E+02  0.15102298679E+03  0.00000000000E+00 0. -1.
         21    1    1    2  506  504  0.20333080209E+03  0.11386186753E+03  0.58447449755E+03  0.62922045282E+03  0.00000000000E+00 0. -1.
<scales pt_clust_3="14000.00000" pt_clust_4="109.26826" pt_clust_5="142.93450" pt_clust_6="236.12565"></scales>
<clustering>
<clus scale="  109.268">  2  4  1 -1</clus>
<clus scale="  142.934">  2  5  1 -1</clus>
<clus scale="  236.126">  1  6  2 -1</clus>
<clus scale="  236.126">  1  3  2 -1</clus>
</clustering>
</event>
<event>
 6    0  0.6207838E+002  0.1304509E+03  0.7546771E-02  0.1226788E+00
         21   -1    0    0  504  501  0.00000000000E+00  0.00000000000E+00  0.16585186379E+03  0.16585186379E+03  0.00000000000E+00 0.  1.
         21   -1    0    0  503  502 -0.00000000000E+00 -0.00000000000E+00 -0.47236356373E+03  0.47236356373E+03  0.00000000000E+00 0. -1.
         21    1    1    2  503  505  0.39886497476E+02  0.60563650036E+02 -0.23640249958E+03  0.24727521145E+03  0.00000000000E+00 0. -1.
         21    1    1    2  504  502 -0.28856477772E+02  0.89757204667E+02 -0.43644503808E+02  0.10389367070E+03  0.00000000000E+00 0.  1.
         21    1    1    2  505  506 -0.67817719758E+02 -0.18857263803E+03 -0.62180162829E+02  0.20982196162E+03  0.00000000000E+00 0.  1.
         21    1    1    2  506  501  0.56787700055E+02  0.38251783327E+02  0.35715466278E+02  0.77224583758E+02  0.00000000000E+00 0.  1.
<scales pt_clust_3="75.66967" pt_clust_4="130.45086" pt_clust_5="14000.00000" pt_clust_6="68.46928"></scales>
<clustering>
<clus scale="   68.469">  1  6  2 -1</clus>
<clus scale="   75.670">  2  3  1 -1</clus>
<clus scale="  130.451">  2  4  1 -1</clus>
<clus scale="   68.469">  1  3  2 -1</clus>
</clustering>
</event>
<event>
 6    0  0.6207838E+002  0.2430609E+03  0.7546771E-02  0.1117770E+00
         21   -1    0    0  502  501  0.00000000000E+00  0.00000000000E+00  0.12387259983E+04  0.12387259983E+04  0.00000000000E+00 0.  1.
         21   -1    0    0  504  502 -0.00000000000E+00 -0.00000000000E+00 -0.18861890840E+03  0.18861890840E+03  0.00000000000E+00 0. -1.
         21    1    1    2  503  505  0.16080250425E+03  0.70713271307E+02  0.18973480573E+03  0.25856741600E+03  0.00000000000E+00 0. -1.
         21    1    1    2  504  503  0.50339502121E+02  0.10163412198E+03 -0.11066213591E+03  0.15846030591E+03  0.00000000000E+00 0. -1.
         21    1    1    2  505  506 -0.73782588198E+02 -0.77352833706E+02  0.28911375698E+03  0.30824356551E+03  0.00000000000E+00 0. -1.
         21    1    1    2  506  501 -0.13735941817E+03 -0.94994559586E+02  0.68192066310E+03  0.70207361927E+03  0.00000000000E+00 0.  1.
<scales pt_clust_3="235.64844" pt_clust_4="113.41764" pt_clust_5="47.65781" pt_clust_6="47.65781"></scales>
<clustering>
<clus scale="   47.658">  5  6 -1 -1</clus>
<clus scale="  113.418">  2  4  1 -1</clus>
<clus scale="  235.648">  2  3  1 -1</clus>
<clus scale="  243.061">  1  3  2 -1</clus>
</clustering>
</event>
<event>
 6    0  0.6207838E+002  0.1364740E+03  0.7546771E-02  0.1218154E+00
         21   -1    0    0  503  501  0.00000000000E+00  0.00000000000E+00  0.35780684028E+03  0.35780684028E+03  0.00000000000E+00 0.  1.
         21   -1    0    0  506  502 -0.00000000000E+00 -0.00000000000E+00 -0.56577751383E+03  0.56577751383E+03  0.00000000000E+00 0. -1.
         21    1    1    2  503  504  0.34274170322E+02  0.97998513748E+01  0.32063887253E+03  0.32261438656E+03  0.00000000000E+00 0.  1.
         21    1    1    2  504  505 -0.52364444850E+02  0.12584400996E+02 -0.99477027000E+02  0.11311976456E+03  0.00000000000E+00 0. -1.
         21    1    1    2  505  502 -0.83319635453E+02  0.39353078951E+01 -0.34065655584E+03  0.35072002700E+03  0.00000000000E+00 0. -1.
         21    1    1    2  506  501  0.10140990998E+03 -0.26319560266E+02 -0.88475963251E+02  0.13713017599E+03  0.00000000000E+00 0.  1.
<scales pt_clust_3="35.64766" pt_clust_4="40.97180" pt_clust_5="40.97180" pt_clust_6="126.00966"></scales>
<clustering>
<clus scale="   35.648">  1  3  2 -1</clus>
<clus scale="   40.972">  4  5 -1 -1</clus>
<clus scale="  126.010">  1  6  2 -1</clus>
<clus scale="   35.648">  1  3  2 -1</clus>
</clustering>
</event>
<event>
 6    0  0.6207838E+002  0.7219460E+02  0.7546771E-02  0.1352785E+00
         21   -1    0    0  506  501  0.00000000000E+00  0.00000000000E+00  0.17244813249E+04  0.17244813249E+04  0.00000000000E+00 0. -1.
         21   -1    0    0  504  502 -0.00000000000E+00 -0.00000000000E+00 -0.11286508293E+04  0.11286508293E+04  0.00000000000E+00 0.  1.
         21    1    1    2  503  505 -0.55508008547E+02 -0.35916625877E+02 -0.90756046491E+01  0.66734620902E+02  0.00000000000E+00 0.  1.
         21    1    1    2  504  503  0.29500306469E+02 -0.17030937541E+02 -0.18498433016E+02  0.38762261793E+02  0.00000000000E+00 0.  1.
         21    1    1    2  505  501  0.45527556453E+02 -0.44999041165E+02  0.16825621266E+04  0.16837793745E+04  0.00000000000E+00 0. -1.
         21    1    1    2  506  502 -0.19519854376E+02  0.97946604583E+02 -0.10591575933E+04  0.10638558970E+04  0.00000000000E+00 0.  1.
<scales pt_clust_3="72.19460" pt_clust_4="34.06348" pt_clust_5="64.03129" pt_clust_6="14000.00000"></scales>
<clustering>
<clus scale="   34.063">  2  4  1 -1</clus>
<clus scale="   64.031">  1  5  2 -1</clus>
<clus scale="   72.195">  1  3  2 -1</clus>
<clus scale="   64.031">  1  3  2 -1</clus>
</clustering>
</event>
<event>
 6    0  0.6207838E+002  0.1056844E+03  0.7546771E-02  0.1268777E+00
         21   -1    0    0  505  501  0.00000000000E+00  0.00000000000E+00  0.29049208906E+03  0.29049208906E+03  0.00000000000E+00 0. -1.
         21   -1    0    0  503  502 -0.00000000000E+00 -0.00000000000E+00 -0.20692453485E+03  0.20692453485E+03  0.00000000000E+00 0. -1.
         21    1    1    2  503  506  0.13564548285E+03 -0.81102042759E+01 -0.86250655659E+02  0.16094920948E+03  0.00000000000E+00 0. -1.
         21    1    1    2  504  502 -0.62167261730E+02 -0.43807119988E+02  0.23585379454E+02  0.79624759445E+02  0.00000000000E+00 0.  1.
         21    1    1    2  505  504 -0.37056467025E+02 -0.24387160707E+02  0.16446943948E+03  0.17034703366E+03  0.00000000000E+00 0. -1.
         21    1    1    2  506  501 -0.36421754092E+02  0.76304484972E+02 -0.18236609063E+02  0.86495621323E+02  0.00000000000E+00 0.  1.
<scales pt_clust_3="14000.00000" pt_clust_4="105.68438" pt_clust_5="44.36119" pt_clust_6="83.76596"></scales>
<clustering>
<clus scale="   44.361">  1  5  2 -1</clus>
<clus scale="   83.766">  1  6  2 -1</clus>
<clus scale="  105.684">  1  4  2 -1</clus>
<clus scale="   44.361">  1  3  2 -1</clus>
</clustering>
</event>
<event>
 6    0  0.6207838E+002  0.9567283E+02  0.7546771E-02  0.1289668E+00
         21   -1    0    0  504  501  0.00000000000E+00  0.00000000000E+00  0.55532215717E+02  0.55532215717E+02  0.00000000000E+00 0.  1.
         21   -1    0    0  506  502 -0.00000000000E+00 -0.00000000000E+00 -0.11021403662E+04  0.11021403662E+04  0.00000000000E+00 0. -1.
         21    1    1    2  503  502 -0.53067643643E+02 -0.51421520132E+02 -0.32519731435E+03  0.33348709239E+03  0.00000000000E+00 0. -1.
         21    1    1    2  504  505 -0.10387977949E+02 -0.50777383386E+02 -0.86763888425E+02  0.10106544951E+03  0.00000000000E+00 0.  1.
         21    1    1    2  505  503  0.10141231976E+03  0.79190051324E+02 -0.65971427494E+03  0.67214466255E+03  0.00000000000E+00 0. -1.
         21    1    1    2  506  501 -0.37956698163E+02  0.23008852194E+02  0.25067327225E+02  0.50975377477E+02  0.00000000000E+00 0.  1.
<scales pt_clust_3="95.67283" pt_clust_4="48.81204" pt_clust_5="14000.00000" pt_clust_6="44.38601"></scales>
<clustering>
<clus scale="   44.386">  1  6  2 -1</clus>
<clus scale="   48.812">  1  4  2 -1</clus>
<clus scale="   95.673">  2  3  1 -1</clus>
<clus scale="   44.386">  1  3  2 -1</clus>
</clustering>
</event>
<event>
 6    0  0.6207838E+002  0.1858153E+03  0.7546771E-02  0.1162291E+00
         21   -1    0    0  502  501  0.00000000000E+00  0.00000000000E+00  0.10328022534E+03  0.10328022534E+03  0.00000000000E+00 0.  1.
         21   -1    0    0  504  502 -0.00000000000E+00 -0.00000000000E+00 -0.65881507815E+03  0.65881507815E+03  0.00000000000E+00 0.  1.
         21    1    1    2  503  501  0.13253945925E+03 -0.12523113966E+03 -0.31830194772E+02  0.18510188519E+03  0.00000000000E+00 0.  1.
         21    1    1    2  504  506 -0.41653747360E+02 -0.67504938886E+01 -0.25403027523E+03  0.25751113484E+03  0.00000000000E+00 0.  1.
         21    1    1    2  505  503 -0.66322796038E+02  0.75671598996E+02 -0.11362035774E+03  0.15177117599E+03  0.00000000000E+00 0.  1.
         21    1    1    2  506  505 -0.24562915855E+02  0.56310034555E+02 -0.15605402508E+03  0.16771110747E+03  0.00000000000E+00 0.  1.
<scales pt_clust_3="175.67598" pt_clust_4="42.19720" pt_clust_5="47.77994" pt_clust_6="47.77994"></scales>
<clustering>
<clus scale="   42.197">  2  4  1 -1</clus>
<clus scale="   47.780">  5  6 -1 -1</clus>
<clus scale="  175.676">  1  3  2 -1</clus>
<clus scale="  175.676">  1  3  2 -1</clus>
</clustering>
</event>
<event>
 6    0  0.6207838E+002  0.1759082E+03  0.7546771E-02  0.1171823E+00
         21   -1    0    0  506  501  0.00000000000E+00  0.00000000000E+00  0.56204046880E+02  0.56204046880E+02  0.00000000000E+00 0. -1.
         21   -1    0    0  503  502 -0.00000000000E+00 -0.00000000000E+00 -0.21572968049E+04  0.21572968049E+04  0.00000000000E+00 0. -1.
         21    1    1    2  503  505  0.11641111235E+03  0.10827957321E+03 -0.93519204902E+03  0.94860960442E+03  0.00000000000E+00 0. -1.
         21    1    1    2  504  501 -0.29782104038E+02 -0.42268991753E+02 -0.20174314960E+02  0.55503552758E+02  0.00000000000E+00 0. -1.
         21    1    1    2  505  504 -0.22942035529E+03 -0.16842411266E+01 -0.72638338661E+03  0.76175413384E+03  0.00000000000E+00 0. -1.
         21    1    1    2  506  502  0.14279134697E+03 -0.64326340331E+02 -0.41934300742E+03  0.44763356074E+03  0.00000000000E+00 0. -1.
<scales pt_clust_3="150.18841" pt_clust_4="51.70727" pt_clust_5="14000.00000" pt_clust_6="175.90823"></scales>
<clustering>
<clus scale="   51.707">  1  4  2 -1</clus>
<clus scale="  150.188">  2  3  1 -1</clus>
<clus scale="  175.908">  1  6  2 -1</clus>
<clus scale="   51.707">  1  3  2 -1</clus>
</clustering>
</event>
<event>
 6    0  0.6207838E+002  0.1306650E+03  0.7546771E-02  0.1226472E+00
         21   -1    0    0  504  501  0.00000000000E+00  0.00000000000E+00  0.51179500208E+02  0.51179500208E+02  0.00000000000E+00 0.  1.
         21   -1    0    0  506  502 -0.00000000000E+00 -0.00000000000E+00 -0.94635098233E+03  0.94635098233E+03  0.00000000000E+00 0.  1.
         21    1    1    2  503  501  0.82229638336E+02  0.86778946698E+02 -0.45830015264E+02  0.12803393812E+03  0.00000000000E+00 0.  1.
         21    1    1    2  504  505 -0.61902411147E+02 -0.41489653467E+02 -0.21893705932E+03  0.23127199526E+03  0.00000000000E+00 0.  1.
         21    1    1    2  505  502 -0.53652389440E+02 -0.18242385804E+02 -0.35323947672E+03  0.35775618995E+03  0.00000000000E+00 0.  1.
         21    1    1    2  506  503  0.33325162250E+02 -0.27046907427E+02 -0.27716493083E+03  0.28046835922E+03  0.00000000000E+00 0.  1.
<scales pt_clust_3="120.10810" pt_clust_4="42.35556" pt_clust_5="42.35556" pt_clust_6="42.91971"></scales>
<clustering>
<clus scale="   42.920">  2  6  1 -1</clus>
<clus scale="   42.356">  4  5 -1 -1</clus>
<clus scale="  120.108">  1  3  2 -1</clus>
<clus scale="  120.108">  1  3  2 -1</clus>
</clustering>
</event>
<event>
 6    0  0.6207838E+002  0.9222821E+02  0.7546771E-02  0.1297544E+00
         21   -1    0    0  503  501  0.00000000000E+00  0.00000000000E+00  0.30008555513E+03  0.30008555513E+03  0.00000000000E+00 0. -1.
         21   -1    0    0  504  502 -0.00000000000E+00 -0.00000000000E+00 -0.19801595906E+03  0.19801595906E+03  0.00000000000E+00 0. -1.
         21    1    1    2  503  505 -0.28589368104E+02  0.91006724354E+02  0.24597459800E+03  0.26382395401E+03  0.00000000000E+00 0. -1.
         21    1    1    2  504  506 -0.40086896716E+01 -0.37077676189E+02 -0.30514780206E+02  0.48186880740E+02  0.00000000000E+00 0.  1.
         21    1    1    2  505  502  0.72269288157E+02 -0.25830975998E+02 -0.11405496380E+03  0.13747226666E+03  0.00000000000E+00 0. -1.
         21    1    1    2  506  501 -0.39671230381E+02 -0.28098072167E+02  0.66474207694E+00  0.48618412782E+02  0.00000000000E+00 0. -1.
<scales pt_clust_3="14000.00000" pt_clust_4="37.29375" pt_clust_5="92.22821" pt_clust_6="52.51668"></scales>
<clustering>
<clus scale="   37.294">  2  4  1 -1</clus>
<clus scale="   52.517">  2  6  1 -1</clus>
<clus scale="   92.228">  2  5  1 -1</clus>
<clus scale="   92.228">  1  3  2 -1</clus>
</clustering>
</event>
<event>
 6    0  0.6207838E+002  0.3573584E+03  0.7546771E-02  0.1059635E+00
         21   -1    0    0  506  501  0.00000000000E+00  0.00000000000E+00  0.13799979901E+03  0.13799979901E+03  0.00000000000E+00 0.  1.
         21   -1    0    0  503  502 -0.00000000000E+00 -0.00000000000E+00 -0.89617891371E+03  0.89617891371E+03  0.00000000000E+00 0. -1.
         21    1    1    2  503  501  0.30591902612E+03 -0.13906410998E+03 -0.45435079890E+03  0.56511939065E+03  0.00000000000E+00 0. -1.
         21    1    1    2  504  505 -0.11976864966E+03  0.58937859633E+02 -0.10260175047E+03  0.16836068407E+03  0.00000000000E+00 0.  1.
         21    1    1    2  505  502 -0.74757709747E+02  0.61102321866E+02 -0.14570160279E+03  0.17478891830E+03  0.00000000000E+00 0.  1.
         21    1    1    2  506  504 -0.11139266671E+03  0.19023928477E+02 -0.55524962530E+02  0.12590971970E+03  0.00000000000E+00 0.  1.
<scales pt_clust_3="336.04356" pt_clust_4="68.64055" pt_clust_5="68.64055" pt_clust_6="41.93685"></scales>
<clustering>
<clus scale="   41.937">  4  6 -1 -1</clus>
<clus scale="   68.641">  4  5 -1 -1</clus>
<clus scale="  336.044">  2  3  1 -1</clus>
<clus scale="  357.358">  1  3  2 -1</clus>
</clustering>
</event>
<event>
 6    0  0.6207838E+002  0.8066346E+02  0.7546771E-02  0.1327179E+00
         21   -1    0    0  506  501  0.00000000000E+00  0.00000000000E+00  0.14183173482E+02  0.14183173482E+02  0.00000000000E+00 0.  1.
         21   -1    0    0  505  502 -0.00000000000E+00 -0.00000000000E+00 -0.18410777782E+04  0.18410777782E+04  0.00000000000E+00 0.  1.
         21    1    1    2  503  501  0.82469247950E+02  0.40263246289E+02 -0.22245554359E+03  0.24064242089E+03  0.00000000000E+00 0.  1.
         21    1    1    2  504  502  0.27281957189E+02  0.13714875336E+02 -0.28088281241E+03  0.28253770952E+03  0.00000000000E+00 0.  1.
         21    1    1    2  505  503 -0.64019866143E+02 -0.51396507913E+01 -0.97801550235E+03  0.98012207510E+03  0.00000000000E+00 0.  1.
         21    1    1    2  506  504 -0.45731338997E+02 -0.48838470834E+02 -0.34554074634E+03  0.35195874614E+03  0.00000000000E+00 0.  1.
<scales pt_clust_3="14000.00000" pt_clust_4="30.53527" pt_clust_5="47.01886" pt_clust_6="80.66346"></scales>
<clustering>
<clus scale="   30.535">  2  4  1 -1</clus>
<clus scale="   47.019">  2  5  1 -1</clus>
<clus scale="   80.663">  2  6  1 -1</clus>
<clus scale="   80.663">  1  3  2 -1</clus>
</clustering>
</event>
<event>
 6    0  0.6207838E+002  0.3221873E+03  0.7546771E-02  0.1074647E+00
         21   -1    0    0  504  501  0.00000000000E+00  0.00000000000E+00  0.85712135651E+03  0.85712135651E+03  0.00000000000E+00 0. -1.
         21   -1    0    0  506  502 -0.00000000000E+00 -0.00000000000E+00 -0.17570484728E+03  0.17570484728E+03  0.00000000000E+00 0. -1.
         21    1    1    2  503  501  0.25818026392E+03 -0.15358857964E+03  0.29077135014E+03  0.41808429597E+03  0.00000000000E+00 0. -1.
         21    1    1    2  504  505 -0.26246695615E+02  0.79087301672E+02  0.21691405854E+03  0.23236910102E+03  0.00000000000E+00 0.  1.
         21    1    1    2  505  502 -0.27616030737E+03  0.91633436384E+02  0.16384031793E+03  0.33392342207E+03  0.00000000000E+00 0. -1.
         21    1    1    2  506  503  0.44226739064E+02 -0.17132158413E+02  0.98907826132E+01  0.48449384731E+02  0.00000000000E+00 0. -1.
<scales pt_clust_3="32.42758" pt_clust_4="83.32881" pt_clust_5="311.67975" pt_clust_6="32.42758"></scales>
<clustering>
<clus scale="   32.428">  3  6 -1 -1</clus>
<clus scale="   83.329">  1  4  2 -1</clus>
<clus scale="  311.680">  2  5  1 -1</clus>
<clus scale="   83.329">  1  3  2 -1</clus>
</clustering>
</event>
<event>
 6    0  0.6207838E+002  0.8349559E+02  0.7546771E-02  0.1319414E+00
         21   -1    0    0  505  501  0.00000000000E+00  0.00000000000E+00  0.16322250172E+03  0.16322250172E+03  0.00000000000E+00 0. -1.
         21   -1    0    0  504  502 -0.00000000000E+00 -0.00000000000E+00 -0.50916073410E+03  0.50916073410E+03  0.00000000000E+00 0. -1.
         21    1    1    2  503  502 -0.50185600186E+02 -0.40163284469E+02 -0.23241652294E+03  0.24114129473E+03  0.00000000000E+00 0. -1.
         21    1    1    2  504  506  0.58743414288E+02 -0.68046617664E+01 -0.69900884941E+02  0.91559957730E+02  0.00000000000E+00 0. -1.
         21    1    1    2  505  503 -0.61139631695E+02  0.68847735434E+01 -0.17885968308E+03  0.18914608350E+03  0.00000000000E+00 0. -1.
         21    1    1    2  506  501  0.52581817593E+02  0.40083172692E+02  0.13523885859E+03  0.15053589986E+03  0.00000000000E+00 0. -1.
<scales pt_clust_3="48.90169" pt_clust_4="59.13622" pt_clust_5="48.90169" pt_clust_6="66.88177"></scales>
<clustering>
<clus scale="   48.902">  3  5 -1 -1</clus>
<clus scale="   59.136">  2  4  1 -1</clus>
<clus scale="   66.882">  1  6  2 -1</clus>
<clus scale="   66.882">  1  3  2 -1</clus>
</clustering>
</event>
<event>
 6    0  0.6207838E+002  0.2593353E+03  0.7546771E-02  0.1107543E+00
         21   -1    0    0  505  501  0.00000000000E+00  0.00000000000E+00  0.29349781537E+04  0.29349781537E+04  0.00000000000E+00 0.  1.
         21   -1    0    0  504  502 -0.00000000000E+00 -0.00000000000E+00 -0.66444562915E+02  0.66444562915E+02  0.00000000000E+00 0.  1.
         21    1    1    2  503  501  0.83914022012E+01  0.31180656973E+02  0.84003682174E+03  0.84065718987E+03  0.00000000000E+00 0.  1.
         21    1    1    2  504  503 -0.15152442583E+02  0.26800029704E+03  0.30171568135E+03  0.40383921070E+03  0.00000000000E+00 0.  1.
         21    1    1    2  505  506 -0.32867666055E+02 -0.69169635899E+02  0.68789490049E+03  0.69214457747E+03  0.00000000000E+00 0.  1.
         21    1    1    2  506  502  0.39628706437E+02 -0.23001131811E+03  0.10388861872E+04  0.10647817386E+04  0.00000000000E+00 0.  1.
<scales pt_clust_3="32.29008" pt_clust_4="259.33530" pt_clust_5="66.14520" pt_clust_6="14000.00000"></scales>
<clustering>
<clus scale="   32.290">  1  3  2 -1</clus>
<clus scale="   66.145">  1  5  2 -1</clus>
<clus scale="  259.335">  2  4  1 -1</clus>
<clus scale="   32.290">  1  3  2 -1</clus>
</clustering>
</event>
