<event>
 3    0  0.4580101E-005  0.9118800E+02  0.7546771E-02  0.1235069E+00
         25   -1    0    0    0    0  0.00000000000E+00  0.00000000000E+00  0.99999998245E-14  0.12500000000E+03  0.12500000000E+03 0.  0.
          5    1    1    0  501    0  0.40359181839E+02  0.35878457386E+02  0.31113224469E+02  0.62500000000E+02  0.47000000000E+01 0.  1.
         -5    1    1    0    0  501 -0.40359181839E+02 -0.35878457386E+02 -0.31113224469E+02  0.62500000000E+02  0.47000000000E+01 0.  1.
</event>
<event>
 3    0  0.4580101E-005  0.9118800E+02  0.7546771E-02  0.1235069E+00
         25   -1    0    0    0    0  0.00000000000E+00  0.00000000000E+00  0.99999998245E-14  0.12500000000E+03  0.12500000000E+03 0.  0.
          5    1    1    0  501    0 -0.28178446923E+02 -0.18973027949E+02 -0.52250926685E+02  0.62500000000E+02  0.47000000000E+01 0.  1.
         -5    1    1    0    0  501  0.28178446923E+02  0.18973027949E+02  0.52250926685E+02  0.62500000000E+02  0.47000000000E+01 0.  1.
</event>
<event>
 3    0  0.4580101E-005  0.9118800E+02  0.7546771E-02  0.1235069E+00
         25   -1    0    0    0    0  0.00000000000E+00  0.00000000000E+00  0.99999998245E-14  0.12500000000E+03  0.12500000000E+03 0.  0.
          5    1    1    0  501    0 -0.28027387828E+02 -0.26573078448E+02 -0.48913158080E+02  0.62500000000E+02  0.47000000000E+01 0.  1.
         -5    1    1    0    0  501  0.28027387828E+02  0.26573078448E+02  0.48913158080E+02  0.62500000000E+02  0.47000000000E+01 0.  1.
</event>
<event>
 3    0  0.4580101E-005  0.9118800E+02  0.7546771E-02  0.1235069E+00
         25   -1    0    0    0    0  0.00000000000E+00  0.00000000000E+00  0.99999998245E-14  0.12500000000E+03  0.12500000000E+03 0.  0.
          5    1    1    0  501    0  0.33955174314E+02  0.20374768260E+02  0.48125616419E+02  0.62500000000E+02  0.47000000000E+01 0. -1.
         -5    1    1    0    0  501 -0.33955174314E+02 -0.20374768260E+02 -0.48125616419E+02  0.62500000000E+02  0.47000000000E+01 0. -1.
</event>
<event>
 3    0  0.4580101E-005  0.9118800E+02  0.7546771E-02  0.1235069E+00
         25   -1    0    0    0    0  0.00000000000E+00  0.00000000000E+00  0.99999998245E-14  0.12500000000E+03  0.12500000000E+03 0.  0.
          5    1    1    0  501    0 -0.59761688451E+02  0.14195928089E+02  0.10544013428E+02  0.62500000000E+02  0.47000000000E+01 0.  1.
         -5    1    1    0    0  501  0.59761688451E+02 -0.14195928089E+02 -0.10544013428E+02  0.62500000000E+02  0.47000000000E+01 0.  1.
</event>
<event>
 3    0  0.4580101E-005  0.9118800E+02  0.7546771E-02  0.1235069E+00
         25   -1    0    0    0    0  0.00000000000E+00  0.00000000000E+00  0.99999998245E-14  0.12500000000E+03  0.12500000000E+03 0.  0.
          5    1    1    0  501    0 -0.10654744488E+02 -0.24992200351E+02 -0.56089449467E+02  0.62500000000E+02  0.47000000000E+01 0. -1.
         -5    1    1    0    0  501  0.10654744488E+02  0.24992200351E+02  0.56089449467E+02  0.62500000000E+02  0.47000000000E+01 0. -1.
</event>
<event>
 3    0  0.4580101E-005  0.9118800E+02  0.7546771E-02  0.1235069E+00
         25   -1    0    0    0    0  0.00000000000E+00  0.00000000000E+00  0.99999998245E-14  0.12500000000E+03  0.12500000000E+03 0.  0.
          5    1    1    0  501    0  0.69355415974E+01  0.23589704080E+02  0.57267653384E+02  0.62500000000E+02  0.47000000000E+01 0.  1.
         -5    1    1    0    0  501 -0.69355415974E+01 -0.23589704080E+02 -0.57267653384E+02  0.62500000000E+02  0.47000000000E+01 0.  1.
</event>
<event>
 3    0  0.4580101E-005  0.9118800E+02  0.7546771E-02  0.1235069E+00
         25   -1    0    0    0    0  0.00000000000E+00  0.00000000000E+00  0.99999998245E-14  0.12500000000E+03  0.12500000000E+03 0.  0.
          5    1    1    0  501    0 -0.47402084716E+02 -0.29828429044E+02  0.27339846110E+02  0.62500000000E+02  0.47000000000E+01 0.  1.
         -5    1    1    0    0  501  0.47402084716E+02  0.29828429044E+02 -0.27339846110E+02  0.62500000000E+02  0.47000000000E+01 0.  1.
</event>
<event>
 3    0  0.4580101E-005  0.9118800E+02  0.7546771E-02  0.1235069E+00
         25   -1    0    0    0    0  0.00000000000E+00  0.00000000000E+00  0.99999998245E-14  0.12500000000E+03  0.12500000000E+03 0.  0.
          5    1    1    0  501    0  0.44238451306E+02 -0.37344410778E+02 -0.23076273739E+02  0.62500000000E+02  0.47000000000E+01 0. -1.
         -5    1    1    0    0  501 -0.44238451306E+02  0.37344410778E+02  0.23076273739E+02  0.62500000000E+02  0.47000000000E+01 0. -1.
</event>
<event>
 3    0  0.4580101E-005  0.9118800E+02  0.7546771E-02  0.1235069E+00
         25   -1    0    0    0    0  0.00000000000E+00  0.00000000000E+00  0.99999998245E-14  0.12500000000E+03  0.12500000000E+03 0.  0.
          5    1    1    0  501    0 -0.50600573207E+02 -0.21684208802E+02 -0.29215356916E+02  0.62500000000E+02  0.47000000000E+01 0.  1.
         -5    1    1    0    0  501  0.50600573207E+02  0.21684208802E+02  0.29215356916E+02  0.62500000000E+02  0.47000000000E+01 0.  1.
</event>
<event>
 3    0  0.4580101E-005  0.9118800E+02  0.7546771E-02  0.1235069E+00
         25   -1    0    0    0    0  0.00000000000E+00  0.00000000000E+00  0.99999998245E-14  0.12500000000E+03  0.12500000000E+03 0.  0.
          5    1    1    0  501    0  0.99466470105E+01  0.55584603728E+02 -0.26373775643E+02  0.62500000000E+02  0.47000000000E+01 0.  1.
         -5    1    1    0    0  501 -0.99466470105E+01 -0.55584603728E+02  0.26373775643E+02  0.62500000000E+02  0.47000000000E+01 0.  1.
</event>
<event>
 3    0  0.4580101E-005  0.9118800E+02  0.7546771E-02  0.1235069E+00
         25   -1    0    0    0    0  0.00000000000E+00  0.00000000000E+00  0.99999998245E-14  0.12500000000E+03  0.12500000000E+03 0.  0.
          5    1    1    0  501    0 -0.13035937362E+02  0.60719968168E+02 -0.52258781836E+01  0.62500000000E+02  0.47000000000E+01 0. -1.
         -5    1    1    0    0  501  0.13035937362E+02 -0.60719968168E+02  0.52258781836E+01  0.62500000000E+02  0.47000000000E+01 0. -1.
</event>
<event>
 3    0  0.4580101E-005  0.9118800E+02  0.7546771E-02  0.1235069E+00
         25   -1    0    0    0    0  0.00000000000E+00  0.00000000000E+00  0.99999998245E-14  0.12500000000E+03  0.12500000000E+03 0.  0.
          5    1    1    0  501    0  0.59665489937E+02 -0.16884702057E+02 -0.62526911782E+01  0.62500000000E+02  0.47000000000E+01 0.  1.
         -5    1    1    0    0  501 -0.59665489937E+02  0.16884702057E+02  0.62526911782E+01  0.62500000000E+02  0.47000000000E+01 0.  1.
</event>
<event>
 3    0  0.4580101E-005  0.9118800E+02  0.7546771E-02  0.1235069E+00
         25   -1    0    0    0    0  0.00000000000E+00  0.00000000000E+00  0.99999998245E-14  0.12500000000E+03  0.12500000000E+03 0.  0.
          5    1    1    0  501    0  0.32686754296E+02  0.17632880084E+02  0.50048153148E+02  0.62500000000E+02  0.47000000000E+01 0. -1.
         -5    1    1    0    0  501 -0.32686754296E+02 -0.17632880084E+02 -0.50048153148E+02  0.62500000000E+02  0.47000000000E+01 0. -1.
</event>
<event>
 3    0  0.4580101E-005  0.9118800E+02  0.7546771E-02  0.1235069E+00
         25   -1    0    0    0    0  0.00000000000E+00  0.00000000000E+00  0.99999998245E-14  0.12500000000E+03  0.12500000000E+03 0.  0.
          5    1    1    0  501    0 -0.25142725797E+02  0.38768751229E+02 -0.41820895108E+02  0.62500000000E+02  0.47000000000E+01 0.  1.
         -5    1    1    0    0  501  0.25142725797E+02 -0.38768751229E+02  0.41820895108E+02  0.62500000000E+02  0.47000000000E+01 0.  1.
</event>
<event>
 3    0  0.4580101E-005  0.9118800E+02  0.7546771E-02  0.1235069E+00
         25   -1    0    0    0    0  0.00000000000E+00  0.00000000000E+00  0.99999998245E-14  0.12500000000E+03  0.12500000000E+03 0.  0.
          5    1    1    0  501    0  0.58071279120E+02 -0.22158752218E+02  0.45690525850E+01  0.62500000000E+02  0.47000000000E+01 0. -1.
         -5    1    1    0    0  501 -0.58071279120E+02  0.22158752218E+02 -0.45690525850E+01  0.62500000000E+02  0.47000000000E+01 0. -1.
</event>
<event>
 3    0  0.4580101E-005  0.9118800E+02  0.7546771E-02  0.1235069E+00
         25   -1    0    0    0    0  0.00000000000E+00  0.00000000000E+00  0.99999998245E-14  0.12500000000E+03  0.12500000000E+03 0.  0.
          5    1    1    0  501    0 -0.63918163749E+01  0.61538758042E+02  0.75023957595E+01  0.62500000000E+02  0.47000000000E+01 0.  1.
         -5    1    1    0    0  501  0.63918163749E+01 -0.61538758042E+02 -0.75023957595E+01  0.62500000000E+02  0.47000000000E+01 0.  1.
</event>
<event>
 3    0  0.4580101E-005  0.9118800E+02  0.7546771E-02  0.1235069E+00
         25   -1    0    0    0    0  0.00000000000E+00  0.00000000000E+00  0.99999998245E-14  0.12500000000E+03  0.12500000000E+03 0.  0.
          5    1    1    0  501    0 -0.61549490186E+02  0.97817118744E+01 -0.37198209758E+00  0.62500000000E+02  0.47000000000E+01 0.  1.
         -5    1    1    0    0  501  0.61549490186E+02 -0.97817118744E+01  0.37198209758E+00  0.62500000000E+02  0.47000000000E+01 0.  1.
</event>
<event>
 3    0  0.4580101E-005  0.9118800E+02  0.7546771E-02  0.1235069E+00
         25   -1    0    0    0    0  0.00000000000E+00  0.00000000000E+00  0.99999998245E-14  0.12500000000E+03  0.12500000000E+03 0.  0.
          5    1    1    0  501    0  0.33578930286E+02 -0.38151061990E+02  0.36070928875E+02  0.62500000000E+02  0.47000000000E+01 0.  1.
         -5    1    1    0    0  501 -0.33578930286E+02  0.38151061990E+02 -0.36070928875E+02  0.62500000000E+02  0.47000000000E+01 0.  1.
</event>
<event>
 3    0  0.4580101E-005  0.9118800E+02  0.7546771E-02  0.1235069E+00
         25   -1    0    0    0    0  0.00000000000E+00  0.00000000000E+00  0.99999998245E-14  0.12500000000E+03  0.12500000000E+03 0.  0.
          5    1    1    0  501    0 -0.45775063370E+00  0.41217184960E+02 -0.46744990409E+02  0.62500000000E+02  0.47000000000E+01 0. -1.
         -5    1    1    0    0  501  0.45775063370E+00 -0.41217184960E+02  0.46744990409E+02  0.62500000000E+02  0.47000000000E+01 0. -1.
</event>
<event>
 3    0  0.4580101E-005  0.9118800E+02  0.7546771E-02  0.1235069E+00
         25   -1    0    0    0    0  0.00000000000E+00  0.00000000000E+00  0.99999998245E-14  0.12500000000E+03  0.12500000000E+03 0.  0.
          5    1    1    0  501    0  0.37747697857E+02  0.36076882430E+02 -0.34025429617E+02  0.62500000000E+02  0.47000000000E+01 0.  1.
         -5    1    1    0    0  501 -0.37747697857E+02 -0.36076882430E+02  0.34025429617E+02  0.62500000000E+02  0.47000000000E+01 0.  1.
</event>
<event>
 3    0  0.4580101E-005  0.9118800E+02  0.7546771E-02  0.1235069E+00
         25   -1    0    0    0    0  0.00000000000E+00  0.00000000000E+00  0.99999998245E-14  0.12500000000E+03  0.12500000000E+03 0.  0.
          5    1    1    0  501    0 -0.41318027867E+02 -0.35815865204E+02  0.29903250206E+02  0.62500000000E+02  0.47000000000E+01 0. -1.
         -5    1    1    0    0  501  0.41318027867E+02  0.35815865204E+02 -0.29903250206E+02  0.62500000000E+02  0.47000000000E+01 0. -1.
</event>
<event>
 3    0  0.4580101E-005  0.9118800E+02  0.7546771E-02  0.1235069E+00
         25   -1    0    0    0    0  0.00000000000E+00  0.00000000000E+00  0.99999998245E-14  0.12500000000E+03  0.12500000000E+03 0.  0.
          5    1    1    0  501    0 -0.26661961874E+02  0.22392017395E+02 -0.51690398973E+02  0.62500000000E+02  0.47000000000E+01 0. -1.
         -5    1    1    0    0  501  0.26661961874E+02 -0.22392017395E+02  0.51690398973E+02  0.62500000000E+02  0.47000000000E+01 0. -1.
</event>
<event>
 3    0  0.4580101E-005  0.9118800E+02  0.7546771E-02  0.1235069E+00
         25   -1    0    0    0    0  0.00000000000E+00  0.00000000000E+00  0.99999998245E-14  0.12500000000E+03  0.12500000000E+03 0.  0.
          5    1    1    0  501    0  0.26060126524E+01 -0.54199134049E+02  0.30656525674E+02  0.62500000000E+02  0.47000000000E+01 0.  1.
         -5    1    1    0    0  501 -0.26060126524E+01  0.54199134049E+02 -0.30656525674E+02  0.62500000000E+02  0.47000000000E+01 0.  1.
</event>
<event>
 3    0  0.4580101E-005  0.9118800E+02  0.7546771E-02  0.1235069E+00
         25   -1    0    0    0    0  0.00000000000E+00  0.00000000000E+00  0.99999998245E-14  0.12500000000E+03  0.12500000000E+03 0.  0.
          5    1    1    0  501    0  0.52465436845E+02 -0.13499488623E+02  0.30810740717E+02  0.62500000000E+02  0.47000000000E+01 0.  1.
         -5    1    1    0    0  501 -0.52465436845E+02  0.13499488623E+02 -0.30810740717E+02  0.62500000000E+02  0.47000000000E+01 0.  1.
</event>
<event>
 3    0  0.4580101E-005  0.9118800E+02  0.7546771E-02  0.1235069E+00
         25   -1    0    0    0    0  0.00000000000E+00  0.00000000000E+00  0.99999998245E-14  0.12500000000E+03  0.12500000000E+03 0.  0.
          5    1    1    0  501    0  0.58710827865E+01 -0.25105110319E+02  0.56739966715E+02  0.62500000000E+02  0.47000000000E+01 0.  1.
         -5    1    1    0    0  501 -0.58710827865E+01  0.25105110319E+02 -0.56739966715E+02  0.62500000000E+02  0.47000000000E+01 0.  1.
</event>
<event>
 3    0  0.4580101E-005  0.9118800E+02  0.7546771E-02  0.1235069E+00
         25   -1    0    0    0    0  0.00000000000E+00  0.00000000000E+00  0.99999998245E-14  0.12500000000E+03  0.12500000000E+03 0.  0.
          5    1    1    0  501    0  0.47915629308E+02 -0.24954623117E+02 -0.31072805685E+02  0.62500000000E+02  0.47000000000E+01 0.  1.
         -5    1    1    0    0  501 -0.47915629308E+02  0.24954623117E+02  0.31072805685E+02  0.62500000000E+02  0.47000000000E+01 0.  1.
</event>
<event>
 3    0  0.4580101E-005  0.9118800E+02  0.7546771E-02  0.1235069E+00
         25   -1    0    0    0    0  0.00000000000E+00  0.00000000000E+00  0.99999998245E-14  0.12500000000E+03  0.12500000000E+03 0.  0.
          5    1    1    0  501    0  0.25920295159E+02 -0.12812259861E+02  0.55210001776E+02  0.62500000000E+02  0.47000000000E+01 0. -1.
         -5    1    1    0    0  501 -0.25920295159E+02  0.12812259861E+02 -0.55210001776E+02  0.62500000000E+02  0.47000000000E+01 0. -1.
</event>
<event>
 3    0  0.4580101E-005  0.9118800E+02  0.7546771E-02  0.1235069E+00
         25   -1    0    0    0    0  0.00000000000E+00  0.00000000000E+00  0.99999998245E-14  0.12500000000E+03  0.12500000000E+03 0.  0.
          5    1    1    0  501    0 -0.58541792941E+01  0.49274083011E+02  0.37708796431E+02  0.62500000000E+02  0.47000000000E+01 0. -1.
         -5    1    1    0    0  501  0.58541792941E+01 -0.49274083011E+02 -0.37708796431E+02  0.62500000000E+02  0.47000000000E+01 0. -1.
</event>
<event>
 3    0  0.4580101E-005  0.9118800E+02  0.7546771E-02  0.1235069E+00
         25   -1    0    0    0    0  0.00000000000E+00  0.00000000000E+00  0.99999998245E-14  0.12500000000E+03  0.12500000000E+03 0.  0.
          5    1    1    0  501    0 -0.29524098484E+02 -0.54831363545E+02  0.24513629870E+01  0.62500000000E+02  0.47000000000E+01 0.  1.
         -5    1    1    0    0  501  0.29524098484E+02  0.54831363545E+02 -0.24513629870E+01  0.62500000000E+02  0.47000000000E+01 0.  1.
</event>
<event>
 3    0  0.4580101E-005  0.9118800E+02  0.7546771E-02  0.1235069E+00
         25   -1    0    0    0    0  0.00000000000E+00  0.00000000000E+00  0.99999998245E-14  0.12500000000E+03  0.12500000000E+03 0.  0.
          5    1    1    0  501    0  0.18845957724E+02  0.33643340656E+02 -0.48960346271E+02  0.62500000000E+02  0.47000000000E+01 0.  1.
         -5    1    1    0    0  501 -0.18845957724E+02 -0.33643340656E+02  0.48960346271E+02  0.62500000000E+02  0.47000000000E+01 0.  1.
</event>
<event>
 3    0  0.4580101E-005  0.9118800E+02  0.7546771E-02  0.1235069E+00
         25   -1    0    0    0    0  0.00000000000E+00  0.00000000000E+00  0.99999998245E-14  0.12500000000E+03  0.12500000000E+03 0.  0.
          5    1    1    0  501    0 -0.35881692080E+02  0.29202491080E+02  0.41759773565E+02  0.62500000000E+02  0.47000000000E+01 0. -1.
         -5    1    1    0    0  501  0.35881692080E+02 -0.29202491080E+02 -0.41759773565E+02  0.62500000000E+02  0.47000000000E+01 0. -1.
</event>
<event>
 3    0  0.4580101E-005  0.9118800E+02  0.7546771E-02  0.1235069E+00
         25   -1    0    0    0    0  0.00000000000E+00  0.00000000000E+00  0.99999998245E-14  0.12500000000E+03  0.12500000000E+03 0.  0.
          5    1    1    0  501    0  0.46682206169E+02 -0.41290700768E+02 -0.98271283974E-01  0.62500000000E+02  0.47000000000E+01 0. -1.
         -5    1    1    0    0  501 -0.46682206169E+02  0.41290700768E+02  0.98271283974E-01  0.62500000000E+02  0.47000000000E+01 0. -1.
</event>
<event>
 3    0  0.4580101E-005  0.9118800E+02  0.7546771E-02  0.1235069E+00
         25   -1    0    0    0    0  0.00000000000E+00  0.00000000000E+00  0.99999998245E-14  0.12500000000E+03  0.12500000000E+03 0.  0.
          5    1    1    0  501    0  0.27748192723E+02  0.33607999726E+02  0.44549973682E+02  0.62500000000E+02  0.47000000000E+01 0.  1.
         -5    1    1    0    0  501 -0.27748192723E+02 -0.33607999726E+02 -0.44549973682E+02  0.62500000000E+02  0.47000000000E+01 0.  1.
</event>
<event>
 3    0  0.4580101E-005  0.9118800E+02  0.7546771E-02  0.1235069E+00
         25   -1    0    0    0    0  0.00000000000E+00  0.00000000000E+00  0.99999998245E-14  0.12500000000E+03  0.12500000000E+03 0.  0.
          5    1    1    0  501    0 -0.49582542505E+02  0.15770503410E+02 -0.34307764441E+02  0.62500000000E+02  0.47000000000E+01 0. -1.
         -5    1    1    0    0  501  0.49582542505E+02 -0.15770503410E+02  0.34307764441E+02  0.62500000000E+02  0.47000000000E+01 0. -1.
</event>
<event>
 3    0  0.4580101E-005  0.9118800E+02  0.7546771E-02  0.1235069E+00
         25   -1    0    0    0    0  0.00000000000E+00  0.00000000000E+00  0.99999998245E-14  0.12500000000E+03  0.12500000000E+03 0.  0.
          5    1    1    0  501    0 -0.34425532381E+02 -0.42996637981E+02  0.29160449974E+02  0.62500000000E+02  0.47000000000E+01 0.  1.
         -5    1    1    0    0  501  0.34425532381E+02  0.42996637981E+02 -0.29160449974E+02  0.62500000000E+02  0.47000000000E+01 0.  1.
</event>
<event>
 3    0  0.4580101E-005  0.9118800E+02  0.7546771E-02  0.1235069E+00
         25   -1    0    0    0    0  0.00000000000E+00  0.00000000000E+00  0.99999998245E-14  0.12500000000E+03  0.12500000000E+03 0.  0.
          5    1    1    0  501    0  0.61409603464E+02 -0.87307898782E+01  0.60657984263E+01  0.62500000000E+02  0.47000000000E+01 0.  1.
         -5    1    1    0    0  501 -0.61409603464E+02  0.87307898782E+01 -0.60657984263E+01  0.62500000000E+02  0.47000000000E+01 0.  1.
</event>
<event>
 3    0  0.4580101E-005  0.9118800E+02  0.7546771E-02  0.1235069E+00
         25   -1    0    0    0    0  0.00000000000E+00  0.00000000000E+00  0.99999998245E-14  0.12500000000E+03  0.12500000000E+03 0.  0.
          5    1    1    0  501    0 -0.24546861645E+02  0.46002433617E+02  0.34137775041E+02  0.62500000000E+02  0.47000000000E+01 0. -1.
         -5    1    1    0    0  501  0.24546861645E+02 -0.46002433617E+02 -0.34137775041E+02  0.62500000000E+02  0.47000000000E+01 0. -1.
</event>
<event>
 3    0  0.4580101E-005  0.9118800E+02  0.7546771E-02  0.1235069E+00
         25   -1    0    0    0    0  0.00000000000E+00  0.00000000000E+00  0.99999998245E-14  0.12500000000E+03  0.12500000000E+03 0.  0.
          5    1    1    0  501    0 -0.46485723357E+02  0.41470505486E+02  0.18532940273E+01  0.62500000000E+02  0.47000000000E+01 0. -1.
         -5    1    1    0    0  501  0.46485723357E+02 -0.41470505486E+02 -0.18532940273E+01  0.62500000000E+02  0.47000000000E+01 0. -1.
</event>
<event>
 3    0  0.4580101E-005  0.9118800E+02  0.7546771E-02  0.1235069E+00
         25   -1    0    0    0    0  0.00000000000E+00  0.00000000000E+00  0.99999998245E-14  0.12500000000E+03  0.12500000000E+03 0.  0.
          5    1    1    0  501    0 -0.13640382156E+02 -0.80512884541E+01 -0.60276668196E+02  0.62500000000E+02  0.47000000000E+01 0. -1.
         -5    1    1    0    0  501  0.13640382156E+02  0.80512884541E+01  0.60276668196E+02  0.62500000000E+02  0.47000000000E+01 0. -1.
</event>
<event>
 3    0  0.4580101E-005  0.9118800E+02  0.7546771E-02  0.1235069E+00
         25   -1    0    0    0    0  0.00000000000E+00  0.00000000000E+00  0.99999998245E-14  0.12500000000E+03  0.12500000000E+03 0.  0.
          5    1    1    0  501    0 -0.26574250109E+02 -0.35134130723E+02 -0.44085849084E+02  0.62500000000E+02  0.47000000000E+01 0.  1.
         -5    1    1    0    0  501  0.26574250109E+02  0.35134130723E+02  0.44085849084E+02  0.62500000000E+02  0.47000000000E+01 0.  1.
</event>
<event>
 3    0  0.4580101E-005  0.9118800E+02  0.7546771E-02  0.1235069E+00
         25   -1    0    0    0    0  0.00000000000E+00  0.00000000000E+00  0.99999998245E-14  0.12500000000E+03  0.12500000000E+03 0.  0.
          5    1    1    0  501    0  0.18388609768E+01  0.43423149911E+02  0.44667758418E+02  0.62500000000E+02  0.47000000000E+01 0.  1.
         -5    1    1    0    0  501 -0.18388609768E+01 -0.43423149911E+02 -0.44667758418E+02  0.62500000000E+02  0.47000000000E+01 0.  1.
</event>
<event>
 3    0  0.4580101E-005  0.9118800E+02  0.7546771E-02  0.1235069E+00
         25   -1    0    0    0    0  0.00000000000E+00  0.00000000000E+00  0.99999998245E-14  0.12500000000E+03  0.12500000000E+03 0.  0.
          5    1    1    0  501    0  0.57447769252E+02 -0.18113978277E+02  0.15993673718E+02  0.62500000000E+02  0.47000000000E+01 0. -1.
         -5    1    1    0    0  501 -0.57447769252E+02  0.18113978277E+02 -0.15993673718E+02  0.62500000000E+02  0.47000000000E+01 0. -1.
</event>
<event>
 3    0  0.4580101E-005  0.9118800E+02  0.7546771E-02  0.1235069E+00
         25   -1    0    0    0    0  0.00000000000E+00  0.00000000000E+00  0.99999998245E-14  0.12500000000E+03  0.12500000000E+03 0.  0.
          5    1    1    0  501    0 -0.11868658778E+02  0.75791479673E+01  0.60711213585E+02  0.62500000000E+02  0.47000000000E+01 0. -1.
         -5    1    1    0    0  501  0.11868658778E+02 -0.75791479673E+01 -0.60711213585E+02  0.62500000000E+02  0.47000000000E+01 0. -1.
</event>
<event>
 3    0  0.4580101E-005  0.9118800E+02  0.7546771E-02  0.1235069E+00
         25   -1    0    0    0    0  0.00000000000E+00  0.00000000000E+00  0.99999998245E-14  0.12500000000E+03  0.12500000000E+03 0.  0.
          5    1    1    0  501    0 -0.37174680353E+02 -0.42694624698E+02 -0.26064768608E+02  0.62500000000E+02  0.47000000000E+01 0.  1.
         -5    1    1    0    0  501  0.37174680353E+02  0.42694624698E+02  0.26064768608E+02  0.62500000000E+02  0.47000000000E+01 0.  1.
</event>
<event>
 3    0  0.4580101E-005  0.9118800E+02  0.7546771E-02  0.1235069E+00
         25   -1    0    0    0    0  0.00000000000E+00  0.00000000000E+00  0.99999998245E-14  0.12500000000E+03  0.12500000000E+03 0.  0.
          5    1    1    0  501    0 -0.27185162323E+02  0.42908634138E+02  0.36110608772E+02  0.62500000000E+02  0.47000000000E+01 0. -1.
         -5    1    1    0    0  501  0.27185162323E+02 -0.42908634138E+02 -0.36110608772E+02  0.62500000000E+02  0.47000000000E+01 0. -1.
</event>
<event>
 3    0  0.4580101E-005  0.9118800E+02  0.7546771E-02  0.1235069E+00
         25   -1    0    0    0    0  0.00000000000E+00  0.00000000000E+00  0.99999998245E-14  0.12500000000E+03  0.12500000000E+03 0.  0.
          5    1    1    0  501    0  0.30793717565E+02  0.35483172776E+02  0.40949376165E+02  0.62500000000E+02  0.47000000000E+01 0. -1.
         -5    1    1    0    0  501 -0.30793717565E+02 -0.35483172776E+02 -0.40949376165E+02  0.62500000000E+02  0.47000000000E+01 0. -1.
</event>
<event>
 3    0  0.4580101E-005  0.9118800E+02  0.7546771E-02  0.1235069E+00
         25   -1    0    0    0    0  0.00000000000E+00  0.00000000000E+00  0.99999998245E-14  0.12500000000E+03  0.12500000000E+03 0.  0.
          5    1    1    0  501    0  0.38395476051E+02 -0.21720395715E+02  0.44024672955E+02  0.62500000000E+02  0.47000000000E+01 0. -1.
         -5    1    1    0    0  501 -0.38395476051E+02  0.21720395715E+02 -0.44024672955E+02  0.62500000000E+02  0.47000000000E+01 0. -1.
</event>
<event>
 3    0  0.4580101E-005  0.9118800E+02  0.7546771E-02  0.1235069E+00
         25   -1    0    0    0    0  0.00000000000E+00  0.00000000000E+00  0.99999998245E-14  0.12500000000E+03  0.12500000000E+03 0.  0.
          5    1    1    0  501    0  0.62108034597E+02 -0.39255868242E+01 -0.33677598752E+01  0.62500000000E+02  0.47000000000E+01 0. -1.
         -5    1    1    0    0  501 -0.62108034597E+02  0.39255868242E+01  0.33677598752E+01  0.62500000000E+02  0.47000000000E+01 0. -1.
</event>
<event>
 3    0  0.4580101E-005  0.9118800E+02  0.7546771E-02  0.1235069E+00
         25   -1    0    0    0    0  0.00000000000E+00  0.00000000000E+00  0.99999998245E-14  0.12500000000E+03  0.12500000000E+03 0.  0.
          5    1    1    0  501    0  0.56154895356E+02 -0.53158848065E+01  0.26505265444E+02  0.62500000000E+02  0.47000000000E+01 0.  1.
         -5    1    1    0    0  501 -0.56154895356E+02  0.53158848065E+01 -0.26505265444E+02  0.62500000000E+02  0.47000000000E+01 0.  1.
</event>
<event>
 3    0  0.4580101E-005  0.9118800E+02  0.7546771E-02  0.1235069E+00
         25   -1    0    0    0    0  0.00000000000E+00  0.00000000000E+00  0.99999998245E-14  0.12500000000E+03  0.12500000000E+03 0.  0.
          5    1    1    0  501    0  0.55769985343E+02 -0.72245215413E+01  0.26864009814E+02  0.62500000000E+02  0.47000000000E+01 0. -1.
         -5    1    1    0    0  501 -0.55769985343E+02  0.72245215413E+01 -0.26864009814E+02  0.62500000000E+02  0.47000000000E+01 0. -1.
</event>
<event>
 3    0  0.4580101E-005  0.9118800E+02  0.7546771E-02  0.1235069E+00
         25   -1    0    0    0    0  0.00000000000E+00  0.00000000000E+00  0.99999998245E-14  0.12500000000E+03  0.12500000000E+03 0.  0.
          5    1    1    0  501    0 -0.54475098942E+02 -0.26643183035E+02  0.14379304332E+02  0.62500000000E+02  0.47000000000E+01 0. -1.
         -5    1    1    0    0  501  0.54475098942E+02  0.26643183035E+02 -0.14379304332E+02  0.62500000000E+02  0.47000000000E+01 0. -1.
</event>
<event>
 3    0  0.4580101E-005  0.9118800E+02  0.7546771E-02  0.1235069E+00
         25   -1    0    0    0    0  0.00000000000E+00  0.00000000000E+00  0.99999998245E-14  0.12500000000E+03  0.12500000000E+03 0.  0.
          5    1    1    0  501    0  0.51654638663E+02 -0.34678393725E+02  0.36561336429E+01  0.62500000000E+02  0.47000000000E+01 0. -1.
         -5    1    1    0    0  501 -0.51654638663E+02  0.34678393725E+02 -0.36561336429E+01  0.62500000000E+02  0.47000000000E+01 0. -1.
</event>
<event>
 3    0  0.4580101E-005  0.9118800E+02  0.7546771E-02  0.1235069E+00
         25   -1    0    0    0    0  0.00000000000E+00  0.00000000000E+00  0.99999998245E-14  0.12500000000E+03  0.12500000000E+03 0.  0.
          5    1    1    0  501    0 -0.14264152026E+02  0.59242898634E+02 -0.13075661681E+02  0.62500000000E+02  0.47000000000E+01 0.  1.
         -5    1    1    0    0  501  0.14264152026E+02 -0.59242898634E+02  0.13075661681E+02  0.62500000000E+02  0.47000000000E+01 0.  1.
</event>
<event>
 3    0  0.4580101E-005  0.9118800E+02  0.7546771E-02  0.1235069E+00
         25   -1    0    0    0    0  0.00000000000E+00  0.00000000000E+00  0.99999998245E-14  0.12500000000E+03  0.12500000000E+03 0.  0.
          5    1    1    0  501    0  0.42190443087E+02 -0.43678037301E+02 -0.14012693165E+02  0.62500000000E+02  0.47000000000E+01 0. -1.
         -5    1    1    0    0  501 -0.42190443087E+02  0.43678037301E+02  0.14012693165E+02  0.62500000000E+02  0.47000000000E+01 0. -1.
</event>
<event>
 3    0  0.4580101E-005  0.9118800E+02  0.7546771E-02  0.1235069E+00
         25   -1    0    0    0    0  0.00000000000E+00  0.00000000000E+00  0.99999998245E-14  0.12500000000E+03  0.12500000000E+03 0.  0.
          5    1    1    0  501    0 -0.27442541474E+02 -0.57028574972E+01 -0.55664569825E+02  0.62500000000E+02  0.47000000000E+01 0.  1.
         -5    1    1    0    0  501  0.27442541474E+02  0.57028574972E+01  0.55664569825E+02  0.62500000000E+02  0.47000000000E+01 0.  1.
</event>
<event>
 3    0  0.4580101E-005  0.9118800E+02  0.7546771E-02  0.1235069E+00
         25   -1    0    0    0    0  0.00000000000E+00  0.00000000000E+00  0.99999998245E-14  0.12500000000E+03  0.12500000000E+03 0.  0.
          5    1    1    0  501    0  0.60214894699E+02  0.32525833148E+01  0.15739985965E+02  0.62500000000E+02  0.47000000000E+01 0. -1.
         -5    1    1    0    0  501 -0.60214894699E+02 -0.32525833148E+01 -0.15739985965E+02  0.62500000000E+02  0.47000000000E+01 0. -1.
</event>
<event>
 3    0  0.4580101E-005  0.9118800E+02  0.7546771E-02  0.1235069E+00
         25   -1    0    0    0    0  0.00000000000E+00  0.00000000000E+00  0.99999998245E-14  0.12500000000E+03  0.12500000000E+03 0.  0.
          5    1    1    0  501    0  0.14609523032E+02 -0.60390280068E+02 -0.48719513671E+01  0.62500000000E+02  0.47000000000E+01 0. -1.
         -5    1    1    0    0  501 -0.14609523032E+02  0.60390280068E+02  0.48719513671E+01  0.62500000000E+02  0.47000000000E+01 0. -1.
</event>
<event>
 3    0  0.4580101E-005  0.9118800E+02  0.7546771E-02  0.1235069E+00
         25   -1    0    0    0    0  0.00000000000E+00  0.00000000000E+00  0.99999998245E-14  0.12500000000E+03  0.12500000000E+03 0.  0.
          5    1    1    0  501    0 -0.49893352210E+01 -0.58257993333E+02  0.21570181892E+02  0.62500000000E+02  0.47000000000E+01 0.  1.
         -5    1    1    0    0  501  0.49893352210E+01  0.58257993333E+02 -0.21570181892E+02  0.62500000000E+02  0.47000000000E+01 0.  1.
</event>
<event>
 3    0  0.4580101E-005  0.9118800E+02  0.7546771E-02  0.1235069E+00
         25   -1    0    0    0    0  0.00000000000E+00  0.00000000000E+00  0.99999998245E-14  0.12500000000E+03  0.12500000000E+03 0.  0.
          5    1    1    0  501    0 -0.61955398526E+02  0.29235944874E+01  0.60943571195E+01  0.62500000000E+02  0.47000000000E+01 0.  1.
         -5    1    1    0    0  501  0.61955398526E+02 -0.29235944874E+01 -0.60943571195E+01  0.62500000000E+02  0.47000000000E+01 0.  1.
</event>
<event>
 3    0  0.4580101E-005  0.9118800E+02  0.7546771E-02  0.1235069E+00
         25   -1    0    0    0    0  0.00000000000E+00  0.00000000000E+00  0.99999998245E-14  0.12500000000E+03  0.12500000000E+03 0.  0.
          5    1    1    0  501    0  0.17613855316E+02 -0.40412076152E+02 -0.44054241589E+02  0.62500000000E+02  0.47000000000E+01 0. -1.
         -5    1    1    0    0  501 -0.17613855316E+02  0.40412076152E+02  0.44054241589E+02  0.62500000000E+02  0.47000000000E+01 0. -1.
</event>
<event>
 3    0  0.4580101E-005  0.9118800E+02  0.7546771E-02  0.1235069E+00
         25   -1    0    0    0    0  0.00000000000E+00  0.00000000000E+00  0.99999998245E-14  0.12500000000E+03  0.12500000000E+03 0.  0.
          5    1    1    0  501    0 -0.42321732918E+02  0.41350899829E+02 -0.19573809188E+02  0.62500000000E+02  0.47000000000E+01 0.  1.
         -5    1    1    0    0  501  0.42321732918E+02 -0.41350899829E+02  0.19573809188E+02  0.62500000000E+02  0.47000000000E+01 0.  1.
</event>
<event>
 3    0  0.4580101E-005  0.9118800E+02  0.7546771E-02  0.1235069E+00
         25   -1    0    0    0    0  0.00000000000E+00  0.00000000000E+00  0.99999998245E-14  0.12500000000E+03  0.12500000000E+03 0.  0.
          5    1    1    0  501    0 -0.23502318560E+02  0.42228291913E+02  0.39351904457E+02  0.62500000000E+02  0.47000000000E+01 0.  1.
         -5    1    1    0    0  501  0.23502318560E+02 -0.42228291913E+02 -0.39351904457E+02  0.62500000000E+02  0.47000000000E+01 0.  1.
</event>
<event>
 3    0  0.4580101E-005  0.9118800E+02  0.7546771E-02  0.1235069E+00
         25   -1    0    0    0    0  0.00000000000E+00  0.00000000000E+00  0.99999998245E-14  0.12500000000E+03  0.12500000000E+03 0.  0.
          5    1    1    0  501    0 -0.38176127171E+02  0.16678288742E-01  0.49261983680E+02  0.62500000000E+02  0.47000000000E+01 0. -1.
         -5    1    1    0    0  501  0.38176127171E+02 -0.16678288742E-01 -0.49261983680E+02  0.62500000000E+02  0.47000000000E+01 0. -1.
</event>
<event>
 3    0  0.4580101E-005  0.9118800E+02  0.7546771E-02  0.1235069E+00
         25   -1    0    0    0    0  0.00000000000E+00  0.00000000000E+00  0.99999998245E-14  0.12500000000E+03  0.12500000000E+03 0.  0.
          5    1    1    0  501    0  0.30233368323E+02 -0.34909932374E+02  0.41849731917E+02  0.62500000000E+02  0.47000000000E+01 0. -1.
         -5    1    1    0    0  501 -0.30233368323E+02  0.34909932374E+02 -0.41849731917E+02  0.62500000000E+02  0.47000000000E+01 0. -1.
</event>
<event>
 3    0  0.4580101E-005  0.9118800E+02  0.7546771E-02  0.1235069E+00
         25   -1    0    0    0    0  0.00000000000E+00  0.00000000000E+00  0.99999998245E-14  0.12500000000E+03  0.12500000000E+03 0.  0.
          5    1    1    0  501    0 -0.35648807786E+01  0.16076804583E+02 -0.60108135718E+02  0.62500000000E+02  0.47000000000E+01 0. -1.
         -5    1    1    0    0  501  0.35648807786E+01 -0.16076804583E+02  0.60108135718E+02  0.62500000000E+02  0.47000000000E+01 0. -1.
</event>
<event>
 3    0  0.4580101E-005  0.9118800E+02  0.7546771E-02  0.1235069E+00
         25   -1    0    0    0    0  0.00000000000E+00  0.00000000000E+00  0.99999998245E-14  0.12500000000E+03  0.12500000000E+03 0.  0.
          5    1    1    0  501    0  0.15384455553E+02  0.50246744675E+02  0.33507360041E+02  0.62500000000E+02  0.47000000000E+01 0.  1.
         -5    1    1    0    0  501 -0.15384455553E+02 -0.50246744675E+02 -0.33507360041E+02  0.62500000000E+02  0.47000000000E+01 0.  1.
</event>
<event>
 3    0  0.4580101E-005  0.9118800E+02  0.7546771E-02  0.1235069E+00
         25   -1    0    0    0    0  0.00000000000E+00  0.00000000000E+00  0.99999998245E-14  0.12500000000E+03  0.12500000000E+03 0.  0.
          5    1    1    0  501    0 -0.28050713348E-01 -0.86983484035E+01 -0.61713028999E+02  0.62500000000E+02  0.47000000000E+01 0. -1.
         -5    1    1    0    0  501  0.28050713348E-01  0.86983484035E+01  0.61713028999E+02  0.62500000000E+02  0.47000000000E+01 0. -1.
</event>
<event>
 3    0  0.4580101E-005  0.9118800E+02  0.7546771E-02  0.1235069E+00
         25   -1    0    0    0    0  0.00000000000E+00  0.00000000000E+00  0.99999998245E-14  0.12500000000E+03  0.12500000000E+03 0.  0.
          5    1    1    0  501    0  0.44974904938E+02 -0.87897802905E+01 -0.42239290811E+02  0.62500000000E+02  0.47000000000E+01 0.  1.
         -5    1    1    0    0  501 -0.44974904938E+02  0.87897802905E+01  0.42239290811E+02  0.62500000000E+02  0.47000000000E+01 0.  1.
</event>
<event>
 3    0  0.4580101E-005  0.9118800E+02  0.7546771E-02  0.1235069E+00
         25   -1    0    0    0    0  0.00000000000E+00  0.00000000000E+00  0.99999998245E-14  0.12500000000E+03  0.12500000000E+03 0.  0.
          5    1    1    0  501    0  0.14132967409E+02 -0.60656836196E+02 -0.22732036713E+01  0.62500000000E+02  0.47000000000E+01 0. -1.
         -5    1    1    0    0  501 -0.14132967409E+02  0.60656836196E+02  0.22732036713E+01  0.62500000000E+02  0.47000000000E+01 0. -1.
</event>
<event>
 3    0  0.4580101E-005  0.9118800E+02  0.7546771E-02  0.1235069E+00
         25   -1    0    0    0    0  0.00000000000E+00  0.00000000000E+00  0.99999998245E-14  0.12500000000E+03  0.12500000000E+03 0.  0.
          5    1    1    0  501    0  0.51357989316E+02  0.35267925963E+02  0.16402230496E+01  0.62500000000E+02  0.47000000000E+01 0. -1.
         -5    1    1    0    0  501 -0.51357989316E+02 -0.35267925963E+02 -0.16402230496E+01  0.62500000000E+02  0.47000000000E+01 0. -1.
</event>
<event>
 3    0  0.4580101E-005  0.9118800E+02  0.7546771E-02  0.1235069E+00
         25   -1    0    0    0    0  0.00000000000E+00  0.00000000000E+00  0.99999998245E-14  0.12500000000E+03  0.12500000000E+03 0.  0.
          5    1    1    0  501    0  0.40228650224E+02 -0.23485065751E+02  0.41403712247E+02  0.62500000000E+02  0.47000000000E+01 0. -1.
         -5    1    1    0    0  501 -0.40228650224E+02  0.23485065751E+02 -0.41403712247E+02  0.62500000000E+02  0.47000000000E+01 0. -1.
</event>
<event>
 3    0  0.4580101E-005  0.9118800E+02  0.7546771E-02  0.1235069E+00
         25   -1    0    0    0    0  0.00000000000E+00  0.00000000000E+00  0.99999998245E-14  0.12500000000E+03  0.12500000000E+03 0.  0.
          5    1    1    0  501    0 -0.51311013243E+02 -0.35990153811E+01 -0.35190723326E+02  0.62500000000E+02  0.47000000000E+01 0.  1.
         -5    1    1    0    0  501  0.51311013243E+02  0.35990153811E+01  0.35190723326E+02  0.62500000000E+02  0.47000000000E+01 0.  1.
</event>
<event>
 3    0  0.4580101E-005  0.9118800E+02  0.7546771E-02  0.1235069E+00
         25   -1    0    0    0    0  0.00000000000E+00  0.00000000000E+00  0.99999998245E-14  0.12500000000E+03  0.12500000000E+03 0.  0.
          5    1    1    0  501    0  0.52828144950E+02  0.72439200335E+01  0.32262559163E+02  0.62500000000E+02  0.47000000000E+01 0. -1.
         -5    1    1    0    0  501 -0.52828144950E+02 -0.72439200335E+01 -0.32262559163E+02  0.62500000000E+02  0.47000000000E+01 0. -1.
</event>
<event>
 3    0  0.4580101E-005  0.9118800E+02  0.7546771E-02  0.1235069E+00
         25   -1    0    0    0    0  0.00000000000E+00  0.00000000000E+00  0.99999998245E-14  0.12500000000E+03  0.12500000000E+03 0.  0.
          5    1    1    0  501    0  0.32124738620E+02 -0.44767853893E+02  0.29120446879E+02  0.62500000000E+02  0.47000000000E+01 0.  1.
         -5    1    1    0    0  501 -0.32124738620E+02  0.44767853893E+02 -0.29120446879E+02  0.62500000000E+02  0.47000000000E+01 0.  1.
</event>
<event>
 3    0  0.4580101E-005  0.9118800E+02  0.7546771E-02  0.1235069E+00
         25   -1    0    0    0    0  0.00000000000E+00  0.00000000000E+00  0.99999998245E-14  0.12500000000E+03  0.12500000000E+03 0.  0.
          5    1    1    0  501    0  0.12071942177E+02  0.31061435363E+02  0.52665125513E+02  0.62500000000E+02  0.47000000000E+01 0.  1.
         -5    1    1    0    0  501 -0.12071942177E+02 -0.31061435363E+02 -0.52665125513E+02  0.62500000000E+02  0.47000000000E+01 0.  1.
</event>
<event>
 3    0  0.4580101E-005  0.9118800E+02  0.7546771E-02  0.1235069E+00
         25   -1    0    0    0    0  0.00000000000E+00  0.00000000000E+00  0.99999998245E-14  0.12500000000E+03  0.12500000000E+03 0.  0.
          5    1    1    0  501    0  0.21031272938E+02 -0.57343722615E+02 -0.12391248331E+02  0.62500000000E+02  0.47000000000E+01 0.  1.
         -5    1    1    0    0  501 -0.21031272938E+02  0.57343722615E+02  0.12391248331E+02  0.62500000000E+02  0.47000000000E+01 0.  1.
</event>
<event>
 3    0  0.4580101E-005  0.9118800E+02  0.7546771E-02  0.1235069E+00
         25   -1    0    0    0    0  0.00000000000E+00  0.00000000000E+00  0.99999998245E-14  0.12500000000E+03  0.12500000000E+03 0.  0.
          5    1    1    0  501    0 -0.10823709948E+02 -0.80346005192E+01  0.60847781368E+02  0.62500000000E+02  0.47000000000E+01 0. -1.
         -5    1    1    0    0  501  0.10823709948E+02  0.80346005192E+01 -0.60847781368E+02  0.62500000000E+02  0.47000000000E+01 0. -1.
</event>
<event>
 3    0  0.4580101E-005  0.9118800E+02  0.7546771E-02  0.1235069E+00
         25   -1    0    0    0    0  0.00000000000E+00  0.00000000000E+00  0.99999998245E-14  0.12500000000E+03  0.12500000000E+03 0.  0.
          5    1    1    0  501    0 -0.39021804685E+02 -0.26530014362E+01 -0.48522369506E+02  0.62500000000E+02  0.47000000000E+01 0. -1.
         -5    1    1    0    0  501  0.39021804685E+02  0.26530014362E+01  0.48522369506E+02  0.62500000000E+02  0.47000000000E+01 0. -1.
</event>
<event>
 3    0  0.4580101E-005  0.9118800E+02  0.7546771E-02  0.1235069E+00
         25   -1    0    0    0    0  0.00000000000E+00  0.00000000000E+00  0.99999998245E-14  0.12500000000E+03  0.12500000000E+03 0.  0.
          5    1    1    0  501    0  0.40391730143E+02  0.12292202405E+02 -0.45842882720E+02  0.62500000000E+02  0.47000000000E+01 0. -1.
         -5    1    1    0    0  501 -0.40391730143E+02 -0.12292202405E+02  0.45842882720E+02  0.62500000000E+02  0.47000000000E+01 0. -1.
</event>
<event>
 3    0  0.4580101E-005  0.9118800E+02  0.7546771E-02  0.1235069E+00
         25   -1    0    0    0    0  0.00000000000E+00  0.00000000000E+00  0.99999998245E-14  0.12500000000E+03  0.12500000000E+03 0.  0.
          5    1    1    0  501    0  0.22882589972E+02 -0.22567139187E+02 -0.53397296796E+02  0.62500000000E+02  0.47000000000E+01 0. -1.
         -5    1    1    0    0  501 -0.22882589972E+02  0.22567139187E+02  0.53397296796E+02  0.62500000000E+02  0.47000000000E+01 0. -1.
</event>
<event>
 3    0  0.4580101E-005  0.9118800E+02  0.7546771E-02  0.1235069E+00
         25   -1    0    0    0    0  0.00000000000E+00  0.00000000000E+00  0.99999998245E-14  0.12500000000E+03  0.12500000000E+03 0.  0.
          5    1    1    0  501    0 -0.25548734379E+01 -0.32236456446E+02  0.53277044752E+02  0.62500000000E+02  0.47000000000E+01 0. -1.
         -5    1    1    0    0  501  0.25548734379E+01  0.32236456446E+02 -0.53277044752E+02  0.62500000000E+02  0.47000000000E+01 0. -1.
</event>
<event>
 3    0  0.4580101E-005  0.9118800E+02  0.7546771E-02  0.1235069E+00
         25   -1    0    0    0    0  0.00000000000E+00  0.00000000000E+00  0.99999998245E-14  0.12500000000E+03  0.12500000000E+03 0.  0.
          5    1    1    0  501    0  0.36914192790E+02 -0.46414339457E+02 -0.19162762415E+02  0.62500000000E+02  0.47000000000E+01 0.  1.
         -5    1    1    0    0  501 -0.36914192790E+02  0.46414339457E+02  0.19162762415E+02  0.62500000000E+02  0.47000000000E+01 0.  1.
</event>
<event>
 3    0  0.4580101E-005  0.9118800E+02  0.7546771E-02  0.1235069E+00
         25   -1    0    0    0    0  0.00000000000E+00  0.00000000000E+00  0.99999998245E-14  0.12500000000E+03  0.12500000000E+03 0.  0.
          5    1    1    0  501    0  0.32032293020E+02 -0.28415907595E+02 -0.45283864670E+02  0.62500000000E+02  0.47000000000E+01 0.  1.
         -5    1    1    0    0  501 -0.32032293020E+02  0.28415907595E+02  0.45283864670E+02  0.62500000000E+02  0.47000000000E+01 0.  1.
</event>
<event>
 3    0  0.4580101E-005  0.9118800E+02  0.7546771E-02  0.1235069E+00
         25   -1    0    0    0    0  0.00000000000E+00  0.00000000000E+00  0.99999998245E-14  0.12500000000E+03  0.12500000000E+03 0.  0.
          5    1    1    0  501    0  0.22735594468E+02  0.46443015031E+02 -0.34789353242E+02  0.62500000000E+02  0.47000000000E+01 0. -1.
         -5    1    1    0    0  501 -0.22735594468E+02 -0.46443015031E+02  0.34789353242E+02  0.62500000000E+02  0.47000000000E+01 0. -1.
</event>
<event>
 3    0  0.4580101E-005  0.9118800E+02  0.7546771E-02  0.1235069E+00
         25   -1    0    0    0    0  0.00000000000E+00  0.00000000000E+00  0.99999998245E-14  0.12500000000E+03  0.12500000000E+03 0.  0.
          5    1    1    0  501    0 -0.26207117899E+02  0.49324179302E+02  0.27649092346E+02  0.62500000000E+02  0.47000000000E+01 0. -1.
         -5    1    1    0    0  501  0.26207117899E+02 -0.49324179302E+02 -0.27649092346E+02  0.62500000000E+02  0.47000000000E+01 0. -1.
</event>
<event>
 3    0  0.4580101E-005  0.9118800E+02  0.7546771E-02  0.1235069E+00
         25   -1    0    0    0    0  0.00000000000E+00  0.00000000000E+00  0.99999998245E-14  0.12500000000E+03  0.12500000000E+03 0.  0.
          5    1    1    0  501    0 -0.26314726175E+02  0.84594526034E+01  0.55858149343E+02  0.62500000000E+02  0.47000000000E+01 0.  1.
         -5    1    1    0    0  501  0.26314726175E+02 -0.84594526034E+01 -0.55858149343E+02  0.62500000000E+02  0.47000000000E+01 0.  1.
</event>
<event>
 3    0  0.4580101E-005  0.9118800E+02  0.7546771E-02  0.1235069E+00
         25   -1    0    0    0    0  0.00000000000E+00  0.00000000000E+00  0.99999998245E-14  0.12500000000E+03  0.12500000000E+03 0.  0.
          5    1    1    0  501    0  0.14242515263E+02 -0.83872862567E+01 -0.60091298773E+02  0.62500000000E+02  0.47000000000E+01 0. -1.
         -5    1    1    0    0  501 -0.14242515263E+02  0.83872862567E+01  0.60091298773E+02  0.62500000000E+02  0.47000000000E+01 0. -1.
</event>
<event>
 3    0  0.4580101E-005  0.9118800E+02  0.7546771E-02  0.1235069E+00
         25   -1    0    0    0    0  0.00000000000E+00  0.00000000000E+00  0.99999998245E-14  0.12500000000E+03  0.12500000000E+03 0.  0.
          5    1    1    0  501    0 -0.20779242597E+02  0.12375852348E+02  0.57438848837E+02  0.62500000000E+02  0.47000000000E+01 0.  1.
         -5    1    1    0    0  501  0.20779242597E+02 -0.12375852348E+02 -0.57438848837E+02  0.62500000000E+02  0.47000000000E+01 0.  1.
</event>
<event>
 3    0  0.4580101E-005  0.9118800E+02  0.7546771E-02  0.1235069E+00
         25   -1    0    0    0    0  0.00000000000E+00  0.00000000000E+00  0.99999998245E-14  0.12500000000E+03  0.12500000000E+03 0.  0.
          5    1    1    0  501    0  0.68568892823E+01 -0.24502047579E+02  0.56892817946E+02  0.62500000000E+02  0.47000000000E+01 0. -1.
         -5    1    1    0    0  501 -0.68568892823E+01  0.24502047579E+02 -0.56892817946E+02  0.62500000000E+02  0.47000000000E+01 0. -1.
</event>
<event>
 3    0  0.4580101E-005  0.9118800E+02  0.7546771E-02  0.1235069E+00
         25   -1    0    0    0    0  0.00000000000E+00  0.00000000000E+00  0.99999998245E-14  0.12500000000E+03  0.12500000000E+03 0.  0.
          5    1    1    0  501    0 -0.31338298677E+02 -0.18740314247E+02  0.50506154654E+02  0.62500000000E+02  0.47000000000E+01 0. -1.
         -5    1    1    0    0  501  0.31338298677E+02  0.18740314247E+02 -0.50506154654E+02  0.62500000000E+02  0.47000000000E+01 0. -1.
</event>
<event>
 3    0  0.4580101E-005  0.9118800E+02  0.7546771E-02  0.1235069E+00
         25   -1    0    0    0    0  0.00000000000E+00  0.00000000000E+00  0.99999998245E-14  0.12500000000E+03  0.12500000000E+03 0.  0.
          5    1    1    0  501    0 -0.40429510253E+02  0.27199947729E+02 -0.38855855984E+02  0.62500000000E+02  0.47000000000E+01 0. -1.
         -5    1    1    0    0  501  0.40429510253E+02 -0.27199947729E+02  0.38855855984E+02  0.62500000000E+02  0.47000000000E+01 0. -1.
</event>
<event>
 3    0  0.4580101E-005  0.9118800E+02  0.7546771E-02  0.1235069E+00
         25   -1    0    0    0    0  0.00000000000E+00  0.00000000000E+00  0.99999998245E-14  0.12500000000E+03  0.12500000000E+03 0.  0.
          5    1    1    0  501    0 -0.54582485502E+02  0.28958768877E+02  0.81426028706E+01  0.62500000000E+02  0.47000000000E+01 0. -1.
         -5    1    1    0    0  501  0.54582485502E+02 -0.28958768877E+02 -0.81426028706E+01  0.62500000000E+02  0.47000000000E+01 0. -1.
</event>
<event>
 3    0  0.4580101E-005  0.9118800E+02  0.7546771E-02  0.1235069E+00
         25   -1    0    0    0    0  0.00000000000E+00  0.00000000000E+00  0.99999998245E-14  0.12500000000E+03  0.12500000000E+03 0.  0.
          5    1    1    0  501    0  0.48063006536E+02 -0.35736804107E+02  0.17233346597E+02  0.62500000000E+02  0.47000000000E+01 0. -1.
         -5    1    1    0    0  501 -0.48063006536E+02  0.35736804107E+02 -0.17233346597E+02  0.62500000000E+02  0.47000000000E+01 0. -1.
</event>
<event>
 3    0  0.4580101E-005  0.9118800E+02  0.7546771E-02  0.1235069E+00
         25   -1    0    0    0    0  0.00000000000E+00  0.00000000000E+00  0.99999998245E-14  0.12500000000E+03  0.12500000000E+03 0.  0.
          5    1    1    0  501    0  0.50464968201E+02 -0.31540377869E+02 -0.18510849476E+02  0.62500000000E+02  0.47000000000E+01 0.  1.
         -5    1    1    0    0  501 -0.50464968201E+02  0.31540377869E+02  0.18510849476E+02  0.62500000000E+02  0.47000000000E+01 0.  1.
</event>
<event>
 3    0  0.4580101E-005  0.9118800E+02  0.7546771E-02  0.1235069E+00
         25   -1    0    0    0    0  0.00000000000E+00  0.00000000000E+00  0.99999998245E-14  0.12500000000E+03  0.12500000000E+03 0.  0.
          5    1    1    0  501    0 -0.13070829541E+02 -0.56926752057E+02 -0.21740706414E+02  0.62500000000E+02  0.47000000000E+01 0.  1.
         -5    1    1    0    0  501  0.13070829541E+02  0.56926752057E+02  0.21740706414E+02  0.62500000000E+02  0.47000000000E+01 0.  1.
</event>
<event>
 3    0  0.4580101E-005  0.9118800E+02  0.7546771E-02  0.1235069E+00
         25   -1    0    0    0    0  0.00000000000E+00  0.00000000000E+00  0.99999998245E-14  0.12500000000E+03  0.12500000000E+03 0.  0.
          5    1    1    0  501    0  0.16960705139E+02  0.59960727649E+02  0.10980077184E+01  0.62500000000E+02  0.47000000000E+01 0. -1.
         -5    1    1    0    0  501 -0.16960705139E+02 -0.59960727649E+02 -0.10980077184E+01  0.62500000000E+02  0.47000000000E+01 0. -1.
</event>
<event>
 3    0  0.4580101E-005  0.9118800E+02  0.7546771E-02  0.1235069E+00
         25   -1    0    0    0    0  0.00000000000E+00  0.00000000000E+00  0.99999998245E-14  0.12500000000E+03  0.12500000000E+03 0.  0.
          5    1    1    0  501    0 -0.73696023816E-02 -0.56482830843E+02  0.26341028181E+02  0.62500000000E+02  0.47000000000E+01 0. -1.
         -5    1    1    0    0  501  0.73696023816E-02  0.56482830843E+02 -0.26341028181E+02  0.62500000000E+02  0.47000000000E+01 0. -1.
</event>
<event>
 3    0  0.4580101E-005  0.9118800E+02  0.7546771E-02  0.1235069E+00
         25   -1    0    0    0    0  0.00000000000E+00  0.00000000000E+00  0.99999998245E-14  0.12500000000E+03  0.12500000000E+03 0.  0.
          5    1    1    0  501    0 -0.19110998723E+01 -0.13890339546E+02  0.60725333796E+02  0.62500000000E+02  0.47000000000E+01 0. -1.
         -5    1    1    0    0  501  0.19110998723E+01  0.13890339546E+02 -0.60725333796E+02  0.62500000000E+02  0.47000000000E+01 0. -1.
</event>
<event>
 3    0  0.4580101E-005  0.9118800E+02  0.7546771E-02  0.1235069E+00
         25   -1    0    0    0    0  0.00000000000E+00  0.00000000000E+00  0.99999998245E-14  0.12500000000E+03  0.12500000000E+03 0.  0.
          5    1    1    0  501    0 -0.50998724911E+01 -0.18554097731E+02 -0.59278130520E+02  0.62500000000E+02  0.47000000000E+01 0. -1.
         -5    1    1    0    0  501  0.50998724911E+01  0.18554097731E+02  0.59278130520E+02  0.62500000000E+02  0.47000000000E+01 0. -1.
</event>
<event>
 3    0  0.4580101E-005  0.9118800E+02  0.7546771E-02  0.1235069E+00
         25   -1    0    0    0    0  0.00000000000E+00  0.00000000000E+00  0.99999998245E-14  0.12500000000E+03  0.12500000000E+03 0.  0.
          5    1    1    0  501    0 -0.61897001146E+02 -0.69265262215E+01 -0.22236194829E+01  0.62500000000E+02  0.47000000000E+01 0.  1.
         -5    1    1    0    0  501  0.61897001146E+02  0.69265262215E+01  0.22236194829E+01  0.62500000000E+02  0.47000000000E+01 0.  1.
</event>
<event>
 3    0  0.4580101E-005  0.9118800E+02  0.7546771E-02  0.1235069E+00
         25   -1    0    0    0    0  0.00000000000E+00  0.00000000000E+00  0.99999998245E-14  0.12500000000E+03  0.12500000000E+03 0.  0.
          5    1    1    0  501    0  0.11466042575E+02  0.47018536690E+02  0.39267633940E+02  0.62500000000E+02  0.47000000000E+01 0.  1.
         -5    1    1    0    0  501 -0.11466042575E+02 -0.47018536690E+02 -0.39267633940E+02  0.62500000000E+02  0.47000000000E+01 0.  1.
</event>
<event>
 3    0  0.4580101E-005  0.9118800E+02  0.7546771E-02  0.1235069E+00
         25   -1    0    0    0    0  0.00000000000E+00  0.00000000000E+00  0.99999998245E-14  0.12500000000E+03  0.12500000000E+03 0.  0.
          5    1    1    0  501    0 -0.11233010819E+02  0.58753597147E+02  0.17492692481E+02  0.62500000000E+02  0.47000000000E+01 0.  1.
         -5    1    1    0    0  501  0.11233010819E+02 -0.58753597147E+02 -0.17492692481E+02  0.62500000000E+02  0.47000000000E+01 0.  1.
</event>
<event>
 3    0  0.4580101E-005  0.9118800E+02  0.7546771E-02  0.1235069E+00
         25   -1    0    0    0    0  0.00000000000E+00  0.00000000000E+00  0.99999998245E-14  0.12500000000E+03  0.12500000000E+03 0.  0.
          5    1    1    0  501    0 -0.51179328703E+02 -0.43076656772E+01  0.35302695788E+02  0.62500000000E+02  0.47000000000E+01 0. -1.
         -5    1    1    0    0  501  0.51179328703E+02  0.43076656772E+01 -0.35302695788E+02  0.62500000000E+02  0.47000000000E+01 0. -1.
</event>
<event>
 3    0  0.4580101E-005  0.9118800E+02  0.7546771E-02  0.1235069E+00
         25   -1    0    0    0    0  0.00000000000E+00  0.00000000000E+00  0.99999998245E-14  0.12500000000E+03  0.12500000000E+03 0.  0.
          5    1    1    0  501    0  0.33835742177E+02 -0.51855545406E+02  0.70925991038E+01  0.62500000000E+02  0.47000000000E+01 0. -1.
         -5    1    1    0    0  501 -0.33835742177E+02  0.51855545406E+02 -0.70925991038E+01  0.62500000000E+02  0.47000000000E+01 0. -1.
</event>
<event>
 3    0  0.4580101E-005  0.9118800E+02  0.7546771E-02  0.1235069E+00
         25   -1    0    0    0    0  0.00000000000E+00  0.00000000000E+00  0.99999998245E-14  0.12500000000E+03  0.12500000000E+03 0.  0.
          5    1    1    0  501    0  0.37017603518E+01  0.27656476665E+02  0.55727697501E+02  0.62500000000E+02  0.47000000000E+01 0. -1.
         -5    1    1    0    0  501 -0.37017603518E+01 -0.27656476665E+02 -0.55727697501E+02  0.62500000000E+02  0.47000000000E+01 0. -1.
</event>
<event>
 3    0  0.4580101E-005  0.9118800E+02  0.7546771E-02  0.1235069E+00
         25   -1    0    0    0    0  0.00000000000E+00  0.00000000000E+00  0.99999998245E-14  0.12500000000E+03  0.12500000000E+03 0.  0.
          5    1    1    0  501    0 -0.32289019541E+02 -0.20666447096E+02 -0.49137329817E+02  0.62500000000E+02  0.47000000000E+01 0.  1.
         -5    1    1    0    0  501  0.32289019541E+02  0.20666447096E+02  0.49137329817E+02  0.62500000000E+02  0.47000000000E+01 0.  1.
</event>
<event>
 3    0  0.4580101E-005  0.9118800E+02  0.7546771E-02  0.1235069E+00
         25   -1    0    0    0    0  0.00000000000E+00  0.00000000000E+00  0.99999998245E-14  0.12500000000E+03  0.12500000000E+03 0.  0.
          5    1    1    0  501    0  0.10272551319E+02 -0.25035821395E+01 -0.61419595943E+02  0.62500000000E+02  0.47000000000E+01 0.  1.
         -5    1    1    0    0  501 -0.10272551319E+02  0.25035821395E+01  0.61419595943E+02  0.62500000000E+02  0.47000000000E+01 0.  1.
</event>
<event>
 3    0  0.4580101E-005  0.9118800E+02  0.7546771E-02  0.1235069E+00
         25   -1    0    0    0    0  0.00000000000E+00  0.00000000000E+00  0.99999998245E-14  0.12500000000E+03  0.12500000000E+03 0.  0.
          5    1    1    0  501    0  0.37066756517E+02 -0.50086521458E+02  0.12473690258E+01  0.62500000000E+02  0.47000000000E+01 0.  1.
         -5    1    1    0    0  501 -0.37066756517E+02  0.50086521458E+02 -0.12473690258E+01  0.62500000000E+02  0.47000000000E+01 0.  1.
</event>
<event>
 3    0  0.4580101E-005  0.9118800E+02  0.7546771E-02  0.1235069E+00
         25   -1    0    0    0    0  0.00000000000E+00  0.00000000000E+00  0.99999998245E-14  0.12500000000E+03  0.12500000000E+03 0.  0.
          5    1    1    0  501    0  0.54992536934E+02 -0.27283297357E+02  0.10751863414E+02  0.62500000000E+02  0.47000000000E+01 0. -1.
         -5    1    1    0    0  501 -0.54992536934E+02  0.27283297357E+02 -0.10751863414E+02  0.62500000000E+02  0.47000000000E+01 0. -1.
</event>
<event>
 3    0  0.4580101E-005  0.9118800E+02  0.7546771E-02  0.1235069E+00
         25   -1    0    0    0    0  0.00000000000E+00  0.00000000000E+00  0.99999998245E-14  0.12500000000E+03  0.12500000000E+03 0.  0.
          5    1    1    0  501    0  0.21319206800E+02  0.68583953576E+01  0.58160242731E+02  0.62500000000E+02  0.47000000000E+01 0. -1.
         -5    1    1    0    0  501 -0.21319206800E+02 -0.68583953576E+01 -0.58160242731E+02  0.62500000000E+02  0.47000000000E+01 0. -1.
</event>
<event>
 3    0  0.4580101E-005  0.9118800E+02  0.7546771E-02  0.1235069E+00
         25   -1    0    0    0    0  0.00000000000E+00  0.00000000000E+00  0.99999998245E-14  0.12500000000E+03  0.12500000000E+03 0.  0.
          5    1    1    0  501    0  0.61107844698E+02  0.11537412757E+02  0.41084575219E+01  0.62500000000E+02  0.47000000000E+01 0.  1.
         -5    1    1    0    0  501 -0.61107844698E+02 -0.11537412757E+02 -0.41084575219E+01  0.62500000000E+02  0.47000000000E+01 0.  1.
</event>
<event>
 3    0  0.4580101E-005  0.9118800E+02  0.7546771E-02  0.1235069E+00
         25   -1    0    0    0    0  0.00000000000E+00  0.00000000000E+00  0.99999998245E-14  0.12500000000E+03  0.12500000000E+03 0.  0.
          5    1    1    0  501    0 -0.54572803750E+02  0.20627114183E+02  0.21920110659E+02  0.62500000000E+02  0.47000000000E+01 0. -1.
         -5    1    1    0    0  501  0.54572803750E+02 -0.20627114183E+02 -0.21920110659E+02  0.62500000000E+02  0.47000000000E+01 0. -1.
</event>
<event>
 3    0  0.4580101E-005  0.9118800E+02  0.7546771E-02  0.1235069E+00
         25   -1    0    0    0    0  0.00000000000E+00  0.00000000000E+00  0.99999998245E-14  0.12500000000E+03  0.12500000000E+03 0.  0.
          5    1    1    0  501    0  0.17341611861E+01  0.50306351223E+02 -0.36748111674E+02  0.62500000000E+02  0.47000000000E+01 0. -1.
         -5    1    1    0    0  501 -0.17341611861E+01 -0.50306351223E+02  0.36748111674E+02  0.62500000000E+02  0.47000000000E+01 0. -1.
</event>
<event>
 3    0  0.4580101E-005  0.9118800E+02  0.7546771E-02  0.1235069E+00
         25   -1    0    0    0    0  0.00000000000E+00  0.00000000000E+00  0.99999998245E-14  0.12500000000E+03  0.12500000000E+03 0.  0.
          5    1    1    0  501    0 -0.33956495490E+02  0.63917470394E+01  0.51867735480E+02  0.62500000000E+02  0.47000000000E+01 0.  1.
         -5    1    1    0    0  501  0.33956495490E+02 -0.63917470394E+01 -0.51867735480E+02  0.62500000000E+02  0.47000000000E+01 0.  1.
</event>
<event>
 3    0  0.4580101E-005  0.9118800E+02  0.7546771E-02  0.1235069E+00
         25   -1    0    0    0    0  0.00000000000E+00  0.00000000000E+00  0.99999998245E-14  0.12500000000E+03  0.12500000000E+03 0.  0.
          5    1    1    0  501    0 -0.34873767369E+02 -0.34002950686E+02  0.38881611259E+02  0.62500000000E+02  0.47000000000E+01 0.  1.
         -5    1    1    0    0  501  0.34873767369E+02  0.34002950686E+02 -0.38881611259E+02  0.62500000000E+02  0.47000000000E+01 0.  1.
</event>
<event>
 3    0  0.4580101E-005  0.9118800E+02  0.7546771E-02  0.1235069E+00
         25   -1    0    0    0    0  0.00000000000E+00  0.00000000000E+00  0.99999998245E-14  0.12500000000E+03  0.12500000000E+03 0.  0.
          5    1    1    0  501    0  0.44250041768E+02  0.42431602496E+02 -0.11209501023E+02  0.62500000000E+02  0.47000000000E+01 0. -1.
         -5    1    1    0    0  501 -0.44250041768E+02 -0.42431602496E+02  0.11209501023E+02  0.62500000000E+02  0.47000000000E+01 0. -1.
</event>
<event>
 3    0  0.4580101E-005  0.9118800E+02  0.7546771E-02  0.1235069E+00
         25   -1    0    0    0    0  0.00000000000E+00  0.00000000000E+00  0.99999998245E-14  0.12500000000E+03  0.12500000000E+03 0.  0.
          5    1    1    0  501    0 -0.29356809519E+02  0.15019140117E+02 -0.52884432161E+02  0.62500000000E+02  0.47000000000E+01 0.  1.
         -5    1    1    0    0  501  0.29356809519E+02 -0.15019140117E+02  0.52884432161E+02  0.62500000000E+02  0.47000000000E+01 0.  1.
</event>
<event>
 3    0  0.4580101E-005  0.9118800E+02  0.7546771E-02  0.1235069E+00
         25   -1    0    0    0    0  0.00000000000E+00  0.00000000000E+00  0.99999998245E-14  0.12500000000E+03  0.12500000000E+03 0.  0.
          5    1    1    0  501    0 -0.13229021684E+02 -0.46540128684E+02 -0.39283194974E+02  0.62500000000E+02  0.47000000000E+01 0. -1.
         -5    1    1    0    0  501  0.13229021684E+02  0.46540128684E+02  0.39283194974E+02  0.62500000000E+02  0.47000000000E+01 0. -1.
</event>
<event>
 3    0  0.4580101E-005  0.9118800E+02  0.7546771E-02  0.1235069E+00
         25   -1    0    0    0    0  0.00000000000E+00  0.00000000000E+00  0.99999998245E-14  0.12500000000E+03  0.12500000000E+03 0.  0.
          5    1    1    0  501    0 -0.21807553887E+02  0.43077466321E+02 -0.39407137537E+02  0.62500000000E+02  0.47000000000E+01 0. -1.
         -5    1    1    0    0  501  0.21807553887E+02 -0.43077466321E+02  0.39407137537E+02  0.62500000000E+02  0.47000000000E+01 0. -1.
</event>
<event>
 3    0  0.4580101E-005  0.9118800E+02  0.7546771E-02  0.1235069E+00
         25   -1    0    0    0    0  0.00000000000E+00  0.00000000000E+00  0.99999998245E-14  0.12500000000E+03  0.12500000000E+03 0.  0.
          5    1    1    0  501    0  0.29777604397E+02  0.41802499136E+02 -0.35355414611E+02  0.62500000000E+02  0.47000000000E+01 0.  1.
         -5    1    1    0    0  501 -0.29777604397E+02 -0.41802499136E+02  0.35355414611E+02  0.62500000000E+02  0.47000000000E+01 0.  1.
</event>
<event>
 3    0  0.4580101E-005  0.9118800E+02  0.7546771E-02  0.1235069E+00
         25   -1    0    0    0    0  0.00000000000E+00  0.00000000000E+00  0.99999998245E-14  0.12500000000E+03  0.12500000000E+03 0.  0.
          5    1    1    0  501    0 -0.34637985688E+02  0.34999555294E+02  0.38202108276E+02  0.62500000000E+02  0.47000000000E+01 0. -1.
         -5    1    1    0    0  501  0.34637985688E+02 -0.34999555294E+02 -0.38202108276E+02  0.62500000000E+02  0.47000000000E+01 0. -1.
</event>
<event>
 3    0  0.4580101E-005  0.9118800E+02  0.7546771E-02  0.1235069E+00
         25   -1    0    0    0    0  0.00000000000E+00  0.00000000000E+00  0.99999998245E-14  0.12500000000E+03  0.12500000000E+03 0.  0.
          5    1    1    0  501    0  0.61564590659E+02  0.66991605017E+01  0.70058850656E+01  0.62500000000E+02  0.47000000000E+01 0.  1.
         -5    1    1    0    0  501 -0.61564590659E+02 -0.66991605017E+01 -0.70058850656E+01  0.62500000000E+02  0.47000000000E+01 0.  1.
</event>
<event>
 3    0  0.4580101E-005  0.9118800E+02  0.7546771E-02  0.1235069E+00
         25   -1    0    0    0    0  0.00000000000E+00  0.00000000000E+00  0.99999998245E-14  0.12500000000E+03  0.12500000000E+03 0.  0.
          5    1    1    0  501    0  0.50423729513E+02  0.21815924200E+01  0.36562934189E+02  0.62500000000E+02  0.47000000000E+01 0.  1.
         -5    1    1    0    0  501 -0.50423729513E+02 -0.21815924200E+01 -0.36562934189E+02  0.62500000000E+02  0.47000000000E+01 0.  1.
</event>
<event>
 3    0  0.4580101E-005  0.9118800E+02  0.7546771E-02  0.1235069E+00
         25   -1    0    0    0    0  0.00000000000E+00  0.00000000000E+00  0.99999998245E-14  0.12500000000E+03  0.12500000000E+03 0.  0.
          5    1    1    0  501    0 -0.92581753794E+00 -0.38950542730E+02 -0.48643170980E+02  0.62500000000E+02  0.47000000000E+01 0. -1.
         -5    1    1    0    0  501  0.92581753794E+00  0.38950542730E+02  0.48643170980E+02  0.62500000000E+02  0.47000000000E+01 0. -1.
</event>
<event>
 3    0  0.4580101E-005  0.9118800E+02  0.7546771E-02  0.1235069E+00
         25   -1    0    0    0    0  0.00000000000E+00  0.00000000000E+00  0.99999998245E-14  0.12500000000E+03  0.12500000000E+03 0.  0.
          5    1    1    0  501    0  0.63458454751E+01 -0.76630299932E+01  0.61523720763E+02  0.62500000000E+02  0.47000000000E+01 0.  1.
         -5    1    1    0    0  501 -0.63458454751E+01  0.76630299932E+01 -0.61523720763E+02  0.62500000000E+02  0.47000000000E+01 0.  1.
</event>
<event>
 3    0  0.4580101E-005  0.9118800E+02  0.7546771E-02  0.1235069E+00
         25   -1    0    0    0    0  0.00000000000E+00  0.00000000000E+00  0.99999998245E-14  0.12500000000E+03  0.12500000000E+03 0.  0.
          5    1    1    0  501    0 -0.60812161474E+02 -0.13608474029E+02 -0.92219924185E+00  0.62500000000E+02  0.47000000000E+01 0.  1.
         -5    1    1    0    0  501  0.60812161474E+02  0.13608474029E+02  0.92219924185E+00  0.62500000000E+02  0.47000000000E+01 0.  1.
</event>
<event>
 3    0  0.4580101E-005  0.9118800E+02  0.7546771E-02  0.1235069E+00
         25   -1    0    0    0    0  0.00000000000E+00  0.00000000000E+00  0.99999998245E-14  0.12500000000E+03  0.12500000000E+03 0.  0.
          5    1    1    0  501    0 -0.45939690719E+02 -0.39304634458E+02  0.15127806410E+02  0.62500000000E+02  0.47000000000E+01 0. -1.
         -5    1    1    0    0  501  0.45939690719E+02  0.39304634458E+02 -0.15127806410E+02  0.62500000000E+02  0.47000000000E+01 0. -1.
</event>
<event>
 3    0  0.4580101E-005  0.9118800E+02  0.7546771E-02  0.1235069E+00
         25   -1    0    0    0    0  0.00000000000E+00  0.00000000000E+00  0.99999998245E-14  0.12500000000E+03  0.12500000000E+03 0.  0.
          5    1    1    0  501    0  0.53895605286E+02  0.20114457424E+02 -0.23975661270E+02  0.62500000000E+02  0.47000000000E+01 0. -1.
         -5    1    1    0    0  501 -0.53895605286E+02 -0.20114457424E+02  0.23975661270E+02  0.62500000000E+02  0.47000000000E+01 0. -1.
</event>
<event>
 3    0  0.4580101E-005  0.9118800E+02  0.7546771E-02  0.1235069E+00
         25   -1    0    0    0    0  0.00000000000E+00  0.00000000000E+00  0.99999998245E-14  0.12500000000E+03  0.12500000000E+03 0.  0.
          5    1    1    0  501    0  0.29694605605E+02  0.39397804806E+02 -0.38081535873E+02  0.62500000000E+02  0.47000000000E+01 0. -1.
         -5    1    1    0    0  501 -0.29694605605E+02 -0.39397804806E+02  0.38081535873E+02  0.62500000000E+02  0.47000000000E+01 0. -1.
</event>
<event>
 3    0  0.4580101E-005  0.9118800E+02  0.7546771E-02  0.1235069E+00
         25   -1    0    0    0    0  0.00000000000E+00  0.00000000000E+00  0.99999998245E-14  0.12500000000E+03  0.12500000000E+03 0.  0.
          5    1    1    0  501    0  0.59983166514E+02  0.28749143778E+01  0.16670770895E+02  0.62500000000E+02  0.47000000000E+01 0. -1.
         -5    1    1    0    0  501 -0.59983166514E+02 -0.28749143778E+01 -0.16670770895E+02  0.62500000000E+02  0.47000000000E+01 0. -1.
</event>
<event>
 3    0  0.4580101E-005  0.9118800E+02  0.7546771E-02  0.1235069E+00
         25   -1    0    0    0    0  0.00000000000E+00  0.00000000000E+00  0.99999998245E-14  0.12500000000E+03  0.12500000000E+03 0.  0.
          5    1    1    0  501    0 -0.34307823014E+02 -0.36509992537E+02  0.37069579509E+02  0.62500000000E+02  0.47000000000E+01 0. -1.
         -5    1    1    0    0  501  0.34307823014E+02  0.36509992537E+02 -0.37069579509E+02  0.62500000000E+02  0.47000000000E+01 0. -1.
</event>
<event>
 3    0  0.4580101E-005  0.9118800E+02  0.7546771E-02  0.1235069E+00
         25   -1    0    0    0    0  0.00000000000E+00  0.00000000000E+00  0.99999998245E-14  0.12500000000E+03  0.12500000000E+03 0.  0.
          5    1    1    0  501    0  0.57480965353E+02  0.11650279293E+02  0.21080076246E+02  0.62500000000E+02  0.47000000000E+01 0.  1.
         -5    1    1    0    0  501 -0.57480965353E+02 -0.11650279293E+02 -0.21080076246E+02  0.62500000000E+02  0.47000000000E+01 0.  1.
</event>
<event>
 3    0  0.4580101E-005  0.9118800E+02  0.7546771E-02  0.1235069E+00
         25   -1    0    0    0    0  0.00000000000E+00  0.00000000000E+00  0.99999998245E-14  0.12500000000E+03  0.12500000000E+03 0.  0.
          5    1    1    0  501    0 -0.29397250261E+02  0.52648432583E+02  0.15751324505E+02  0.62500000000E+02  0.47000000000E+01 0. -1.
         -5    1    1    0    0  501  0.29397250261E+02 -0.52648432583E+02 -0.15751324505E+02  0.62500000000E+02  0.47000000000E+01 0. -1.
</event>
<event>
 3    0  0.4580101E-005  0.9118800E+02  0.7546771E-02  0.1235069E+00
         25   -1    0    0    0    0  0.00000000000E+00  0.00000000000E+00  0.99999998245E-14  0.12500000000E+03  0.12500000000E+03 0.  0.
          5    1    1    0  501    0 -0.17207114584E+02  0.30577364921E+02 -0.51508251399E+02  0.62500000000E+02  0.47000000000E+01 0.  1.
         -5    1    1    0    0  501  0.17207114584E+02 -0.30577364921E+02  0.51508251399E+02  0.62500000000E+02  0.47000000000E+01 0.  1.
</event>
<event>
 3    0  0.4580101E-005  0.9118800E+02  0.7546771E-02  0.1235069E+00
         25   -1    0    0    0    0  0.00000000000E+00  0.00000000000E+00  0.99999998245E-14  0.12500000000E+03  0.12500000000E+03 0.  0.
          5    1    1    0  501    0  0.45943720394E+02  0.42005867419E+02  0.29734926927E+01  0.62500000000E+02  0.47000000000E+01 0. -1.
         -5    1    1    0    0  501 -0.45943720394E+02 -0.42005867419E+02 -0.29734926927E+01  0.62500000000E+02  0.47000000000E+01 0. -1.
</event>
<event>
 3    0  0.4580101E-005  0.9118800E+02  0.7546771E-02  0.1235069E+00
         25   -1    0    0    0    0  0.00000000000E+00  0.00000000000E+00  0.99999998245E-14  0.12500000000E+03  0.12500000000E+03 0.  0.
          5    1    1    0  501    0 -0.21826215639E+02 -0.43613518563E+02 -0.38802542564E+02  0.62500000000E+02  0.47000000000E+01 0.  1.
         -5    1    1    0    0  501  0.21826215639E+02  0.43613518563E+02  0.38802542564E+02  0.62500000000E+02  0.47000000000E+01 0.  1.
</event>
<event>
 3    0  0.4580101E-005  0.9118800E+02  0.7546771E-02  0.1235069E+00
         25   -1    0    0    0    0  0.00000000000E+00  0.00000000000E+00  0.99999998245E-14  0.12500000000E+03  0.12500000000E+03 0.  0.
          5    1    1    0  501    0 -0.86653924304E+00 -0.47889759429E+02  0.39874553935E+02  0.62500000000E+02  0.47000000000E+01 0.  1.
         -5    1    1    0    0  501  0.86653924304E+00  0.47889759429E+02 -0.39874553935E+02  0.62500000000E+02  0.47000000000E+01 0.  1.
</event>
<event>
 3    0  0.4580101E-005  0.9118800E+02  0.7546771E-02  0.1235069E+00
         25   -1    0    0    0    0  0.00000000000E+00  0.00000000000E+00  0.99999998245E-14  0.12500000000E+03  0.12500000000E+03 0.  0.
          5    1    1    0  501    0  0.32748669817E+02  0.93906234952E+01  0.52187170986E+02  0.62500000000E+02  0.47000000000E+01 0. -1.
         -5    1    1    0    0  501 -0.32748669817E+02 -0.93906234952E+01 -0.52187170986E+02  0.62500000000E+02  0.47000000000E+01 0. -1.
</event>
<event>
 3    0  0.4580101E-005  0.9118800E+02  0.7546771E-02  0.1235069E+00
         25   -1    0    0    0    0  0.00000000000E+00  0.00000000000E+00  0.99999998245E-14  0.12500000000E+03  0.12500000000E+03 0.  0.
          5    1    1    0  501    0  0.54842581806E+02 -0.28751927637E+02 -0.70553439330E+01  0.62500000000E+02  0.47000000000E+01 0.  1.
         -5    1    1    0    0  501 -0.54842581806E+02  0.28751927637E+02  0.70553439330E+01  0.62500000000E+02  0.47000000000E+01 0.  1.
</event>
<event>
 3    0  0.4580101E-005  0.9118800E+02  0.7546771E-02  0.1235069E+00
         25   -1    0    0    0    0  0.00000000000E+00  0.00000000000E+00  0.99999998245E-14  0.12500000000E+03  0.12500000000E+03 0.  0.
          5    1    1    0  501    0  0.20100290967E+02  0.26039290542E+02 -0.52934805668E+02  0.62500000000E+02  0.47000000000E+01 0. -1.
         -5    1    1    0    0  501 -0.20100290967E+02 -0.26039290542E+02  0.52934805668E+02  0.62500000000E+02  0.47000000000E+01 0. -1.
</event>
<event>
 3    0  0.4580101E-005  0.9118800E+02  0.7546771E-02  0.1235069E+00
         25   -1    0    0    0    0  0.00000000000E+00  0.00000000000E+00  0.99999998245E-14  0.12500000000E+03  0.12500000000E+03 0.  0.
          5    1    1    0  501    0  0.44147755246E+02  0.36048026619E+02 -0.25212605650E+02  0.62500000000E+02  0.47000000000E+01 0.  1.
         -5    1    1    0    0  501 -0.44147755246E+02 -0.36048026619E+02  0.25212605650E+02  0.62500000000E+02  0.47000000000E+01 0.  1.
</event>
<event>
 3    0  0.4580101E-005  0.9118800E+02  0.7546771E-02  0.1235069E+00
         25   -1    0    0    0    0  0.00000000000E+00  0.00000000000E+00  0.99999998245E-14  0.12500000000E+03  0.12500000000E+03 0.  0.
          5    1    1    0  501    0 -0.37066953237E+01 -0.62203341862E+02  0.10791992574E+01  0.62500000000E+02  0.47000000000E+01 0.  1.
         -5    1    1    0    0  501  0.37066953237E+01  0.62203341862E+02 -0.10791992574E+01  0.62500000000E+02  0.47000000000E+01 0.  1.
</event>
<event>
 3    0  0.4580101E-005  0.9118800E+02  0.7546771E-02  0.1235069E+00
         25   -1    0    0    0    0  0.00000000000E+00  0.00000000000E+00  0.99999998245E-14  0.12500000000E+03  0.12500000000E+03 0.  0.
          5    1    1    0  501    0 -0.43226867118E+02 -0.21972811151E+02  0.39150907132E+02  0.62500000000E+02  0.47000000000E+01 0.  1.
         -5    1    1    0    0  501  0.43226867118E+02  0.21972811151E+02 -0.39150907132E+02  0.62500000000E+02  0.47000000000E+01 0.  1.
</event>
<event>
 3    0  0.4580101E-005  0.9118800E+02  0.7546771E-02  0.1235069E+00
         25   -1    0    0    0    0  0.00000000000E+00  0.00000000000E+00  0.99999998245E-14  0.12500000000E+03  0.12500000000E+03 0.  0.
          5    1    1    0  501    0  0.27438903087E+01 -0.59289013848E+02  0.19011678067E+02  0.62500000000E+02  0.47000000000E+01 0. -1.
         -5    1    1    0    0  501 -0.27438903087E+01  0.59289013848E+02 -0.19011678067E+02  0.62500000000E+02  0.47000000000E+01 0. -1.
</event>
<event>
 3    0  0.4580101E-005  0.9118800E+02  0.7546771E-02  0.1235069E+00
         25   -1    0    0    0    0  0.00000000000E+00  0.00000000000E+00  0.99999998245E-14  0.12500000000E+03  0.12500000000E+03 0.  0.
          5    1    1    0  501    0 -0.31741551935E+02 -0.27421125557E+02 -0.46094639102E+02  0.62500000000E+02  0.47000000000E+01 0.  1.
         -5    1    1    0    0  501  0.31741551935E+02  0.27421125557E+02  0.46094639102E+02  0.62500000000E+02  0.47000000000E+01 0.  1.
</event>
<event>
 3    0  0.4580101E-005  0.9118800E+02  0.7546771E-02  0.1235069E+00
         25   -1    0    0    0    0  0.00000000000E+00  0.00000000000E+00  0.99999998245E-14  0.12500000000E+03  0.12500000000E+03 0.  0.
          5    1    1    0  501    0  0.30448119299E+02 -0.29848616418E+02  0.45454726147E+02  0.62500000000E+02  0.47000000000E+01 0.  1.
         -5    1    1    0    0  501 -0.30448119299E+02  0.29848616418E+02 -0.45454726147E+02  0.62500000000E+02  0.47000000000E+01 0.  1.
</event>
<event>
 3    0  0.4580101E-005  0.9118800E+02  0.7546771E-02  0.1235069E+00
         25   -1    0    0    0    0  0.00000000000E+00  0.00000000000E+00  0.99999998245E-14  0.12500000000E+03  0.12500000000E+03 0.  0.
          5    1    1    0  501    0  0.32275259016E+02  0.52955001155E+02 -0.61834867333E+01  0.62500000000E+02  0.47000000000E+01 0.  1.
         -5    1    1    0    0  501 -0.32275259016E+02 -0.52955001155E+02  0.61834867333E+01  0.62500000000E+02  0.47000000000E+01 0.  1.
</event>
<event>
 3    0  0.4580101E-005  0.9118800E+02  0.7546771E-02  0.1235069E+00
         25   -1    0    0    0    0  0.00000000000E+00  0.00000000000E+00  0.99999998245E-14  0.12500000000E+03  0.12500000000E+03 0.  0.
          5    1    1    0  501    0 -0.23134326571E+02  0.46699194812E+02  0.34178182193E+02  0.62500000000E+02  0.47000000000E+01 0. -1.
         -5    1    1    0    0  501  0.23134326571E+02 -0.46699194812E+02 -0.34178182193E+02  0.62500000000E+02  0.47000000000E+01 0. -1.
</event>
<event>
 3    0  0.4580101E-005  0.9118800E+02  0.7546771E-02  0.1235069E+00
         25   -1    0    0    0    0  0.00000000000E+00  0.00000000000E+00  0.99999998245E-14  0.12500000000E+03  0.12500000000E+03 0.  0.
          5    1    1    0  501    0  0.40588303483E+02  0.33976418934E+02 -0.32899127295E+02  0.62500000000E+02  0.47000000000E+01 0.  1.
         -5    1    1    0    0  501 -0.40588303483E+02 -0.33976418934E+02  0.32899127295E+02  0.62500000000E+02  0.47000000000E+01 0.  1.
</event>
<event>
 3    0  0.4580101E-005  0.9118800E+02  0.7546771E-02  0.1235069E+00
         25   -1    0    0    0    0  0.00000000000E+00  0.00000000000E+00  0.99999998245E-14  0.12500000000E+03  0.12500000000E+03 0.  0.
          5    1    1    0  501    0 -0.17531186856E+02 -0.56377886755E+02 -0.19958741756E+02  0.62500000000E+02  0.47000000000E+01 0.  1.
         -5    1    1    0    0  501  0.17531186856E+02  0.56377886755E+02  0.19958741756E+02  0.62500000000E+02  0.47000000000E+01 0.  1.
</event>
<event>
 3    0  0.4580101E-005  0.9118800E+02  0.7546771E-02  0.1235069E+00
         25   -1    0    0    0    0  0.00000000000E+00  0.00000000000E+00  0.99999998245E-14  0.12500000000E+03  0.12500000000E+03 0.  0.
          5    1    1    0  501    0  0.38989877798E+02  0.24583073572E+02 -0.41947847657E+02  0.62500000000E+02  0.47000000000E+01 0.  1.
         -5    1    1    0    0  501 -0.38989877798E+02 -0.24583073572E+02  0.41947847657E+02  0.62500000000E+02  0.47000000000E+01 0.  1.
</event>
<event>
 3    0  0.4580101E-005  0.9118800E+02  0.7546771E-02  0.1235069E+00
         25   -1    0    0    0    0  0.00000000000E+00  0.00000000000E+00  0.99999998245E-14  0.12500000000E+03  0.12500000000E+03 0.  0.
          5    1    1    0  501    0 -0.34704463117E+02 -0.16735924994E+01 -0.51739340234E+02  0.62500000000E+02  0.47000000000E+01 0.  1.
         -5    1    1    0    0  501  0.34704463117E+02  0.16735924994E+01  0.51739340234E+02  0.62500000000E+02  0.47000000000E+01 0.  1.
</event>
<event>
 3    0  0.4580101E-005  0.9118800E+02  0.7546771E-02  0.1235069E+00
         25   -1    0    0    0    0  0.00000000000E+00  0.00000000000E+00  0.99999998245E-14  0.12500000000E+03  0.12500000000E+03 0.  0.
          5    1    1    0  501    0  0.34126153845E+02  0.36904986069E+02  0.36845455988E+02  0.62500000000E+02  0.47000000000E+01 0. -1.
         -5    1    1    0    0  501 -0.34126153845E+02 -0.36904986069E+02 -0.36845455988E+02  0.62500000000E+02  0.47000000000E+01 0. -1.
</event>
<event>
 3    0  0.4580101E-005  0.9118800E+02  0.7546771E-02  0.1235069E+00
         25   -1    0    0    0    0  0.00000000000E+00  0.00000000000E+00  0.99999998245E-14  0.12500000000E+03  0.12500000000E+03 0.  0.
          5    1    1    0  501    0  0.32757692218E+02  0.44785484892E+02  0.28378758668E+02  0.62500000000E+02  0.47000000000E+01 0.  1.
         -5    1    1    0    0  501 -0.32757692218E+02 -0.44785484892E+02 -0.28378758668E+02  0.62500000000E+02  0.47000000000E+01 0.  1.
</event>
<event>
 3    0  0.4580101E-005  0.9118800E+02  0.7546771E-02  0.1235069E+00
         25   -1    0    0    0    0  0.00000000000E+00  0.00000000000E+00  0.99999998245E-14  0.12500000000E+03  0.12500000000E+03 0.  0.
          5    1    1    0  501    0  0.37767334738E+02  0.49186138663E+02  0.62058190595E+01  0.62500000000E+02  0.47000000000E+01 0.  1.
         -5    1    1    0    0  501 -0.37767334738E+02 -0.49186138663E+02 -0.62058190595E+01  0.62500000000E+02  0.47000000000E+01 0.  1.
</event>
<event>
 3    0  0.4580101E-005  0.9118800E+02  0.7546771E-02  0.1235069E+00
         25   -1    0    0    0    0  0.00000000000E+00  0.00000000000E+00  0.99999998245E-14  0.12500000000E+03  0.12500000000E+03 0.  0.
          5    1    1    0  501    0  0.94941089894E+01  0.61216594545E+02 -0.68227887817E+01  0.62500000000E+02  0.47000000000E+01 0. -1.
         -5    1    1    0    0  501 -0.94941089894E+01 -0.61216594545E+02  0.68227887817E+01  0.62500000000E+02  0.47000000000E+01 0. -1.
</event>
<event>
 3    0  0.4580101E-005  0.9118800E+02  0.7546771E-02  0.1235069E+00
         25   -1    0    0    0    0  0.00000000000E+00  0.00000000000E+00  0.99999998245E-14  0.12500000000E+03  0.12500000000E+03 0.  0.
          5    1    1    0  501    0 -0.59224992247E+02 -0.17560710560E+02 -0.82572233807E+01  0.62500000000E+02  0.47000000000E+01 0.  1.
         -5    1    1    0    0  501  0.59224992247E+02  0.17560710560E+02  0.82572233807E+01  0.62500000000E+02  0.47000000000E+01 0.  1.
</event>
<event>
 3    0  0.4580101E-005  0.9118800E+02  0.7546771E-02  0.1235069E+00
         25   -1    0    0    0    0  0.00000000000E+00  0.00000000000E+00  0.99999998245E-14  0.12500000000E+03  0.12500000000E+03 0.  0.
          5    1    1    0  501    0 -0.42646571317E+02  0.35186327278E+02  0.28763732851E+02  0.62500000000E+02  0.47000000000E+01 0. -1.
         -5    1    1    0    0  501  0.42646571317E+02 -0.35186327278E+02 -0.28763732851E+02  0.62500000000E+02  0.47000000000E+01 0. -1.
</event>
<event>
 3    0  0.4580101E-005  0.9118800E+02  0.7546771E-02  0.1235069E+00
         25   -1    0    0    0    0  0.00000000000E+00  0.00000000000E+00  0.99999998245E-14  0.12500000000E+03  0.12500000000E+03 0.  0.
          5    1    1    0  501    0 -0.68130977108E+01  0.44647326495E+02  0.42945988595E+02  0.62500000000E+02  0.47000000000E+01 0. -1.
         -5    1    1    0    0  501  0.68130977108E+01 -0.44647326495E+02 -0.42945988595E+02  0.62500000000E+02  0.47000000000E+01 0. -1.
</event>
<event>
 3    0  0.4580101E-005  0.9118800E+02  0.7546771E-02  0.1235069E+00
         25   -1    0    0    0    0  0.00000000000E+00  0.00000000000E+00  0.99999998245E-14  0.12500000000E+03  0.12500000000E+03 0.  0.
          5    1    1    0  501    0 -0.58470783482E+02  0.21546848340E+02  0.10299542070E+01  0.62500000000E+02  0.47000000000E+01 0. -1.
         -5    1    1    0    0  501  0.58470783482E+02 -0.21546848340E+02 -0.10299542070E+01  0.62500000000E+02  0.47000000000E+01 0. -1.
</event>
<event>
 3    0  0.4580101E-005  0.9118800E+02  0.7546771E-02  0.1235069E+00
         25   -1    0    0    0    0  0.00000000000E+00  0.00000000000E+00  0.99999998245E-14  0.12500000000E+03  0.12500000000E+03 0.  0.
          5    1    1    0  501    0  0.20870253684E+02  0.42812938049E+02  0.40195084858E+02  0.62500000000E+02  0.47000000000E+01 0.  1.
         -5    1    1    0    0  501 -0.20870253684E+02 -0.42812938049E+02 -0.40195084858E+02  0.62500000000E+02  0.47000000000E+01 0.  1.
</event>
<event>
 3    0  0.4580101E-005  0.9118800E+02  0.7546771E-02  0.1235069E+00
         25   -1    0    0    0    0  0.00000000000E+00  0.00000000000E+00  0.99999998245E-14  0.12500000000E+03  0.12500000000E+03 0.  0.
          5    1    1    0  501    0  0.51693687704E+02 -0.30466350694E+00  0.34811346308E+02  0.62500000000E+02  0.47000000000E+01 0.  1.
         -5    1    1    0    0  501 -0.51693687704E+02  0.30466350694E+00 -0.34811346308E+02  0.62500000000E+02  0.47000000000E+01 0.  1.
</event>
<event>
 3    0  0.4580101E-005  0.9118800E+02  0.7546771E-02  0.1235069E+00
         25   -1    0    0    0    0  0.00000000000E+00  0.00000000000E+00  0.99999998245E-14  0.12500000000E+03  0.12500000000E+03 0.  0.
          5    1    1    0  501    0 -0.21212057966E+02  0.13266480505E+02  0.57080724346E+02  0.62500000000E+02  0.47000000000E+01 0.  1.
         -5    1    1    0    0  501  0.21212057966E+02 -0.13266480505E+02 -0.57080724346E+02  0.62500000000E+02  0.47000000000E+01 0.  1.
</event>
<event>
 3    0  0.4580101E-005  0.9118800E+02  0.7546771E-02  0.1235069E+00
         25   -1    0    0    0    0  0.00000000000E+00  0.00000000000E+00  0.99999998245E-14  0.12500000000E+03  0.12500000000E+03 0.  0.
          5    1    1    0  501    0  0.48804019680E+02  0.25529290499E+01  0.38675705764E+02  0.62500000000E+02  0.47000000000E+01 0.  1.
         -5    1    1    0    0  501 -0.48804019680E+02 -0.25529290499E+01 -0.38675705764E+02  0.62500000000E+02  0.47000000000E+01 0.  1.
</event>
<event>
 3    0  0.4580101E-005  0.9118800E+02  0.7546771E-02  0.1235069E+00
         25   -1    0    0    0    0  0.00000000000E+00  0.00000000000E+00  0.99999998245E-14  0.12500000000E+03  0.12500000000E+03 0.  0.
          5    1    1    0  501    0 -0.41547769767E+02  0.16837125798E+02  0.43294965322E+02  0.62500000000E+02  0.47000000000E+01 0. -1.
         -5    1    1    0    0  501  0.41547769767E+02 -0.16837125798E+02 -0.43294965322E+02  0.62500000000E+02  0.47000000000E+01 0. -1.
</event>
<event>
 3    0  0.4580101E-005  0.9118800E+02  0.7546771E-02  0.1235069E+00
         25   -1    0    0    0    0  0.00000000000E+00  0.00000000000E+00  0.99999998245E-14  0.12500000000E+03  0.12500000000E+03 0.  0.
          5    1    1    0  501    0 -0.17990494775E+02 -0.58101333609E+02  0.13591803803E+02  0.62500000000E+02  0.47000000000E+01 0.  1.
         -5    1    1    0    0  501  0.17990494775E+02  0.58101333609E+02 -0.13591803803E+02  0.62500000000E+02  0.47000000000E+01 0.  1.
</event>
<event>
 3    0  0.4580101E-005  0.9118800E+02  0.7546771E-02  0.1235069E+00
         25   -1    0    0    0    0  0.00000000000E+00  0.00000000000E+00  0.99999998245E-14  0.12500000000E+03  0.12500000000E+03 0.  0.
          5    1    1    0  501    0  0.24645942868E+02  0.53637231073E+02 -0.19994622851E+02  0.62500000000E+02  0.47000000000E+01 0. -1.
         -5    1    1    0    0  501 -0.24645942868E+02 -0.53637231073E+02  0.19994622851E+02  0.62500000000E+02  0.47000000000E+01 0. -1.
</event>
<event>
 3    0  0.4580101E-005  0.9118800E+02  0.7546771E-02  0.1235069E+00
         25   -1    0    0    0    0  0.00000000000E+00  0.00000000000E+00  0.99999998245E-14  0.12500000000E+03  0.12500000000E+03 0.  0.
          5    1    1    0  501    0 -0.47874750662E+02 -0.92986860461E+01  0.38803384992E+02  0.62500000000E+02  0.47000000000E+01 0. -1.
         -5    1    1    0    0  501  0.47874750662E+02  0.92986860461E+01 -0.38803384992E+02  0.62500000000E+02  0.47000000000E+01 0. -1.
</event>
<event>
 3    0  0.4580101E-005  0.9118800E+02  0.7546771E-02  0.1235069E+00
         25   -1    0    0    0    0  0.00000000000E+00  0.00000000000E+00  0.99999998245E-14  0.12500000000E+03  0.12500000000E+03 0.  0.
          5    1    1    0  501    0 -0.23467165982E+02  0.59395890735E+01 -0.57429725773E+02  0.62500000000E+02  0.47000000000E+01 0.  1.
         -5    1    1    0    0  501  0.23467165982E+02 -0.59395890735E+01  0.57429725773E+02  0.62500000000E+02  0.47000000000E+01 0.  1.
</event>
<event>
 3    0  0.4580101E-005  0.9118800E+02  0.7546771E-02  0.1235069E+00
         25   -1    0    0    0    0  0.00000000000E+00  0.00000000000E+00  0.99999998245E-14  0.12500000000E+03  0.12500000000E+03 0.  0.
          5    1    1    0  501    0 -0.22406111206E+02 -0.18042562355E+02 -0.55286455161E+02  0.62500000000E+02  0.47000000000E+01 0. -1.
         -5    1    1    0    0  501  0.22406111206E+02  0.18042562355E+02  0.55286455161E+02  0.62500000000E+02  0.47000000000E+01 0. -1.
</event>
<event>
 3    0  0.4580101E-005  0.9118800E+02  0.7546771E-02  0.1235069E+00
         25   -1    0    0    0    0  0.00000000000E+00  0.00000000000E+00  0.99999998245E-14  0.12500000000E+03  0.12500000000E+03 0.  0.
          5    1    1    0  501    0  0.26205670695E+02 -0.26348600253E+02  0.50031730813E+02  0.62500000000E+02  0.47000000000E+01 0.  1.
         -5    1    1    0    0  501 -0.26205670695E+02  0.26348600253E+02 -0.50031730813E+02  0.62500000000E+02  0.47000000000E+01 0.  1.
</event>
<event>
 3    0  0.4580101E-005  0.9118800E+02  0.7546771E-02  0.1235069E+00
         25   -1    0    0    0    0  0.00000000000E+00  0.00000000000E+00  0.99999998245E-14  0.12500000000E+03  0.12500000000E+03 0.  0.
          5    1    1    0  501    0 -0.32608051761E+02 -0.31065857706E+02 -0.43078851485E+02  0.62500000000E+02  0.47000000000E+01 0. -1.
         -5    1    1    0    0  501  0.32608051761E+02  0.31065857706E+02  0.43078851485E+02  0.62500000000E+02  0.47000000000E+01 0. -1.
</event>
<event>
 3    0  0.4580101E-005  0.9118800E+02  0.7546771E-02  0.1235069E+00
         25   -1    0    0    0    0  0.00000000000E+00  0.00000000000E+00  0.99999998245E-14  0.12500000000E+03  0.12500000000E+03 0.  0.
          5    1    1    0  501    0  0.41161799614E+02 -0.28656381458E+02 -0.36995649126E+02  0.62500000000E+02  0.47000000000E+01 0.  1.
         -5    1    1    0    0  501 -0.41161799614E+02  0.28656381458E+02  0.36995649126E+02  0.62500000000E+02  0.47000000000E+01 0.  1.
</event>
<event>
 3    0  0.4580101E-005  0.9118800E+02  0.7546771E-02  0.1235069E+00
         25   -1    0    0    0    0  0.00000000000E+00  0.00000000000E+00  0.99999998245E-14  0.12500000000E+03  0.12500000000E+03 0.  0.
          5    1    1    0  501    0  0.16465128068E+02 -0.57605471509E+02  0.17165931667E+02  0.62500000000E+02  0.47000000000E+01 0.  1.
         -5    1    1    0    0  501 -0.16465128068E+02  0.57605471509E+02 -0.17165931667E+02  0.62500000000E+02  0.47000000000E+01 0.  1.
</event>
<event>
 3    0  0.4580101E-005  0.9118800E+02  0.7546771E-02  0.1235069E+00
         25   -1    0    0    0    0  0.00000000000E+00  0.00000000000E+00  0.99999998245E-14  0.12500000000E+03  0.12500000000E+03 0.  0.
          5    1    1    0  501    0 -0.15699001710E+02  0.13850145194E+01 -0.60297455005E+02  0.62500000000E+02  0.47000000000E+01 0. -1.
         -5    1    1    0    0  501  0.15699001710E+02 -0.13850145194E+01  0.60297455005E+02  0.62500000000E+02  0.47000000000E+01 0. -1.
</event>
<event>
 3    0  0.4580101E-005  0.9118800E+02  0.7546771E-02  0.1235069E+00
         25   -1    0    0    0    0  0.00000000000E+00  0.00000000000E+00  0.99999998245E-14  0.12500000000E+03  0.12500000000E+03 0.  0.
          5    1    1    0  501    0  0.15932401434E+02  0.20934233935E+02  0.56498463998E+02  0.62500000000E+02  0.47000000000E+01 0.  1.
         -5    1    1    0    0  501 -0.15932401434E+02 -0.20934233935E+02 -0.56498463998E+02  0.62500000000E+02  0.47000000000E+01 0.  1.
</event>
<event>
 3    0  0.4580101E-005  0.9118800E+02  0.7546771E-02  0.1235069E+00
         25   -1    0    0    0    0  0.00000000000E+00  0.00000000000E+00  0.99999998245E-14  0.12500000000E+03  0.12500000000E+03 0.  0.
          5    1    1    0  501    0  0.76377046815E+01  0.26673537723E+02 -0.55806342404E+02  0.62500000000E+02  0.47000000000E+01 0. -1.
         -5    1    1    0    0  501 -0.76377046815E+01 -0.26673537723E+02  0.55806342404E+02  0.62500000000E+02  0.47000000000E+01 0. -1.
</event>
<event>
 3    0  0.4580101E-005  0.9118800E+02  0.7546771E-02  0.1235069E+00
         25   -1    0    0    0    0  0.00000000000E+00  0.00000000000E+00  0.99999998245E-14  0.12500000000E+03  0.12500000000E+03 0.  0.
          5    1    1    0  501    0  0.62294317236E+02  0.12100826471E+01 -0.14538707439E+01  0.62500000000E+02  0.47000000000E+01 0.  1.
         -5    1    1    0    0  501 -0.62294317236E+02 -0.12100826471E+01  0.14538707439E+01  0.62500000000E+02  0.47000000000E+01 0.  1.
</event>
<event>
 3    0  0.4580101E-005  0.9118800E+02  0.7546771E-02  0.1235069E+00
         25   -1    0    0    0    0  0.00000000000E+00  0.00000000000E+00  0.99999998245E-14  0.12500000000E+03  0.12500000000E+03 0.  0.
          5    1    1    0  501    0 -0.56851248669E+02 -0.12897759328E+02  0.22039585501E+02  0.62500000000E+02  0.47000000000E+01 0.  1.
         -5    1    1    0    0  501  0.56851248669E+02  0.12897759328E+02 -0.22039585501E+02  0.62500000000E+02  0.47000000000E+01 0.  1.
</event>
<event>
 3    0  0.4580101E-005  0.9118800E+02  0.7546771E-02  0.1235069E+00
         25   -1    0    0    0    0  0.00000000000E+00  0.00000000000E+00  0.99999998245E-14  0.12500000000E+03  0.12500000000E+03 0.  0.
          5    1    1    0  501    0 -0.65128611878E-01 -0.86905684430E+01 -0.61714097080E+02  0.62500000000E+02  0.47000000000E+01 0. -1.
         -5    1    1    0    0  501  0.65128611878E-01  0.86905684430E+01  0.61714097080E+02  0.62500000000E+02  0.47000000000E+01 0. -1.
</event>
<event>
 3    0  0.4580101E-005  0.9118800E+02  0.7546771E-02  0.1235069E+00
         25   -1    0    0    0    0  0.00000000000E+00  0.00000000000E+00  0.99999998245E-14  0.12500000000E+03  0.12500000000E+03 0.  0.
          5    1    1    0  501    0  0.57719669085E+02  0.28990702089E+01 -0.23327991613E+02  0.62500000000E+02  0.47000000000E+01 0. -1.
         -5    1    1    0    0  501 -0.57719669085E+02 -0.28990702089E+01  0.23327991613E+02  0.62500000000E+02  0.47000000000E+01 0. -1.
</event>
<event>
 3    0  0.4580101E-005  0.9118800E+02  0.7546771E-02  0.1235069E+00
         25   -1    0    0    0    0  0.00000000000E+00  0.00000000000E+00  0.99999998245E-14  0.12500000000E+03  0.12500000000E+03 0.  0.
          5    1    1    0  501    0  0.22095038697E+02 -0.62227630426E+01  0.57941750794E+02  0.62500000000E+02  0.47000000000E+01 0. -1.
         -5    1    1    0    0  501 -0.22095038697E+02  0.62227630426E+01 -0.57941750794E+02  0.62500000000E+02  0.47000000000E+01 0. -1.
</event>
<event>
 3    0  0.4580101E-005  0.9118800E+02  0.7546771E-02  0.1235069E+00
         25   -1    0    0    0    0  0.00000000000E+00  0.00000000000E+00  0.99999998245E-14  0.12500000000E+03  0.12500000000E+03 0.  0.
          5    1    1    0  501    0 -0.10336605038E+02  0.27294729391E+02  0.55066435728E+02  0.62500000000E+02  0.47000000000E+01 0. -1.
         -5    1    1    0    0  501  0.10336605038E+02 -0.27294729391E+02 -0.55066435728E+02  0.62500000000E+02  0.47000000000E+01 0. -1.
</event>
<event>
 3    0  0.4580101E-005  0.9118800E+02  0.7546771E-02  0.1235069E+00
         25   -1    0    0    0    0  0.00000000000E+00  0.00000000000E+00  0.99999998245E-14  0.12500000000E+03  0.12500000000E+03 0.  0.
          5    1    1    0  501    0 -0.50926744269E+02  0.32089806083E+02 -0.16151503451E+02  0.62500000000E+02  0.47000000000E+01 0.  1.
         -5    1    1    0    0  501  0.50926744269E+02 -0.32089806083E+02  0.16151503451E+02  0.62500000000E+02  0.47000000000E+01 0.  1.
</event>
<event>
 3    0  0.4580101E-005  0.9118800E+02  0.7546771E-02  0.1235069E+00
         25   -1    0    0    0    0  0.00000000000E+00  0.00000000000E+00  0.99999998245E-14  0.12500000000E+03  0.12500000000E+03 0.  0.
          5    1    1    0  501    0 -0.35942527675E+02 -0.45179591193E+02 -0.23475503062E+02  0.62500000000E+02  0.47000000000E+01 0. -1.
         -5    1    1    0    0  501  0.35942527675E+02  0.45179591193E+02  0.23475503062E+02  0.62500000000E+02  0.47000000000E+01 0. -1.
</event>
<event>
 3    0  0.4580101E-005  0.9118800E+02  0.7546771E-02  0.1235069E+00
         25   -1    0    0    0    0  0.00000000000E+00  0.00000000000E+00  0.99999998245E-14  0.12500000000E+03  0.12500000000E+03 0.  0.
          5    1    1    0  501    0 -0.30879393653E+02  0.52527703399E+02  0.13094404273E+02  0.62500000000E+02  0.47000000000E+01 0.  1.
         -5    1    1    0    0  501  0.30879393653E+02 -0.52527703399E+02 -0.13094404273E+02  0.62500000000E+02  0.47000000000E+01 0.  1.
</event>
<event>
 3    0  0.4580101E-005  0.9118800E+02  0.7546771E-02  0.1235069E+00
         25   -1    0    0    0    0  0.00000000000E+00  0.00000000000E+00  0.99999998245E-14  0.12500000000E+03  0.12500000000E+03 0.  0.
          5    1    1    0  501    0 -0.47074683842E+02  0.40055981553E+02  0.79782506189E+01  0.62500000000E+02  0.47000000000E+01 0.  1.
         -5    1    1    0    0  501  0.47074683842E+02 -0.40055981553E+02 -0.79782506189E+01  0.62500000000E+02  0.47000000000E+01 0.  1.
</event>
<event>
 3    0  0.4580101E-005  0.9118800E+02  0.7546771E-02  0.1235069E+00
         25   -1    0    0    0    0  0.00000000000E+00  0.00000000000E+00  0.99999998245E-14  0.12500000000E+03  0.12500000000E+03 0.  0.
          5    1    1    0  501    0 -0.53044906063E+02  0.29157260890E+02 -0.14840892094E+02  0.62500000000E+02  0.47000000000E+01 0. -1.
         -5    1    1    0    0  501  0.53044906063E+02 -0.29157260890E+02  0.14840892094E+02  0.62500000000E+02  0.47000000000E+01 0. -1.
</event>
<event>
 3    0  0.4580101E-005  0.9118800E+02  0.7546771E-02  0.1235069E+00
         25   -1    0    0    0    0  0.00000000000E+00  0.00000000000E+00  0.99999998245E-14  0.12500000000E+03  0.12500000000E+03 0.  0.
          5    1    1    0  501    0  0.20692185621E+02  0.32209533818E+02  0.49178647658E+02  0.62500000000E+02  0.47000000000E+01 0. -1.
         -5    1    1    0    0  501 -0.20692185621E+02 -0.32209533818E+02 -0.49178647658E+02  0.62500000000E+02  0.47000000000E+01 0. -1.
</event>
<event>
 3    0  0.4580101E-005  0.9118800E+02  0.7546771E-02  0.1235069E+00
         25   -1    0    0    0    0  0.00000000000E+00  0.00000000000E+00  0.99999998245E-14  0.12500000000E+03  0.12500000000E+03 0.  0.
          5    1    1    0  501    0  0.29215755218E+02  0.88210894696E+01  0.54339562269E+02  0.62500000000E+02  0.47000000000E+01 0.  1.
         -5    1    1    0    0  501 -0.29215755218E+02 -0.88210894696E+01 -0.54339562269E+02  0.62500000000E+02  0.47000000000E+01 0.  1.
</event>
<event>
 3    0  0.4580101E-005  0.9118800E+02  0.7546771E-02  0.1235069E+00
         25   -1    0    0    0    0  0.00000000000E+00  0.00000000000E+00  0.99999998245E-14  0.12500000000E+03  0.12500000000E+03 0.  0.
          5    1    1    0  501    0 -0.54984387124E+02 -0.18940447736E+02  0.22408404944E+02  0.62500000000E+02  0.47000000000E+01 0. -1.
         -5    1    1    0    0  501  0.54984387124E+02  0.18940447736E+02 -0.22408404944E+02  0.62500000000E+02  0.47000000000E+01 0. -1.
</event>
<event>
 3    0  0.4580101E-005  0.9118800E+02  0.7546771E-02  0.1235069E+00
         25   -1    0    0    0    0  0.00000000000E+00  0.00000000000E+00  0.99999998245E-14  0.12500000000E+03  0.12500000000E+03 0.  0.
          5    1    1    0  501    0 -0.46860856681E+02 -0.22576394984E+02  0.34329673763E+02  0.62500000000E+02  0.47000000000E+01 0.  1.
         -5    1    1    0    0  501  0.46860856681E+02  0.22576394984E+02 -0.34329673763E+02  0.62500000000E+02  0.47000000000E+01 0.  1.
</event>
<event>
 3    0  0.4580101E-005  0.9118800E+02  0.7546771E-02  0.1235069E+00
         25   -1    0    0    0    0  0.00000000000E+00  0.00000000000E+00  0.99999998245E-14  0.12500000000E+03  0.12500000000E+03 0.  0.
          5    1    1    0  501    0  0.41002331894E+02 -0.34466740354E+02  0.31859262212E+02  0.62500000000E+02  0.47000000000E+01 0.  1.
         -5    1    1    0    0  501 -0.41002331894E+02  0.34466740354E+02 -0.31859262212E+02  0.62500000000E+02  0.47000000000E+01 0.  1.
</event>
<event>
 3    0  0.4580101E-005  0.9118800E+02  0.7546771E-02  0.1235069E+00
         25   -1    0    0    0    0  0.00000000000E+00  0.00000000000E+00  0.99999998245E-14  0.12500000000E+03  0.12500000000E+03 0.  0.
          5    1    1    0  501    0 -0.19161049131E+02  0.18293798076E+01  0.59276197295E+02  0.62500000000E+02  0.47000000000E+01 0.  1.
         -5    1    1    0    0  501  0.19161049131E+02 -0.18293798076E+01 -0.59276197295E+02  0.62500000000E+02  0.47000000000E+01 0.  1.
</event>
<event>
 3    0  0.4580101E-005  0.9118800E+02  0.7546771E-02  0.1235069E+00
         25   -1    0    0    0    0  0.00000000000E+00  0.00000000000E+00  0.99999998245E-14  0.12500000000E+03  0.12500000000E+03 0.  0.
          5    1    1    0  501    0  0.41395741893E+02  0.36023591287E+02 -0.29544092876E+02  0.62500000000E+02  0.47000000000E+01 0.  1.
         -5    1    1    0    0  501 -0.41395741893E+02 -0.36023591287E+02  0.29544092876E+02  0.62500000000E+02  0.47000000000E+01 0.  1.
</event>
<event>
 3    0  0.4580101E-005  0.9118800E+02  0.7546771E-02  0.1235069E+00
         25   -1    0    0    0    0  0.00000000000E+00  0.00000000000E+00  0.99999998245E-14  0.12500000000E+03  0.12500000000E+03 0.  0.
          5    1    1    0  501    0  0.14857470348E+02 -0.54548882796E+02  0.26226607874E+02  0.62500000000E+02  0.47000000000E+01 0. -1.
         -5    1    1    0    0  501 -0.14857470348E+02  0.54548882796E+02 -0.26226607874E+02  0.62500000000E+02  0.47000000000E+01 0. -1.
</event>
<event>
 3    0  0.4580101E-005  0.9118800E+02  0.7546771E-02  0.1235069E+00
         25   -1    0    0    0    0  0.00000000000E+00  0.00000000000E+00  0.99999998245E-14  0.12500000000E+03  0.12500000000E+03 0.  0.
          5    1    1    0  501    0  0.33480563263E+02  0.24051317858E+01  0.52511210467E+02  0.62500000000E+02  0.47000000000E+01 0.  1.
         -5    1    1    0    0  501 -0.33480563263E+02 -0.24051317858E+01 -0.52511210467E+02  0.62500000000E+02  0.47000000000E+01 0.  1.
</event>
<event>
 3    0  0.4580101E-005  0.9118800E+02  0.7546771E-02  0.1235069E+00
         25   -1    0    0    0    0  0.00000000000E+00  0.00000000000E+00  0.99999998245E-14  0.12500000000E+03  0.12500000000E+03 0.  0.
          5    1    1    0  501    0 -0.22137987688E+02 -0.56364128350E+02 -0.14736164238E+02  0.62500000000E+02  0.47000000000E+01 0.  1.
         -5    1    1    0    0  501  0.22137987688E+02  0.56364128350E+02  0.14736164238E+02  0.62500000000E+02  0.47000000000E+01 0.  1.
</event>
<event>
 3    0  0.4580101E-005  0.9118800E+02  0.7546771E-02  0.1235069E+00
         25   -1    0    0    0    0  0.00000000000E+00  0.00000000000E+00  0.99999998245E-14  0.12500000000E+03  0.12500000000E+03 0.  0.
          5    1    1    0  501    0 -0.44522081055E+01 -0.17402998227E+02 -0.59678082205E+02  0.62500000000E+02  0.47000000000E+01 0. -1.
         -5    1    1    0    0  501  0.44522081055E+01  0.17402998227E+02  0.59678082205E+02  0.62500000000E+02  0.47000000000E+01 0. -1.
</event>
<event>
 3    0  0.4580101E-005  0.9118800E+02  0.7546771E-02  0.1235069E+00
         25   -1    0    0    0    0  0.00000000000E+00  0.00000000000E+00  0.99999998245E-14  0.12500000000E+03  0.12500000000E+03 0.  0.
          5    1    1    0  501    0 -0.38495040631E+02  0.13065039364E+02  0.47239777658E+02  0.62500000000E+02  0.47000000000E+01 0. -1.
         -5    1    1    0    0  501  0.38495040631E+02 -0.13065039364E+02 -0.47239777658E+02  0.62500000000E+02  0.47000000000E+01 0. -1.
</event>
<event>
 3    0  0.4580101E-005  0.9118800E+02  0.7546771E-02  0.1235069E+00
         25   -1    0    0    0    0  0.00000000000E+00  0.00000000000E+00  0.99999998245E-14  0.12500000000E+03  0.12500000000E+03 0.  0.
          5    1    1    0  501    0 -0.38543649719E+02  0.37300123480E+02 -0.31737168348E+02  0.62500000000E+02  0.47000000000E+01 0. -1.
         -5    1    1    0    0  501  0.38543649719E+02 -0.37300123480E+02  0.31737168348E+02  0.62500000000E+02  0.47000000000E+01 0. -1.
</event>
<event>
 3    0  0.4580101E-005  0.9118800E+02  0.7546771E-02  0.1235069E+00
         25   -1    0    0    0    0  0.00000000000E+00  0.00000000000E+00  0.99999998245E-14  0.12500000000E+03  0.12500000000E+03 0.  0.
          5    1    1    0  501    0 -0.19343313588E+02 -0.24694695149E+02  0.53853210220E+02  0.62500000000E+02  0.47000000000E+01 0. -1.
         -5    1    1    0    0  501  0.19343313588E+02  0.24694695149E+02 -0.53853210220E+02  0.62500000000E+02  0.47000000000E+01 0. -1.
</event>
<event>
 3    0  0.4580101E-005  0.9118800E+02  0.7546771E-02  0.1235069E+00
         25   -1    0    0    0    0  0.00000000000E+00  0.00000000000E+00  0.99999998245E-14  0.12500000000E+03  0.12500000000E+03 0.  0.
          5    1    1    0  501    0 -0.47444540782E+02  0.12422509239E+02  0.38455907403E+02  0.62500000000E+02  0.47000000000E+01 0. -1.
         -5    1    1    0    0  501  0.47444540782E+02 -0.12422509239E+02 -0.38455907403E+02  0.62500000000E+02  0.47000000000E+01 0. -1.
</event>
<event>
 3    0  0.4580101E-005  0.9118800E+02  0.7546771E-02  0.1235069E+00
         25   -1    0    0    0    0  0.00000000000E+00  0.00000000000E+00  0.99999998245E-14  0.12500000000E+03  0.12500000000E+03 0.  0.
          5    1    1    0  501    0 -0.49182120866E+02 -0.30287344693E+02 -0.23408454425E+02  0.62500000000E+02  0.47000000000E+01 0.  1.
         -5    1    1    0    0  501  0.49182120866E+02  0.30287344693E+02  0.23408454425E+02  0.62500000000E+02  0.47000000000E+01 0.  1.
</event>
<event>
 3    0  0.4580101E-005  0.9118800E+02  0.7546771E-02  0.1235069E+00
         25   -1    0    0    0    0  0.00000000000E+00  0.00000000000E+00  0.99999998245E-14  0.12500000000E+03  0.12500000000E+03 0.  0.
          5    1    1    0  501    0 -0.29485082061E+01 -0.52230919544E+02 -0.33873254094E+02  0.62500000000E+02  0.47000000000E+01 0. -1.
         -5    1    1    0    0  501  0.29485082061E+01  0.52230919544E+02  0.33873254094E+02  0.62500000000E+02  0.47000000000E+01 0. -1.
</event>
<event>
 3    0  0.4580101E-005  0.9118800E+02  0.7546771E-02  0.1235069E+00
         25   -1    0    0    0    0  0.00000000000E+00  0.00000000000E+00  0.99999998245E-14  0.12500000000E+03  0.12500000000E+03 0.  0.
          5    1    1    0  501    0  0.16991627006E+02  0.58582179639E+01 -0.59675169828E+02  0.62500000000E+02  0.47000000000E+01 0.  1.
         -5    1    1    0    0  501 -0.16991627006E+02 -0.58582179639E+01  0.59675169828E+02  0.62500000000E+02  0.47000000000E+01 0.  1.
</event>
<event>
 3    0  0.4580101E-005  0.9118800E+02  0.7546771E-02  0.1235069E+00
         25   -1    0    0    0    0  0.00000000000E+00  0.00000000000E+00  0.99999998245E-14  0.12500000000E+03  0.12500000000E+03 0.  0.
          5    1    1    0  501    0  0.44177710017E+02 -0.43671055217E+02 -0.50327799419E+01  0.62500000000E+02  0.47000000000E+01 0. -1.
         -5    1    1    0    0  501 -0.44177710017E+02  0.43671055217E+02  0.50327799419E+01  0.62500000000E+02  0.47000000000E+01 0. -1.
</event>
<event>
 3    0  0.4580101E-005  0.9118800E+02  0.7546771E-02  0.1235069E+00
         25   -1    0    0    0    0  0.00000000000E+00  0.00000000000E+00  0.99999998245E-14  0.12500000000E+03  0.12500000000E+03 0.  0.
          5    1    1    0  501    0 -0.75579544694E+01  0.47833773510E+02  0.39229675451E+02  0.62500000000E+02  0.47000000000E+01 0.  1.
         -5    1    1    0    0  501  0.75579544694E+01 -0.47833773510E+02 -0.39229675451E+02  0.62500000000E+02  0.47000000000E+01 0.  1.
</event>
<event>
 3    0  0.4580101E-005  0.9118800E+02  0.7546771E-02  0.1235069E+00
         25   -1    0    0    0    0  0.00000000000E+00  0.00000000000E+00  0.99999998245E-14  0.12500000000E+03  0.12500000000E+03 0.  0.
          5    1    1    0  501    0 -0.36664905792E+02  0.28339016690E+02  0.41674270435E+02  0.62500000000E+02  0.47000000000E+01 0.  1.
         -5    1    1    0    0  501  0.36664905792E+02 -0.28339016690E+02 -0.41674270435E+02  0.62500000000E+02  0.47000000000E+01 0.  1.
</event>
<event>
 3    0  0.4580101E-005  0.9118800E+02  0.7546771E-02  0.1235069E+00
         25   -1    0    0    0    0  0.00000000000E+00  0.00000000000E+00  0.99999998245E-14  0.12500000000E+03  0.12500000000E+03 0.  0.
          5    1    1    0  501    0  0.28266203057E+02  0.48957122604E+02 -0.26237033198E+02  0.62500000000E+02  0.47000000000E+01 0. -1.
         -5    1    1    0    0  501 -0.28266203057E+02 -0.48957122604E+02  0.26237033198E+02  0.62500000000E+02  0.47000000000E+01 0. -1.
</event>
<event>
 3    0  0.4580101E-005  0.9118800E+02  0.7546771E-02  0.1235069E+00
         25   -1    0    0    0    0  0.00000000000E+00  0.00000000000E+00  0.99999998245E-14  0.12500000000E+03  0.12500000000E+03 0.  0.
          5    1    1    0  501    0 -0.26997521381E+02 -0.16485662928E+02 -0.53698386914E+02  0.62500000000E+02  0.47000000000E+01 0.  1.
         -5    1    1    0    0  501  0.26997521381E+02  0.16485662928E+02  0.53698386914E+02  0.62500000000E+02  0.47000000000E+01 0.  1.
</event>
<event>
 3    0  0.4580101E-005  0.9118800E+02  0.7546771E-02  0.1235069E+00
         25   -1    0    0    0    0  0.00000000000E+00  0.00000000000E+00  0.99999998245E-14  0.12500000000E+03  0.12500000000E+03 0.  0.
          5    1    1    0  501    0  0.43245352055E+02 -0.43116928923E+02  0.12447086642E+02  0.62500000000E+02  0.47000000000E+01 0. -1.
         -5    1    1    0    0  501 -0.43245352055E+02  0.43116928923E+02 -0.12447086642E+02  0.62500000000E+02  0.47000000000E+01 0. -1.
</event>
<event>
 3    0  0.4580101E-005  0.9118800E+02  0.7546771E-02  0.1235069E+00
         25   -1    0    0    0    0  0.00000000000E+00  0.00000000000E+00  0.99999998245E-14  0.12500000000E+03  0.12500000000E+03 0.  0.
          5    1    1    0  501    0  0.18771397241E+01 -0.60879551359E+02 -0.13202900168E+02  0.62500000000E+02  0.47000000000E+01 0. -1.
         -5    1    1    0    0  501 -0.18771397241E+01  0.60879551359E+02  0.13202900168E+02  0.62500000000E+02  0.47000000000E+01 0. -1.
</event>
<event>
 3    0  0.4580101E-005  0.9118800E+02  0.7546771E-02  0.1235069E+00
         25   -1    0    0    0    0  0.00000000000E+00  0.00000000000E+00  0.99999998245E-14  0.12500000000E+03  0.12500000000E+03 0.  0.
          5    1    1    0  501    0  0.48101493023E+02  0.35634083793E+02 -0.17338351746E+02  0.62500000000E+02  0.47000000000E+01 0. -1.
         -5    1    1    0    0  501 -0.48101493023E+02 -0.35634083793E+02  0.17338351746E+02  0.62500000000E+02  0.47000000000E+01 0. -1.
</event>
<event>
 3    0  0.4580101E-005  0.9118800E+02  0.7546771E-02  0.1235069E+00
         25   -1    0    0    0    0  0.00000000000E+00  0.00000000000E+00  0.99999998245E-14  0.12500000000E+03  0.12500000000E+03 0.  0.
          5    1    1    0  501    0 -0.44660215516E+02  0.37497339237E+02  0.21990331971E+02  0.62500000000E+02  0.47000000000E+01 0. -1.
         -5    1    1    0    0  501  0.44660215516E+02 -0.37497339237E+02 -0.21990331971E+02  0.62500000000E+02  0.47000000000E+01 0. -1.
</event>
<event>
 3    0  0.4580101E-005  0.9118800E+02  0.7546771E-02  0.1235069E+00
         25   -1    0    0    0    0  0.00000000000E+00  0.00000000000E+00  0.99999998245E-14  0.12500000000E+03  0.12500000000E+03 0.  0.
          5    1    1    0  501    0  0.61376959178E+02 -0.52801830015E+01 -0.94418509580E+01  0.62500000000E+02  0.47000000000E+01 0. -1.
         -5    1    1    0    0  501 -0.61376959178E+02  0.52801830015E+01  0.94418509580E+01  0.62500000000E+02  0.47000000000E+01 0. -1.
</event>
<event>
 3    0  0.4580101E-005  0.9118800E+02  0.7546771E-02  0.1235069E+00
         25   -1    0    0    0    0  0.00000000000E+00  0.00000000000E+00  0.99999998245E-14  0.12500000000E+03  0.12500000000E+03 0.  0.
          5    1    1    0  501    0 -0.49000087416E+02 -0.15764655942E+02  0.35137260227E+02  0.62500000000E+02  0.47000000000E+01 0.  1.
         -5    1    1    0    0  501  0.49000087416E+02  0.15764655942E+02 -0.35137260227E+02  0.62500000000E+02  0.47000000000E+01 0.  1.
</event>
<event>
 3    0  0.4580101E-005  0.9118800E+02  0.7546771E-02  0.1235069E+00
         25   -1    0    0    0    0  0.00000000000E+00  0.00000000000E+00  0.99999998245E-14  0.12500000000E+03  0.12500000000E+03 0.  0.
          5    1    1    0  501    0  0.42007531150E+02  0.31110548554E+02  0.33936132592E+02  0.62500000000E+02  0.47000000000E+01 0. -1.
         -5    1    1    0    0  501 -0.42007531150E+02 -0.31110548554E+02 -0.33936132592E+02  0.62500000000E+02  0.47000000000E+01 0. -1.
</event>
<event>
 3    0  0.4580101E-005  0.9118800E+02  0.7546771E-02  0.1235069E+00
         25   -1    0    0    0    0  0.00000000000E+00  0.00000000000E+00  0.99999998245E-14  0.12500000000E+03  0.12500000000E+03 0.  0.
          5    1    1    0  501    0 -0.74381453185E+01 -0.43017239828E+02 -0.44478658611E+02  0.62500000000E+02  0.47000000000E+01 0.  1.
         -5    1    1    0    0  501  0.74381453185E+01  0.43017239828E+02  0.44478658611E+02  0.62500000000E+02  0.47000000000E+01 0.  1.
</event>
<event>
 3    0  0.4580101E-005  0.9118800E+02  0.7546771E-02  0.1235069E+00
         25   -1    0    0    0    0  0.00000000000E+00  0.00000000000E+00  0.99999998245E-14  0.12500000000E+03  0.12500000000E+03 0.  0.
          5    1    1    0  501    0 -0.55615999159E+02  0.26668379758E+02 -0.89341008833E+01  0.62500000000E+02  0.47000000000E+01 0. -1.
         -5    1    1    0    0  501  0.55615999159E+02 -0.26668379758E+02  0.89341008833E+01  0.62500000000E+02  0.47000000000E+01 0. -1.
</event>
<event>
 3    0  0.4580101E-005  0.9118800E+02  0.7546771E-02  0.1235069E+00
         25   -1    0    0    0    0  0.00000000000E+00  0.00000000000E+00  0.99999998245E-14  0.12500000000E+03  0.12500000000E+03 0.  0.
          5    1    1    0  501    0  0.17703229788E+02 -0.15380162339E+02 -0.57742586204E+02  0.62500000000E+02  0.47000000000E+01 0. -1.
         -5    1    1    0    0  501 -0.17703229788E+02  0.15380162339E+02  0.57742586204E+02  0.62500000000E+02  0.47000000000E+01 0. -1.
</event>
<event>
 3    0  0.4580101E-005  0.9118800E+02  0.7546771E-02  0.1235069E+00
         25   -1    0    0    0    0  0.00000000000E+00  0.00000000000E+00  0.99999998245E-14  0.12500000000E+03  0.12500000000E+03 0.  0.
          5    1    1    0  501    0 -0.44825214773E+02  0.42046904425E+02  0.10340113580E+02  0.62500000000E+02  0.47000000000E+01 0.  1.
         -5    1    1    0    0  501  0.44825214773E+02 -0.42046904425E+02 -0.10340113580E+02  0.62500000000E+02  0.47000000000E+01 0.  1.
</event>
<event>
 3    0  0.4580101E-005  0.9118800E+02  0.7546771E-02  0.1235069E+00
         25   -1    0    0    0    0  0.00000000000E+00  0.00000000000E+00  0.99999998245E-14  0.12500000000E+03  0.12500000000E+03 0.  0.
          5    1    1    0  501    0  0.11402889975E+02  0.61064778848E+02 -0.50226371980E+01  0.62500000000E+02  0.47000000000E+01 0.  1.
         -5    1    1    0    0  501 -0.11402889975E+02 -0.61064778848E+02  0.50226371980E+01  0.62500000000E+02  0.47000000000E+01 0.  1.
</event>
<event>
 3    0  0.4580101E-005  0.9118800E+02  0.7546771E-02  0.1235069E+00
         25   -1    0    0    0    0  0.00000000000E+00  0.00000000000E+00  0.99999998245E-14  0.12500000000E+03  0.12500000000E+03 0.  0.
          5    1    1    0  501    0 -0.38157927656E+01  0.58326832883E+02  0.21623604957E+02  0.62500000000E+02  0.47000000000E+01 0. -1.
         -5    1    1    0    0  501  0.38157927656E+01 -0.58326832883E+02 -0.21623604957E+02  0.62500000000E+02  0.47000000000E+01 0. -1.
</event>
<event>
 3    0  0.4580101E-005  0.9118800E+02  0.7546771E-02  0.1235069E+00
         25   -1    0    0    0    0  0.00000000000E+00  0.00000000000E+00  0.99999998245E-14  0.12500000000E+03  0.12500000000E+03 0.  0.
          5    1    1    0  501    0 -0.11851188403E+02 -0.19765422739E+01 -0.61153925582E+02  0.62500000000E+02  0.47000000000E+01 0. -1.
         -5    1    1    0    0  501  0.11851188403E+02  0.19765422739E+01  0.61153925582E+02  0.62500000000E+02  0.47000000000E+01 0. -1.
</event>
<event>
 3    0  0.4580101E-005  0.9118800E+02  0.7546771E-02  0.1235069E+00
         25   -1    0    0    0    0  0.00000000000E+00  0.00000000000E+00  0.99999998245E-14  0.12500000000E+03  0.12500000000E+03 0.  0.
          5    1    1    0  501    0  0.15026310589E+02 -0.21605445715E+02  0.56494023627E+02  0.62500000000E+02  0.47000000000E+01 0.  1.
         -5    1    1    0    0  501 -0.15026310589E+02  0.21605445715E+02 -0.56494023627E+02  0.62500000000E+02  0.47000000000E+01 0.  1.
</event>
<event>
 3    0  0.4580101E-005  0.9118800E+02  0.7546771E-02  0.1235069E+00
         25   -1    0    0    0    0  0.00000000000E+00  0.00000000000E+00  0.99999998245E-14  0.12500000000E+03  0.12500000000E+03 0.  0.
          5    1    1    0  501    0 -0.11572938471E+02  0.19434845937E+02 -0.58073348952E+02  0.62500000000E+02  0.47000000000E+01 0.  1.
         -5    1    1    0    0  501  0.11572938471E+02 -0.19434845937E+02  0.58073348952E+02  0.62500000000E+02  0.47000000000E+01 0.  1.
</event>
<event>
 3    0  0.4580101E-005  0.9118800E+02  0.7546771E-02  0.1235069E+00
         25   -1    0    0    0    0  0.00000000000E+00  0.00000000000E+00  0.99999998245E-14  0.12500000000E+03  0.12500000000E+03 0.  0.
          5    1    1    0  501    0 -0.19238687758E+02 -0.45943742368E+02  0.37459383746E+02  0.62500000000E+02  0.47000000000E+01 0. -1.
         -5    1    1    0    0  501  0.19238687758E+02  0.45943742368E+02 -0.37459383746E+02  0.62500000000E+02  0.47000000000E+01 0. -1.
</event>
<event>
 3    0  0.4580101E-005  0.9118800E+02  0.7546771E-02  0.1235069E+00
         25   -1    0    0    0    0  0.00000000000E+00  0.00000000000E+00  0.99999998245E-14  0.12500000000E+03  0.12500000000E+03 0.  0.
          5    1    1    0  501    0 -0.16401773088E+02 -0.53632538320E+02  0.27178901245E+02  0.62500000000E+02  0.47000000000E+01 0. -1.
         -5    1    1    0    0  501  0.16401773088E+02  0.53632538320E+02 -0.27178901245E+02  0.62500000000E+02  0.47000000000E+01 0. -1.
</event>
<event>
 3    0  0.4580101E-005  0.9118800E+02  0.7546771E-02  0.1235069E+00
         25   -1    0    0    0    0  0.00000000000E+00  0.00000000000E+00  0.99999998245E-14  0.12500000000E+03  0.12500000000E+03 0.  0.
          5    1    1    0  501    0  0.60382163744E+02  0.75082209788E+01 -0.13482615447E+02  0.62500000000E+02  0.47000000000E+01 0. -1.
         -5    1    1    0    0  501 -0.60382163744E+02 -0.75082209788E+01  0.13482615447E+02  0.62500000000E+02  0.47000000000E+01 0. -1.
</event>
<event>
 3    0  0.4580101E-005  0.9118800E+02  0.7546771E-02  0.1235069E+00
         25   -1    0    0    0    0  0.00000000000E+00  0.00000000000E+00  0.99999998245E-14  0.12500000000E+03  0.12500000000E+03 0.  0.
          5    1    1    0  501    0 -0.26721020947E+02 -0.19712516296E+02 -0.52740532239E+02  0.62500000000E+02  0.47000000000E+01 0. -1.
         -5    1    1    0    0  501  0.26721020947E+02  0.19712516296E+02  0.52740532239E+02  0.62500000000E+02  0.47000000000E+01 0. -1.
</event>
<event>
 3    0  0.4580101E-005  0.9118800E+02  0.7546771E-02  0.1235069E+00
         25   -1    0    0    0    0  0.00000000000E+00  0.00000000000E+00  0.99999998245E-14  0.12500000000E+03  0.12500000000E+03 0.  0.
          5    1    1    0  501    0 -0.45832951997E+02  0.41222909451E+02 -0.91745434574E+01  0.62500000000E+02  0.47000000000E+01 0.  1.
         -5    1    1    0    0  501  0.45832951997E+02 -0.41222909451E+02  0.91745434574E+01  0.62500000000E+02  0.47000000000E+01 0.  1.
</event>
<event>
 3    0  0.4580101E-005  0.9118800E+02  0.7546771E-02  0.1235069E+00
         25   -1    0    0    0    0  0.00000000000E+00  0.00000000000E+00  0.99999998245E-14  0.12500000000E+03  0.12500000000E+03 0.  0.
          5    1    1    0  501    0  0.63138872366E+01  0.17279617368E+02 -0.59545861750E+02  0.62500000000E+02  0.47000000000E+01 0.  1.
         -5    1    1    0    0  501 -0.63138872366E+01 -0.17279617368E+02  0.59545861750E+02  0.62500000000E+02  0.47000000000E+01 0.  1.
</event>
<event>
 3    0  0.4580101E-005  0.9118800E+02  0.7546771E-02  0.1235069E+00
         25   -1    0    0    0    0  0.00000000000E+00  0.00000000000E+00  0.99999998245E-14  0.12500000000E+03  0.12500000000E+03 0.  0.
          5    1    1    0  501    0 -0.67884762566E+01  0.53511498030E+02  0.31218522847E+02  0.62500000000E+02  0.47000000000E+01 0.  1.
         -5    1    1    0    0  501  0.67884762566E+01 -0.53511498030E+02 -0.31218522847E+02  0.62500000000E+02  0.47000000000E+01 0.  1.
</event>
<event>
 3    0  0.4580101E-005  0.9118800E+02  0.7546771E-02  0.1235069E+00
         25   -1    0    0    0    0  0.00000000000E+00  0.00000000000E+00  0.99999998245E-14  0.12500000000E+03  0.12500000000E+03 0.  0.
          5    1    1    0  501    0 -0.60908957003E+02 -0.12412032554E+01 -0.13142236160E+02  0.62500000000E+02  0.47000000000E+01 0.  1.
         -5    1    1    0    0  501  0.60908957003E+02  0.12412032554E+01  0.13142236160E+02  0.62500000000E+02  0.47000000000E+01 0.  1.
</event>
<event>
 3    0  0.4580101E-005  0.9118800E+02  0.7546771E-02  0.1235069E+00
         25   -1    0    0    0    0  0.00000000000E+00  0.00000000000E+00  0.99999998245E-14  0.12500000000E+03  0.12500000000E+03 0.  0.
          5    1    1    0  501    0 -0.37422542979E+01  0.61393255070E+02 -0.10051057887E+02  0.62500000000E+02  0.47000000000E+01 0.  1.
         -5    1    1    0    0  501  0.37422542979E+01 -0.61393255070E+02  0.10051057887E+02  0.62500000000E+02  0.47000000000E+01 0.  1.
</event>
<event>
 3    0  0.4580101E-005  0.9118800E+02  0.7546771E-02  0.1235069E+00
         25   -1    0    0    0    0  0.00000000000E+00  0.00000000000E+00  0.99999998245E-14  0.12500000000E+03  0.12500000000E+03 0.  0.
          5    1    1    0  501    0  0.18923677833E+01 -0.60025936153E+02  0.16657308700E+02  0.62500000000E+02  0.47000000000E+01 0.  1.
         -5    1    1    0    0  501 -0.18923677833E+01  0.60025936153E+02 -0.16657308700E+02  0.62500000000E+02  0.47000000000E+01 0.  1.
</event>
<event>
 3    0  0.4580101E-005  0.9118800E+02  0.7546771E-02  0.1235069E+00
         25   -1    0    0    0    0  0.00000000000E+00  0.00000000000E+00  0.99999998245E-14  0.12500000000E+03  0.12500000000E+03 0.  0.
          5    1    1    0  501    0  0.13777369096E+02 -0.26791834050E+01 -0.60722039467E+02  0.62500000000E+02  0.47000000000E+01 0.  1.
         -5    1    1    0    0  501 -0.13777369096E+02  0.26791834050E+01  0.60722039467E+02  0.62500000000E+02  0.47000000000E+01 0.  1.
</event>
<event>
 3    0  0.4580101E-005  0.9118800E+02  0.7546771E-02  0.1235069E+00
         25   -1    0    0    0    0  0.00000000000E+00  0.00000000000E+00  0.99999998245E-14  0.12500000000E+03  0.12500000000E+03 0.  0.
          5    1    1    0  501    0 -0.76337126806E+00 -0.40345512592E+02 -0.47495440603E+02  0.62500000000E+02  0.47000000000E+01 0.  1.
         -5    1    1    0    0  501  0.76337126806E+00  0.40345512592E+02  0.47495440603E+02  0.62500000000E+02  0.47000000000E+01 0.  1.
</event>
<event>
 3    0  0.4580101E-005  0.9118800E+02  0.7546771E-02  0.1235069E+00
         25   -1    0    0    0    0  0.00000000000E+00  0.00000000000E+00  0.99999998245E-14  0.12500000000E+03  0.12500000000E+03 0.  0.
          5    1    1    0  501    0  0.27602559197E+02 -0.28719694523E+02  0.47931595762E+02  0.62500000000E+02  0.47000000000E+01 0.  1.
         -5    1    1    0    0  501 -0.27602559197E+02  0.28719694523E+02 -0.47931595762E+02  0.62500000000E+02  0.47000000000E+01 0.  1.
</event>
<event>
 3    0  0.4580101E-005  0.9118800E+02  0.7546771E-02  0.1235069E+00
         25   -1    0    0    0    0  0.00000000000E+00  0.00000000000E+00  0.99999998245E-14  0.12500000000E+03  0.12500000000E+03 0.  0.
          5    1    1    0  501    0  0.36192226527E+02 -0.44201867130E+02  0.24909389420E+02  0.62500000000E+02  0.47000000000E+01 0.  1.
         -5    1    1    0    0  501 -0.36192226527E+02  0.44201867130E+02 -0.24909389420E+02  0.62500000000E+02  0.47000000000E+01 0.  1.
</event>
<event>
 3    0  0.4580101E-005  0.9118800E+02  0.7546771E-02  0.1235069E+00
         25   -1    0    0    0    0  0.00000000000E+00  0.00000000000E+00  0.99999998245E-14  0.12500000000E+03  0.12500000000E+03 0.  0.
          5    1    1    0  501    0  0.11975973820E+02 -0.60863896224E+02 -0.60267891581E+01  0.62500000000E+02  0.47000000000E+01 0. -1.
         -5    1    1    0    0  501 -0.11975973820E+02  0.60863896224E+02  0.60267891581E+01  0.62500000000E+02  0.47000000000E+01 0. -1.
</event>
<event>
 3    0  0.4580101E-005  0.9118800E+02  0.7546771E-02  0.1235069E+00
         25   -1    0    0    0    0  0.00000000000E+00  0.00000000000E+00  0.99999998245E-14  0.12500000000E+03  0.12500000000E+03 0.  0.
          5    1    1    0  501    0  0.57564625367E+02 -0.11144100011E+02  0.21125409850E+02  0.62500000000E+02  0.47000000000E+01 0. -1.
         -5    1    1    0    0  501 -0.57564625367E+02  0.11144100011E+02 -0.21125409850E+02  0.62500000000E+02  0.47000000000E+01 0. -1.
</event>
<event>
 3    0  0.4580101E-005  0.9118800E+02  0.7546771E-02  0.1235069E+00
         25   -1    0    0    0    0  0.00000000000E+00  0.00000000000E+00  0.99999998245E-14  0.12500000000E+03  0.12500000000E+03 0.  0.
          5    1    1    0  501    0  0.30399588625E+02  0.25359785947E+01  0.54346976218E+02  0.62500000000E+02  0.47000000000E+01 0. -1.
         -5    1    1    0    0  501 -0.30399588625E+02 -0.25359785947E+01 -0.54346976218E+02  0.62500000000E+02  0.47000000000E+01 0. -1.
</event>
<event>
 3    0  0.4580101E-005  0.9118800E+02  0.7546771E-02  0.1235069E+00
         25   -1    0    0    0    0  0.00000000000E+00  0.00000000000E+00  0.99999998245E-14  0.12500000000E+03  0.12500000000E+03 0.  0.
          5    1    1    0  501    0 -0.38224645427E+01 -0.61045483084E+02 -0.11958167077E+02  0.62500000000E+02  0.47000000000E+01 0.  1.
         -5    1    1    0    0  501  0.38224645427E+01  0.61045483084E+02  0.11958167077E+02  0.62500000000E+02  0.47000000000E+01 0.  1.
</event>
<event>
 3    0  0.4580101E-005  0.9118800E+02  0.7546771E-02  0.1235069E+00
         25   -1    0    0    0    0  0.00000000000E+00  0.00000000000E+00  0.99999998245E-14  0.12500000000E+03  0.12500000000E+03 0.  0.
          5    1    1    0  501    0 -0.53704329874E+02 -0.82482447848E+01 -0.30528206806E+02  0.62500000000E+02  0.47000000000E+01 0.  1.
         -5    1    1    0    0  501  0.53704329874E+02  0.82482447848E+01  0.30528206806E+02  0.62500000000E+02  0.47000000000E+01 0.  1.
</event>
<event>
 3    0  0.4580101E-005  0.9118800E+02  0.7546771E-02  0.1235069E+00
         25   -1    0    0    0    0  0.00000000000E+00  0.00000000000E+00  0.99999998245E-14  0.12500000000E+03  0.12500000000E+03 0.  0.
          5    1    1    0  501    0 -0.19151458956E+02  0.53623985450E+02  0.25334754869E+02  0.62500000000E+02  0.47000000000E+01 0. -1.
         -5    1    1    0    0  501  0.19151458956E+02 -0.53623985450E+02 -0.25334754869E+02  0.62500000000E+02  0.47000000000E+01 0. -1.
</event>
<event>
 3    0  0.4580101E-005  0.9118800E+02  0.7546771E-02  0.1235069E+00
         25   -1    0    0    0    0  0.00000000000E+00  0.00000000000E+00  0.99999998245E-14  0.12500000000E+03  0.12500000000E+03 0.  0.
          5    1    1    0  501    0  0.56195421992E+02 -0.65450933744E+01 -0.26141849587E+02  0.62500000000E+02  0.47000000000E+01 0. -1.
         -5    1    1    0    0  501 -0.56195421992E+02  0.65450933744E+01  0.26141849587E+02  0.62500000000E+02  0.47000000000E+01 0. -1.
</event>
<event>
 3    0  0.4580101E-005  0.9118800E+02  0.7546771E-02  0.1235069E+00
         25   -1    0    0    0    0  0.00000000000E+00  0.00000000000E+00  0.99999998245E-14  0.12500000000E+03  0.12500000000E+03 0.  0.
          5    1    1    0  501    0 -0.39059015075E+02  0.33300994520E+02  0.35349640810E+02  0.62500000000E+02  0.47000000000E+01 0.  1.
         -5    1    1    0    0  501  0.39059015075E+02 -0.33300994520E+02 -0.35349640810E+02  0.62500000000E+02  0.47000000000E+01 0.  1.
</event>
<event>
 3    0  0.4580101E-005  0.9118800E+02  0.7546771E-02  0.1235069E+00
         25   -1    0    0    0    0  0.00000000000E+00  0.00000000000E+00  0.99999998245E-14  0.12500000000E+03  0.12500000000E+03 0.  0.
          5    1    1    0  501    0 -0.21360106803E+02  0.19455184075E+01  0.58515987521E+02  0.62500000000E+02  0.47000000000E+01 0.  1.
         -5    1    1    0    0  501  0.21360106803E+02 -0.19455184075E+01 -0.58515987521E+02  0.62500000000E+02  0.47000000000E+01 0.  1.
</event>
<event>
 3    0  0.4580101E-005  0.9118800E+02  0.7546771E-02  0.1235069E+00
         25   -1    0    0    0    0  0.00000000000E+00  0.00000000000E+00  0.99999998245E-14  0.12500000000E+03  0.12500000000E+03 0.  0.
          5    1    1    0  501    0 -0.27316723501E+02  0.16928377950E+02  0.53398376727E+02  0.62500000000E+02  0.47000000000E+01 0. -1.
         -5    1    1    0    0  501  0.27316723501E+02 -0.16928377950E+02 -0.53398376727E+02  0.62500000000E+02  0.47000000000E+01 0. -1.
</event>
<event>
 3    0  0.4580101E-005  0.9118800E+02  0.7546771E-02  0.1235069E+00
         25   -1    0    0    0    0  0.00000000000E+00  0.00000000000E+00  0.99999998245E-14  0.12500000000E+03  0.12500000000E+03 0.  0.
          5    1    1    0  501    0 -0.50621941621E+02  0.33497529782E+02  0.14124253078E+02  0.62500000000E+02  0.47000000000E+01 0.  1.
         -5    1    1    0    0  501  0.50621941621E+02 -0.33497529782E+02 -0.14124253078E+02  0.62500000000E+02  0.47000000000E+01 0.  1.
</event>
<event>
 3    0  0.4580101E-005  0.9118800E+02  0.7546771E-02  0.1235069E+00
         25   -1    0    0    0    0  0.00000000000E+00  0.00000000000E+00  0.99999998245E-14  0.12500000000E+03  0.12500000000E+03 0.  0.
          5    1    1    0  501    0 -0.36267492840E+02  0.19056262766E+02 -0.46964750744E+02  0.62500000000E+02  0.47000000000E+01 0.  1.
         -5    1    1    0    0  501  0.36267492840E+02 -0.19056262766E+02  0.46964750744E+02  0.62500000000E+02  0.47000000000E+01 0.  1.
</event>
<event>
 3    0  0.4580101E-005  0.9118800E+02  0.7546771E-02  0.1235069E+00
         25   -1    0    0    0    0  0.00000000000E+00  0.00000000000E+00  0.99999998245E-14  0.12500000000E+03  0.12500000000E+03 0.  0.
          5    1    1    0  501    0  0.13303716161E+01  0.61274604436E+02 -0.11305439515E+02  0.62500000000E+02  0.47000000000E+01 0.  1.
         -5    1    1    0    0  501 -0.13303716161E+01 -0.61274604436E+02  0.11305439515E+02  0.62500000000E+02  0.47000000000E+01 0.  1.
</event>
<event>
 3    0  0.4580101E-005  0.9118800E+02  0.7546771E-02  0.1235069E+00
         25   -1    0    0    0    0  0.00000000000E+00  0.00000000000E+00  0.99999998245E-14  0.12500000000E+03  0.12500000000E+03 0.  0.
          5    1    1    0  501    0  0.47138656500E+01  0.16181818168E+02  0.60000735257E+02  0.62500000000E+02  0.47000000000E+01 0. -1.
         -5    1    1    0    0  501 -0.47138656500E+01 -0.16181818168E+02 -0.60000735257E+02  0.62500000000E+02  0.47000000000E+01 0. -1.
</event>
<event>
 3    0  0.4580101E-005  0.9118800E+02  0.7546771E-02  0.1235069E+00
         25   -1    0    0    0    0  0.00000000000E+00  0.00000000000E+00  0.99999998245E-14  0.12500000000E+03  0.12500000000E+03 0.  0.
          5    1    1    0  501    0  0.48561805086E+02  0.12177798313E+02  0.37116200170E+02  0.62500000000E+02  0.47000000000E+01 0.  1.
         -5    1    1    0    0  501 -0.48561805086E+02 -0.12177798313E+02 -0.37116200170E+02  0.62500000000E+02  0.47000000000E+01 0.  1.
</event>
<event>
 3    0  0.4580101E-005  0.9118800E+02  0.7546771E-02  0.1235069E+00
         25   -1    0    0    0    0  0.00000000000E+00  0.00000000000E+00  0.99999998245E-14  0.12500000000E+03  0.12500000000E+03 0.  0.
          5    1    1    0  501    0 -0.23285718051E+02  0.36649876379E+02 -0.44707067631E+02  0.62500000000E+02  0.47000000000E+01 0. -1.
         -5    1    1    0    0  501  0.23285718051E+02 -0.36649876379E+02  0.44707067631E+02  0.62500000000E+02  0.47000000000E+01 0. -1.
</event>
<event>
 3    0  0.4580101E-005  0.9118800E+02  0.7546771E-02  0.1235069E+00
         25   -1    0    0    0    0  0.00000000000E+00  0.00000000000E+00  0.99999998245E-14  0.12500000000E+03  0.12500000000E+03 0.  0.
          5    1    1    0  501    0 -0.51868202521E+02 -0.29320149862E+02  0.18280546473E+02  0.62500000000E+02  0.47000000000E+01 0.  1.
         -5    1    1    0    0  501  0.51868202521E+02  0.29320149862E+02 -0.18280546473E+02  0.62500000000E+02  0.47000000000E+01 0.  1.
</event>
<event>
 3    0  0.4580101E-005  0.9118800E+02  0.7546771E-02  0.1235069E+00
         25   -1    0    0    0    0  0.00000000000E+00  0.00000000000E+00  0.99999998245E-14  0.12500000000E+03  0.12500000000E+03 0.  0.
          5    1    1    0  501    0 -0.33946636989E+02  0.41651078673E+02 -0.31574886897E+02  0.62500000000E+02  0.47000000000E+01 0.  1.
         -5    1    1    0    0  501  0.33946636989E+02 -0.41651078673E+02  0.31574886897E+02  0.62500000000E+02  0.47000000000E+01 0.  1.
</event>
<event>
 3    0  0.4580101E-005  0.9118800E+02  0.7546771E-02  0.1235069E+00
         25   -1    0    0    0    0  0.00000000000E+00  0.00000000000E+00  0.99999998245E-14  0.12500000000E+03  0.12500000000E+03 0.  0.
          5    1    1    0  501    0  0.28164957339E+02  0.12566412549E+02 -0.54156998197E+02  0.62500000000E+02  0.47000000000E+01 0. -1.
         -5    1    1    0    0  501 -0.28164957339E+02 -0.12566412549E+02  0.54156998197E+02  0.62500000000E+02  0.47000000000E+01 0. -1.
</event>
<event>
 3    0  0.4580101E-005  0.9118800E+02  0.7546771E-02  0.1235069E+00
         25   -1    0    0    0    0  0.00000000000E+00  0.00000000000E+00  0.99999998245E-14  0.12500000000E+03  0.12500000000E+03 0.  0.
          5    1    1    0  501    0  0.53942978480E+02 -0.29620461671E+02 -0.98459800471E+01  0.62500000000E+02  0.47000000000E+01 0. -1.
         -5    1    1    0    0  501 -0.53942978480E+02  0.29620461671E+02  0.98459800471E+01  0.62500000000E+02  0.47000000000E+01 0. -1.
</event>
<event>
 3    0  0.4580101E-005  0.9118800E+02  0.7546771E-02  0.1235069E+00
         25   -1    0    0    0    0  0.00000000000E+00  0.00000000000E+00  0.99999998245E-14  0.12500000000E+03  0.12500000000E+03 0.  0.
          5    1    1    0  501    0  0.30909509434E+02 -0.52535252475E+01 -0.53862442379E+02  0.62500000000E+02  0.47000000000E+01 0. -1.
         -5    1    1    0    0  501 -0.30909509434E+02  0.52535252475E+01  0.53862442379E+02  0.62500000000E+02  0.47000000000E+01 0. -1.
</event>
<event>
 3    0  0.4580101E-005  0.9118800E+02  0.7546771E-02  0.1235069E+00
         25   -1    0    0    0    0  0.00000000000E+00  0.00000000000E+00  0.99999998245E-14  0.12500000000E+03  0.12500000000E+03 0.  0.
          5    1    1    0  501    0 -0.16361278512E+01  0.44576992375E+02  0.43524416555E+02  0.62500000000E+02  0.47000000000E+01 0. -1.
         -5    1    1    0    0  501  0.16361278512E+01 -0.44576992375E+02 -0.43524416555E+02  0.62500000000E+02  0.47000000000E+01 0. -1.
</event>
<event>
 3    0  0.4580101E-005  0.9118800E+02  0.7546771E-02  0.1235069E+00
         25   -1    0    0    0    0  0.00000000000E+00  0.00000000000E+00  0.99999998245E-14  0.12500000000E+03  0.12500000000E+03 0.  0.
          5    1    1    0  501    0  0.71540456372E+01  0.55748355671E+02 -0.26927689671E+02  0.62500000000E+02  0.47000000000E+01 0.  1.
         -5    1    1    0    0  501 -0.71540456372E+01 -0.55748355671E+02  0.26927689671E+02  0.62500000000E+02  0.47000000000E+01 0.  1.
</event>
<event>
 3    0  0.4580101E-005  0.9118800E+02  0.7546771E-02  0.1235069E+00
         25   -1    0    0    0    0  0.00000000000E+00  0.00000000000E+00  0.99999998245E-14  0.12500000000E+03  0.12500000000E+03 0.  0.
          5    1    1    0  501    0  0.62245275260E+02  0.13384775827E+01  0.28096593405E+01  0.62500000000E+02  0.47000000000E+01 0.  1.
         -5    1    1    0    0  501 -0.62245275260E+02 -0.13384775827E+01 -0.28096593405E+01  0.62500000000E+02  0.47000000000E+01 0.  1.
</event>
<event>
 3    0  0.4580101E-005  0.9118800E+02  0.7546771E-02  0.1235069E+00
         25   -1    0    0    0    0  0.00000000000E+00  0.00000000000E+00  0.99999998245E-14  0.12500000000E+03  0.12500000000E+03 0.  0.
          5    1    1    0  501    0  0.36138608342E+02 -0.13247676214E+02 -0.49016936482E+02  0.62500000000E+02  0.47000000000E+01 0. -1.
         -5    1    1    0    0  501 -0.36138608342E+02  0.13247676214E+02  0.49016936482E+02  0.62500000000E+02  0.47000000000E+01 0. -1.
</event>
<event>
 3    0  0.4580101E-005  0.9118800E+02  0.7546771E-02  0.1235069E+00
         25   -1    0    0    0    0  0.00000000000E+00  0.00000000000E+00  0.99999998245E-14  0.12500000000E+03  0.12500000000E+03 0.  0.
          5    1    1    0  501    0  0.98850850236E+01  0.42354496881E+02  0.44637895202E+02  0.62500000000E+02  0.47000000000E+01 0. -1.
         -5    1    1    0    0  501 -0.98850850236E+01 -0.42354496881E+02 -0.44637895202E+02  0.62500000000E+02  0.47000000000E+01 0. -1.
</event>
<event>
 3    0  0.4580101E-005  0.9118800E+02  0.7546771E-02  0.1235069E+00
         25   -1    0    0    0    0  0.00000000000E+00  0.00000000000E+00  0.99999998245E-14  0.12500000000E+03  0.12500000000E+03 0.  0.
          5    1    1    0  501    0 -0.50007280821E+02 -0.31859875020E+02 -0.19193233928E+02  0.62500000000E+02  0.47000000000E+01 0. -1.
         -5    1    1    0    0  501  0.50007280821E+02  0.31859875020E+02  0.19193233928E+02  0.62500000000E+02  0.47000000000E+01 0. -1.
</event>
<event>
 3    0  0.4580101E-005  0.9118800E+02  0.7546771E-02  0.1235069E+00
         25   -1    0    0    0    0  0.00000000000E+00  0.00000000000E+00  0.99999998245E-14  0.12500000000E+03  0.12500000000E+03 0.  0.
          5    1    1    0  501    0 -0.10421634029E+02  0.35756056101E+02 -0.49970531279E+02  0.62500000000E+02  0.47000000000E+01 0. -1.
         -5    1    1    0    0  501  0.10421634029E+02 -0.35756056101E+02  0.49970531279E+02  0.62500000000E+02  0.47000000000E+01 0. -1.
</event>
<event>
 3    0  0.4580101E-005  0.9118800E+02  0.7546771E-02  0.1235069E+00
         25   -1    0    0    0    0  0.00000000000E+00  0.00000000000E+00  0.99999998245E-14  0.12500000000E+03  0.12500000000E+03 0.  0.
          5    1    1    0  501    0 -0.21619905562E+02 -0.57972771628E+02 -0.74764586062E+01  0.62500000000E+02  0.47000000000E+01 0.  1.
         -5    1    1    0    0  501  0.21619905562E+02  0.57972771628E+02  0.74764586062E+01  0.62500000000E+02  0.47000000000E+01 0.  1.
</event>
<event>
 3    0  0.4580101E-005  0.9118800E+02  0.7546771E-02  0.1235069E+00
         25   -1    0    0    0    0  0.00000000000E+00  0.00000000000E+00  0.99999998245E-14  0.12500000000E+03  0.12500000000E+03 0.  0.
          5    1    1    0  501    0 -0.44101022533E+01 -0.20198065463E+02  0.58794125129E+02  0.62500000000E+02  0.47000000000E+01 0.  1.
         -5    1    1    0    0  501  0.44101022533E+01  0.20198065463E+02 -0.58794125129E+02  0.62500000000E+02  0.47000000000E+01 0.  1.
</event>
<event>
 3    0  0.4580101E-005  0.9118800E+02  0.7546771E-02  0.1235069E+00
         25   -1    0    0    0    0  0.00000000000E+00  0.00000000000E+00  0.99999998245E-14  0.12500000000E+03  0.12500000000E+03 0.  0.
          5    1    1    0  501    0  0.40200171134E+02 -0.43574937051E+02  0.19217989014E+02  0.62500000000E+02  0.47000000000E+01 0.  1.
         -5    1    1    0    0  501 -0.40200171134E+02  0.43574937051E+02 -0.19217989014E+02  0.62500000000E+02  0.47000000000E+01 0.  1.
</event>
<event>
 3    0  0.4580101E-005  0.9118800E+02  0.7546771E-02  0.1235069E+00
         25   -1    0    0    0    0  0.00000000000E+00  0.00000000000E+00  0.99999998245E-14  0.12500000000E+03  0.12500000000E+03 0.  0.
          5    1    1    0  501    0  0.19570410346E+02  0.54150045895E+02 -0.23852286441E+02  0.62500000000E+02  0.47000000000E+01 0. -1.
         -5    1    1    0    0  501 -0.19570410346E+02 -0.54150045895E+02  0.23852286441E+02  0.62500000000E+02  0.47000000000E+01 0. -1.
</event>
<event>
 3    0  0.4580101E-005  0.9118800E+02  0.7546771E-02  0.1235069E+00
         25   -1    0    0    0    0  0.00000000000E+00  0.00000000000E+00  0.99999998245E-14  0.12500000000E+03  0.12500000000E+03 0.  0.
          5    1    1    0  501    0 -0.92224556915E+01 -0.58930017474E+02  0.18065418664E+02  0.62500000000E+02  0.47000000000E+01 0. -1.
         -5    1    1    0    0  501  0.92224556915E+01  0.58930017474E+02 -0.18065418664E+02  0.62500000000E+02  0.47000000000E+01 0. -1.
</event>
<event>
 3    0  0.4580101E-005  0.9118800E+02  0.7546771E-02  0.1235069E+00
         25   -1    0    0    0    0  0.00000000000E+00  0.00000000000E+00  0.99999998245E-14  0.12500000000E+03  0.12500000000E+03 0.  0.
          5    1    1    0  501    0  0.39255056331E+02  0.71786944178E+01  0.47871357813E+02  0.62500000000E+02  0.47000000000E+01 0. -1.
         -5    1    1    0    0  501 -0.39255056331E+02 -0.71786944178E+01 -0.47871357813E+02  0.62500000000E+02  0.47000000000E+01 0. -1.
</event>
<event>
 3    0  0.4580101E-005  0.9118800E+02  0.7546771E-02  0.1235069E+00
         25   -1    0    0    0    0  0.00000000000E+00  0.00000000000E+00  0.99999998245E-14  0.12500000000E+03  0.12500000000E+03 0.  0.
          5    1    1    0  501    0 -0.90269036459E+01 -0.40935239098E+02  0.46119206526E+02  0.62500000000E+02  0.47000000000E+01 0.  1.
         -5    1    1    0    0  501  0.90269036459E+01  0.40935239098E+02 -0.46119206526E+02  0.62500000000E+02  0.47000000000E+01 0.  1.
</event>
<event>
 3    0  0.4580101E-005  0.9118800E+02  0.7546771E-02  0.1235069E+00
         25   -1    0    0    0    0  0.00000000000E+00  0.00000000000E+00  0.99999998245E-14  0.12500000000E+03  0.12500000000E+03 0.  0.
          5    1    1    0  501    0 -0.21630229352E+02 -0.58395651291E+02  0.24982170684E+01  0.62500000000E+02  0.47000000000E+01 0. -1.
         -5    1    1    0    0  501  0.21630229352E+02  0.58395651291E+02 -0.24982170684E+01  0.62500000000E+02  0.47000000000E+01 0. -1.
</event>
<event>
 3    0  0.4580101E-005  0.9118800E+02  0.7546771E-02  0.1235069E+00
         25   -1    0    0    0    0  0.00000000000E+00  0.00000000000E+00  0.99999998245E-14  0.12500000000E+03  0.12500000000E+03 0.  0.
          5    1    1    0  501    0  0.12276827575E+02 -0.33203590565E+02 -0.51292895008E+02  0.62500000000E+02  0.47000000000E+01 0. -1.
         -5    1    1    0    0  501 -0.12276827575E+02  0.33203590565E+02  0.51292895008E+02  0.62500000000E+02  0.47000000000E+01 0. -1.
</event>
<event>
 3    0  0.4580101E-005  0.9118800E+02  0.7546771E-02  0.1235069E+00
         25   -1    0    0    0    0  0.00000000000E+00  0.00000000000E+00  0.99999998245E-14  0.12500000000E+03  0.12500000000E+03 0.  0.
          5    1    1    0  501    0 -0.12208048054E+02  0.49251731546E+02  0.36185501274E+02  0.62500000000E+02  0.47000000000E+01 0.  1.
         -5    1    1    0    0  501  0.12208048054E+02 -0.49251731546E+02 -0.36185501274E+02  0.62500000000E+02  0.47000000000E+01 0.  1.
</event>
<event>
 3    0  0.4580101E-005  0.9118800E+02  0.7546771E-02  0.1235069E+00
         25   -1    0    0    0    0  0.00000000000E+00  0.00000000000E+00  0.99999998245E-14  0.12500000000E+03  0.12500000000E+03 0.  0.
          5    1    1    0  501    0  0.18811815314E+02  0.48479778064E+02  0.34350934826E+02  0.62500000000E+02  0.47000000000E+01 0. -1.
         -5    1    1    0    0  501 -0.18811815314E+02 -0.48479778064E+02 -0.34350934826E+02  0.62500000000E+02  0.47000000000E+01 0. -1.
</event>
<event>
 3    0  0.4580101E-005  0.9118800E+02  0.7546771E-02  0.1235069E+00
         25   -1    0    0    0    0  0.00000000000E+00  0.00000000000E+00  0.99999998245E-14  0.12500000000E+03  0.12500000000E+03 0.  0.
          5    1    1    0  501    0 -0.37129661862E+02  0.30045195670E+02 -0.40035414663E+02  0.62500000000E+02  0.47000000000E+01 0. -1.
         -5    1    1    0    0  501  0.37129661862E+02 -0.30045195670E+02  0.40035414663E+02  0.62500000000E+02  0.47000000000E+01 0. -1.
</event>
<event>
 3    0  0.4580101E-005  0.9118800E+02  0.7546771E-02  0.1235069E+00
         25   -1    0    0    0    0  0.00000000000E+00  0.00000000000E+00  0.99999998245E-14  0.12500000000E+03  0.12500000000E+03 0.  0.
          5    1    1    0  501    0 -0.29816294997E+02  0.15924992075E+02 -0.52359747709E+02  0.62500000000E+02  0.47000000000E+01 0.  1.
         -5    1    1    0    0  501  0.29816294997E+02 -0.15924992075E+02  0.52359747709E+02  0.62500000000E+02  0.47000000000E+01 0.  1.
</event>
<event>
 3    0  0.4580101E-005  0.9118800E+02  0.7546771E-02  0.1235069E+00
         25   -1    0    0    0    0  0.00000000000E+00  0.00000000000E+00  0.99999998245E-14  0.12500000000E+03  0.12500000000E+03 0.  0.
          5    1    1    0  501    0  0.32238238403E+02 -0.48018380910E+02 -0.23218334984E+02  0.62500000000E+02  0.47000000000E+01 0. -1.
         -5    1    1    0    0  501 -0.32238238403E+02  0.48018380910E+02  0.23218334984E+02  0.62500000000E+02  0.47000000000E+01 0. -1.
</event>
<event>
 3    0  0.4580101E-005  0.9118800E+02  0.7546771E-02  0.1235069E+00
         25   -1    0    0    0    0  0.00000000000E+00  0.00000000000E+00  0.99999998245E-14  0.12500000000E+03  0.12500000000E+03 0.  0.
          5    1    1    0  501    0 -0.10981956809E+02 -0.12943925421E+02  0.59966752616E+02  0.62500000000E+02  0.47000000000E+01 0.  1.
         -5    1    1    0    0  501  0.10981956809E+02  0.12943925421E+02 -0.59966752616E+02  0.62500000000E+02  0.47000000000E+01 0.  1.
</event>
<event>
 3    0  0.4580101E-005  0.9118800E+02  0.7546771E-02  0.1235069E+00
         25   -1    0    0    0    0  0.00000000000E+00  0.00000000000E+00  0.99999998245E-14  0.12500000000E+03  0.12500000000E+03 0.  0.
          5    1    1    0  501    0 -0.31650282502E+02  0.49272891309E+02 -0.21321393003E+02  0.62500000000E+02  0.47000000000E+01 0. -1.
         -5    1    1    0    0  501  0.31650282502E+02 -0.49272891309E+02  0.21321393003E+02  0.62500000000E+02  0.47000000000E+01 0. -1.
</event>
<event>
 3    0  0.4580101E-005  0.9118800E+02  0.7546771E-02  0.1235069E+00
         25   -1    0    0    0    0  0.00000000000E+00  0.00000000000E+00  0.99999998245E-14  0.12500000000E+03  0.12500000000E+03 0.  0.
          5    1    1    0  501    0  0.23989954559E+01 -0.24950004713E+02  0.57060512490E+02  0.62500000000E+02  0.47000000000E+01 0.  1.
         -5    1    1    0    0  501 -0.23989954559E+01  0.24950004713E+02 -0.57060512490E+02  0.62500000000E+02  0.47000000000E+01 0.  1.
</event>
<event>
 3    0  0.4580101E-005  0.9118800E+02  0.7546771E-02  0.1235069E+00
         25   -1    0    0    0    0  0.00000000000E+00  0.00000000000E+00  0.99999998245E-14  0.12500000000E+03  0.12500000000E+03 0.  0.
          5    1    1    0  501    0 -0.39460450208E+02 -0.46075429643E+02 -0.14285924981E+02  0.62500000000E+02  0.47000000000E+01 0.  1.
         -5    1    1    0    0  501  0.39460450208E+02  0.46075429643E+02  0.14285924981E+02  0.62500000000E+02  0.47000000000E+01 0.  1.
</event>
<event>
 3    0  0.4580101E-005  0.9118800E+02  0.7546771E-02  0.1235069E+00
         25   -1    0    0    0    0  0.00000000000E+00  0.00000000000E+00  0.99999998245E-14  0.12500000000E+03  0.12500000000E+03 0.  0.
          5    1    1    0  501    0  0.55197459459E+02 -0.27154382740E+02  0.10001998166E+02  0.62500000000E+02  0.47000000000E+01 0.  1.
         -5    1    1    0    0  501 -0.55197459459E+02  0.27154382740E+02 -0.10001998166E+02  0.62500000000E+02  0.47000000000E+01 0.  1.
</event>
<event>
 3    0  0.4580101E-005  0.9118800E+02  0.7546771E-02  0.1235069E+00
         25   -1    0    0    0    0  0.00000000000E+00  0.00000000000E+00  0.99999998245E-14  0.12500000000E+03  0.12500000000E+03 0.  0.
          5    1    1    0  501    0 -0.52893686335E+02  0.28609832528E+02  0.16367511375E+02  0.62500000000E+02  0.47000000000E+01 0.  1.
         -5    1    1    0    0  501  0.52893686335E+02 -0.28609832528E+02 -0.16367511375E+02  0.62500000000E+02  0.47000000000E+01 0.  1.
</event>
<event>
 3    0  0.4580101E-005  0.9118800E+02  0.7546771E-02  0.1235069E+00
         25   -1    0    0    0    0  0.00000000000E+00  0.00000000000E+00  0.99999998245E-14  0.12500000000E+03  0.12500000000E+03 0.  0.
          5    1    1    0  501    0 -0.83984373713E+01  0.51856062381E+02  0.33534684196E+02  0.62500000000E+02  0.47000000000E+01 0. -1.
         -5    1    1    0    0  501  0.83984373713E+01 -0.51856062381E+02 -0.33534684196E+02  0.62500000000E+02  0.47000000000E+01 0. -1.
</event>
<event>
 3    0  0.4580101E-005  0.9118800E+02  0.7546771E-02  0.1235069E+00
         25   -1    0    0    0    0  0.00000000000E+00  0.00000000000E+00  0.99999998245E-14  0.12500000000E+03  0.12500000000E+03 0.  0.
          5    1    1    0  501    0 -0.45645840359E+02 -0.26104946988E+02  0.33453684412E+02  0.62500000000E+02  0.47000000000E+01 0.  1.
         -5    1    1    0    0  501  0.45645840359E+02  0.26104946988E+02 -0.33453684412E+02  0.62500000000E+02  0.47000000000E+01 0.  1.
</event>
<event>
 3    0  0.4580101E-005  0.9118800E+02  0.7546771E-02  0.1235069E+00
         25   -1    0    0    0    0  0.00000000000E+00  0.00000000000E+00  0.99999998245E-14  0.12500000000E+03  0.12500000000E+03 0.  0.
          5    1    1    0  501    0 -0.25871053341E+02  0.33177108396E+02 -0.45979648515E+02  0.62500000000E+02  0.47000000000E+01 0. -1.
         -5    1    1    0    0  501  0.25871053341E+02 -0.33177108396E+02  0.45979648515E+02  0.62500000000E+02  0.47000000000E+01 0. -1.
</event>
<event>
 3    0  0.4580101E-005  0.9118800E+02  0.7546771E-02  0.1235069E+00
         25   -1    0    0    0    0  0.00000000000E+00  0.00000000000E+00  0.99999998245E-14  0.12500000000E+03  0.12500000000E+03 0.  0.
          5    1    1    0  501    0  0.43730441840E+02 -0.47263536387E+01  0.44152803283E+02  0.62500000000E+02  0.47000000000E+01 0. -1.
         -5    1    1    0    0  501 -0.43730441840E+02  0.47263536387E+01 -0.44152803283E+02  0.62500000000E+02  0.47000000000E+01 0. -1.
</event>
<event>
 3    0  0.4580101E-005  0.9118800E+02  0.7546771E-02  0.1235069E+00
         25   -1    0    0    0    0  0.00000000000E+00  0.00000000000E+00  0.99999998245E-14  0.12500000000E+03  0.12500000000E+03 0.  0.
          5    1    1    0  501    0  0.47573073073E+02  0.22949198603E+02  0.33080160245E+02  0.62500000000E+02  0.47000000000E+01 0. -1.
         -5    1    1    0    0  501 -0.47573073073E+02 -0.22949198603E+02 -0.33080160245E+02  0.62500000000E+02  0.47000000000E+01 0. -1.
</event>
<event>
 3    0  0.4580101E-005  0.9118800E+02  0.7546771E-02  0.1235069E+00
         25   -1    0    0    0    0  0.00000000000E+00  0.00000000000E+00  0.99999998245E-14  0.12500000000E+03  0.12500000000E+03 0.  0.
          5    1    1    0  501    0  0.49092748792E+02  0.20366269280E+02  0.32546537322E+02  0.62500000000E+02  0.47000000000E+01 0. -1.
         -5    1    1    0    0  501 -0.49092748792E+02 -0.20366269280E+02 -0.32546537322E+02  0.62500000000E+02  0.47000000000E+01 0. -1.
</event>
<event>
 3    0  0.4580101E-005  0.9118800E+02  0.7546771E-02  0.1235069E+00
         25   -1    0    0    0    0  0.00000000000E+00  0.00000000000E+00  0.99999998245E-14  0.12500000000E+03  0.12500000000E+03 0.  0.
          5    1    1    0  501    0 -0.23820657042E+02 -0.21686678902E+02 -0.53351890841E+02  0.62500000000E+02  0.47000000000E+01 0.  1.
         -5    1    1    0    0  501  0.23820657042E+02  0.21686678902E+02  0.53351890841E+02  0.62500000000E+02  0.47000000000E+01 0.  1.
</event>
<event>
 3    0  0.4580101E-005  0.9118800E+02  0.7546771E-02  0.1235069E+00
         25   -1    0    0    0    0  0.00000000000E+00  0.00000000000E+00  0.99999998245E-14  0.12500000000E+03  0.12500000000E+03 0.  0.
          5    1    1    0  501    0 -0.28604506211E+02  0.90600051441E+01 -0.54624706235E+02  0.62500000000E+02  0.47000000000E+01 0.  1.
         -5    1    1    0    0  501  0.28604506211E+02 -0.90600051441E+01  0.54624706235E+02  0.62500000000E+02  0.47000000000E+01 0.  1.
</event>
<event>
 3    0  0.4580101E-005  0.9118800E+02  0.7546771E-02  0.1235069E+00
         25   -1    0    0    0    0  0.00000000000E+00  0.00000000000E+00  0.99999998245E-14  0.12500000000E+03  0.12500000000E+03 0.  0.
          5    1    1    0  501    0 -0.31550581746E+02 -0.42449593994E+02 -0.32965933344E+02  0.62500000000E+02  0.47000000000E+01 0. -1.
         -5    1    1    0    0  501  0.31550581746E+02  0.42449593994E+02  0.32965933344E+02  0.62500000000E+02  0.47000000000E+01 0. -1.
</event>
<event>
 3    0  0.4580101E-005  0.9118800E+02  0.7546771E-02  0.1235069E+00
         25   -1    0    0    0    0  0.00000000000E+00  0.00000000000E+00  0.99999998245E-14  0.12500000000E+03  0.12500000000E+03 0.  0.
          5    1    1    0  501    0  0.17384493513E+02  0.33856580678E+02 -0.49352521011E+02  0.62500000000E+02  0.47000000000E+01 0.  1.
         -5    1    1    0    0  501 -0.17384493513E+02 -0.33856580678E+02  0.49352521011E+02  0.62500000000E+02  0.47000000000E+01 0.  1.
</event>
<event>
 3    0  0.4580101E-005  0.9118800E+02  0.7546771E-02  0.1235069E+00
         25   -1    0    0    0    0  0.00000000000E+00  0.00000000000E+00  0.99999998245E-14  0.12500000000E+03  0.12500000000E+03 0.  0.
          5    1    1    0  501    0 -0.59945501920E+02  0.40753587988E+01  0.16555610838E+02  0.62500000000E+02  0.47000000000E+01 0. -1.
         -5    1    1    0    0  501  0.59945501920E+02 -0.40753587988E+01 -0.16555610838E+02  0.62500000000E+02  0.47000000000E+01 0. -1.
</event>
<event>
 3    0  0.4580101E-005  0.9118800E+02  0.7546771E-02  0.1235069E+00
         25   -1    0    0    0    0  0.00000000000E+00  0.00000000000E+00  0.99999998245E-14  0.12500000000E+03  0.12500000000E+03 0.  0.
          5    1    1    0  501    0 -0.37491576330E+02 -0.46997702646E+02  0.16424300602E+02  0.62500000000E+02  0.47000000000E+01 0. -1.
         -5    1    1    0    0  501  0.37491576330E+02  0.46997702646E+02 -0.16424300602E+02  0.62500000000E+02  0.47000000000E+01 0. -1.
</event>
<event>
 3    0  0.4580101E-005  0.9118800E+02  0.7546771E-02  0.1235069E+00
         25   -1    0    0    0    0  0.00000000000E+00  0.00000000000E+00  0.99999998245E-14  0.12500000000E+03  0.12500000000E+03 0.  0.
          5    1    1    0  501    0  0.83880652759E+01 -0.56088003119E+02 -0.25844462987E+02  0.62500000000E+02  0.47000000000E+01 0.  1.
         -5    1    1    0    0  501 -0.83880652759E+01  0.56088003119E+02  0.25844462987E+02  0.62500000000E+02  0.47000000000E+01 0.  1.
</event>
<event>
 3    0  0.4580101E-005  0.9118800E+02  0.7546771E-02  0.1235069E+00
         25   -1    0    0    0    0  0.00000000000E+00  0.00000000000E+00  0.99999998245E-14  0.12500000000E+03  0.12500000000E+03 0.  0.
          5    1    1    0  501    0  0.17456457664E+02 -0.46029452772E+02 -0.38219387270E+02  0.62500000000E+02  0.47000000000E+01 0. -1.
         -5    1    1    0    0  501 -0.17456457664E+02  0.46029452772E+02  0.38219387270E+02  0.62500000000E+02  0.47000000000E+01 0. -1.
</event>
<event>
 3    0  0.4580101E-005  0.9118800E+02  0.7546771E-02  0.1235069E+00
         25   -1    0    0    0    0  0.00000000000E+00  0.00000000000E+00  0.99999998245E-14  0.12500000000E+03  0.12500000000E+03 0.  0.
          5    1    1    0  501    0  0.54239591321E+02  0.25301140348E+02  0.17380420893E+02  0.62500000000E+02  0.47000000000E+01 0.  1.
         -5    1    1    0    0  501 -0.54239591321E+02 -0.25301140348E+02 -0.17380420893E+02  0.62500000000E+02  0.47000000000E+01 0.  1.
</event>
<event>
 3    0  0.4580101E-005  0.9118800E+02  0.7546771E-02  0.1235069E+00
         25   -1    0    0    0    0  0.00000000000E+00  0.00000000000E+00  0.99999998245E-14  0.12500000000E+03  0.12500000000E+03 0.  0.
          5    1    1    0  501    0 -0.19276382294E+02 -0.43386849956E+02  0.40375268873E+02  0.62500000000E+02  0.47000000000E+01 0. -1.
         -5    1    1    0    0  501  0.19276382294E+02  0.43386849956E+02 -0.40375268873E+02  0.62500000000E+02  0.47000000000E+01 0. -1.
</event>
<event>
 3    0  0.4580101E-005  0.9118800E+02  0.7546771E-02  0.1235069E+00
         25   -1    0    0    0    0  0.00000000000E+00  0.00000000000E+00  0.99999998245E-14  0.12500000000E+03  0.12500000000E+03 0.  0.
          5    1    1    0  501    0  0.16243687337E+02 -0.93364153547E+01 -0.59440171349E+02  0.62500000000E+02  0.47000000000E+01 0. -1.
         -5    1    1    0    0  501 -0.16243687337E+02  0.93364153547E+01  0.59440171349E+02  0.62500000000E+02  0.47000000000E+01 0. -1.
</event>
<event>
 3    0  0.4580101E-005  0.9118800E+02  0.7546771E-02  0.1235069E+00
         25   -1    0    0    0    0  0.00000000000E+00  0.00000000000E+00  0.99999998245E-14  0.12500000000E+03  0.12500000000E+03 0.  0.
          5    1    1    0  501    0 -0.37425409394E+02 -0.42334534890E+02  0.26292316127E+02  0.62500000000E+02  0.47000000000E+01 0.  1.
         -5    1    1    0    0  501  0.37425409394E+02  0.42334534890E+02 -0.26292316127E+02  0.62500000000E+02  0.47000000000E+01 0.  1.
</event>
<event>
 3    0  0.4580101E-005  0.9118800E+02  0.7546771E-02  0.1235069E+00
         25   -1    0    0    0    0  0.00000000000E+00  0.00000000000E+00  0.99999998245E-14  0.12500000000E+03  0.12500000000E+03 0.  0.
          5    1    1    0  501    0 -0.40425774697E+02  0.43477999004E+02  0.18962603799E+02  0.62500000000E+02  0.47000000000E+01 0. -1.
         -5    1    1    0    0  501  0.40425774697E+02 -0.43477999004E+02 -0.18962603799E+02  0.62500000000E+02  0.47000000000E+01 0. -1.
</event>
<event>
 3    0  0.4580101E-005  0.9118800E+02  0.7546771E-02  0.1235069E+00
         25   -1    0    0    0    0  0.00000000000E+00  0.00000000000E+00  0.99999998245E-14  0.12500000000E+03  0.12500000000E+03 0.  0.
          5    1    1    0  501    0 -0.43298070054E+01 -0.58751039658E+02 -0.20340307528E+02  0.62500000000E+02  0.47000000000E+01 0. -1.
         -5    1    1    0    0  501  0.43298070054E+01  0.58751039658E+02  0.20340307528E+02  0.62500000000E+02  0.47000000000E+01 0. -1.
</event>
<event>
 3    0  0.4580101E-005  0.9118800E+02  0.7546771E-02  0.1235069E+00
         25   -1    0    0    0    0  0.00000000000E+00  0.00000000000E+00  0.99999998245E-14  0.12500000000E+03  0.12500000000E+03 0.  0.
          5    1    1    0  501    0 -0.42959468374E+02 -0.74438871881E+01  0.44533499981E+02  0.62500000000E+02  0.47000000000E+01 0. -1.
         -5    1    1    0    0  501  0.42959468374E+02  0.74438871881E+01 -0.44533499981E+02  0.62500000000E+02  0.47000000000E+01 0. -1.
</event>
<event>
 3    0  0.4580101E-005  0.9118800E+02  0.7546771E-02  0.1235069E+00
         25   -1    0    0    0    0  0.00000000000E+00  0.00000000000E+00  0.99999998245E-14  0.12500000000E+03  0.12500000000E+03 0.  0.
          5    1    1    0  501    0  0.55425527313E+02  0.16777777311E+02  0.23036430075E+02  0.62500000000E+02  0.47000000000E+01 0.  1.
         -5    1    1    0    0  501 -0.55425527313E+02 -0.16777777311E+02 -0.23036430075E+02  0.62500000000E+02  0.47000000000E+01 0.  1.
</event>
<event>
 3    0  0.4580101E-005  0.9118800E+02  0.7546771E-02  0.1235069E+00
         25   -1    0    0    0    0  0.00000000000E+00  0.00000000000E+00  0.99999998245E-14  0.12500000000E+03  0.12500000000E+03 0.  0.
          5    1    1    0  501    0 -0.51822268313E+02  0.24338290385E+02 -0.24622350172E+02  0.62500000000E+02  0.47000000000E+01 0.  1.
         -5    1    1    0    0  501  0.51822268313E+02 -0.24338290385E+02  0.24622350172E+02  0.62500000000E+02  0.47000000000E+01 0.  1.
</event>
<event>
 3    0  0.4580101E-005  0.9118800E+02  0.7546771E-02  0.1235069E+00
         25   -1    0    0    0    0  0.00000000000E+00  0.00000000000E+00  0.99999998245E-14  0.12500000000E+03  0.12500000000E+03 0.  0.
          5    1    1    0  501    0 -0.39687371073E+02  0.45745429939E+02  0.14711499481E+02  0.62500000000E+02  0.47000000000E+01 0.  1.
         -5    1    1    0    0  501  0.39687371073E+02 -0.45745429939E+02 -0.14711499481E+02  0.62500000000E+02  0.47000000000E+01 0.  1.
</event>
<event>
 3    0  0.4580101E-005  0.9118800E+02  0.7546771E-02  0.1235069E+00
         25   -1    0    0    0    0  0.00000000000E+00  0.00000000000E+00  0.99999998245E-14  0.12500000000E+03  0.12500000000E+03 0.  0.
          5    1    1    0  501    0 -0.24556705074E+02 -0.57175923700E+02 -0.34701563309E+01  0.62500000000E+02  0.47000000000E+01 0.  1.
         -5    1    1    0    0  501  0.24556705074E+02  0.57175923700E+02  0.34701563309E+01  0.62500000000E+02  0.47000000000E+01 0.  1.
</event>
<event>
 3    0  0.4580101E-005  0.9118800E+02  0.7546771E-02  0.1235069E+00
         25   -1    0    0    0    0  0.00000000000E+00  0.00000000000E+00  0.99999998245E-14  0.12500000000E+03  0.12500000000E+03 0.  0.
          5    1    1    0  501    0 -0.33541900358E+02 -0.33336464724E+02  0.40592869326E+02  0.62500000000E+02  0.47000000000E+01 0.  1.
         -5    1    1    0    0  501  0.33541900358E+02  0.33336464724E+02 -0.40592869326E+02  0.62500000000E+02  0.47000000000E+01 0.  1.
</event>
<event>
 3    0  0.4580101E-005  0.9118800E+02  0.7546771E-02  0.1235069E+00
         25   -1    0    0    0    0  0.00000000000E+00  0.00000000000E+00  0.99999998245E-14  0.12500000000E+03  0.12500000000E+03 0.  0.
          5    1    1    0  501    0 -0.36520677788E+02 -0.11579404159E+02  0.49156052458E+02  0.62500000000E+02  0.47000000000E+01 0.  1.
         -5    1    1    0    0  501  0.36520677788E+02  0.11579404159E+02 -0.49156052458E+02  0.62500000000E+02  0.47000000000E+01 0.  1.
</event>
<event>
 3    0  0.4580101E-005  0.9118800E+02  0.7546771E-02  0.1235069E+00
         25   -1    0    0    0    0  0.00000000000E+00  0.00000000000E+00  0.99999998245E-14  0.12500000000E+03  0.12500000000E+03 0.  0.
          5    1    1    0  501    0  0.12280162943E+02 -0.62757299726E+00 -0.61097984830E+02  0.62500000000E+02  0.47000000000E+01 0. -1.
         -5    1    1    0    0  501 -0.12280162943E+02  0.62757299726E+00  0.61097984830E+02  0.62500000000E+02  0.47000000000E+01 0. -1.
</event>
<event>
 3    0  0.4580101E-005  0.9118800E+02  0.7546771E-02  0.1235069E+00
         25   -1    0    0    0    0  0.00000000000E+00  0.00000000000E+00  0.99999998245E-14  0.12500000000E+03  0.12500000000E+03 0.  0.
          5    1    1    0  501    0  0.28596547686E+02 -0.55101248883E+02 -0.54999847240E+01  0.62500000000E+02  0.47000000000E+01 0. -1.
         -5    1    1    0    0  501 -0.28596547686E+02  0.55101248883E+02  0.54999847240E+01  0.62500000000E+02  0.47000000000E+01 0. -1.
</event>
<event>
 3    0  0.4580101E-005  0.9118800E+02  0.7546771E-02  0.1235069E+00
         25   -1    0    0    0    0  0.00000000000E+00  0.00000000000E+00  0.99999998245E-14  0.12500000000E+03  0.12500000000E+03 0.  0.
          5    1    1    0  501    0 -0.25311928123E+02  0.14732176573E+02  0.55012991812E+02  0.62500000000E+02  0.47000000000E+01 0.  1.
         -5    1    1    0    0  501  0.25311928123E+02 -0.14732176573E+02 -0.55012991812E+02  0.62500000000E+02  0.47000000000E+01 0.  1.
</event>
<event>
 3    0  0.4580101E-005  0.9118800E+02  0.7546771E-02  0.1235069E+00
         25   -1    0    0    0    0  0.00000000000E+00  0.00000000000E+00  0.99999998245E-14  0.12500000000E+03  0.12500000000E+03 0.  0.
          5    1    1    0  501    0 -0.35010941438E+02 -0.45437797713E+02 -0.24368022460E+02  0.62500000000E+02  0.47000000000E+01 0.  1.
         -5    1    1    0    0  501  0.35010941438E+02  0.45437797713E+02  0.24368022460E+02  0.62500000000E+02  0.47000000000E+01 0.  1.
</event>
<event>
 3    0  0.4580101E-005  0.9118800E+02  0.7546771E-02  0.1235069E+00
         25   -1    0    0    0    0  0.00000000000E+00  0.00000000000E+00  0.99999998245E-14  0.12500000000E+03  0.12500000000E+03 0.  0.
          5    1    1    0  501    0  0.42102266506E+02 -0.30604828229E+02 -0.34276867479E+02  0.62500000000E+02  0.47000000000E+01 0.  1.
         -5    1    1    0    0  501 -0.42102266506E+02  0.30604828229E+02  0.34276867479E+02  0.62500000000E+02  0.47000000000E+01 0.  1.
</event>
<event>
 3    0  0.4580101E-005  0.9118800E+02  0.7546771E-02  0.1235069E+00
         25   -1    0    0    0    0  0.00000000000E+00  0.00000000000E+00  0.99999998245E-14  0.12500000000E+03  0.12500000000E+03 0.  0.
          5    1    1    0  501    0 -0.40243704641E+02  0.47200581717E+02  0.60588218608E+01  0.62500000000E+02  0.47000000000E+01 0.  1.
         -5    1    1    0    0  501  0.40243704641E+02 -0.47200581717E+02 -0.60588218608E+01  0.62500000000E+02  0.47000000000E+01 0.  1.
</event>
<event>
 3    0  0.4580101E-005  0.9118800E+02  0.7546771E-02  0.1235069E+00
         25   -1    0    0    0    0  0.00000000000E+00  0.00000000000E+00  0.99999998245E-14  0.12500000000E+03  0.12500000000E+03 0.  0.
          5    1    1    0  501    0  0.24637451195E+02  0.52996232843E+02  0.21646138295E+02  0.62500000000E+02  0.47000000000E+01 0. -1.
         -5    1    1    0    0  501 -0.24637451195E+02 -0.52996232843E+02 -0.21646138295E+02  0.62500000000E+02  0.47000000000E+01 0. -1.
</event>
<event>
 3    0  0.4580101E-005  0.9118800E+02  0.7546771E-02  0.1235069E+00
         25   -1    0    0    0    0  0.00000000000E+00  0.00000000000E+00  0.99999998245E-14  0.12500000000E+03  0.12500000000E+03 0.  0.
          5    1    1    0  501    0 -0.70948710774E+01  0.61154603681E+02 -0.96921232486E+01  0.62500000000E+02  0.47000000000E+01 0. -1.
         -5    1    1    0    0  501  0.70948710774E+01 -0.61154603681E+02  0.96921232486E+01  0.62500000000E+02  0.47000000000E+01 0. -1.
</event>
<event>
 3    0  0.4580101E-005  0.9118800E+02  0.7546771E-02  0.1235069E+00
         25   -1    0    0    0    0  0.00000000000E+00  0.00000000000E+00  0.99999998245E-14  0.12500000000E+03  0.12500000000E+03 0.  0.
          5    1    1    0  501    0  0.56070184043E+02 -0.63775050218E+01 -0.26450366559E+02  0.62500000000E+02  0.47000000000E+01 0. -1.
         -5    1    1    0    0  501 -0.56070184043E+02  0.63775050218E+01  0.26450366559E+02  0.62500000000E+02  0.47000000000E+01 0. -1.
</event>
<event>
 3    0  0.4580101E-005  0.9118800E+02  0.7546771E-02  0.1235069E+00
         25   -1    0    0    0    0  0.00000000000E+00  0.00000000000E+00  0.99999998245E-14  0.12500000000E+03  0.12500000000E+03 0.  0.
          5    1    1    0  501    0  0.47664133029E+02  0.19414067718E+02  0.35148035467E+02  0.62500000000E+02  0.47000000000E+01 0.  1.
         -5    1    1    0    0  501 -0.47664133029E+02 -0.19414067718E+02 -0.35148035467E+02  0.62500000000E+02  0.47000000000E+01 0.  1.
</event>
<event>
 3    0  0.4580101E-005  0.9118800E+02  0.7546771E-02  0.1235069E+00
         25   -1    0    0    0    0  0.00000000000E+00  0.00000000000E+00  0.99999998245E-14  0.12500000000E+03  0.12500000000E+03 0.  0.
          5    1    1    0  501    0 -0.58261568263E+02  0.19842392508E+02  0.97994450409E+01  0.62500000000E+02  0.47000000000E+01 0.  1.
         -5    1    1    0    0  501  0.58261568263E+02 -0.19842392508E+02 -0.97994450409E+01  0.62500000000E+02  0.47000000000E+01 0.  1.
</event>
<event>
 3    0  0.4580101E-005  0.9118800E+02  0.7546771E-02  0.1235069E+00
         25   -1    0    0    0    0  0.00000000000E+00  0.00000000000E+00  0.99999998245E-14  0.12500000000E+03  0.12500000000E+03 0.  0.
          5    1    1    0  501    0  0.36586720925E+02  0.12572731466E+02  0.48862033067E+02  0.62500000000E+02  0.47000000000E+01 0. -1.
         -5    1    1    0    0  501 -0.36586720925E+02 -0.12572731466E+02 -0.48862033067E+02  0.62500000000E+02  0.47000000000E+01 0. -1.
</event>
<event>
 3    0  0.4580101E-005  0.9118800E+02  0.7546771E-02  0.1235069E+00
         25   -1    0    0    0    0  0.00000000000E+00  0.00000000000E+00  0.99999998245E-14  0.12500000000E+03  0.12500000000E+03 0.  0.
          5    1    1    0  501    0  0.11687011815E+02 -0.51215042690E+02 -0.33534954259E+02  0.62500000000E+02  0.47000000000E+01 0.  1.
         -5    1    1    0    0  501 -0.11687011815E+02  0.51215042690E+02  0.33534954259E+02  0.62500000000E+02  0.47000000000E+01 0.  1.
</event>
<event>
 3    0  0.4580101E-005  0.9118800E+02  0.7546771E-02  0.1235069E+00
         25   -1    0    0    0    0  0.00000000000E+00  0.00000000000E+00  0.99999998245E-14  0.12500000000E+03  0.12500000000E+03 0.  0.
          5    1    1    0  501    0  0.62245861830E+02  0.20801749114E+01 -0.22990340226E+01  0.62500000000E+02  0.47000000000E+01 0. -1.
         -5    1    1    0    0  501 -0.62245861830E+02 -0.20801749114E+01  0.22990340226E+01  0.62500000000E+02  0.47000000000E+01 0. -1.
</event>
<event>
 3    0  0.4580101E-005  0.9118800E+02  0.7546771E-02  0.1235069E+00
         25   -1    0    0    0    0  0.00000000000E+00  0.00000000000E+00  0.99999998245E-14  0.12500000000E+03  0.12500000000E+03 0.  0.
          5    1    1    0  501    0 -0.50425590098E+02 -0.18081696171E+01  0.36580737908E+02  0.62500000000E+02  0.47000000000E+01 0. -1.
         -5    1    1    0    0  501  0.50425590098E+02  0.18081696171E+01 -0.36580737908E+02  0.62500000000E+02  0.47000000000E+01 0. -1.
</event>
<event>
 3    0  0.4580101E-005  0.9118800E+02  0.7546771E-02  0.1235069E+00
         25   -1    0    0    0    0  0.00000000000E+00  0.00000000000E+00  0.99999998245E-14  0.12500000000E+03  0.12500000000E+03 0.  0.
          5    1    1    0  501    0 -0.57408702103E+02 -0.23478956926E+02 -0.60942189397E+01  0.62500000000E+02  0.47000000000E+01 0. -1.
         -5    1    1    0    0  501  0.57408702103E+02  0.23478956926E+02  0.60942189397E+01  0.62500000000E+02  0.47000000000E+01 0. -1.
</event>
<event>
 3    0  0.4580101E-005  0.9118800E+02  0.7546771E-02  0.1235069E+00
         25   -1    0    0    0    0  0.00000000000E+00  0.00000000000E+00  0.99999998245E-14  0.12500000000E+03  0.12500000000E+03 0.  0.
          5    1    1    0  501    0 -0.59824200969E+02 -0.16466917877E+02 -0.58365738340E+01  0.62500000000E+02  0.47000000000E+01 0. -1.
         -5    1    1    0    0  501  0.59824200969E+02  0.16466917877E+02  0.58365738340E+01  0.62500000000E+02  0.47000000000E+01 0. -1.
</event>
<event>
 3    0  0.4580101E-005  0.9118800E+02  0.7546771E-02  0.1235069E+00
         25   -1    0    0    0    0  0.00000000000E+00  0.00000000000E+00  0.99999998245E-14  0.12500000000E+03  0.12500000000E+03 0.  0.
          5    1    1    0  501    0 -0.11429291737E+02  0.61112798371E+02 -0.43309543615E+01  0.62500000000E+02  0.47000000000E+01 0. -1.
         -5    1    1    0    0  501  0.11429291737E+02 -0.61112798371E+02  0.43309543615E+01  0.62500000000E+02  0.47000000000E+01 0. -1.
</event>
<event>
 3    0  0.4580101E-005  0.9118800E+02  0.7546771E-02  0.1235069E+00
         25   -1    0    0    0    0  0.00000000000E+00  0.00000000000E+00  0.99999998245E-14  0.12500000000E+03  0.12500000000E+03 0.  0.
          5    1    1    0  501    0  0.55297111023E+02  0.17119813663E+02 -0.23093321385E+02  0.62500000000E+02  0.47000000000E+01 0. -1.
         -5    1    1    0    0  501 -0.55297111023E+02 -0.17119813663E+02  0.23093321385E+02  0.62500000000E+02  0.47000000000E+01 0. -1.
</event>
<event>
 3    0  0.4580101E-005  0.9118800E+02  0.7546771E-02  0.1235069E+00
         25   -1    0    0    0    0  0.00000000000E+00  0.00000000000E+00  0.99999998245E-14  0.12500000000E+03  0.12500000000E+03 0.  0.
          5    1    1    0  501    0  0.11056738538E+02  0.61325118347E+02  0.10669548232E+01  0.62500000000E+02  0.47000000000E+01 0.  1.
         -5    1    1    0    0  501 -0.11056738538E+02 -0.61325118347E+02 -0.10669548232E+01  0.62500000000E+02  0.47000000000E+01 0.  1.
</event>
<event>
 3    0  0.4580101E-005  0.9118800E+02  0.7546771E-02  0.1235069E+00
         25   -1    0    0    0    0  0.00000000000E+00  0.00000000000E+00  0.99999998245E-14  0.12500000000E+03  0.12500000000E+03 0.  0.
          5    1    1    0  501    0 -0.41804696787E+02 -0.31744212539E+02 -0.33598099601E+02  0.62500000000E+02  0.47000000000E+01 0.  1.
         -5    1    1    0    0  501  0.41804696787E+02  0.31744212539E+02  0.33598099601E+02  0.62500000000E+02  0.47000000000E+01 0.  1.
</event>
<event>
 3    0  0.4580101E-005  0.9118800E+02  0.7546771E-02  0.1235069E+00
         25   -1    0    0    0    0  0.00000000000E+00  0.00000000000E+00  0.99999998245E-14  0.12500000000E+03  0.12500000000E+03 0.  0.
          5    1    1    0  501    0  0.42838773437E+02  0.27320814824E+01  0.45183351150E+02  0.62500000000E+02  0.47000000000E+01 0.  1.
         -5    1    1    0    0  501 -0.42838773437E+02 -0.27320814824E+01 -0.45183351150E+02  0.62500000000E+02  0.47000000000E+01 0.  1.
</event>
<event>
 3    0  0.4580101E-005  0.9118800E+02  0.7546771E-02  0.1235069E+00
         25   -1    0    0    0    0  0.00000000000E+00  0.00000000000E+00  0.99999998245E-14  0.12500000000E+03  0.12500000000E+03 0.  0.
          5    1    1    0  501    0 -0.25332293907E+02 -0.35924002338E+02 -0.44180323012E+02  0.62500000000E+02  0.47000000000E+01 0.  1.
         -5    1    1    0    0  501  0.25332293907E+02  0.35924002338E+02  0.44180323012E+02  0.62500000000E+02  0.47000000000E+01 0.  1.
</event>
<event>
 3    0  0.4580101E-005  0.9118800E+02  0.7546771E-02  0.1235069E+00
         25   -1    0    0    0    0  0.00000000000E+00  0.00000000000E+00  0.99999998245E-14  0.12500000000E+03  0.12500000000E+03 0.  0.
          5    1    1    0  501    0  0.59517544824E+02 -0.85182215763E+01  0.16409197400E+02  0.62500000000E+02  0.47000000000E+01 0.  1.
         -5    1    1    0    0  501 -0.59517544824E+02  0.85182215763E+01 -0.16409197400E+02  0.62500000000E+02  0.47000000000E+01 0.  1.
</event>
<event>
 3    0  0.4580101E-005  0.9118800E+02  0.7546771E-02  0.1235069E+00
         25   -1    0    0    0    0  0.00000000000E+00  0.00000000000E+00  0.99999998245E-14  0.12500000000E+03  0.12500000000E+03 0.  0.
          5    1    1    0  501    0 -0.52649348735E+02  0.21196770396E+02  0.25746902775E+02  0.62500000000E+02  0.47000000000E+01 0.  1.
         -5    1    1    0    0  501  0.52649348735E+02 -0.21196770396E+02 -0.25746902775E+02  0.62500000000E+02  0.47000000000E+01 0.  1.
</event>
<event>
 3    0  0.4580101E-005  0.9118800E+02  0.7546771E-02  0.1235069E+00
         25   -1    0    0    0    0  0.00000000000E+00  0.00000000000E+00  0.99999998245E-14  0.12500000000E+03  0.12500000000E+03 0.  0.
          5    1    1    0  501    0 -0.44220089929E+02 -0.18694754499E+02  0.39739776055E+02  0.62500000000E+02  0.47000000000E+01 0. -1.
         -5    1    1    0    0  501  0.44220089929E+02  0.18694754499E+02 -0.39739776055E+02  0.62500000000E+02  0.47000000000E+01 0. -1.
</event>
<event>
 3    0  0.4580101E-005  0.9118800E+02  0.7546771E-02  0.1235069E+00
         25   -1    0    0    0    0  0.00000000000E+00  0.00000000000E+00  0.99999998245E-14  0.12500000000E+03  0.12500000000E+03 0.  0.
          5    1    1    0  501    0 -0.20471210676E+02  0.95364155840E+01 -0.58087402346E+02  0.62500000000E+02  0.47000000000E+01 0.  1.
         -5    1    1    0    0  501  0.20471210676E+02 -0.95364155840E+01  0.58087402346E+02  0.62500000000E+02  0.47000000000E+01 0.  1.
</event>
<event>
 3    0  0.4580101E-005  0.9118800E+02  0.7546771E-02  0.1235069E+00
         25   -1    0    0    0    0  0.00000000000E+00  0.00000000000E+00  0.99999998245E-14  0.12500000000E+03  0.12500000000E+03 0.  0.
          5    1    1    0  501    0  0.10492445082E+02  0.59018860541E+02 -0.17054110844E+02  0.62500000000E+02  0.47000000000E+01 0.  1.
         -5    1    1    0    0  501 -0.10492445082E+02 -0.59018860541E+02  0.17054110844E+02  0.62500000000E+02  0.47000000000E+01 0.  1.
</event>
<event>
 3    0  0.4580101E-005  0.9118800E+02  0.7546771E-02  0.1235069E+00
         25   -1    0    0    0    0  0.00000000000E+00  0.00000000000E+00  0.99999998245E-14  0.12500000000E+03  0.12500000000E+03 0.  0.
          5    1    1    0  501    0  0.51110184400E+02  0.26672815870E+02 -0.23674246432E+02  0.62500000000E+02  0.47000000000E+01 0.  1.
         -5    1    1    0    0  501 -0.51110184400E+02 -0.26672815870E+02  0.23674246432E+02  0.62500000000E+02  0.47000000000E+01 0.  1.
</event>
<event>
 3    0  0.4580101E-005  0.9118800E+02  0.7546771E-02  0.1235069E+00
         25   -1    0    0    0    0  0.00000000000E+00  0.00000000000E+00  0.99999998245E-14  0.12500000000E+03  0.12500000000E+03 0.  0.
          5    1    1    0  501    0  0.52972358527E+02 -0.61116433142E+01 -0.32260456414E+02  0.62500000000E+02  0.47000000000E+01 0. -1.
         -5    1    1    0    0  501 -0.52972358527E+02  0.61116433142E+01  0.32260456414E+02  0.62500000000E+02  0.47000000000E+01 0. -1.
</event>
<event>
 3    0  0.4580101E-005  0.9118800E+02  0.7546771E-02  0.1235069E+00
         25   -1    0    0    0    0  0.00000000000E+00  0.00000000000E+00  0.99999998245E-14  0.12500000000E+03  0.12500000000E+03 0.  0.
          5    1    1    0  501    0  0.24530485043E+02 -0.41654839799E+02 -0.39335602511E+02  0.62500000000E+02  0.47000000000E+01 0.  1.
         -5    1    1    0    0  501 -0.24530485043E+02  0.41654839799E+02  0.39335602511E+02  0.62500000000E+02  0.47000000000E+01 0.  1.
</event>
<event>
 3    0  0.4580101E-005  0.9118800E+02  0.7546771E-02  0.1235069E+00
         25   -1    0    0    0    0  0.00000000000E+00  0.00000000000E+00  0.99999998245E-14  0.12500000000E+03  0.12500000000E+03 0.  0.
          5    1    1    0  501    0  0.33134028332E+02 -0.35231615817E+02  0.39306862166E+02  0.62500000000E+02  0.47000000000E+01 0. -1.
         -5    1    1    0    0  501 -0.33134028332E+02  0.35231615817E+02 -0.39306862166E+02  0.62500000000E+02  0.47000000000E+01 0. -1.
</event>
<event>
 3    0  0.4580101E-005  0.9118800E+02  0.7546771E-02  0.1235069E+00
         25   -1    0    0    0    0  0.00000000000E+00  0.00000000000E+00  0.99999998245E-14  0.12500000000E+03  0.12500000000E+03 0.  0.
          5    1    1    0  501    0  0.56512406697E+02  0.93720387841E+01 -0.24549394663E+02  0.62500000000E+02  0.47000000000E+01 0. -1.
         -5    1    1    0    0  501 -0.56512406697E+02 -0.93720387841E+01  0.24549394663E+02  0.62500000000E+02  0.47000000000E+01 0. -1.
</event>
<event>
 3    0  0.4580101E-005  0.9118800E+02  0.7546771E-02  0.1235069E+00
         25   -1    0    0    0    0  0.00000000000E+00  0.00000000000E+00  0.99999998245E-14  0.12500000000E+03  0.12500000000E+03 0.  0.
          5    1    1    0  501    0  0.44563229864E+02 -0.19649561212E+01  0.43524906565E+02  0.62500000000E+02  0.47000000000E+01 0. -1.
         -5    1    1    0    0  501 -0.44563229864E+02  0.19649561212E+01 -0.43524906565E+02  0.62500000000E+02  0.47000000000E+01 0. -1.
</event>
<event>
 3    0  0.4580101E-005  0.9118800E+02  0.7546771E-02  0.1235069E+00
         25   -1    0    0    0    0  0.00000000000E+00  0.00000000000E+00  0.99999998245E-14  0.12500000000E+03  0.12500000000E+03 0.  0.
          5    1    1    0  501    0 -0.59583495145E+02 -0.15155277516E+02  0.10211986571E+02  0.62500000000E+02  0.47000000000E+01 0.  1.
         -5    1    1    0    0  501  0.59583495145E+02  0.15155277516E+02 -0.10211986571E+02  0.62500000000E+02  0.47000000000E+01 0.  1.
</event>
<event>
 3    0  0.4580101E-005  0.9118800E+02  0.7546771E-02  0.1235069E+00
         25   -1    0    0    0    0  0.00000000000E+00  0.00000000000E+00  0.99999998245E-14  0.12500000000E+03  0.12500000000E+03 0.  0.
          5    1    1    0  501    0 -0.22022934183E+00  0.77446998465E+01 -0.61839559534E+02  0.62500000000E+02  0.47000000000E+01 0. -1.
         -5    1    1    0    0  501  0.22022934183E+00 -0.77446998465E+01  0.61839559534E+02  0.62500000000E+02  0.47000000000E+01 0. -1.
</event>
<event>
 3    0  0.4580101E-005  0.9118800E+02  0.7546771E-02  0.1235069E+00
         25   -1    0    0    0    0  0.00000000000E+00  0.00000000000E+00  0.99999998245E-14  0.12500000000E+03  0.12500000000E+03 0.  0.
          5    1    1    0  501    0  0.50199294313E+02  0.12055842007E+02  0.34911996850E+02  0.62500000000E+02  0.47000000000E+01 0. -1.
         -5    1    1    0    0  501 -0.50199294313E+02 -0.12055842007E+02 -0.34911996850E+02  0.62500000000E+02  0.47000000000E+01 0. -1.
</event>
<event>
 3    0  0.4580101E-005  0.9118800E+02  0.7546771E-02  0.1235069E+00
         25   -1    0    0    0    0  0.00000000000E+00  0.00000000000E+00  0.99999998245E-14  0.12500000000E+03  0.12500000000E+03 0.  0.
          5    1    1    0  501    0 -0.30497018219E+02 -0.64425672717E+01 -0.53968372281E+02  0.62500000000E+02  0.47000000000E+01 0. -1.
         -5    1    1    0    0  501  0.30497018219E+02  0.64425672717E+01  0.53968372281E+02  0.62500000000E+02  0.47000000000E+01 0. -1.
</event>
<event>
 3    0  0.4580101E-005  0.9118800E+02  0.7546771E-02  0.1235069E+00
         25   -1    0    0    0    0  0.00000000000E+00  0.00000000000E+00  0.99999998245E-14  0.12500000000E+03  0.12500000000E+03 0.  0.
          5    1    1    0  501    0 -0.41875671207E+02 -0.46089130494E+02 -0.25259080120E+01  0.62500000000E+02  0.47000000000E+01 0. -1.
         -5    1    1    0    0  501  0.41875671207E+02  0.46089130494E+02  0.25259080120E+01  0.62500000000E+02  0.47000000000E+01 0. -1.
</event>
<event>
 3    0  0.4580101E-005  0.9118800E+02  0.7546771E-02  0.1235069E+00
         25   -1    0    0    0    0  0.00000000000E+00  0.00000000000E+00  0.99999998245E-14  0.12500000000E+03  0.12500000000E+03 0.  0.
          5    1    1    0  501    0 -0.27269603128E+02 -0.50092494796E+02  0.25125101201E+02  0.62500000000E+02  0.47000000000E+01 0.  1.
         -5    1    1    0    0  501  0.27269603128E+02  0.50092494796E+02 -0.25125101201E+02  0.62500000000E+02  0.47000000000E+01 0.  1.
</event>
<event>
 3    0  0.4580101E-005  0.9118800E+02  0.7546771E-02  0.1235069E+00
         25   -1    0    0    0    0  0.00000000000E+00  0.00000000000E+00  0.99999998245E-14  0.12500000000E+03  0.12500000000E+03 0.  0.
          5    1    1    0  501    0  0.36134455312E+01  0.54411341534E+02 -0.30174640409E+02  0.62500000000E+02  0.47000000000E+01 0. -1.
         -5    1    1    0    0  501 -0.36134455312E+01 -0.54411341534E+02  0.30174640409E+02  0.62500000000E+02  0.47000000000E+01 0. -1.
</event>
<event>
 3    0  0.4580101E-005  0.9118800E+02  0.7546771E-02  0.1235069E+00
         25   -1    0    0    0    0  0.00000000000E+00  0.00000000000E+00  0.99999998245E-14  0.12500000000E+03  0.12500000000E+03 0.  0.
          5    1    1    0  501    0  0.45132279352E+02  0.11308638701E+02 -0.41465070254E+02  0.62500000000E+02  0.47000000000E+01 0. -1.
         -5    1    1    0    0  501 -0.45132279352E+02 -0.11308638701E+02  0.41465070254E+02  0.62500000000E+02  0.47000000000E+01 0. -1.
</event>
<event>
 3    0  0.4580101E-005  0.9118800E+02  0.7546771E-02  0.1235069E+00
         25   -1    0    0    0    0  0.00000000000E+00  0.00000000000E+00  0.99999998245E-14  0.12500000000E+03  0.12500000000E+03 0.  0.
          5    1    1    0  501    0 -0.28285810650E+02 -0.16139129586E+02  0.53137570627E+02  0.62500000000E+02  0.47000000000E+01 0.  1.
         -5    1    1    0    0  501  0.28285810650E+02  0.16139129586E+02 -0.53137570627E+02  0.62500000000E+02  0.47000000000E+01 0.  1.
</event>
<event>
 3    0  0.4580101E-005  0.9118800E+02  0.7546771E-02  0.1235069E+00
         25   -1    0    0    0    0  0.00000000000E+00  0.00000000000E+00  0.99999998245E-14  0.12500000000E+03  0.12500000000E+03 0.  0.
          5    1    1    0  501    0 -0.51168387909E-01 -0.62304414189E+02  0.15222859060E+01  0.62500000000E+02  0.47000000000E+01 0. -1.
         -5    1    1    0    0  501  0.51168387909E-01  0.62304414189E+02 -0.15222859060E+01  0.62500000000E+02  0.47000000000E+01 0. -1.
</event>
<event>
 3    0  0.4580101E-005  0.9118800E+02  0.7546771E-02  0.1235069E+00
         25   -1    0    0    0    0  0.00000000000E+00  0.00000000000E+00  0.99999998245E-14  0.12500000000E+03  0.12500000000E+03 0.  0.
          5    1    1    0  501    0 -0.29198401038E+02  0.22230340476E+02  0.50372863123E+02  0.62500000000E+02  0.47000000000E+01 0. -1.
         -5    1    1    0    0  501  0.29198401038E+02 -0.22230340476E+02 -0.50372863123E+02  0.62500000000E+02  0.47000000000E+01 0. -1.
</event>
<event>
 3    0  0.4580101E-005  0.9118800E+02  0.7546771E-02  0.1235069E+00
         25   -1    0    0    0    0  0.00000000000E+00  0.00000000000E+00  0.99999998245E-14  0.12500000000E+03  0.12500000000E+03 0.  0.
          5    1    1    0  501    0 -0.35998450777E+02 -0.44757803839E+02  0.24186991074E+02  0.62500000000E+02  0.47000000000E+01 0. -1.
         -5    1    1    0    0  501  0.35998450777E+02  0.44757803839E+02 -0.24186991074E+02  0.62500000000E+02  0.47000000000E+01 0. -1.
</event>
<event>
 3    0  0.4580101E-005  0.9118800E+02  0.7546771E-02  0.1235069E+00
         25   -1    0    0    0    0  0.00000000000E+00  0.00000000000E+00  0.99999998245E-14  0.12500000000E+03  0.12500000000E+03 0.  0.
          5    1    1    0  501    0 -0.12286606067E+00 -0.56709511901E+02 -0.25849103735E+02  0.62500000000E+02  0.47000000000E+01 0.  1.
         -5    1    1    0    0  501  0.12286606067E+00  0.56709511901E+02  0.25849103735E+02  0.62500000000E+02  0.47000000000E+01 0.  1.
</event>
<event>
 3    0  0.4580101E-005  0.9118800E+02  0.7546771E-02  0.1235069E+00
         25   -1    0    0    0    0  0.00000000000E+00  0.00000000000E+00  0.99999998245E-14  0.12500000000E+03  0.12500000000E+03 0.  0.
          5    1    1    0  501    0  0.32048187676E+02 -0.11511875619E+02  0.52197225850E+02  0.62500000000E+02  0.47000000000E+01 0. -1.
         -5    1    1    0    0  501 -0.32048187676E+02  0.11511875619E+02 -0.52197225850E+02  0.62500000000E+02  0.47000000000E+01 0. -1.
</event>
<event>
 3    0  0.4580101E-005  0.9118800E+02  0.7546771E-02  0.1235069E+00
         25   -1    0    0    0    0  0.00000000000E+00  0.00000000000E+00  0.99999998245E-14  0.12500000000E+03  0.12500000000E+03 0.  0.
          5    1    1    0  501    0  0.25652728978E+02 -0.35283984514E+02  0.44509975655E+02  0.62500000000E+02  0.47000000000E+01 0. -1.
         -5    1    1    0    0  501 -0.25652728978E+02  0.35283984514E+02 -0.44509975655E+02  0.62500000000E+02  0.47000000000E+01 0. -1.
</event>
<event>
 3    0  0.4580101E-005  0.9118800E+02  0.7546771E-02  0.1235069E+00
         25   -1    0    0    0    0  0.00000000000E+00  0.00000000000E+00  0.99999998245E-14  0.12500000000E+03  0.12500000000E+03 0.  0.
          5    1    1    0  501    0 -0.11583475139E+02 -0.43494099779E+02 -0.43107382060E+02  0.62500000000E+02  0.47000000000E+01 0.  1.
         -5    1    1    0    0  501  0.11583475139E+02  0.43494099779E+02  0.43107382060E+02  0.62500000000E+02  0.47000000000E+01 0.  1.
</event>
<event>
 3    0  0.4580101E-005  0.9118800E+02  0.7546771E-02  0.1235069E+00
         25   -1    0    0    0    0  0.00000000000E+00  0.00000000000E+00  0.99999998245E-14  0.12500000000E+03  0.12500000000E+03 0.  0.
          5    1    1    0  501    0  0.54843011007E+02  0.28076033835E+01  0.29470688946E+02  0.62500000000E+02  0.47000000000E+01 0.  1.
         -5    1    1    0    0  501 -0.54843011007E+02 -0.28076033835E+01 -0.29470688946E+02  0.62500000000E+02  0.47000000000E+01 0.  1.
</event>
<event>
 3    0  0.4580101E-005  0.9118800E+02  0.7546771E-02  0.1235069E+00
         25   -1    0    0    0    0  0.00000000000E+00  0.00000000000E+00  0.99999998245E-14  0.12500000000E+03  0.12500000000E+03 0.  0.
          5    1    1    0  501    0  0.56103209394E+02 -0.27117656112E+02  0.11057226773E+01  0.62500000000E+02  0.47000000000E+01 0. -1.
         -5    1    1    0    0  501 -0.56103209394E+02  0.27117656112E+02 -0.11057226773E+01  0.62500000000E+02  0.47000000000E+01 0. -1.
</event>
<event>
 3    0  0.4580101E-005  0.9118800E+02  0.7546771E-02  0.1235069E+00
         25   -1    0    0    0    0  0.00000000000E+00  0.00000000000E+00  0.99999998245E-14  0.12500000000E+03  0.12500000000E+03 0.  0.
          5    1    1    0  501    0  0.49225620303E+02 -0.38136670205E+02 -0.25676236956E+01  0.62500000000E+02  0.47000000000E+01 0.  1.
         -5    1    1    0    0  501 -0.49225620303E+02  0.38136670205E+02  0.25676236956E+01  0.62500000000E+02  0.47000000000E+01 0.  1.
</event>
<event>
 3    0  0.4580101E-005  0.9118800E+02  0.7546771E-02  0.1235069E+00
         25   -1    0    0    0    0  0.00000000000E+00  0.00000000000E+00  0.99999998245E-14  0.12500000000E+03  0.12500000000E+03 0.  0.
          5    1    1    0  501    0  0.29354615923E+01  0.28139889687E+01  0.62190228584E+02  0.62500000000E+02  0.47000000000E+01 0.  1.
         -5    1    1    0    0  501 -0.29354615923E+01 -0.28139889687E+01 -0.62190228584E+02  0.62500000000E+02  0.47000000000E+01 0.  1.
</event>
<event>
 3    0  0.4580101E-005  0.9118800E+02  0.7546771E-02  0.1235069E+00
         25   -1    0    0    0    0  0.00000000000E+00  0.00000000000E+00  0.99999998245E-14  0.12500000000E+03  0.12500000000E+03 0.  0.
          5    1    1    0  501    0  0.46527999544E+02 -0.33485036180E+02  0.24455216427E+02  0.62500000000E+02  0.47000000000E+01 0.  1.
         -5    1    1    0    0  501 -0.46527999544E+02  0.33485036180E+02 -0.24455216427E+02  0.62500000000E+02  0.47000000000E+01 0.  1.
</event>
<event>
 3    0  0.4580101E-005  0.9118800E+02  0.7546771E-02  0.1235069E+00
         25   -1    0    0    0    0  0.00000000000E+00  0.00000000000E+00  0.99999998245E-14  0.12500000000E+03  0.12500000000E+03 0.  0.
          5    1    1    0  501    0 -0.38072117721E+02 -0.45890773107E+02  0.18130383223E+02  0.62500000000E+02  0.47000000000E+01 0.  1.
         -5    1    1    0    0  501  0.38072117721E+02  0.45890773107E+02 -0.18130383223E+02  0.62500000000E+02  0.47000000000E+01 0.  1.
</event>
<event>
 3    0  0.4580101E-005  0.9118800E+02  0.7546771E-02  0.1235069E+00
         25   -1    0    0    0    0  0.00000000000E+00  0.00000000000E+00  0.99999998245E-14  0.12500000000E+03  0.12500000000E+03 0.  0.
          5    1    1    0  501    0  0.69549344797E+01 -0.58597014207E+02  0.20054396337E+02  0.62500000000E+02  0.47000000000E+01 0.  1.
         -5    1    1    0    0  501 -0.69549344797E+01  0.58597014207E+02 -0.20054396337E+02  0.62500000000E+02  0.47000000000E+01 0.  1.
</event>
<event>
 3    0  0.4580101E-005  0.9118800E+02  0.7546771E-02  0.1235069E+00
         25   -1    0    0    0    0  0.00000000000E+00  0.00000000000E+00  0.99999998245E-14  0.12500000000E+03  0.12500000000E+03 0.  0.
          5    1    1    0  501    0 -0.60146893155E+02  0.33339716861E+01  0.15981109992E+02  0.62500000000E+02  0.47000000000E+01 0. -1.
         -5    1    1    0    0  501  0.60146893155E+02 -0.33339716861E+01 -0.15981109992E+02  0.62500000000E+02  0.47000000000E+01 0. -1.
</event>
<event>
 3    0  0.4580101E-005  0.9118800E+02  0.7546771E-02  0.1235069E+00
         25   -1    0    0    0    0  0.00000000000E+00  0.00000000000E+00  0.99999998245E-14  0.12500000000E+03  0.12500000000E+03 0.  0.
          5    1    1    0  501    0  0.10639316930E+02  0.16401476001E+02 -0.59177331135E+02  0.62500000000E+02  0.47000000000E+01 0. -1.
         -5    1    1    0    0  501 -0.10639316930E+02 -0.16401476001E+02  0.59177331135E+02  0.62500000000E+02  0.47000000000E+01 0. -1.
</event>
<event>
 3    0  0.4580101E-005  0.9118800E+02  0.7546771E-02  0.1235069E+00
         25   -1    0    0    0    0  0.00000000000E+00  0.00000000000E+00  0.99999998245E-14  0.12500000000E+03  0.12500000000E+03 0.  0.
          5    1    1    0  501    0  0.35808346224E+02  0.25296928319E+02 -0.44294330995E+02  0.62500000000E+02  0.47000000000E+01 0.  1.
         -5    1    1    0    0  501 -0.35808346224E+02 -0.25296928319E+02  0.44294330995E+02  0.62500000000E+02  0.47000000000E+01 0.  1.
</event>
<event>
 3    0  0.4580101E-005  0.9118800E+02  0.7546771E-02  0.1235069E+00
         25   -1    0    0    0    0  0.00000000000E+00  0.00000000000E+00  0.99999998245E-14  0.12500000000E+03  0.12500000000E+03 0.  0.
          5    1    1    0  501    0  0.37422739685E+02 -0.34661161689E+02 -0.35809250548E+02  0.62500000000E+02  0.47000000000E+01 0. -1.
         -5    1    1    0    0  501 -0.37422739685E+02  0.34661161689E+02  0.35809250548E+02  0.62500000000E+02  0.47000000000E+01 0. -1.
</event>
<event>
 3    0  0.4580101E-005  0.9118800E+02  0.7546771E-02  0.1235069E+00
         25   -1    0    0    0    0  0.00000000000E+00  0.00000000000E+00  0.99999998245E-14  0.12500000000E+03  0.12500000000E+03 0.  0.
          5    1    1    0  501    0  0.42917901479E+02  0.21189508045E+02  0.39915141004E+02  0.62500000000E+02  0.47000000000E+01 0. -1.
         -5    1    1    0    0  501 -0.42917901479E+02 -0.21189508045E+02 -0.39915141004E+02  0.62500000000E+02  0.47000000000E+01 0. -1.
</event>
<event>
 3    0  0.4580101E-005  0.9118800E+02  0.7546771E-02  0.1235069E+00
         25   -1    0    0    0    0  0.00000000000E+00  0.00000000000E+00  0.99999998245E-14  0.12500000000E+03  0.12500000000E+03 0.  0.
          5    1    1    0  501    0  0.11174580968E+02 -0.61193768610E+02 -0.38224891788E+01  0.62500000000E+02  0.47000000000E+01 0. -1.
         -5    1    1    0    0  501 -0.11174580968E+02  0.61193768610E+02  0.38224891788E+01  0.62500000000E+02  0.47000000000E+01 0. -1.
</event>
<event>
 3    0  0.4580101E-005  0.9118800E+02  0.7546771E-02  0.1235069E+00
         25   -1    0    0    0    0  0.00000000000E+00  0.00000000000E+00  0.99999998245E-14  0.12500000000E+03  0.12500000000E+03 0.  0.
          5    1    1    0  501    0  0.43898212116E+02 -0.20088890132E+02 -0.39415015746E+02  0.62500000000E+02  0.47000000000E+01 0.  1.
         -5    1    1    0    0  501 -0.43898212116E+02  0.20088890132E+02  0.39415015746E+02  0.62500000000E+02  0.47000000000E+01 0.  1.
</event>
<event>
 3    0  0.4580101E-005  0.9118800E+02  0.7546771E-02  0.1235069E+00
         25   -1    0    0    0    0  0.00000000000E+00  0.00000000000E+00  0.99999998245E-14  0.12500000000E+03  0.12500000000E+03 0.  0.
          5    1    1    0  501    0 -0.48985652648E+02 -0.32125298054E+02  0.21272777431E+02  0.62500000000E+02  0.47000000000E+01 0.  1.
         -5    1    1    0    0  501  0.48985652648E+02  0.32125298054E+02 -0.21272777431E+02  0.62500000000E+02  0.47000000000E+01 0.  1.
</event>
<event>
 3    0  0.4580101E-005  0.9118800E+02  0.7546771E-02  0.1235069E+00
         25   -1    0    0    0    0  0.00000000000E+00  0.00000000000E+00  0.99999998245E-14  0.12500000000E+03  0.12500000000E+03 0.  0.
          5    1    1    0  501    0 -0.56204197012E+02  0.17184587867E+02  0.20734950640E+02  0.62500000000E+02  0.47000000000E+01 0. -1.
         -5    1    1    0    0  501  0.56204197012E+02 -0.17184587867E+02 -0.20734950640E+02  0.62500000000E+02  0.47000000000E+01 0. -1.
</event>
<event>
 3    0  0.4580101E-005  0.9118800E+02  0.7546771E-02  0.1235069E+00
         25   -1    0    0    0    0  0.00000000000E+00  0.00000000000E+00  0.99999998245E-14  0.12500000000E+03  0.12500000000E+03 0.  0.
          5    1    1    0  501    0 -0.34553703310E+02 -0.24600746447E+02  0.45661853464E+02  0.62500000000E+02  0.47000000000E+01 0. -1.
         -5    1    1    0    0  501  0.34553703310E+02  0.24600746447E+02 -0.45661853464E+02  0.62500000000E+02  0.47000000000E+01 0. -1.
</event>
<event>
 3    0  0.4580101E-005  0.9118800E+02  0.7546771E-02  0.1235069E+00
         25   -1    0    0    0    0  0.00000000000E+00  0.00000000000E+00  0.99999998245E-14  0.12500000000E+03  0.12500000000E+03 0.  0.
          5    1    1    0  501    0 -0.17487723595E+02  0.56536491606E+02 -0.19543915686E+02  0.62500000000E+02  0.47000000000E+01 0. -1.
         -5    1    1    0    0  501  0.17487723595E+02 -0.56536491606E+02  0.19543915686E+02  0.62500000000E+02  0.47000000000E+01 0. -1.
</event>
<event>
 3    0  0.4580101E-005  0.9118800E+02  0.7546771E-02  0.1235069E+00
         25   -1    0    0    0    0  0.00000000000E+00  0.00000000000E+00  0.99999998245E-14  0.12500000000E+03  0.12500000000E+03 0.  0.
          5    1    1    0  501    0 -0.51454523040E+02 -0.34778375488E+02  0.52016013995E+01  0.62500000000E+02  0.47000000000E+01 0.  1.
         -5    1    1    0    0  501  0.51454523040E+02  0.34778375488E+02 -0.52016013995E+01  0.62500000000E+02  0.47000000000E+01 0.  1.
</event>
<event>
 3    0  0.4580101E-005  0.9118800E+02  0.7546771E-02  0.1235069E+00
         25   -1    0    0    0    0  0.00000000000E+00  0.00000000000E+00  0.99999998245E-14  0.12500000000E+03  0.12500000000E+03 0.  0.
          5    1    1    0  501    0 -0.73819658836E+01 -0.56927270169E+02  0.24268343388E+02  0.62500000000E+02  0.47000000000E+01 0. -1.
         -5    1    1    0    0  501  0.73819658836E+01  0.56927270169E+02 -0.24268343388E+02  0.62500000000E+02  0.47000000000E+01 0. -1.
</event>
<event>
 3    0  0.4580101E-005  0.9118800E+02  0.7546771E-02  0.1235069E+00
         25   -1    0    0    0    0  0.00000000000E+00  0.00000000000E+00  0.99999998245E-14  0.12500000000E+03  0.12500000000E+03 0.  0.
          5    1    1    0  501    0 -0.27616418978E+02  0.84457065424E+01 -0.55228284817E+02  0.62500000000E+02  0.47000000000E+01 0.  1.
         -5    1    1    0    0  501  0.27616418978E+02 -0.84457065424E+01  0.55228284817E+02  0.62500000000E+02  0.47000000000E+01 0.  1.
</event>
<event>
 3    0  0.4580101E-005  0.9118800E+02  0.7546771E-02  0.1235069E+00
         25   -1    0    0    0    0  0.00000000000E+00  0.00000000000E+00  0.99999998245E-14  0.12500000000E+03  0.12500000000E+03 0.  0.
          5    1    1    0  501    0 -0.40043164280E+02  0.41977193104E+02  0.22773235466E+02  0.62500000000E+02  0.47000000000E+01 0. -1.
         -5    1    1    0    0  501  0.40043164280E+02 -0.41977193104E+02 -0.22773235466E+02  0.62500000000E+02  0.47000000000E+01 0. -1.
</event>
<event>
 3    0  0.4580101E-005  0.9118800E+02  0.7546771E-02  0.1235069E+00
         25   -1    0    0    0    0  0.00000000000E+00  0.00000000000E+00  0.99999998245E-14  0.12500000000E+03  0.12500000000E+03 0.  0.
          5    1    1    0  501    0 -0.40269131279E+02 -0.45230147713E+02  0.14723817572E+02  0.62500000000E+02  0.47000000000E+01 0. -1.
         -5    1    1    0    0  501  0.40269131279E+02  0.45230147713E+02 -0.14723817572E+02  0.62500000000E+02  0.47000000000E+01 0. -1.
</event>
<event>
 3    0  0.4580101E-005  0.9118800E+02  0.7546771E-02  0.1235069E+00
         25   -1    0    0    0    0  0.00000000000E+00  0.00000000000E+00  0.99999998245E-14  0.12500000000E+03  0.12500000000E+03 0.  0.
          5    1    1    0  501    0  0.58084406888E+02  0.88809252111E+01 -0.20772357686E+02  0.62500000000E+02  0.47000000000E+01 0. -1.
         -5    1    1    0    0  501 -0.58084406888E+02 -0.88809252111E+01  0.20772357686E+02  0.62500000000E+02  0.47000000000E+01 0. -1.
</event>
<event>
 3    0  0.4580101E-005  0.9118800E+02  0.7546771E-02  0.1235069E+00
         25   -1    0    0    0    0  0.00000000000E+00  0.00000000000E+00  0.99999998245E-14  0.12500000000E+03  0.12500000000E+03 0.  0.
          5    1    1    0  501    0  0.66702945220E+00  0.47703769581E+01 -0.62136612198E+02  0.62500000000E+02  0.47000000000E+01 0.  1.
         -5    1    1    0    0  501 -0.66702945220E+00 -0.47703769581E+01  0.62136612198E+02  0.62500000000E+02  0.47000000000E+01 0.  1.
</event>
<event>
 3    0  0.4580101E-005  0.9118800E+02  0.7546771E-02  0.1235069E+00
         25   -1    0    0    0    0  0.00000000000E+00  0.00000000000E+00  0.99999998245E-14  0.12500000000E+03  0.12500000000E+03 0.  0.
          5    1    1    0  501    0  0.57383413025E+02 -0.16229884188E+02 -0.18107864835E+02  0.62500000000E+02  0.47000000000E+01 0.  1.
         -5    1    1    0    0  501 -0.57383413025E+02  0.16229884188E+02  0.18107864835E+02  0.62500000000E+02  0.47000000000E+01 0.  1.
</event>
<event>
 3    0  0.4580101E-005  0.9118800E+02  0.7546771E-02  0.1235069E+00
         25   -1    0    0    0    0  0.00000000000E+00  0.00000000000E+00  0.99999998245E-14  0.12500000000E+03  0.12500000000E+03 0.  0.
          5    1    1    0  501    0 -0.56698442128E+02  0.25725497322E+02  0.27650402953E+01  0.62500000000E+02  0.47000000000E+01 0. -1.
         -5    1    1    0    0  501  0.56698442128E+02 -0.25725497322E+02 -0.27650402953E+01  0.62500000000E+02  0.47000000000E+01 0. -1.
</event>
<event>
 3    0  0.4580101E-005  0.9118800E+02  0.7546771E-02  0.1235069E+00
         25   -1    0    0    0    0  0.00000000000E+00  0.00000000000E+00  0.99999998245E-14  0.12500000000E+03  0.12500000000E+03 0.  0.
          5    1    1    0  501    0  0.49742778015E+02 -0.13825545777E+02  0.34909458880E+02  0.62500000000E+02  0.47000000000E+01 0. -1.
         -5    1    1    0    0  501 -0.49742778015E+02  0.13825545777E+02 -0.34909458880E+02  0.62500000000E+02  0.47000000000E+01 0. -1.
</event>
<event>
 3    0  0.4580101E-005  0.9118800E+02  0.7546771E-02  0.1235069E+00
         25   -1    0    0    0    0  0.00000000000E+00  0.00000000000E+00  0.99999998245E-14  0.12500000000E+03  0.12500000000E+03 0.  0.
          5    1    1    0  501    0 -0.37983442742E+02  0.35392591324E+02 -0.34478726149E+02  0.62500000000E+02  0.47000000000E+01 0. -1.
         -5    1    1    0    0  501  0.37983442742E+02 -0.35392591324E+02  0.34478726149E+02  0.62500000000E+02  0.47000000000E+01 0. -1.
</event>
<event>
 3    0  0.4580101E-005  0.9118800E+02  0.7546771E-02  0.1235069E+00
         25   -1    0    0    0    0  0.00000000000E+00  0.00000000000E+00  0.99999998245E-14  0.12500000000E+03  0.12500000000E+03 0.  0.
          5    1    1    0  501    0  0.61448502683E+02  0.69385007237E+01 -0.77523367877E+01  0.62500000000E+02  0.47000000000E+01 0. -1.
         -5    1    1    0    0  501 -0.61448502683E+02 -0.69385007237E+01  0.77523367877E+01  0.62500000000E+02  0.47000000000E+01 0. -1.
</event>
<event>
 3    0  0.4580101E-005  0.9118800E+02  0.7546771E-02  0.1235069E+00
         25   -1    0    0    0    0  0.00000000000E+00  0.00000000000E+00  0.99999998245E-14  0.12500000000E+03  0.12500000000E+03 0.  0.
          5    1    1    0  501    0  0.31008661349E+02  0.53992350880E+02  0.27292797159E+01  0.62500000000E+02  0.47000000000E+01 0.  1.
         -5    1    1    0    0  501 -0.31008661349E+02 -0.53992350880E+02 -0.27292797159E+01  0.62500000000E+02  0.47000000000E+01 0.  1.
</event>
<event>
 3    0  0.4580101E-005  0.9118800E+02  0.7546771E-02  0.1235069E+00
         25   -1    0    0    0    0  0.00000000000E+00  0.00000000000E+00  0.99999998245E-14  0.12500000000E+03  0.12500000000E+03 0.  0.
          5    1    1    0  501    0  0.11938488419E+02  0.60299272751E+02 -0.10277655372E+02  0.62500000000E+02  0.47000000000E+01 0. -1.
         -5    1    1    0    0  501 -0.11938488419E+02 -0.60299272751E+02  0.10277655372E+02  0.62500000000E+02  0.47000000000E+01 0. -1.
</event>
<event>
 3    0  0.4580101E-005  0.9118800E+02  0.7546771E-02  0.1235069E+00
         25   -1    0    0    0    0  0.00000000000E+00  0.00000000000E+00  0.99999998245E-14  0.12500000000E+03  0.12500000000E+03 0.  0.
          5    1    1    0  501    0  0.21843406817E+02 -0.55699014501E+02 -0.17454092994E+02  0.62500000000E+02  0.47000000000E+01 0. -1.
         -5    1    1    0    0  501 -0.21843406817E+02  0.55699014501E+02  0.17454092994E+02  0.62500000000E+02  0.47000000000E+01 0. -1.
</event>
<event>
 3    0  0.4580101E-005  0.9118800E+02  0.7546771E-02  0.1235069E+00
         25   -1    0    0    0    0  0.00000000000E+00  0.00000000000E+00  0.99999998245E-14  0.12500000000E+03  0.12500000000E+03 0.  0.
          5    1    1    0  501    0  0.20678614456E+02  0.83464224845E+01 -0.58197011400E+02  0.62500000000E+02  0.47000000000E+01 0.  1.
         -5    1    1    0    0  501 -0.20678614456E+02 -0.83464224845E+01  0.58197011400E+02  0.62500000000E+02  0.47000000000E+01 0.  1.
</event>
<event>
 3    0  0.4580101E-005  0.9118800E+02  0.7546771E-02  0.1235069E+00
         25   -1    0    0    0    0  0.00000000000E+00  0.00000000000E+00  0.99999998245E-14  0.12500000000E+03  0.12500000000E+03 0.  0.
          5    1    1    0  501    0 -0.53602599181E+02  0.19513939151E+02 -0.25102341323E+02  0.62500000000E+02  0.47000000000E+01 0.  1.
         -5    1    1    0    0  501  0.53602599181E+02 -0.19513939151E+02  0.25102341323E+02  0.62500000000E+02  0.47000000000E+01 0.  1.
</event>
<event>
 3    0  0.4580101E-005  0.9118800E+02  0.7546771E-02  0.1235069E+00
         25   -1    0    0    0    0  0.00000000000E+00  0.00000000000E+00  0.99999998245E-14  0.12500000000E+03  0.12500000000E+03 0.  0.
          5    1    1    0  501    0 -0.39055965533E+01 -0.10678107964E+02 -0.61277110946E+02  0.62500000000E+02  0.47000000000E+01 0. -1.
         -5    1    1    0    0  501  0.39055965533E+01  0.10678107964E+02  0.61277110946E+02  0.62500000000E+02  0.47000000000E+01 0. -1.
</event>
<event>
 3    0  0.4580101E-005  0.9118800E+02  0.7546771E-02  0.1235069E+00
         25   -1    0    0    0    0  0.00000000000E+00  0.00000000000E+00  0.99999998245E-14  0.12500000000E+03  0.12500000000E+03 0.  0.
          5    1    1    0  501    0 -0.42011708073E+02  0.43645803922E+02  0.14636262664E+02  0.62500000000E+02  0.47000000000E+01 0.  1.
         -5    1    1    0    0  501  0.42011708073E+02 -0.43645803922E+02 -0.14636262664E+02  0.62500000000E+02  0.47000000000E+01 0.  1.
</event>
<event>
 3    0  0.4580101E-005  0.9118800E+02  0.7546771E-02  0.1235069E+00
         25   -1    0    0    0    0  0.00000000000E+00  0.00000000000E+00  0.99999998245E-14  0.12500000000E+03  0.12500000000E+03 0.  0.
          5    1    1    0  501    0  0.56523686729E+02  0.24860879508E+02 -0.84362022622E+01  0.62500000000E+02  0.47000000000E+01 0. -1.
         -5    1    1    0    0  501 -0.56523686729E+02 -0.24860879508E+02  0.84362022622E+01  0.62500000000E+02  0.47000000000E+01 0. -1.
</event>
<event>
 3    0  0.4580101E-005  0.9118800E+02  0.7546771E-02  0.1235069E+00
         25   -1    0    0    0    0  0.00000000000E+00  0.00000000000E+00  0.99999998245E-14  0.12500000000E+03  0.12500000000E+03 0.  0.
          5    1    1    0  501    0 -0.60794384133E+02  0.13443775959E+02  0.27327176620E+01  0.62500000000E+02  0.47000000000E+01 0.  1.
         -5    1    1    0    0  501  0.60794384133E+02 -0.13443775959E+02 -0.27327176620E+01  0.62500000000E+02  0.47000000000E+01 0.  1.
</event>
<event>
 3    0  0.4580101E-005  0.9118800E+02  0.7546771E-02  0.1235069E+00
         25   -1    0    0    0    0  0.00000000000E+00  0.00000000000E+00  0.99999998245E-14  0.12500000000E+03  0.12500000000E+03 0.  0.
          5    1    1    0  501    0 -0.22921771314E+02  0.54042129466E+02  0.20933242525E+02  0.62500000000E+02  0.47000000000E+01 0.  1.
         -5    1    1    0    0  501  0.22921771314E+02 -0.54042129466E+02 -0.20933242525E+02  0.62500000000E+02  0.47000000000E+01 0.  1.
</event>
<event>
 3    0  0.4580101E-005  0.9118800E+02  0.7546771E-02  0.1235069E+00
         25   -1    0    0    0    0  0.00000000000E+00  0.00000000000E+00  0.99999998245E-14  0.12500000000E+03  0.12500000000E+03 0.  0.
          5    1    1    0  501    0  0.17130271848E+02  0.42187212848E+02 -0.42555291780E+02  0.62500000000E+02  0.47000000000E+01 0. -1.
         -5    1    1    0    0  501 -0.17130271848E+02 -0.42187212848E+02  0.42555291780E+02  0.62500000000E+02  0.47000000000E+01 0. -1.
</event>
<event>
 3    0  0.4580101E-005  0.9118800E+02  0.7546771E-02  0.1235069E+00
         25   -1    0    0    0    0  0.00000000000E+00  0.00000000000E+00  0.99999998245E-14  0.12500000000E+03  0.12500000000E+03 0.  0.
          5    1    1    0  501    0 -0.27753710682E+02  0.53729468027E+02  0.15067707486E+02  0.62500000000E+02  0.47000000000E+01 0.  1.
         -5    1    1    0    0  501  0.27753710682E+02 -0.53729468027E+02 -0.15067707486E+02  0.62500000000E+02  0.47000000000E+01 0.  1.
</event>
<event>
 3    0  0.4580101E-005  0.9118800E+02  0.7546771E-02  0.1235069E+00
         25   -1    0    0    0    0  0.00000000000E+00  0.00000000000E+00  0.99999998245E-14  0.12500000000E+03  0.12500000000E+03 0.  0.
          5    1    1    0  501    0 -0.16068143649E+02  0.47163861737E+02 -0.37437212847E+02  0.62500000000E+02  0.47000000000E+01 0. -1.
         -5    1    1    0    0  501  0.16068143649E+02 -0.47163861737E+02  0.37437212847E+02  0.62500000000E+02  0.47000000000E+01 0. -1.
</event>
<event>
 3    0  0.4580101E-005  0.9118800E+02  0.7546771E-02  0.1235069E+00
         25   -1    0    0    0    0  0.00000000000E+00  0.00000000000E+00  0.99999998245E-14  0.12500000000E+03  0.12500000000E+03 0.  0.
          5    1    1    0  501    0  0.16360039501E+02  0.60134402151E+02 -0.60231676020E+00  0.62500000000E+02  0.47000000000E+01 0.  1.
         -5    1    1    0    0  501 -0.16360039501E+02 -0.60134402151E+02  0.60231676020E+00  0.62500000000E+02  0.47000000000E+01 0.  1.
</event>
<event>
 3    0  0.4580101E-005  0.9118800E+02  0.7546771E-02  0.1235069E+00
         25   -1    0    0    0    0  0.00000000000E+00  0.00000000000E+00  0.99999998245E-14  0.12500000000E+03  0.12500000000E+03 0.  0.
          5    1    1    0  501    0 -0.30783972606E+02  0.24844756233E+02  0.48158541489E+02  0.62500000000E+02  0.47000000000E+01 0. -1.
         -5    1    1    0    0  501  0.30783972606E+02 -0.24844756233E+02 -0.48158541489E+02  0.62500000000E+02  0.47000000000E+01 0. -1.
</event>
<event>
 3    0  0.4580101E-005  0.9118800E+02  0.7546771E-02  0.1235069E+00
         25   -1    0    0    0    0  0.00000000000E+00  0.00000000000E+00  0.99999998245E-14  0.12500000000E+03  0.12500000000E+03 0.  0.
          5    1    1    0  501    0  0.39946174200E+01 -0.38888466357E+02  0.48537513493E+02  0.62500000000E+02  0.47000000000E+01 0.  1.
         -5    1    1    0    0  501 -0.39946174200E+01  0.38888466357E+02 -0.48537513493E+02  0.62500000000E+02  0.47000000000E+01 0.  1.
</event>
<event>
 3    0  0.4580101E-005  0.9118800E+02  0.7546771E-02  0.1235069E+00
         25   -1    0    0    0    0  0.00000000000E+00  0.00000000000E+00  0.99999998245E-14  0.12500000000E+03  0.12500000000E+03 0.  0.
          5    1    1    0  501    0 -0.35123739012E+01 -0.89001341971E+01 -0.61584176871E+02  0.62500000000E+02  0.47000000000E+01 0. -1.
         -5    1    1    0    0  501  0.35123739012E+01  0.89001341971E+01  0.61584176871E+02  0.62500000000E+02  0.47000000000E+01 0. -1.
</event>
<event>
 3    0  0.4580101E-005  0.9118800E+02  0.7546771E-02  0.1235069E+00
         25   -1    0    0    0    0  0.00000000000E+00  0.00000000000E+00  0.99999998245E-14  0.12500000000E+03  0.12500000000E+03 0.  0.
          5    1    1    0  501    0  0.32422773148E+02  0.71234240191E+01  0.52746380081E+02  0.62500000000E+02  0.47000000000E+01 0. -1.
         -5    1    1    0    0  501 -0.32422773148E+02 -0.71234240191E+01 -0.52746380081E+02  0.62500000000E+02  0.47000000000E+01 0. -1.
</event>
<event>
 3    0  0.4580101E-005  0.9118800E+02  0.7546771E-02  0.1235069E+00
         25   -1    0    0    0    0  0.00000000000E+00  0.00000000000E+00  0.99999998245E-14  0.12500000000E+03  0.12500000000E+03 0.  0.
          5    1    1    0  501    0  0.53648273974E+02 -0.28787309183E+02  0.13315912646E+02  0.62500000000E+02  0.47000000000E+01 0.  1.
         -5    1    1    0    0  501 -0.53648273974E+02  0.28787309183E+02 -0.13315912646E+02  0.62500000000E+02  0.47000000000E+01 0.  1.
</event>
<event>
 3    0  0.4580101E-005  0.9118800E+02  0.7546771E-02  0.1235069E+00
         25   -1    0    0    0    0  0.00000000000E+00  0.00000000000E+00  0.99999998245E-14  0.12500000000E+03  0.12500000000E+03 0.  0.
          5    1    1    0  501    0 -0.13376116368E+02  0.45177575424E+02  0.40794928480E+02  0.62500000000E+02  0.47000000000E+01 0. -1.
         -5    1    1    0    0  501  0.13376116368E+02 -0.45177575424E+02 -0.40794928480E+02  0.62500000000E+02  0.47000000000E+01 0. -1.
</event>
<event>
 3    0  0.4580101E-005  0.9118800E+02  0.7546771E-02  0.1235069E+00
         25   -1    0    0    0    0  0.00000000000E+00  0.00000000000E+00  0.99999998245E-14  0.12500000000E+03  0.12500000000E+03 0.  0.
          5    1    1    0  501    0  0.44401039472E+01  0.37505776729E+01  0.62051419356E+02  0.62500000000E+02  0.47000000000E+01 0. -1.
         -5    1    1    0    0  501 -0.44401039472E+01 -0.37505776729E+01 -0.62051419356E+02  0.62500000000E+02  0.47000000000E+01 0. -1.
</event>
<event>
 3    0  0.4580101E-005  0.9118800E+02  0.7546771E-02  0.1235069E+00
         25   -1    0    0    0    0  0.00000000000E+00  0.00000000000E+00  0.99999998245E-14  0.12500000000E+03  0.12500000000E+03 0.  0.
          5    1    1    0  501    0 -0.12234957672E+01 -0.13985736445E+01  0.62295321252E+02  0.62500000000E+02  0.47000000000E+01 0. -1.
         -5    1    1    0    0  501  0.12234957672E+01  0.13985736445E+01 -0.62295321252E+02  0.62500000000E+02  0.47000000000E+01 0. -1.
</event>
<event>
 3    0  0.4580101E-005  0.9118800E+02  0.7546771E-02  0.1235069E+00
         25   -1    0    0    0    0  0.00000000000E+00  0.00000000000E+00  0.99999998245E-14  0.12500000000E+03  0.12500000000E+03 0.  0.
          5    1    1    0  501    0  0.30455152863E+01  0.54530641225E+02 -0.30021558990E+02  0.62500000000E+02  0.47000000000E+01 0. -1.
         -5    1    1    0    0  501 -0.30455152863E+01 -0.54530641225E+02  0.30021558990E+02  0.62500000000E+02  0.47000000000E+01 0. -1.
</event>
<event>
 3    0  0.4580101E-005  0.9118800E+02  0.7546771E-02  0.1235069E+00
         25   -1    0    0    0    0  0.00000000000E+00  0.00000000000E+00  0.99999998245E-14  0.12500000000E+03  0.12500000000E+03 0.  0.
          5    1    1    0  501    0  0.10217455333E+02  0.15799326332E+00 -0.61479579086E+02  0.62500000000E+02  0.47000000000E+01 0. -1.
         -5    1    1    0    0  501 -0.10217455333E+02 -0.15799326332E+00  0.61479579086E+02  0.62500000000E+02  0.47000000000E+01 0. -1.
</event>
<event>
 3    0  0.4580101E-005  0.9118800E+02  0.7546771E-02  0.1235069E+00
         25   -1    0    0    0    0  0.00000000000E+00  0.00000000000E+00  0.99999998245E-14  0.12500000000E+03  0.12500000000E+03 0.  0.
          5    1    1    0  501    0 -0.52713466445E+02 -0.31433182827E+02  0.10835380602E+02  0.62500000000E+02  0.47000000000E+01 0. -1.
         -5    1    1    0    0  501  0.52713466445E+02  0.31433182827E+02 -0.10835380602E+02  0.62500000000E+02  0.47000000000E+01 0. -1.
</event>
<event>
 3    0  0.4580101E-005  0.9118800E+02  0.7546771E-02  0.1235069E+00
         25   -1    0    0    0    0  0.00000000000E+00  0.00000000000E+00  0.99999998245E-14  0.12500000000E+03  0.12500000000E+03 0.  0.
          5    1    1    0  501    0 -0.42927245010E+02  0.44036447659E+02 -0.10109545657E+02  0.62500000000E+02  0.47000000000E+01 0. -1.
         -5    1    1    0    0  501  0.42927245010E+02 -0.44036447659E+02  0.10109545657E+02  0.62500000000E+02  0.47000000000E+01 0. -1.
</event>
<event>
 3    0  0.4580101E-005  0.9118800E+02  0.7546771E-02  0.1235069E+00
         25   -1    0    0    0    0  0.00000000000E+00  0.00000000000E+00  0.99999998245E-14  0.12500000000E+03  0.12500000000E+03 0.  0.
          5    1    1    0  501    0  0.49187886495E+02  0.37701059060E+02 -0.65834616934E+01  0.62500000000E+02  0.47000000000E+01 0. -1.
         -5    1    1    0    0  501 -0.49187886495E+02 -0.37701059060E+02  0.65834616934E+01  0.62500000000E+02  0.47000000000E+01 0. -1.
</event>
<event>
 3    0  0.4580101E-005  0.9118800E+02  0.7546771E-02  0.1235069E+00
         25   -1    0    0    0    0  0.00000000000E+00  0.00000000000E+00  0.99999998245E-14  0.12500000000E+03  0.12500000000E+03 0.  0.
          5    1    1    0  501    0  0.53169352806E+02  0.31549770920E+02  0.78607809480E+01  0.62500000000E+02  0.47000000000E+01 0.  1.
         -5    1    1    0    0  501 -0.53169352806E+02 -0.31549770920E+02 -0.78607809480E+01  0.62500000000E+02  0.47000000000E+01 0.  1.
</event>
<event>
 3    0  0.4580101E-005  0.9118800E+02  0.7546771E-02  0.1235069E+00
         25   -1    0    0    0    0  0.00000000000E+00  0.00000000000E+00  0.99999998245E-14  0.12500000000E+03  0.12500000000E+03 0.  0.
          5    1    1    0  501    0  0.23674187006E+02  0.45031572509E+02  0.35997921426E+02  0.62500000000E+02  0.47000000000E+01 0.  1.
         -5    1    1    0    0  501 -0.23674187006E+02 -0.45031572509E+02 -0.35997921426E+02  0.62500000000E+02  0.47000000000E+01 0.  1.
</event>
<event>
 3    0  0.4580101E-005  0.9118800E+02  0.7546771E-02  0.1235069E+00
         25   -1    0    0    0    0  0.00000000000E+00  0.00000000000E+00  0.99999998245E-14  0.12500000000E+03  0.12500000000E+03 0.  0.
          5    1    1    0  501    0 -0.60827801076E+02 -0.26895198181E+01  0.13300567633E+02  0.62500000000E+02  0.47000000000E+01 0.  1.
         -5    1    1    0    0  501  0.60827801076E+02  0.26895198181E+01 -0.13300567633E+02  0.62500000000E+02  0.47000000000E+01 0.  1.
</event>
<event>
 3    0  0.4580101E-005  0.9118800E+02  0.7546771E-02  0.1235069E+00
         25   -1    0    0    0    0  0.00000000000E+00  0.00000000000E+00  0.99999998245E-14  0.12500000000E+03  0.12500000000E+03 0.  0.
          5    1    1    0  501    0 -0.38898887111E+02  0.21152513788E+02  0.43858952814E+02  0.62500000000E+02  0.47000000000E+01 0. -1.
         -5    1    1    0    0  501  0.38898887111E+02 -0.21152513788E+02 -0.43858952814E+02  0.62500000000E+02  0.47000000000E+01 0. -1.
</event>
<event>
 3    0  0.4580101E-005  0.9118800E+02  0.7546771E-02  0.1235069E+00
         25   -1    0    0    0    0  0.00000000000E+00  0.00000000000E+00  0.99999998245E-14  0.12500000000E+03  0.12500000000E+03 0.  0.
          5    1    1    0  501    0 -0.16518903782E+02  0.31781205641E+02  0.51002360591E+02  0.62500000000E+02  0.47000000000E+01 0. -1.
         -5    1    1    0    0  501  0.16518903782E+02 -0.31781205641E+02 -0.51002360591E+02  0.62500000000E+02  0.47000000000E+01 0. -1.
</event>
<event>
 3    0  0.4580101E-005  0.9118800E+02  0.7546771E-02  0.1235069E+00
         25   -1    0    0    0    0  0.00000000000E+00  0.00000000000E+00  0.99999998245E-14  0.12500000000E+03  0.12500000000E+03 0.  0.
          5    1    1    0  501    0 -0.37212945419E+02  0.48441312031E+02 -0.12361067186E+02  0.62500000000E+02  0.47000000000E+01 0.  1.
         -5    1    1    0    0  501  0.37212945419E+02 -0.48441312031E+02  0.12361067186E+02  0.62500000000E+02  0.47000000000E+01 0.  1.
</event>
<event>
 3    0  0.4580101E-005  0.9118800E+02  0.7546771E-02  0.1235069E+00
         25   -1    0    0    0    0  0.00000000000E+00  0.00000000000E+00  0.99999998245E-14  0.12500000000E+03  0.12500000000E+03 0.  0.
          5    1    1    0  501    0 -0.59687867277E+02  0.65234521632E+01  0.16702187634E+02  0.62500000000E+02  0.47000000000E+01 0. -1.
         -5    1    1    0    0  501  0.59687867277E+02 -0.65234521632E+01 -0.16702187634E+02  0.62500000000E+02  0.47000000000E+01 0. -1.
</event>
<event>
 3    0  0.4580101E-005  0.9118800E+02  0.7546771E-02  0.1235069E+00
         25   -1    0    0    0    0  0.00000000000E+00  0.00000000000E+00  0.99999998245E-14  0.12500000000E+03  0.12500000000E+03 0.  0.
          5    1    1    0  501    0 -0.88632400055E+01  0.60984645621E+02 -0.92992459388E+01  0.62500000000E+02  0.47000000000E+01 0. -1.
         -5    1    1    0    0  501  0.88632400055E+01 -0.60984645621E+02  0.92992459388E+01  0.62500000000E+02  0.47000000000E+01 0. -1.
</event>
<event>
 3    0  0.4580101E-005  0.9118800E+02  0.7546771E-02  0.1235069E+00
         25   -1    0    0    0    0  0.00000000000E+00  0.00000000000E+00  0.99999998245E-14  0.12500000000E+03  0.12500000000E+03 0.  0.
          5    1    1    0  501    0 -0.89595663725E+01 -0.12414095001E+02 -0.60413379443E+02  0.62500000000E+02  0.47000000000E+01 0. -1.
         -5    1    1    0    0  501  0.89595663725E+01  0.12414095001E+02  0.60413379443E+02  0.62500000000E+02  0.47000000000E+01 0. -1.
</event>
<event>
 3    0  0.4580101E-005  0.9118800E+02  0.7546771E-02  0.1235069E+00
         25   -1    0    0    0    0  0.00000000000E+00  0.00000000000E+00  0.99999998245E-14  0.12500000000E+03  0.12500000000E+03 0.  0.
          5    1    1    0  501    0  0.26877329759E+02 -0.55802903694E+02  0.69141220995E+01  0.62500000000E+02  0.47000000000E+01 0.  1.
         -5    1    1    0    0  501 -0.26877329759E+02  0.55802903694E+02 -0.69141220995E+01  0.62500000000E+02  0.47000000000E+01 0.  1.
</event>
<event>
 3    0  0.4580101E-005  0.9118800E+02  0.7546771E-02  0.1235069E+00
         25   -1    0    0    0    0  0.00000000000E+00  0.00000000000E+00  0.99999998245E-14  0.12500000000E+03  0.12500000000E+03 0.  0.
          5    1    1    0  501    0 -0.79963683983E+01  0.51592879157E+02 -0.34035171701E+02  0.62500000000E+02  0.47000000000E+01 0. -1.
         -5    1    1    0    0  501  0.79963683983E+01 -0.51592879157E+02  0.34035171701E+02  0.62500000000E+02  0.47000000000E+01 0. -1.
</event>
<event>
 3    0  0.4580101E-005  0.9118800E+02  0.7546771E-02  0.1235069E+00
         25   -1    0    0    0    0  0.00000000000E+00  0.00000000000E+00  0.99999998245E-14  0.12500000000E+03  0.12500000000E+03 0.  0.
          5    1    1    0  501    0  0.30242143837E+02  0.49517672591E+02 -0.22750227193E+02  0.62500000000E+02  0.47000000000E+01 0.  1.
         -5    1    1    0    0  501 -0.30242143837E+02 -0.49517672591E+02  0.22750227193E+02  0.62500000000E+02  0.47000000000E+01 0.  1.
</event>
<event>
 3    0  0.4580101E-005  0.9118800E+02  0.7546771E-02  0.1235069E+00
         25   -1    0    0    0    0  0.00000000000E+00  0.00000000000E+00  0.99999998245E-14  0.12500000000E+03  0.12500000000E+03 0.  0.
          5    1    1    0  501    0  0.29596462805E+02 -0.32145156604E+02 -0.44439827816E+02  0.62500000000E+02  0.47000000000E+01 0. -1.
         -5    1    1    0    0  501 -0.29596462805E+02  0.32145156604E+02  0.44439827816E+02  0.62500000000E+02  0.47000000000E+01 0. -1.
</event>
<event>
 3    0  0.4580101E-005  0.9118800E+02  0.7546771E-02  0.1235069E+00
         25   -1    0    0    0    0  0.00000000000E+00  0.00000000000E+00  0.99999998245E-14  0.12500000000E+03  0.12500000000E+03 0.  0.
          5    1    1    0  501    0 -0.39422689779E+02 -0.22160158201E+02 -0.42882851107E+02  0.62500000000E+02  0.47000000000E+01 0.  1.
         -5    1    1    0    0  501  0.39422689779E+02  0.22160158201E+02  0.42882851107E+02  0.62500000000E+02  0.47000000000E+01 0.  1.
</event>
<event>
 3    0  0.4580101E-005  0.9118800E+02  0.7546771E-02  0.1235069E+00
         25   -1    0    0    0    0  0.00000000000E+00  0.00000000000E+00  0.99999998245E-14  0.12500000000E+03  0.12500000000E+03 0.  0.
          5    1    1    0  501    0 -0.12487290100E+02 -0.43802077116E+02  0.42539459638E+02  0.62500000000E+02  0.47000000000E+01 0. -1.
         -5    1    1    0    0  501  0.12487290100E+02  0.43802077116E+02 -0.42539459638E+02  0.62500000000E+02  0.47000000000E+01 0. -1.
</event>
<event>
 3    0  0.4580101E-005  0.9118800E+02  0.7546771E-02  0.1235069E+00
         25   -1    0    0    0    0  0.00000000000E+00  0.00000000000E+00  0.99999998245E-14  0.12500000000E+03  0.12500000000E+03 0.  0.
          5    1    1    0  501    0 -0.74528400983E+01  0.85584069251E+01 -0.61281064330E+02  0.62500000000E+02  0.47000000000E+01 0.  1.
         -5    1    1    0    0  501  0.74528400983E+01 -0.85584069251E+01  0.61281064330E+02  0.62500000000E+02  0.47000000000E+01 0.  1.
</event>
<event>
 3    0  0.4580101E-005  0.9118800E+02  0.7546771E-02  0.1235069E+00
         25   -1    0    0    0    0  0.00000000000E+00  0.00000000000E+00  0.99999998245E-14  0.12500000000E+03  0.12500000000E+03 0.  0.
          5    1    1    0  501    0 -0.69378289524E+00  0.33995398477E+02  0.52230178515E+02  0.62500000000E+02  0.47000000000E+01 0.  1.
         -5    1    1    0    0  501  0.69378289524E+00 -0.33995398477E+02 -0.52230178515E+02  0.62500000000E+02  0.47000000000E+01 0.  1.
</event>
<event>
 3    0  0.4580101E-005  0.9118800E+02  0.7546771E-02  0.1235069E+00
         25   -1    0    0    0    0  0.00000000000E+00  0.00000000000E+00  0.99999998245E-14  0.12500000000E+03  0.12500000000E+03 0.  0.
          5    1    1    0  501    0  0.49061993645E+02 -0.37418958383E+02 -0.87693975347E+01  0.62500000000E+02  0.47000000000E+01 0.  1.
         -5    1    1    0    0  501 -0.49061993645E+02  0.37418958383E+02  0.87693975347E+01  0.62500000000E+02  0.47000000000E+01 0.  1.
</event>
<event>
 3    0  0.4580101E-005  0.9118800E+02  0.7546771E-02  0.1235069E+00
         25   -1    0    0    0    0  0.00000000000E+00  0.00000000000E+00  0.99999998245E-14  0.12500000000E+03  0.12500000000E+03 0.  0.
          5    1    1    0  501    0  0.23893213985E+02  0.37765660958E+02  0.43439949100E+02  0.62500000000E+02  0.47000000000E+01 0.  1.
         -5    1    1    0    0  501 -0.23893213985E+02 -0.37765660958E+02 -0.43439949100E+02  0.62500000000E+02  0.47000000000E+01 0.  1.
</event>
<event>
 3    0  0.4580101E-005  0.9118800E+02  0.7546771E-02  0.1235069E+00
         25   -1    0    0    0    0  0.00000000000E+00  0.00000000000E+00  0.99999998245E-14  0.12500000000E+03  0.12500000000E+03 0.  0.
          5    1    1    0  501    0 -0.66769276721E+01 -0.11822593351E+02  0.60826021761E+02  0.62500000000E+02  0.47000000000E+01 0.  1.
         -5    1    1    0    0  501  0.66769276721E+01  0.11822593351E+02 -0.60826021761E+02  0.62500000000E+02  0.47000000000E+01 0.  1.
</event>
<event>
 3    0  0.4580101E-005  0.9118800E+02  0.7546771E-02  0.1235069E+00
         25   -1    0    0    0    0  0.00000000000E+00  0.00000000000E+00  0.99999998245E-14  0.12500000000E+03  0.12500000000E+03 0.  0.
          5    1    1    0  501    0  0.36032066955E+02 -0.28402880914E+02  0.42179693061E+02  0.62500000000E+02  0.47000000000E+01 0.  1.
         -5    1    1    0    0  501 -0.36032066955E+02  0.28402880914E+02 -0.42179693061E+02  0.62500000000E+02  0.47000000000E+01 0.  1.
</event>
<event>
 3    0  0.4580101E-005  0.9118800E+02  0.7546771E-02  0.1235069E+00
         25   -1    0    0    0    0  0.00000000000E+00  0.00000000000E+00  0.99999998245E-14  0.12500000000E+03  0.12500000000E+03 0.  0.
          5    1    1    0  501    0 -0.30104797497E+02 -0.53225082784E+02 -0.12039590123E+02  0.62500000000E+02  0.47000000000E+01 0.  1.
         -5    1    1    0    0  501  0.30104797497E+02  0.53225082784E+02  0.12039590123E+02  0.62500000000E+02  0.47000000000E+01 0.  1.
</event>
<event>
 3    0  0.4580101E-005  0.9118800E+02  0.7546771E-02  0.1235069E+00
         25   -1    0    0    0    0  0.00000000000E+00  0.00000000000E+00  0.99999998245E-14  0.12500000000E+03  0.12500000000E+03 0.  0.
          5    1    1    0  501    0 -0.26586906899E+02  0.46067343704E+02 -0.32482244775E+02  0.62500000000E+02  0.47000000000E+01 0.  1.
         -5    1    1    0    0  501  0.26586906899E+02 -0.46067343704E+02  0.32482244775E+02  0.62500000000E+02  0.47000000000E+01 0.  1.
</event>
<event>
 3    0  0.4580101E-005  0.9118800E+02  0.7546771E-02  0.1235069E+00
         25   -1    0    0    0    0  0.00000000000E+00  0.00000000000E+00  0.99999998245E-14  0.12500000000E+03  0.12500000000E+03 0.  0.
          5    1    1    0  501    0  0.37953510673E+01 -0.62129356464E+02 -0.31142215158E+01  0.62500000000E+02  0.47000000000E+01 0. -1.
         -5    1    1    0    0  501 -0.37953510673E+01  0.62129356464E+02  0.31142215158E+01  0.62500000000E+02  0.47000000000E+01 0. -1.
</event>
<event>
 3    0  0.4580101E-005  0.9118800E+02  0.7546771E-02  0.1235069E+00
         25   -1    0    0    0    0  0.00000000000E+00  0.00000000000E+00  0.99999998245E-14  0.12500000000E+03  0.12500000000E+03 0.  0.
          5    1    1    0  501    0 -0.45535266650E+02  0.41574399608E+02  0.90702143503E+01  0.62500000000E+02  0.47000000000E+01 0.  1.
         -5    1    1    0    0  501  0.45535266650E+02 -0.41574399608E+02 -0.90702143503E+01  0.62500000000E+02  0.47000000000E+01 0.  1.
</event>
<event>
 3    0  0.4580101E-005  0.9118800E+02  0.7546771E-02  0.1235069E+00
         25   -1    0    0    0    0  0.00000000000E+00  0.00000000000E+00  0.99999998245E-14  0.12500000000E+03  0.12500000000E+03 0.  0.
          5    1    1    0  501    0 -0.21173119309E+02 -0.58073789024E+02 -0.79557555953E+01  0.62500000000E+02  0.47000000000E+01 0. -1.
         -5    1    1    0    0  501  0.21173119309E+02  0.58073789024E+02  0.79557555953E+01  0.62500000000E+02  0.47000000000E+01 0. -1.
</event>
<event>
 3    0  0.4580101E-005  0.9118800E+02  0.7546771E-02  0.1235069E+00
         25   -1    0    0    0    0  0.00000000000E+00  0.00000000000E+00  0.99999998245E-14  0.12500000000E+03  0.12500000000E+03 0.  0.
          5    1    1    0  501    0  0.71730848768E+01  0.26469154319E+02  0.55965084857E+02  0.62500000000E+02  0.47000000000E+01 0.  1.
         -5    1    1    0    0  501 -0.71730848768E+01 -0.26469154319E+02 -0.55965084857E+02  0.62500000000E+02  0.47000000000E+01 0.  1.
</event>
<event>
 3    0  0.4580101E-005  0.9118800E+02  0.7546771E-02  0.1235069E+00
         25   -1    0    0    0    0  0.00000000000E+00  0.00000000000E+00  0.99999998245E-14  0.12500000000E+03  0.12500000000E+03 0.  0.
          5    1    1    0  501    0 -0.54596747186E+02  0.21480230364E+02 -0.21022723426E+02  0.62500000000E+02  0.47000000000E+01 0. -1.
         -5    1    1    0    0  501  0.54596747186E+02 -0.21480230364E+02  0.21022723426E+02  0.62500000000E+02  0.47000000000E+01 0. -1.
</event>
<event>
 3    0  0.4580101E-005  0.9118800E+02  0.7546771E-02  0.1235069E+00
         25   -1    0    0    0    0  0.00000000000E+00  0.00000000000E+00  0.99999998245E-14  0.12500000000E+03  0.12500000000E+03 0.  0.
          5    1    1    0  501    0  0.53207155422E+02 -0.32071931322E+02 -0.49547788257E+01  0.62500000000E+02  0.47000000000E+01 0. -1.
         -5    1    1    0    0  501 -0.53207155422E+02  0.32071931322E+02  0.49547788257E+01  0.62500000000E+02  0.47000000000E+01 0. -1.
</event>
<event>
 3    0  0.4580101E-005  0.9118800E+02  0.7546771E-02  0.1235069E+00
         25   -1    0    0    0    0  0.00000000000E+00  0.00000000000E+00  0.99999998245E-14  0.12500000000E+03  0.12500000000E+03 0.  0.
          5    1    1    0  501    0 -0.51865612131E+02  0.29914536874E+02  0.17298519066E+02  0.62500000000E+02  0.47000000000E+01 0. -1.
         -5    1    1    0    0  501  0.51865612131E+02 -0.29914536874E+02 -0.17298519066E+02  0.62500000000E+02  0.47000000000E+01 0. -1.
</event>
<event>
 3    0  0.4580101E-005  0.9118800E+02  0.7546771E-02  0.1235069E+00
         25   -1    0    0    0    0  0.00000000000E+00  0.00000000000E+00  0.99999998245E-14  0.12500000000E+03  0.12500000000E+03 0.  0.
          5    1    1    0  501    0  0.55308711545E+02  0.19287785166E+02 -0.21285858464E+02  0.62500000000E+02  0.47000000000E+01 0.  1.
         -5    1    1    0    0  501 -0.55308711545E+02 -0.19287785166E+02  0.21285858464E+02  0.62500000000E+02  0.47000000000E+01 0.  1.
</event>
<event>
 3    0  0.4580101E-005  0.9118800E+02  0.7546771E-02  0.1235069E+00
         25   -1    0    0    0    0  0.00000000000E+00  0.00000000000E+00  0.99999998245E-14  0.12500000000E+03  0.12500000000E+03 0.  0.
          5    1    1    0  501    0 -0.11186223029E+02  0.27950822118E+02  0.54569038449E+02  0.62500000000E+02  0.47000000000E+01 0.  1.
         -5    1    1    0    0  501  0.11186223029E+02 -0.27950822118E+02 -0.54569038449E+02  0.62500000000E+02  0.47000000000E+01 0.  1.
</event>
<event>
 3    0  0.4580101E-005  0.9118800E+02  0.7546771E-02  0.1235069E+00
         25   -1    0    0    0    0  0.00000000000E+00  0.00000000000E+00  0.99999998245E-14  0.12500000000E+03  0.12500000000E+03 0.  0.
          5    1    1    0  501    0  0.60681496129E+02 -0.51126085623E+01  0.13258101721E+02  0.62500000000E+02  0.47000000000E+01 0.  1.
         -5    1    1    0    0  501 -0.60681496129E+02  0.51126085623E+01 -0.13258101721E+02  0.62500000000E+02  0.47000000000E+01 0.  1.
</event>
<event>
 3    0  0.4580101E-005  0.9118800E+02  0.7546771E-02  0.1235069E+00
         25   -1    0    0    0    0  0.00000000000E+00  0.00000000000E+00  0.99999998245E-14  0.12500000000E+03  0.12500000000E+03 0.  0.
          5    1    1    0  501    0  0.17549314209E+02  0.21204143493E+02 -0.55915703246E+02  0.62500000000E+02  0.47000000000E+01 0. -1.
         -5    1    1    0    0  501 -0.17549314209E+02 -0.21204143493E+02  0.55915703246E+02  0.62500000000E+02  0.47000000000E+01 0. -1.
</event>
<event>
 3    0  0.4580101E-005  0.9118800E+02  0.7546771E-02  0.1235069E+00
         25   -1    0    0    0    0  0.00000000000E+00  0.00000000000E+00  0.99999998245E-14  0.12500000000E+03  0.12500000000E+03 0.  0.
          5    1    1    0  501    0  0.40488883906E+02  0.30722978284E+02 -0.36068114525E+02  0.62500000000E+02  0.47000000000E+01 0. -1.
         -5    1    1    0    0  501 -0.40488883906E+02 -0.30722978284E+02  0.36068114525E+02  0.62500000000E+02  0.47000000000E+01 0. -1.
</event>
<event>
 3    0  0.4580101E-005  0.9118800E+02  0.7546771E-02  0.1235069E+00
         25   -1    0    0    0    0  0.00000000000E+00  0.00000000000E+00  0.99999998245E-14  0.12500000000E+03  0.12500000000E+03 0.  0.
          5    1    1    0  501    0  0.60351957681E+02  0.15272846329E+02  0.29225620835E+01  0.62500000000E+02  0.47000000000E+01 0.  1.
         -5    1    1    0    0  501 -0.60351957681E+02 -0.15272846329E+02 -0.29225620835E+01  0.62500000000E+02  0.47000000000E+01 0.  1.
</event>
<event>
 3    0  0.4580101E-005  0.9118800E+02  0.7546771E-02  0.1235069E+00
         25   -1    0    0    0    0  0.00000000000E+00  0.00000000000E+00  0.99999998245E-14  0.12500000000E+03  0.12500000000E+03 0.  0.
          5    1    1    0  501    0 -0.47043925377E+02  0.38399357482E+02 -0.14018503134E+02  0.62500000000E+02  0.47000000000E+01 0. -1.
         -5    1    1    0    0  501  0.47043925377E+02 -0.38399357482E+02  0.14018503134E+02  0.62500000000E+02  0.47000000000E+01 0. -1.
</event>
<event>
 3    0  0.4580101E-005  0.9118800E+02  0.7546771E-02  0.1235069E+00
         25   -1    0    0    0    0  0.00000000000E+00  0.00000000000E+00  0.99999998245E-14  0.12500000000E+03  0.12500000000E+03 0.  0.
          5    1    1    0  501    0 -0.43731612494E+02  0.13239421910E+02  0.42384239714E+02  0.62500000000E+02  0.47000000000E+01 0. -1.
         -5    1    1    0    0  501  0.43731612494E+02 -0.13239421910E+02 -0.42384239714E+02  0.62500000000E+02  0.47000000000E+01 0. -1.
</event>
<event>
 3    0  0.4580101E-005  0.9118800E+02  0.7546771E-02  0.1235069E+00
         25   -1    0    0    0    0  0.00000000000E+00  0.00000000000E+00  0.99999998245E-14  0.12500000000E+03  0.12500000000E+03 0.  0.
          5    1    1    0  501    0  0.18520918502E+02 -0.48971653069E+02  0.33806992968E+02  0.62500000000E+02  0.47000000000E+01 0. -1.
         -5    1    1    0    0  501 -0.18520918502E+02  0.48971653069E+02 -0.33806992968E+02  0.62500000000E+02  0.47000000000E+01 0. -1.
</event>
<event>
 3    0  0.4580101E-005  0.9118800E+02  0.7546771E-02  0.1235069E+00
         25   -1    0    0    0    0  0.00000000000E+00  0.00000000000E+00  0.99999998245E-14  0.12500000000E+03  0.12500000000E+03 0.  0.
          5    1    1    0  501    0 -0.23379295414E+01 -0.61660973491E+02  0.87531956236E+01  0.62500000000E+02  0.47000000000E+01 0.  1.
         -5    1    1    0    0  501  0.23379295414E+01  0.61660973491E+02 -0.87531956236E+01  0.62500000000E+02  0.47000000000E+01 0.  1.
</event>
<event>
 3    0  0.4580101E-005  0.9118800E+02  0.7546771E-02  0.1235069E+00
         25   -1    0    0    0    0  0.00000000000E+00  0.00000000000E+00  0.99999998245E-14  0.12500000000E+03  0.12500000000E+03 0.  0.
          5    1    1    0  501    0 -0.18438839238E+02  0.46527648859E+02 -0.37139562454E+02  0.62500000000E+02  0.47000000000E+01 0.  1.
         -5    1    1    0    0  501  0.18438839238E+02 -0.46527648859E+02  0.37139562454E+02  0.62500000000E+02  0.47000000000E+01 0.  1.
</event>
<event>
 3    0  0.4580101E-005  0.9118800E+02  0.7546771E-02  0.1235069E+00
         25   -1    0    0    0    0  0.00000000000E+00  0.00000000000E+00  0.99999998245E-14  0.12500000000E+03  0.12500000000E+03 0.  0.
          5    1    1    0  501    0 -0.54643893921E+02  0.27065035400E+02  0.12872012894E+02  0.62500000000E+02  0.47000000000E+01 0. -1.
         -5    1    1    0    0  501  0.54643893921E+02 -0.27065035400E+02 -0.12872012894E+02  0.62500000000E+02  0.47000000000E+01 0. -1.
</event>
<event>
 3    0  0.4580101E-005  0.9118800E+02  0.7546771E-02  0.1235069E+00
         25   -1    0    0    0    0  0.00000000000E+00  0.00000000000E+00  0.99999998245E-14  0.12500000000E+03  0.12500000000E+03 0.  0.
          5    1    1    0  501    0  0.31069012033E+02  0.18604983197E+02 -0.50722096679E+02  0.62500000000E+02  0.47000000000E+01 0. -1.
         -5    1    1    0    0  501 -0.31069012033E+02 -0.18604983197E+02  0.50722096679E+02  0.62500000000E+02  0.47000000000E+01 0. -1.
</event>
<event>
 3    0  0.4580101E-005  0.9118800E+02  0.7546771E-02  0.1235069E+00
         25   -1    0    0    0    0  0.00000000000E+00  0.00000000000E+00  0.99999998245E-14  0.12500000000E+03  0.12500000000E+03 0.  0.
          5    1    1    0  501    0  0.20326397750E+02 -0.44683291252E+02  0.38397930119E+02  0.62500000000E+02  0.47000000000E+01 0. -1.
         -5    1    1    0    0  501 -0.20326397750E+02  0.44683291252E+02 -0.38397930119E+02  0.62500000000E+02  0.47000000000E+01 0. -1.
</event>
<event>
 3    0  0.4580101E-005  0.9118800E+02  0.7546771E-02  0.1235069E+00
         25   -1    0    0    0    0  0.00000000000E+00  0.00000000000E+00  0.99999998245E-14  0.12500000000E+03  0.12500000000E+03 0.  0.
          5    1    1    0  501    0  0.36767954680E+02 -0.46985682155E+02  0.18017302269E+02  0.62500000000E+02  0.47000000000E+01 0.  1.
         -5    1    1    0    0  501 -0.36767954680E+02  0.46985682155E+02 -0.18017302269E+02  0.62500000000E+02  0.47000000000E+01 0.  1.
</event>
<event>
 3    0  0.4580101E-005  0.9118800E+02  0.7546771E-02  0.1235069E+00
         25   -1    0    0    0    0  0.00000000000E+00  0.00000000000E+00  0.99999998245E-14  0.12500000000E+03  0.12500000000E+03 0.  0.
          5    1    1    0  501    0 -0.35836429231E+02 -0.31035508382E+02  0.40456242528E+02  0.62500000000E+02  0.47000000000E+01 0. -1.
         -5    1    1    0    0  501  0.35836429231E+02  0.31035508382E+02 -0.40456242528E+02  0.62500000000E+02  0.47000000000E+01 0. -1.
</event>
<event>
 3    0  0.4580101E-005  0.9118800E+02  0.7546771E-02  0.1235069E+00
         25   -1    0    0    0    0  0.00000000000E+00  0.00000000000E+00  0.99999998245E-14  0.12500000000E+03  0.12500000000E+03 0.  0.
          5    1    1    0  501    0 -0.32921976079E+02  0.40042632280E+02 -0.34596113816E+02  0.62500000000E+02  0.47000000000E+01 0.  1.
         -5    1    1    0    0  501  0.32921976079E+02 -0.40042632280E+02  0.34596113816E+02  0.62500000000E+02  0.47000000000E+01 0.  1.
</event>
<event>
 3    0  0.4580101E-005  0.9118800E+02  0.7546771E-02  0.1235069E+00
         25   -1    0    0    0    0  0.00000000000E+00  0.00000000000E+00  0.99999998245E-14  0.12500000000E+03  0.12500000000E+03 0.  0.
          5    1    1    0  501    0 -0.26772293017E+02 -0.56020554628E+02 -0.53946071094E+01  0.62500000000E+02  0.47000000000E+01 0.  1.
         -5    1    1    0    0  501  0.26772293017E+02  0.56020554628E+02  0.53946071094E+01  0.62500000000E+02  0.47000000000E+01 0.  1.
</event>
<event>
 3    0  0.4580101E-005  0.9118800E+02  0.7546771E-02  0.1235069E+00
         25   -1    0    0    0    0  0.00000000000E+00  0.00000000000E+00  0.99999998245E-14  0.12500000000E+03  0.12500000000E+03 0.  0.
          5    1    1    0  501    0  0.73957510200E+01 -0.46836187497E+02 -0.40445449776E+02  0.62500000000E+02  0.47000000000E+01 0. -1.
         -5    1    1    0    0  501 -0.73957510200E+01  0.46836187497E+02  0.40445449776E+02  0.62500000000E+02  0.47000000000E+01 0. -1.
</event>
<event>
 3    0  0.4580101E-005  0.9118800E+02  0.7546771E-02  0.1235069E+00
         25   -1    0    0    0    0  0.00000000000E+00  0.00000000000E+00  0.99999998245E-14  0.12500000000E+03  0.12500000000E+03 0.  0.
          5    1    1    0  501    0 -0.30430022162E+02  0.42511797309E+02 -0.33925224255E+02  0.62500000000E+02  0.47000000000E+01 0. -1.
         -5    1    1    0    0  501  0.30430022162E+02 -0.42511797309E+02  0.33925224255E+02  0.62500000000E+02  0.47000000000E+01 0. -1.
</event>
<event>
 3    0  0.4580101E-005  0.9118800E+02  0.7546771E-02  0.1235069E+00
         25   -1    0    0    0    0  0.00000000000E+00  0.00000000000E+00  0.99999998245E-14  0.12500000000E+03  0.12500000000E+03 0.  0.
          5    1    1    0  501    0  0.37030790908E+02 -0.38983441051E+02  0.31514629120E+02  0.62500000000E+02  0.47000000000E+01 0.  1.
         -5    1    1    0    0  501 -0.37030790908E+02  0.38983441051E+02 -0.31514629120E+02  0.62500000000E+02  0.47000000000E+01 0.  1.
</event>
<event>
 3    0  0.4580101E-005  0.9118800E+02  0.7546771E-02  0.1235069E+00
         25   -1    0    0    0    0  0.00000000000E+00  0.00000000000E+00  0.99999998245E-14  0.12500000000E+03  0.12500000000E+03 0.  0.
          5    1    1    0  501    0  0.62248145211E+02  0.20339506564E+01  0.22784781094E+01  0.62500000000E+02  0.47000000000E+01 0. -1.
         -5    1    1    0    0  501 -0.62248145211E+02 -0.20339506564E+01 -0.22784781094E+01  0.62500000000E+02  0.47000000000E+01 0. -1.
</event>
<event>
 3    0  0.4580101E-005  0.9118800E+02  0.7546771E-02  0.1235069E+00
         25   -1    0    0    0    0  0.00000000000E+00  0.00000000000E+00  0.99999998245E-14  0.12500000000E+03  0.12500000000E+03 0.  0.
          5    1    1    0  501    0 -0.28897618624E+02  0.48717054487E+02 -0.25994927196E+02  0.62500000000E+02  0.47000000000E+01 0. -1.
         -5    1    1    0    0  501  0.28897618624E+02 -0.48717054487E+02  0.25994927196E+02  0.62500000000E+02  0.47000000000E+01 0. -1.
</event>
<event>
 3    0  0.4580101E-005  0.9118800E+02  0.7546771E-02  0.1235069E+00
         25   -1    0    0    0    0  0.00000000000E+00  0.00000000000E+00  0.99999998245E-14  0.12500000000E+03  0.12500000000E+03 0.  0.
          5    1    1    0  501    0 -0.14590627720E+02  0.48246520890E+02  0.36654424082E+02  0.62500000000E+02  0.47000000000E+01 0.  1.
         -5    1    1    0    0  501  0.14590627720E+02 -0.48246520890E+02 -0.36654424082E+02  0.62500000000E+02  0.47000000000E+01 0.  1.
</event>
<event>
 3    0  0.4580101E-005  0.9118800E+02  0.7546771E-02  0.1235069E+00
         25   -1    0    0    0    0  0.00000000000E+00  0.00000000000E+00  0.99999998245E-14  0.12500000000E+03  0.12500000000E+03 0.  0.
          5    1    1    0  501    0 -0.52499174207E+02  0.14395372939E+02 -0.30344191298E+02  0.62500000000E+02  0.47000000000E+01 0.  1.
         -5    1    1    0    0  501  0.52499174207E+02 -0.14395372939E+02  0.30344191298E+02  0.62500000000E+02  0.47000000000E+01 0.  1.
</event>
<event>
 3    0  0.4580101E-005  0.9118800E+02  0.7546771E-02  0.1235069E+00
         25   -1    0    0    0    0  0.00000000000E+00  0.00000000000E+00  0.99999998245E-14  0.12500000000E+03  0.12500000000E+03 0.  0.
          5    1    1    0  501    0  0.30467537907E+02  0.51980068939E+02  0.15936171656E+02  0.62500000000E+02  0.47000000000E+01 0. -1.
         -5    1    1    0    0  501 -0.30467537907E+02 -0.51980068939E+02 -0.15936171656E+02  0.62500000000E+02  0.47000000000E+01 0. -1.
</event>
<event>
 3    0  0.4580101E-005  0.9118800E+02  0.7546771E-02  0.1235069E+00
         25   -1    0    0    0    0  0.00000000000E+00  0.00000000000E+00  0.99999998245E-14  0.12500000000E+03  0.12500000000E+03 0.  0.
          5    1    1    0  501    0 -0.56296545580E+02 -0.26320749281E+02  0.46986288398E+01  0.62500000000E+02  0.47000000000E+01 0.  1.
         -5    1    1    0    0  501  0.56296545580E+02  0.26320749281E+02 -0.46986288398E+01  0.62500000000E+02  0.47000000000E+01 0.  1.
</event>
<event>
 3    0  0.4580101E-005  0.9118800E+02  0.7546771E-02  0.1235069E+00
         25   -1    0    0    0    0  0.00000000000E+00  0.00000000000E+00  0.99999998245E-14  0.12500000000E+03  0.12500000000E+03 0.  0.
          5    1    1    0  501    0  0.64870871986E+00 -0.21419734691E+02  0.58522936895E+02  0.62500000000E+02  0.47000000000E+01 0.  1.
         -5    1    1    0    0  501 -0.64870871986E+00  0.21419734691E+02 -0.58522936895E+02  0.62500000000E+02  0.47000000000E+01 0.  1.
</event>
<event>
 3    0  0.4580101E-005  0.9118800E+02  0.7546771E-02  0.1235069E+00
         25   -1    0    0    0    0  0.00000000000E+00  0.00000000000E+00  0.99999998245E-14  0.12500000000E+03  0.12500000000E+03 0.  0.
          5    1    1    0  501    0 -0.49367420662E+02 -0.21451038090E+02 -0.31414498915E+02  0.62500000000E+02  0.47000000000E+01 0.  1.
         -5    1    1    0    0  501  0.49367420662E+02  0.21451038090E+02  0.31414498915E+02  0.62500000000E+02  0.47000000000E+01 0.  1.
</event>
<event>
 3    0  0.4580101E-005  0.9118800E+02  0.7546771E-02  0.1235069E+00
         25   -1    0    0    0    0  0.00000000000E+00  0.00000000000E+00  0.99999998245E-14  0.12500000000E+03  0.12500000000E+03 0.  0.
          5    1    1    0  501    0 -0.50921767537E+02 -0.14377593656E+02  0.32930508522E+02  0.62500000000E+02  0.47000000000E+01 0. -1.
         -5    1    1    0    0  501  0.50921767537E+02  0.14377593656E+02 -0.32930508522E+02  0.62500000000E+02  0.47000000000E+01 0. -1.
</event>
<event>
 3    0  0.4580101E-005  0.9118800E+02  0.7546771E-02  0.1235069E+00
         25   -1    0    0    0    0  0.00000000000E+00  0.00000000000E+00  0.99999998245E-14  0.12500000000E+03  0.12500000000E+03 0.  0.
          5    1    1    0  501    0  0.30332872142E+02 -0.29724242398E+02  0.45613005618E+02  0.62500000000E+02  0.47000000000E+01 0.  1.
         -5    1    1    0    0  501 -0.30332872142E+02  0.29724242398E+02 -0.45613005618E+02  0.62500000000E+02  0.47000000000E+01 0.  1.
</event>
<event>
 3    0  0.4580101E-005  0.9118800E+02  0.7546771E-02  0.1235069E+00
         25   -1    0    0    0    0  0.00000000000E+00  0.00000000000E+00  0.99999998245E-14  0.12500000000E+03  0.12500000000E+03 0.  0.
          5    1    1    0  501    0 -0.39712488803E+02 -0.92530568891E+01  0.47132358007E+02  0.62500000000E+02  0.47000000000E+01 0. -1.
         -5    1    1    0    0  501  0.39712488803E+02  0.92530568891E+01 -0.47132358007E+02  0.62500000000E+02  0.47000000000E+01 0. -1.
</event>
<event>
 3    0  0.4580101E-005  0.9118800E+02  0.7546771E-02  0.1235069E+00
         25   -1    0    0    0    0  0.00000000000E+00  0.00000000000E+00  0.99999998245E-14  0.12500000000E+03  0.12500000000E+03 0.  0.
          5    1    1    0  501    0  0.22512076224E+02  0.48110852320E+02 -0.32599268598E+02  0.62500000000E+02  0.47000000000E+01 0. -1.
         -5    1    1    0    0  501 -0.22512076224E+02 -0.48110852320E+02  0.32599268598E+02  0.62500000000E+02  0.47000000000E+01 0. -1.
</event>
<event>
 3    0  0.4580101E-005  0.9118800E+02  0.7546771E-02  0.1235069E+00
         25   -1    0    0    0    0  0.00000000000E+00  0.00000000000E+00  0.99999998245E-14  0.12500000000E+03  0.12500000000E+03 0.  0.
          5    1    1    0  501    0 -0.50645229704E+02  0.22549602348E+02  0.28473428705E+02  0.62500000000E+02  0.47000000000E+01 0. -1.
         -5    1    1    0    0  501  0.50645229704E+02 -0.22549602348E+02 -0.28473428705E+02  0.62500000000E+02  0.47000000000E+01 0. -1.
</event>
<event>
 3    0  0.4580101E-005  0.9118800E+02  0.7546771E-02  0.1235069E+00
         25   -1    0    0    0    0  0.00000000000E+00  0.00000000000E+00  0.99999998245E-14  0.12500000000E+03  0.12500000000E+03 0.  0.
          5    1    1    0  501    0  0.15294449347E+02  0.50679959677E+02 -0.32890447038E+02  0.62500000000E+02  0.47000000000E+01 0.  1.
         -5    1    1    0    0  501 -0.15294449347E+02 -0.50679959677E+02  0.32890447038E+02  0.62500000000E+02  0.47000000000E+01 0.  1.
</event>
<event>
 3    0  0.4580101E-005  0.9118800E+02  0.7546771E-02  0.1235069E+00
         25   -1    0    0    0    0  0.00000000000E+00  0.00000000000E+00  0.99999998245E-14  0.12500000000E+03  0.12500000000E+03 0.  0.
          5    1    1    0  501    0 -0.35350372912E+01  0.60253789575E+02  0.15528823305E+02  0.62500000000E+02  0.47000000000E+01 0. -1.
         -5    1    1    0    0  501  0.35350372912E+01 -0.60253789575E+02 -0.15528823305E+02  0.62500000000E+02  0.47000000000E+01 0. -1.
</event>
<event>
 3    0  0.4580101E-005  0.9118800E+02  0.7546771E-02  0.1235069E+00
         25   -1    0    0    0    0  0.00000000000E+00  0.00000000000E+00  0.99999998245E-14  0.12500000000E+03  0.12500000000E+03 0.  0.
          5    1    1    0  501    0  0.48069875540E+02 -0.37314221150E+01  0.39490803418E+02  0.62500000000E+02  0.47000000000E+01 0. -1.
         -5    1    1    0    0  501 -0.48069875540E+02  0.37314221150E+01 -0.39490803418E+02  0.62500000000E+02  0.47000000000E+01 0. -1.
</event>
<event>
 3    0  0.4580101E-005  0.9118800E+02  0.7546771E-02  0.1235069E+00
         25   -1    0    0    0    0  0.00000000000E+00  0.00000000000E+00  0.99999998245E-14  0.12500000000E+03  0.12500000000E+03 0.  0.
          5    1    1    0  501    0 -0.10095270611E+01  0.60968569212E+02  0.12883106121E+02  0.62500000000E+02  0.47000000000E+01 0.  1.
         -5    1    1    0    0  501  0.10095270611E+01 -0.60968569212E+02 -0.12883106121E+02  0.62500000000E+02  0.47000000000E+01 0.  1.
</event>
<event>
 3    0  0.4580101E-005  0.9118800E+02  0.7546771E-02  0.1235069E+00
         25   -1    0    0    0    0  0.00000000000E+00  0.00000000000E+00  0.99999998245E-14  0.12500000000E+03  0.12500000000E+03 0.  0.
          5    1    1    0  501    0 -0.46771435966E+02  0.79953073204E+01  0.40406284642E+02  0.62500000000E+02  0.47000000000E+01 0. -1.
         -5    1    1    0    0  501  0.46771435966E+02 -0.79953073204E+01 -0.40406284642E+02  0.62500000000E+02  0.47000000000E+01 0. -1.
</event>
<event>
 3    0  0.4580101E-005  0.9118800E+02  0.7546771E-02  0.1235069E+00
         25   -1    0    0    0    0  0.00000000000E+00  0.00000000000E+00  0.99999998245E-14  0.12500000000E+03  0.12500000000E+03 0.  0.
          5    1    1    0  501    0  0.48126214942E+02  0.11777566650E+02 -0.37806300522E+02  0.62500000000E+02  0.47000000000E+01 0.  1.
         -5    1    1    0    0  501 -0.48126214942E+02 -0.11777566650E+02  0.37806300522E+02  0.62500000000E+02  0.47000000000E+01 0.  1.
</event>
<event>
 3    0  0.4580101E-005  0.9118800E+02  0.7546771E-02  0.1235069E+00
         25   -1    0    0    0    0  0.00000000000E+00  0.00000000000E+00  0.99999998245E-14  0.12500000000E+03  0.12500000000E+03 0.  0.
          5    1    1    0  501    0 -0.31732676712E+02  0.50740366329E+02 -0.17395759642E+02  0.62500000000E+02  0.47000000000E+01 0. -1.
         -5    1    1    0    0  501  0.31732676712E+02 -0.50740366329E+02  0.17395759642E+02  0.62500000000E+02  0.47000000000E+01 0. -1.
</event>
<event>
 3    0  0.4580101E-005  0.9118800E+02  0.7546771E-02  0.1235069E+00
         25   -1    0    0    0    0  0.00000000000E+00  0.00000000000E+00  0.99999998245E-14  0.12500000000E+03  0.12500000000E+03 0.  0.
          5    1    1    0  501    0  0.51598841004E+02  0.26681497478E+02 -0.22579134160E+02  0.62500000000E+02  0.47000000000E+01 0.  1.
         -5    1    1    0    0  501 -0.51598841004E+02 -0.26681497478E+02  0.22579134160E+02  0.62500000000E+02  0.47000000000E+01 0.  1.
</event>
<event>
 3    0  0.4580101E-005  0.9118800E+02  0.7546771E-02  0.1235069E+00
         25   -1    0    0    0    0  0.00000000000E+00  0.00000000000E+00  0.99999998245E-14  0.12500000000E+03  0.12500000000E+03 0.  0.
          5    1    1    0  501    0  0.11987948025E+02 -0.60254154347E+02 -0.10482651670E+02  0.62500000000E+02  0.47000000000E+01 0.  1.
         -5    1    1    0    0  501 -0.11987948025E+02  0.60254154347E+02  0.10482651670E+02  0.62500000000E+02  0.47000000000E+01 0.  1.
</event>
<event>
 3    0  0.4580101E-005  0.9118800E+02  0.7546771E-02  0.1235069E+00
         25   -1    0    0    0    0  0.00000000000E+00  0.00000000000E+00  0.99999998245E-14  0.12500000000E+03  0.12500000000E+03 0.  0.
          5    1    1    0  501    0 -0.16655986255E+02 -0.59953800802E+02  0.35042675767E+01  0.62500000000E+02  0.47000000000E+01 0. -1.
         -5    1    1    0    0  501  0.16655986255E+02  0.59953800802E+02 -0.35042675767E+01  0.62500000000E+02  0.47000000000E+01 0. -1.
</event>
<event>
 3    0  0.4580101E-005  0.9118800E+02  0.7546771E-02  0.1235069E+00
         25   -1    0    0    0    0  0.00000000000E+00  0.00000000000E+00  0.99999998245E-14  0.12500000000E+03  0.12500000000E+03 0.  0.
          5    1    1    0  501    0 -0.31872189415E+02 -0.40654201776E+02  0.34864873725E+02  0.62500000000E+02  0.47000000000E+01 0. -1.
         -5    1    1    0    0  501  0.31872189415E+02  0.40654201776E+02 -0.34864873725E+02  0.62500000000E+02  0.47000000000E+01 0. -1.
</event>
<event>
 3    0  0.4580101E-005  0.9118800E+02  0.7546771E-02  0.1235069E+00
         25   -1    0    0    0    0  0.00000000000E+00  0.00000000000E+00  0.99999998245E-14  0.12500000000E+03  0.12500000000E+03 0.  0.
          5    1    1    0  501    0 -0.10140619910E+01  0.46357403026E+02 -0.41642800854E+02  0.62500000000E+02  0.47000000000E+01 0.  1.
         -5    1    1    0    0  501  0.10140619910E+01 -0.46357403026E+02  0.41642800854E+02  0.62500000000E+02  0.47000000000E+01 0.  1.
</event>
<event>
 3    0  0.4580101E-005  0.9118800E+02  0.7546771E-02  0.1235069E+00
         25   -1    0    0    0    0  0.00000000000E+00  0.00000000000E+00  0.99999998245E-14  0.12500000000E+03  0.12500000000E+03 0.  0.
          5    1    1    0  501    0  0.24332205619E+02  0.51189395013E+02  0.25918132802E+02  0.62500000000E+02  0.47000000000E+01 0. -1.
         -5    1    1    0    0  501 -0.24332205619E+02 -0.51189395013E+02 -0.25918132802E+02  0.62500000000E+02  0.47000000000E+01 0. -1.
</event>
<event>
 3    0  0.4580101E-005  0.9118800E+02  0.7546771E-02  0.1235069E+00
         25   -1    0    0    0    0  0.00000000000E+00  0.00000000000E+00  0.99999998245E-14  0.12500000000E+03  0.12500000000E+03 0.  0.
          5    1    1    0  501    0  0.83904605936E+01 -0.32098509777E+02 -0.52758372237E+02  0.62500000000E+02  0.47000000000E+01 0.  1.
         -5    1    1    0    0  501 -0.83904605936E+01  0.32098509777E+02  0.52758372237E+02  0.62500000000E+02  0.47000000000E+01 0.  1.
</event>
<event>
 3    0  0.4580101E-005  0.9118800E+02  0.7546771E-02  0.1235069E+00
         25   -1    0    0    0    0  0.00000000000E+00  0.00000000000E+00  0.99999998245E-14  0.12500000000E+03  0.12500000000E+03 0.  0.
          5    1    1    0  501    0  0.28684173090E+02 -0.49867972923E+02  0.23970054040E+02  0.62500000000E+02  0.47000000000E+01 0.  1.
         -5    1    1    0    0  501 -0.28684173090E+02  0.49867972923E+02 -0.23970054040E+02  0.62500000000E+02  0.47000000000E+01 0.  1.
</event>
<event>
 3    0  0.4580101E-005  0.9118800E+02  0.7546771E-02  0.1235069E+00
         25   -1    0    0    0    0  0.00000000000E+00  0.00000000000E+00  0.99999998245E-14  0.12500000000E+03  0.12500000000E+03 0.  0.
          5    1    1    0  501    0  0.29085978243E+02 -0.43410024187E+02  0.33966684703E+02  0.62500000000E+02  0.47000000000E+01 0.  1.
         -5    1    1    0    0  501 -0.29085978243E+02  0.43410024187E+02 -0.33966684703E+02  0.62500000000E+02  0.47000000000E+01 0.  1.
</event>
<event>
 3    0  0.4580101E-005  0.9118800E+02  0.7546771E-02  0.1235069E+00
         25   -1    0    0    0    0  0.00000000000E+00  0.00000000000E+00  0.99999998245E-14  0.12500000000E+03  0.12500000000E+03 0.  0.
          5    1    1    0  501    0  0.19311734800E+01  0.50483078798E+02  0.36495058900E+02  0.62500000000E+02  0.47000000000E+01 0. -1.
         -5    1    1    0    0  501 -0.19311734800E+01 -0.50483078798E+02 -0.36495058900E+02  0.62500000000E+02  0.47000000000E+01 0. -1.
</event>
<event>
 3    0  0.4580101E-005  0.9118800E+02  0.7546771E-02  0.1235069E+00
         25   -1    0    0    0    0  0.00000000000E+00  0.00000000000E+00  0.99999998245E-14  0.12500000000E+03  0.12500000000E+03 0.  0.
          5    1    1    0  501    0 -0.58879851698E+02  0.20032033786E+02  0.40050825713E+01  0.62500000000E+02  0.47000000000E+01 0.  1.
         -5    1    1    0    0  501  0.58879851698E+02 -0.20032033786E+02 -0.40050825713E+01  0.62500000000E+02  0.47000000000E+01 0.  1.
</event>
<event>
 3    0  0.4580101E-005  0.9118800E+02  0.7546771E-02  0.1235069E+00
         25   -1    0    0    0    0  0.00000000000E+00  0.00000000000E+00  0.99999998245E-14  0.12500000000E+03  0.12500000000E+03 0.  0.
          5    1    1    0  501    0 -0.55477218844E+02  0.24538514354E+02 -0.14293337701E+02  0.62500000000E+02  0.47000000000E+01 0. -1.
         -5    1    1    0    0  501  0.55477218844E+02 -0.24538514354E+02  0.14293337701E+02  0.62500000000E+02  0.47000000000E+01 0. -1.
</event>
<event>
 3    0  0.4580101E-005  0.9118800E+02  0.7546771E-02  0.1235069E+00
         25   -1    0    0    0    0  0.00000000000E+00  0.00000000000E+00  0.99999998245E-14  0.12500000000E+03  0.12500000000E+03 0.  0.
          5    1    1    0  501    0 -0.30089944908E+02  0.39725349845E+02  0.37425282833E+02  0.62500000000E+02  0.47000000000E+01 0.  1.
         -5    1    1    0    0  501  0.30089944908E+02 -0.39725349845E+02 -0.37425282833E+02  0.62500000000E+02  0.47000000000E+01 0.  1.
</event>
<event>
 3    0  0.4580101E-005  0.9118800E+02  0.7546771E-02  0.1235069E+00
         25   -1    0    0    0    0  0.00000000000E+00  0.00000000000E+00  0.99999998245E-14  0.12500000000E+03  0.12500000000E+03 0.  0.
          5    1    1    0  501    0  0.21466476679E+02 -0.17371882048E+02 -0.55870995096E+02  0.62500000000E+02  0.47000000000E+01 0. -1.
         -5    1    1    0    0  501 -0.21466476679E+02  0.17371882048E+02  0.55870995096E+02  0.62500000000E+02  0.47000000000E+01 0. -1.
</event>
<event>
 3    0  0.4580101E-005  0.9118800E+02  0.7546771E-02  0.1235069E+00
         25   -1    0    0    0    0  0.00000000000E+00  0.00000000000E+00  0.99999998245E-14  0.12500000000E+03  0.12500000000E+03 0.  0.
          5    1    1    0  501    0 -0.35079414629E+02 -0.23788198340E+02  0.45691534107E+02  0.62500000000E+02  0.47000000000E+01 0.  1.
         -5    1    1    0    0  501  0.35079414629E+02  0.23788198340E+02 -0.45691534107E+02  0.62500000000E+02  0.47000000000E+01 0.  1.
</event>
<event>
 3    0  0.4580101E-005  0.9118800E+02  0.7546771E-02  0.1235069E+00
         25   -1    0    0    0    0  0.00000000000E+00  0.00000000000E+00  0.99999998245E-14  0.12500000000E+03  0.12500000000E+03 0.  0.
          5    1    1    0  501    0 -0.30930366480E+02 -0.25879102528E+02  0.47515728783E+02  0.62500000000E+02  0.47000000000E+01 0.  1.
         -5    1    1    0    0  501  0.30930366480E+02  0.25879102528E+02 -0.47515728783E+02  0.62500000000E+02  0.47000000000E+01 0.  1.
</event>
<event>
 3    0  0.4580101E-005  0.9118800E+02  0.7546771E-02  0.1235069E+00
         25   -1    0    0    0    0  0.00000000000E+00  0.00000000000E+00  0.99999998245E-14  0.12500000000E+03  0.12500000000E+03 0.  0.
          5    1    1    0  501    0  0.89942384149E+01 -0.59812771293E+02  0.15023184268E+02  0.62500000000E+02  0.47000000000E+01 0. -1.
         -5    1    1    0    0  501 -0.89942384149E+01  0.59812771293E+02 -0.15023184268E+02  0.62500000000E+02  0.47000000000E+01 0. -1.
</event>
<event>
 3    0  0.4580101E-005  0.9118800E+02  0.7546771E-02  0.1235069E+00
         25   -1    0    0    0    0  0.00000000000E+00  0.00000000000E+00  0.99999998245E-14  0.12500000000E+03  0.12500000000E+03 0.  0.
          5    1    1    0  501    0  0.18217659557E+02  0.17192372795E+02 -0.57067496861E+02  0.62500000000E+02  0.47000000000E+01 0.  1.
         -5    1    1    0    0  501 -0.18217659557E+02 -0.17192372795E+02  0.57067496861E+02  0.62500000000E+02  0.47000000000E+01 0.  1.
</event>
<event>
 3    0  0.4580101E-005  0.9118800E+02  0.7546771E-02  0.1235069E+00
         25   -1    0    0    0    0  0.00000000000E+00  0.00000000000E+00  0.99999998245E-14  0.12500000000E+03  0.12500000000E+03 0.  0.
          5    1    1    0  501    0 -0.55527496948E+02 -0.32712013693E+01 -0.28109719391E+02  0.62500000000E+02  0.47000000000E+01 0. -1.
         -5    1    1    0    0  501  0.55527496948E+02  0.32712013693E+01  0.28109719391E+02  0.62500000000E+02  0.47000000000E+01 0. -1.
</event>
<event>
 3    0  0.4580101E-005  0.9118800E+02  0.7546771E-02  0.1235069E+00
         25   -1    0    0    0    0  0.00000000000E+00  0.00000000000E+00  0.99999998245E-14  0.12500000000E+03  0.12500000000E+03 0.  0.
          5    1    1    0  501    0 -0.48229029799E+02  0.37716649330E+02  0.11643669869E+02  0.62500000000E+02  0.47000000000E+01 0. -1.
         -5    1    1    0    0  501  0.48229029799E+02 -0.37716649330E+02 -0.11643669869E+02  0.62500000000E+02  0.47000000000E+01 0. -1.
</event>
<event>
 3    0  0.4580101E-005  0.9118800E+02  0.7546771E-02  0.1235069E+00
         25   -1    0    0    0    0  0.00000000000E+00  0.00000000000E+00  0.99999998245E-14  0.12500000000E+03  0.12500000000E+03 0.  0.
          5    1    1    0  501    0  0.61772421326E+02  0.71665820581E+01 -0.41192311393E+01  0.62500000000E+02  0.47000000000E+01 0.  1.
         -5    1    1    0    0  501 -0.61772421326E+02 -0.71665820581E+01  0.41192311393E+01  0.62500000000E+02  0.47000000000E+01 0.  1.
</event>
<event>
 3    0  0.4580101E-005  0.9118800E+02  0.7546771E-02  0.1235069E+00
         25   -1    0    0    0    0  0.00000000000E+00  0.00000000000E+00  0.99999998245E-14  0.12500000000E+03  0.12500000000E+03 0.  0.
          5    1    1    0  501    0  0.52303683696E+02  0.26760072943E+02 -0.20793825234E+02  0.62500000000E+02  0.47000000000E+01 0.  1.
         -5    1    1    0    0  501 -0.52303683696E+02 -0.26760072943E+02  0.20793825234E+02  0.62500000000E+02  0.47000000000E+01 0.  1.
</event>
<event>
 3    0  0.4580101E-005  0.9118800E+02  0.7546771E-02  0.1235069E+00
         25   -1    0    0    0    0  0.00000000000E+00  0.00000000000E+00  0.99999998245E-14  0.12500000000E+03  0.12500000000E+03 0.  0.
          5    1    1    0  501    0 -0.28409400054E+02 -0.30176451135E+02  0.46545115592E+02  0.62500000000E+02  0.47000000000E+01 0. -1.
         -5    1    1    0    0  501  0.28409400054E+02  0.30176451135E+02 -0.46545115592E+02  0.62500000000E+02  0.47000000000E+01 0. -1.
</event>
<event>
 3    0  0.4580101E-005  0.9118800E+02  0.7546771E-02  0.1235069E+00
         25   -1    0    0    0    0  0.00000000000E+00  0.00000000000E+00  0.99999998245E-14  0.12500000000E+03  0.12500000000E+03 0.  0.
          5    1    1    0  501    0  0.13550391222E+02  0.20797796025E+01  0.60796557588E+02  0.62500000000E+02  0.47000000000E+01 0.  1.
         -5    1    1    0    0  501 -0.13550391222E+02 -0.20797796025E+01 -0.60796557588E+02  0.62500000000E+02  0.47000000000E+01 0.  1.
</event>
<event>
 3    0  0.4580101E-005  0.9118800E+02  0.7546771E-02  0.1235069E+00
         25   -1    0    0    0    0  0.00000000000E+00  0.00000000000E+00  0.99999998245E-14  0.12500000000E+03  0.12500000000E+03 0.  0.
          5    1    1    0  501    0 -0.26602673371E+02 -0.31776682377E+02  0.46547827303E+02  0.62500000000E+02  0.47000000000E+01 0.  1.
         -5    1    1    0    0  501  0.26602673371E+02  0.31776682377E+02 -0.46547827303E+02  0.62500000000E+02  0.47000000000E+01 0.  1.
</event>
<event>
 3    0  0.4580101E-005  0.9118800E+02  0.7546771E-02  0.1235069E+00
         25   -1    0    0    0    0  0.00000000000E+00  0.00000000000E+00  0.99999998245E-14  0.12500000000E+03  0.12500000000E+03 0.  0.
          5    1    1    0  501    0 -0.38942507318E+02  0.45476253562E+02  0.17307555741E+02  0.62500000000E+02  0.47000000000E+01 0. -1.
         -5    1    1    0    0  501  0.38942507318E+02 -0.45476253562E+02 -0.17307555741E+02  0.62500000000E+02  0.47000000000E+01 0. -1.
</event>
<event>
 3    0  0.4580101E-005  0.9118800E+02  0.7546771E-02  0.1235069E+00
         25   -1    0    0    0    0  0.00000000000E+00  0.00000000000E+00  0.99999998245E-14  0.12500000000E+03  0.12500000000E+03 0.  0.
          5    1    1    0  501    0  0.58286586530E+02  0.20720291504E+02  0.75830963779E+01  0.62500000000E+02  0.47000000000E+01 0. -1.
         -5    1    1    0    0  501 -0.58286586530E+02 -0.20720291504E+02 -0.75830963779E+01  0.62500000000E+02  0.47000000000E+01 0. -1.
</event>
<event>
 3    0  0.4580101E-005  0.9118800E+02  0.7546771E-02  0.1235069E+00
         25   -1    0    0    0    0  0.00000000000E+00  0.00000000000E+00  0.99999998245E-14  0.12500000000E+03  0.12500000000E+03 0.  0.
          5    1    1    0  501    0  0.28395404999E+02  0.53436021468E+02  0.14914844438E+02  0.62500000000E+02  0.47000000000E+01 0. -1.
         -5    1    1    0    0  501 -0.28395404999E+02 -0.53436021468E+02 -0.14914844438E+02  0.62500000000E+02  0.47000000000E+01 0. -1.
</event>
<event>
 3    0  0.4580101E-005  0.9118800E+02  0.7546771E-02  0.1235069E+00
         25   -1    0    0    0    0  0.00000000000E+00  0.00000000000E+00  0.99999998245E-14  0.12500000000E+03  0.12500000000E+03 0.  0.
          5    1    1    0  501    0  0.49190090277E+01 -0.60802844882E+02 -0.12766260392E+02  0.62500000000E+02  0.47000000000E+01 0. -1.
         -5    1    1    0    0  501 -0.49190090277E+01  0.60802844882E+02  0.12766260392E+02  0.62500000000E+02  0.47000000000E+01 0. -1.
</event>
<event>
 3    0  0.4580101E-005  0.9118800E+02  0.7546771E-02  0.1235069E+00
         25   -1    0    0    0    0  0.00000000000E+00  0.00000000000E+00  0.99999998245E-14  0.12500000000E+03  0.12500000000E+03 0.  0.
          5    1    1    0  501    0  0.49064631128E+02 -0.37305419044E+02  0.92264664013E+01  0.62500000000E+02  0.47000000000E+01 0.  1.
         -5    1    1    0    0  501 -0.49064631128E+02  0.37305419044E+02 -0.92264664013E+01  0.62500000000E+02  0.47000000000E+01 0.  1.
</event>
<event>
 3    0  0.4580101E-005  0.9118800E+02  0.7546771E-02  0.1235069E+00
         25   -1    0    0    0    0  0.00000000000E+00  0.00000000000E+00  0.99999998245E-14  0.12500000000E+03  0.12500000000E+03 0.  0.
          5    1    1    0  501    0  0.40940964895E+02 -0.18235477970E+00 -0.46988978922E+02  0.62500000000E+02  0.47000000000E+01 0. -1.
         -5    1    1    0    0  501 -0.40940964895E+02  0.18235477970E+00  0.46988978922E+02  0.62500000000E+02  0.47000000000E+01 0. -1.
</event>
<event>
 3    0  0.4580101E-005  0.9118800E+02  0.7546771E-02  0.1235069E+00
         25   -1    0    0    0    0  0.00000000000E+00  0.00000000000E+00  0.99999998245E-14  0.12500000000E+03  0.12500000000E+03 0.  0.
          5    1    1    0  501    0 -0.19339325619E+02 -0.47965007669E+02  0.34777989072E+02  0.62500000000E+02  0.47000000000E+01 0.  1.
         -5    1    1    0    0  501  0.19339325619E+02  0.47965007669E+02 -0.34777989072E+02  0.62500000000E+02  0.47000000000E+01 0.  1.
</event>
<event>
 3    0  0.4580101E-005  0.9118800E+02  0.7546771E-02  0.1235069E+00
         25   -1    0    0    0    0  0.00000000000E+00  0.00000000000E+00  0.99999998245E-14  0.12500000000E+03  0.12500000000E+03 0.  0.
          5    1    1    0  501    0  0.61120651437E+02  0.11671791019E+02 -0.34921715689E+01  0.62500000000E+02  0.47000000000E+01 0. -1.
         -5    1    1    0    0  501 -0.61120651437E+02 -0.11671791019E+02  0.34921715689E+01  0.62500000000E+02  0.47000000000E+01 0. -1.
</event>
<event>
 3    0  0.4580101E-005  0.9118800E+02  0.7546771E-02  0.1235069E+00
         25   -1    0    0    0    0  0.00000000000E+00  0.00000000000E+00  0.99999998245E-14  0.12500000000E+03  0.12500000000E+03 0.  0.
          5    1    1    0  501    0  0.24735483838E+02 -0.56459154873E+02  0.92021557414E+01  0.62500000000E+02  0.47000000000E+01 0.  1.
         -5    1    1    0    0  501 -0.24735483838E+02  0.56459154873E+02 -0.92021557414E+01  0.62500000000E+02  0.47000000000E+01 0.  1.
</event>
<event>
 3    0  0.4580101E-005  0.9118800E+02  0.7546771E-02  0.1235069E+00
         25   -1    0    0    0    0  0.00000000000E+00  0.00000000000E+00  0.99999998245E-14  0.12500000000E+03  0.12500000000E+03 0.  0.
          5    1    1    0  501    0  0.32156735014E+02  0.36170988690E+02  0.39265302374E+02  0.62500000000E+02  0.47000000000E+01 0.  1.
         -5    1    1    0    0  501 -0.32156735014E+02 -0.36170988690E+02 -0.39265302374E+02  0.62500000000E+02  0.47000000000E+01 0.  1.
</event>
<event>
 3    0  0.4580101E-005  0.9118800E+02  0.7546771E-02  0.1235069E+00
         25   -1    0    0    0    0  0.00000000000E+00  0.00000000000E+00  0.99999998245E-14  0.12500000000E+03  0.12500000000E+03 0.  0.
          5    1    1    0  501    0 -0.68631152968E+01  0.25635198356E+02  0.56390551103E+02  0.62500000000E+02  0.47000000000E+01 0.  1.
         -5    1    1    0    0  501  0.68631152968E+01 -0.25635198356E+02 -0.56390551103E+02  0.62500000000E+02  0.47000000000E+01 0.  1.
</event>
<event>
 3    0  0.4580101E-005  0.9118800E+02  0.7546771E-02  0.1235069E+00
         25   -1    0    0    0    0  0.00000000000E+00  0.00000000000E+00  0.99999998245E-14  0.12500000000E+03  0.12500000000E+03 0.  0.
          5    1    1    0  501    0 -0.16016159327E+02  0.40963867983E+02 -0.44154322102E+02  0.62500000000E+02  0.47000000000E+01 0.  1.
         -5    1    1    0    0  501  0.16016159327E+02 -0.40963867983E+02  0.44154322102E+02  0.62500000000E+02  0.47000000000E+01 0.  1.
</event>
<event>
 3    0  0.4580101E-005  0.9118800E+02  0.7546771E-02  0.1235069E+00
         25   -1    0    0    0    0  0.00000000000E+00  0.00000000000E+00  0.99999998245E-14  0.12500000000E+03  0.12500000000E+03 0.  0.
          5    1    1    0  501    0 -0.60903256681E+02 -0.12756134846E+02  0.34977634858E+01  0.62500000000E+02  0.47000000000E+01 0.  1.
         -5    1    1    0    0  501  0.60903256681E+02  0.12756134846E+02 -0.34977634858E+01  0.62500000000E+02  0.47000000000E+01 0.  1.
</event>
<event>
 3    0  0.4580101E-005  0.9118800E+02  0.7546771E-02  0.1235069E+00
         25   -1    0    0    0    0  0.00000000000E+00  0.00000000000E+00  0.99999998245E-14  0.12500000000E+03  0.12500000000E+03 0.  0.
          5    1    1    0  501    0 -0.55957849829E+02  0.71186009553E+01 -0.26499142684E+02  0.62500000000E+02  0.47000000000E+01 0.  1.
         -5    1    1    0    0  501  0.55957849829E+02 -0.71186009553E+01  0.26499142684E+02  0.62500000000E+02  0.47000000000E+01 0.  1.
</event>
<event>
 3    0  0.4580101E-005  0.9118800E+02  0.7546771E-02  0.1235069E+00
         25   -1    0    0    0    0  0.00000000000E+00  0.00000000000E+00  0.99999998245E-14  0.12500000000E+03  0.12500000000E+03 0.  0.
          5    1    1    0  501    0 -0.54231477556E+02 -0.28298878493E+02  0.11928131378E+02  0.62500000000E+02  0.47000000000E+01 0.  1.
         -5    1    1    0    0  501  0.54231477556E+02  0.28298878493E+02 -0.11928131378E+02  0.62500000000E+02  0.47000000000E+01 0.  1.
</event>
<event>
 3    0  0.4580101E-005  0.9118800E+02  0.7546771E-02  0.1235069E+00
         25   -1    0    0    0    0  0.00000000000E+00  0.00000000000E+00  0.99999998245E-14  0.12500000000E+03  0.12500000000E+03 0.  0.
          5    1    1    0  501    0 -0.59046346929E+02  0.58707225157E+01 -0.19058424162E+02  0.62500000000E+02  0.47000000000E+01 0.  1.
         -5    1    1    0    0  501  0.59046346929E+02 -0.58707225157E+01  0.19058424162E+02  0.62500000000E+02  0.47000000000E+01 0.  1.
</event>
<event>
 3    0  0.4580101E-005  0.9118800E+02  0.7546771E-02  0.1235069E+00
         25   -1    0    0    0    0  0.00000000000E+00  0.00000000000E+00  0.99999998245E-14  0.12500000000E+03  0.12500000000E+03 0.  0.
          5    1    1    0  501    0  0.20324633267E+02 -0.97412070289E+01 -0.58104889365E+02  0.62500000000E+02  0.47000000000E+01 0. -1.
         -5    1    1    0    0  501 -0.20324633267E+02  0.97412070289E+01  0.58104889365E+02  0.62500000000E+02  0.47000000000E+01 0. -1.
</event>
<event>
 3    0  0.4580101E-005  0.9118800E+02  0.7546771E-02  0.1235069E+00
         25   -1    0    0    0    0  0.00000000000E+00  0.00000000000E+00  0.99999998245E-14  0.12500000000E+03  0.12500000000E+03 0.  0.
          5    1    1    0  501    0 -0.49035096560E+02 -0.28718531978E+02 -0.25592288416E+02  0.62500000000E+02  0.47000000000E+01 0. -1.
         -5    1    1    0    0  501  0.49035096560E+02  0.28718531978E+02  0.25592288416E+02  0.62500000000E+02  0.47000000000E+01 0. -1.
</event>
<event>
 3    0  0.4580101E-005  0.9118800E+02  0.7546771E-02  0.1235069E+00
         25   -1    0    0    0    0  0.00000000000E+00  0.00000000000E+00  0.99999998245E-14  0.12500000000E+03  0.12500000000E+03 0.  0.
          5    1    1    0  501    0  0.21500308851E+02  0.33410877182E+02 -0.48016767959E+02  0.62500000000E+02  0.47000000000E+01 0.  1.
         -5    1    1    0    0  501 -0.21500308851E+02 -0.33410877182E+02  0.48016767959E+02  0.62500000000E+02  0.47000000000E+01 0.  1.
</event>
<event>
 3    0  0.4580101E-005  0.9118800E+02  0.7546771E-02  0.1235069E+00
         25   -1    0    0    0    0  0.00000000000E+00  0.00000000000E+00  0.99999998245E-14  0.12500000000E+03  0.12500000000E+03 0.  0.
          5    1    1    0  501    0  0.23816002665E+02 -0.18934255050E+02 -0.54391653797E+02  0.62500000000E+02  0.47000000000E+01 0. -1.
         -5    1    1    0    0  501 -0.23816002665E+02  0.18934255050E+02  0.54391653797E+02  0.62500000000E+02  0.47000000000E+01 0. -1.
</event>
<event>
 3    0  0.4580101E-005  0.9118800E+02  0.7546771E-02  0.1235069E+00
         25   -1    0    0    0    0  0.00000000000E+00  0.00000000000E+00  0.99999998245E-14  0.12500000000E+03  0.12500000000E+03 0.  0.
          5    1    1    0  501    0  0.28067022123E+02 -0.94243781386E+01  0.54841438400E+02  0.62500000000E+02  0.47000000000E+01 0. -1.
         -5    1    1    0    0  501 -0.28067022123E+02  0.94243781386E+01 -0.54841438400E+02  0.62500000000E+02  0.47000000000E+01 0. -1.
</event>
<event>
 3    0  0.4580101E-005  0.9118800E+02  0.7546771E-02  0.1235069E+00
         25   -1    0    0    0    0  0.00000000000E+00  0.00000000000E+00  0.99999998245E-14  0.12500000000E+03  0.12500000000E+03 0.  0.
          5    1    1    0  501    0  0.10447764574E+02 -0.54837874474E+02  0.27709416063E+02  0.62500000000E+02  0.47000000000E+01 0. -1.
         -5    1    1    0    0  501 -0.10447764574E+02  0.54837874474E+02 -0.27709416063E+02  0.62500000000E+02  0.47000000000E+01 0. -1.
</event>
<event>
 3    0  0.4580101E-005  0.9118800E+02  0.7546771E-02  0.1235069E+00
         25   -1    0    0    0    0  0.00000000000E+00  0.00000000000E+00  0.99999998245E-14  0.12500000000E+03  0.12500000000E+03 0.  0.
          5    1    1    0  501    0  0.25964473142E+02 -0.22063496214E+02 -0.52184368055E+02  0.62500000000E+02  0.47000000000E+01 0.  1.
         -5    1    1    0    0  501 -0.25964473142E+02  0.22063496214E+02  0.52184368055E+02  0.62500000000E+02  0.47000000000E+01 0.  1.
</event>
<event>
 3    0  0.4580101E-005  0.9118800E+02  0.7546771E-02  0.1235069E+00
         25   -1    0    0    0    0  0.00000000000E+00  0.00000000000E+00  0.99999998245E-14  0.12500000000E+03  0.12500000000E+03 0.  0.
          5    1    1    0  501    0 -0.60699004074E+02  0.11774142336E+02 -0.78205163932E+01  0.62500000000E+02  0.47000000000E+01 0. -1.
         -5    1    1    0    0  501  0.60699004074E+02 -0.11774142336E+02  0.78205163932E+01  0.62500000000E+02  0.47000000000E+01 0. -1.
</event>
<event>
 3    0  0.4580101E-005  0.9118800E+02  0.7546771E-02  0.1235069E+00
         25   -1    0    0    0    0  0.00000000000E+00  0.00000000000E+00  0.99999998245E-14  0.12500000000E+03  0.12500000000E+03 0.  0.
          5    1    1    0  501    0  0.56001016079E+01  0.58552576911E+02 -0.20600839765E+02  0.62500000000E+02  0.47000000000E+01 0. -1.
         -5    1    1    0    0  501 -0.56001016079E+01 -0.58552576911E+02  0.20600839765E+02  0.62500000000E+02  0.47000000000E+01 0. -1.
</event>
<event>
 3    0  0.4580101E-005  0.9118800E+02  0.7546771E-02  0.1235069E+00
         25   -1    0    0    0    0  0.00000000000E+00  0.00000000000E+00  0.99999998245E-14  0.12500000000E+03  0.12500000000E+03 0.  0.
          5    1    1    0  501    0 -0.53714393320E+02  0.14833103721E+02 -0.27908833445E+02  0.62500000000E+02  0.47000000000E+01 0. -1.
         -5    1    1    0    0  501  0.53714393320E+02 -0.14833103721E+02  0.27908833445E+02  0.62500000000E+02  0.47000000000E+01 0. -1.
</event>
<event>
 3    0  0.4580101E-005  0.9118800E+02  0.7546771E-02  0.1235069E+00
         25   -1    0    0    0    0  0.00000000000E+00  0.00000000000E+00  0.99999998245E-14  0.12500000000E+03  0.12500000000E+03 0.  0.
          5    1    1    0  501    0  0.30636615418E+02  0.53622008402E+02  0.83808120555E+01  0.62500000000E+02  0.47000000000E+01 0. -1.
         -5    1    1    0    0  501 -0.30636615418E+02 -0.53622008402E+02 -0.83808120555E+01  0.62500000000E+02  0.47000000000E+01 0. -1.
</event>
<event>
 3    0  0.4580101E-005  0.9118800E+02  0.7546771E-02  0.1235069E+00
         25   -1    0    0    0    0  0.00000000000E+00  0.00000000000E+00  0.99999998245E-14  0.12500000000E+03  0.12500000000E+03 0.  0.
          5    1    1    0  501    0 -0.21858527528E+02 -0.87496632356E+01 -0.57704490012E+02  0.62500000000E+02  0.47000000000E+01 0.  1.
         -5    1    1    0    0  501  0.21858527528E+02  0.87496632356E+01  0.57704490012E+02  0.62500000000E+02  0.47000000000E+01 0.  1.
</event>
<event>
 3    0  0.4580101E-005  0.9118800E+02  0.7546771E-02  0.1235069E+00
         25   -1    0    0    0    0  0.00000000000E+00  0.00000000000E+00  0.99999998245E-14  0.12500000000E+03  0.12500000000E+03 0.  0.
          5    1    1    0  501    0 -0.36913691434E+02  0.26669205844E+02 -0.42547536290E+02  0.62500000000E+02  0.47000000000E+01 0.  1.
         -5    1    1    0    0  501  0.36913691434E+02 -0.26669205844E+02  0.42547536290E+02  0.62500000000E+02  0.47000000000E+01 0.  1.
</event>
<event>
 3    0  0.4580101E-005  0.9118800E+02  0.7546771E-02  0.1235069E+00
         25   -1    0    0    0    0  0.00000000000E+00  0.00000000000E+00  0.99999998245E-14  0.12500000000E+03  0.12500000000E+03 0.  0.
          5    1    1    0  501    0 -0.23171771814E+02  0.58515930925E+01  0.57558560174E+02  0.62500000000E+02  0.47000000000E+01 0. -1.
         -5    1    1    0    0  501  0.23171771814E+02 -0.58515930925E+01 -0.57558560174E+02  0.62500000000E+02  0.47000000000E+01 0. -1.
</event>
<event>
 3    0  0.4580101E-005  0.9118800E+02  0.7546771E-02  0.1235069E+00
         25   -1    0    0    0    0  0.00000000000E+00  0.00000000000E+00  0.99999998245E-14  0.12500000000E+03  0.12500000000E+03 0.  0.
          5    1    1    0  501    0 -0.31877993536E+02  0.53389734452E+02 -0.41820788190E+01  0.62500000000E+02  0.47000000000E+01 0.  1.
         -5    1    1    0    0  501  0.31877993536E+02 -0.53389734452E+02  0.41820788190E+01  0.62500000000E+02  0.47000000000E+01 0.  1.
</event>
<event>
 3    0  0.4580101E-005  0.9118800E+02  0.7546771E-02  0.1235069E+00
         25   -1    0    0    0    0  0.00000000000E+00  0.00000000000E+00  0.99999998245E-14  0.12500000000E+03  0.12500000000E+03 0.  0.
          5    1    1    0  501    0  0.12767507116E+02 -0.28295045089E+02 -0.54042031656E+02  0.62500000000E+02  0.47000000000E+01 0.  1.
         -5    1    1    0    0  501 -0.12767507116E+02  0.28295045089E+02  0.54042031656E+02  0.62500000000E+02  0.47000000000E+01 0.  1.
</event>
<event>
 3    0  0.4580101E-005  0.9118800E+02  0.7546771E-02  0.1235069E+00
         25   -1    0    0    0    0  0.00000000000E+00  0.00000000000E+00  0.99999998245E-14  0.12500000000E+03  0.12500000000E+03 0.  0.
          5    1    1    0  501    0 -0.57431195991E+02  0.14228413462E+02  0.19579835989E+02  0.62500000000E+02  0.47000000000E+01 0. -1.
         -5    1    1    0    0  501  0.57431195991E+02 -0.14228413462E+02 -0.19579835989E+02  0.62500000000E+02  0.47000000000E+01 0. -1.
</event>
<event>
 3    0  0.4580101E-005  0.9118800E+02  0.7546771E-02  0.1235069E+00
         25   -1    0    0    0    0  0.00000000000E+00  0.00000000000E+00  0.99999998245E-14  0.12500000000E+03  0.12500000000E+03 0.  0.
          5    1    1    0  501    0 -0.39911245786E+02  0.37410880433E+02  0.29860986002E+02  0.62500000000E+02  0.47000000000E+01 0. -1.
         -5    1    1    0    0  501  0.39911245786E+02 -0.37410880433E+02 -0.29860986002E+02  0.62500000000E+02  0.47000000000E+01 0. -1.
</event>
<event>
 3    0  0.4580101E-005  0.9118800E+02  0.7546771E-02  0.1235069E+00
         25   -1    0    0    0    0  0.00000000000E+00  0.00000000000E+00  0.99999998245E-14  0.12500000000E+03  0.12500000000E+03 0.  0.
          5    1    1    0  501    0 -0.45854699309E+02 -0.31059027375E+02  0.28580471825E+02  0.62500000000E+02  0.47000000000E+01 0. -1.
         -5    1    1    0    0  501  0.45854699309E+02  0.31059027375E+02 -0.28580471825E+02  0.62500000000E+02  0.47000000000E+01 0. -1.
</event>
<event>
 3    0  0.4580101E-005  0.9118800E+02  0.7546771E-02  0.1235069E+00
         25   -1    0    0    0    0  0.00000000000E+00  0.00000000000E+00  0.99999998245E-14  0.12500000000E+03  0.12500000000E+03 0.  0.
          5    1    1    0  501    0  0.24910742188E+02 -0.56862773180E+02 -0.54990862818E+01  0.62500000000E+02  0.47000000000E+01 0.  1.
         -5    1    1    0    0  501 -0.24910742188E+02  0.56862773180E+02  0.54990862818E+01  0.62500000000E+02  0.47000000000E+01 0.  1.
</event>
<event>
 3    0  0.4580101E-005  0.9118800E+02  0.7546771E-02  0.1235069E+00
         25   -1    0    0    0    0  0.00000000000E+00  0.00000000000E+00  0.99999998245E-14  0.12500000000E+03  0.12500000000E+03 0.  0.
          5    1    1    0  501    0 -0.57552941718E+02 -0.13853084228E+02  0.19491304650E+02  0.62500000000E+02  0.47000000000E+01 0.  1.
         -5    1    1    0    0  501  0.57552941718E+02  0.13853084228E+02 -0.19491304650E+02  0.62500000000E+02  0.47000000000E+01 0.  1.
</event>
<event>
 3    0  0.4580101E-005  0.9118800E+02  0.7546771E-02  0.1235069E+00
         25   -1    0    0    0    0  0.00000000000E+00  0.00000000000E+00  0.99999998245E-14  0.12500000000E+03  0.12500000000E+03 0.  0.
          5    1    1    0  501    0 -0.41711790821E+02  0.16947257475E+02  0.43093815921E+02  0.62500000000E+02  0.47000000000E+01 0. -1.
         -5    1    1    0    0  501  0.41711790821E+02 -0.16947257475E+02 -0.43093815921E+02  0.62500000000E+02  0.47000000000E+01 0. -1.
</event>
<event>
 3    0  0.4580101E-005  0.9118800E+02  0.7546771E-02  0.1235069E+00
         25   -1    0    0    0    0  0.00000000000E+00  0.00000000000E+00  0.99999998245E-14  0.12500000000E+03  0.12500000000E+03 0.  0.
          5    1    1    0  501    0 -0.52610506899E+02  0.26918641003E+02  0.19790940615E+02  0.62500000000E+02  0.47000000000E+01 0.  1.
         -5    1    1    0    0  501  0.52610506899E+02 -0.26918641003E+02 -0.19790940615E+02  0.62500000000E+02  0.47000000000E+01 0.  1.
</event>
<event>
 3    0  0.4580101E-005  0.9118800E+02  0.7546771E-02  0.1235069E+00
         25   -1    0    0    0    0  0.00000000000E+00  0.00000000000E+00  0.99999998245E-14  0.12500000000E+03  0.12500000000E+03 0.  0.
          5    1    1    0  501    0 -0.11026292856E+00  0.62102730392E+02  0.52343786535E+01  0.62500000000E+02  0.47000000000E+01 0.  1.
         -5    1    1    0    0  501  0.11026292856E+00 -0.62102730392E+02 -0.52343786535E+01  0.62500000000E+02  0.47000000000E+01 0.  1.
</event>
<event>
 3    0  0.4580101E-005  0.9118800E+02  0.7546771E-02  0.1235069E+00
         25   -1    0    0    0    0  0.00000000000E+00  0.00000000000E+00  0.99999998245E-14  0.12500000000E+03  0.12500000000E+03 0.  0.
          5    1    1    0  501    0  0.55967777775E+02 -0.15710459365E+02 -0.22471077353E+02  0.62500000000E+02  0.47000000000E+01 0. -1.
         -5    1    1    0    0  501 -0.55967777775E+02  0.15710459365E+02  0.22471077353E+02  0.62500000000E+02  0.47000000000E+01 0. -1.
</event>
<event>
 3    0  0.4580101E-005  0.9118800E+02  0.7546771E-02  0.1235069E+00
         25   -1    0    0    0    0  0.00000000000E+00  0.00000000000E+00  0.99999998245E-14  0.12500000000E+03  0.12500000000E+03 0.  0.
          5    1    1    0  501    0 -0.32409799203E+02 -0.41435799129E+02 -0.33419148196E+02  0.62500000000E+02  0.47000000000E+01 0.  1.
         -5    1    1    0    0  501  0.32409799203E+02  0.41435799129E+02  0.33419148196E+02  0.62500000000E+02  0.47000000000E+01 0.  1.
</event>
<event>
 3    0  0.4580101E-005  0.9118800E+02  0.7546771E-02  0.1235069E+00
         25   -1    0    0    0    0  0.00000000000E+00  0.00000000000E+00  0.99999998245E-14  0.12500000000E+03  0.12500000000E+03 0.  0.
          5    1    1    0  501    0 -0.23244304568E+02  0.30335219776E+02  0.49230445319E+02  0.62500000000E+02  0.47000000000E+01 0. -1.
         -5    1    1    0    0  501  0.23244304568E+02 -0.30335219776E+02 -0.49230445319E+02  0.62500000000E+02  0.47000000000E+01 0. -1.
</event>
<event>
 3    0  0.4580101E-005  0.9118800E+02  0.7546771E-02  0.1235069E+00
         25   -1    0    0    0    0  0.00000000000E+00  0.00000000000E+00  0.99999998245E-14  0.12500000000E+03  0.12500000000E+03 0.  0.
          5    1    1    0  501    0  0.35550309878E+02  0.44811404758E+02 -0.24744160346E+02  0.62500000000E+02  0.47000000000E+01 0. -1.
         -5    1    1    0    0  501 -0.35550309878E+02 -0.44811404758E+02  0.24744160346E+02  0.62500000000E+02  0.47000000000E+01 0. -1.
</event>
<event>
 3    0  0.4580101E-005  0.9118800E+02  0.7546771E-02  0.1235069E+00
         25   -1    0    0    0    0  0.00000000000E+00  0.00000000000E+00  0.99999998245E-14  0.12500000000E+03  0.12500000000E+03 0.  0.
          5    1    1    0  501    0  0.58375980695E+02  0.15135367962E+02 -0.15726586233E+02  0.62500000000E+02  0.47000000000E+01 0.  1.
         -5    1    1    0    0  501 -0.58375980695E+02 -0.15135367962E+02  0.15726586233E+02  0.62500000000E+02  0.47000000000E+01 0.  1.
</event>
<event>
 3    0  0.4580101E-005  0.9118800E+02  0.7546771E-02  0.1235069E+00
         25   -1    0    0    0    0  0.00000000000E+00  0.00000000000E+00  0.99999998245E-14  0.12500000000E+03  0.12500000000E+03 0.  0.
          5    1    1    0  501    0 -0.47642619370E+02 -0.25368946317E+02 -0.31156979674E+02  0.62500000000E+02  0.47000000000E+01 0.  1.
         -5    1    1    0    0  501  0.47642619370E+02  0.25368946317E+02  0.31156979674E+02  0.62500000000E+02  0.47000000000E+01 0.  1.
</event>
<event>
 3    0  0.4580101E-005  0.9118800E+02  0.7546771E-02  0.1235069E+00
         25   -1    0    0    0    0  0.00000000000E+00  0.00000000000E+00  0.99999998245E-14  0.12500000000E+03  0.12500000000E+03 0.  0.
          5    1    1    0  501    0 -0.15219455077E+02 -0.23206464798E+02 -0.55803119794E+02  0.62500000000E+02  0.47000000000E+01 0. -1.
         -5    1    1    0    0  501  0.15219455077E+02  0.23206464798E+02  0.55803119794E+02  0.62500000000E+02  0.47000000000E+01 0. -1.
</event>
<event>
 3    0  0.4580101E-005  0.9118800E+02  0.7546771E-02  0.1235069E+00
         25   -1    0    0    0    0  0.00000000000E+00  0.00000000000E+00  0.99999998245E-14  0.12500000000E+03  0.12500000000E+03 0.  0.
          5    1    1    0  501    0  0.15334913339E+02 -0.44802679932E+02  0.40518147833E+02  0.62500000000E+02  0.47000000000E+01 0. -1.
         -5    1    1    0    0  501 -0.15334913339E+02  0.44802679932E+02 -0.40518147833E+02  0.62500000000E+02  0.47000000000E+01 0. -1.
</event>
<event>
 3    0  0.4580101E-005  0.9118800E+02  0.7546771E-02  0.1235069E+00
         25   -1    0    0    0    0  0.00000000000E+00  0.00000000000E+00  0.99999998245E-14  0.12500000000E+03  0.12500000000E+03 0.  0.
          5    1    1    0  501    0  0.27610254617E+02 -0.28443764195E+02 -0.48091434980E+02  0.62500000000E+02  0.47000000000E+01 0. -1.
         -5    1    1    0    0  501 -0.27610254617E+02  0.28443764195E+02  0.48091434980E+02  0.62500000000E+02  0.47000000000E+01 0. -1.
</event>
<event>
 3    0  0.4580101E-005  0.9118800E+02  0.7546771E-02  0.1235069E+00
         25   -1    0    0    0    0  0.00000000000E+00  0.00000000000E+00  0.99999998245E-14  0.12500000000E+03  0.12500000000E+03 0.  0.
          5    1    1    0  501    0  0.43091651781E+02 -0.44636773295E+02  0.59015266288E+01  0.62500000000E+02  0.47000000000E+01 0.  1.
         -5    1    1    0    0  501 -0.43091651781E+02  0.44636773295E+02 -0.59015266288E+01  0.62500000000E+02  0.47000000000E+01 0.  1.
</event>
<event>
 3    0  0.4580101E-005  0.9118800E+02  0.7546771E-02  0.1235069E+00
         25   -1    0    0    0    0  0.00000000000E+00  0.00000000000E+00  0.99999998245E-14  0.12500000000E+03  0.12500000000E+03 0.  0.
          5    1    1    0  501    0 -0.53599143433E+02 -0.36863022257E+01  0.31586436948E+02  0.62500000000E+02  0.47000000000E+01 0. -1.
         -5    1    1    0    0  501  0.53599143433E+02  0.36863022257E+01 -0.31586436948E+02  0.62500000000E+02  0.47000000000E+01 0. -1.
</event>
<event>
 3    0  0.4580101E-005  0.9118800E+02  0.7546771E-02  0.1235069E+00
         25   -1    0    0    0    0  0.00000000000E+00  0.00000000000E+00  0.99999998245E-14  0.12500000000E+03  0.12500000000E+03 0.  0.
          5    1    1    0  501    0 -0.48689180589E+02  0.21886698830E+02  0.32163583567E+02  0.62500000000E+02  0.47000000000E+01 0. -1.
         -5    1    1    0    0  501  0.48689180589E+02 -0.21886698830E+02 -0.32163583567E+02  0.62500000000E+02  0.47000000000E+01 0. -1.
</event>
<event>
 3    0  0.4580101E-005  0.9118800E+02  0.7546771E-02  0.1235069E+00
         25   -1    0    0    0    0  0.00000000000E+00  0.00000000000E+00  0.99999998245E-14  0.12500000000E+03  0.12500000000E+03 0.  0.
          5    1    1    0  501    0 -0.12258658853E+02  0.31603517325E+02  0.52298211975E+02  0.62500000000E+02  0.47000000000E+01 0. -1.
         -5    1    1    0    0  501  0.12258658853E+02 -0.31603517325E+02 -0.52298211975E+02  0.62500000000E+02  0.47000000000E+01 0. -1.
</event>
<event>
 3    0  0.4580101E-005  0.9118800E+02  0.7546771E-02  0.1235069E+00
         25   -1    0    0    0    0  0.00000000000E+00  0.00000000000E+00  0.99999998245E-14  0.12500000000E+03  0.12500000000E+03 0.  0.
          5    1    1    0  501    0 -0.53590499247E+02  0.17365211325E+02 -0.26658353776E+02  0.62500000000E+02  0.47000000000E+01 0.  1.
         -5    1    1    0    0  501  0.53590499247E+02 -0.17365211325E+02  0.26658353776E+02  0.62500000000E+02  0.47000000000E+01 0.  1.
</event>
<event>
 3    0  0.4580101E-005  0.9118800E+02  0.7546771E-02  0.1235069E+00
         25   -1    0    0    0    0  0.00000000000E+00  0.00000000000E+00  0.99999998245E-14  0.12500000000E+03  0.12500000000E+03 0.  0.
          5    1    1    0  501    0 -0.93483458687E+01 -0.17207600054E+02  0.59166434149E+02  0.62500000000E+02  0.47000000000E+01 0. -1.
         -5    1    1    0    0  501  0.93483458687E+01  0.17207600054E+02 -0.59166434149E+02  0.62500000000E+02  0.47000000000E+01 0. -1.
</event>
<event>
 3    0  0.4580101E-005  0.9118800E+02  0.7546771E-02  0.1235069E+00
         25   -1    0    0    0    0  0.00000000000E+00  0.00000000000E+00  0.99999998245E-14  0.12500000000E+03  0.12500000000E+03 0.  0.
          5    1    1    0  501    0  0.93632445337E+01 -0.60760338599E+02 -0.10230879981E+02  0.62500000000E+02  0.47000000000E+01 0.  1.
         -5    1    1    0    0  501 -0.93632445337E+01  0.60760338599E+02  0.10230879981E+02  0.62500000000E+02  0.47000000000E+01 0.  1.
</event>
<event>
 3    0  0.4580101E-005  0.9118800E+02  0.7546771E-02  0.1235069E+00
         25   -1    0    0    0    0  0.00000000000E+00  0.00000000000E+00  0.99999998245E-14  0.12500000000E+03  0.12500000000E+03 0.  0.
          5    1    1    0  501    0  0.20351279708E+02  0.58710509594E+02 -0.48022367093E+01  0.62500000000E+02  0.47000000000E+01 0.  1.
         -5    1    1    0    0  501 -0.20351279708E+02 -0.58710509594E+02  0.48022367093E+01  0.62500000000E+02  0.47000000000E+01 0.  1.
</event>
<event>
 3    0  0.4580101E-005  0.9118800E+02  0.7546771E-02  0.1235069E+00
         25   -1    0    0    0    0  0.00000000000E+00  0.00000000000E+00  0.99999998245E-14  0.12500000000E+03  0.12500000000E+03 0.  0.
          5    1    1    0  501    0  0.15172362639E+02 -0.50663729683E+02  0.32971895707E+02  0.62500000000E+02  0.47000000000E+01 0. -1.
         -5    1    1    0    0  501 -0.15172362639E+02  0.50663729683E+02 -0.32971895707E+02  0.62500000000E+02  0.47000000000E+01 0. -1.
</event>
<event>
 3    0  0.4580101E-005  0.9118800E+02  0.7546771E-02  0.1235069E+00
         25   -1    0    0    0    0  0.00000000000E+00  0.00000000000E+00  0.99999998245E-14  0.12500000000E+03  0.12500000000E+03 0.  0.
          5    1    1    0  501    0 -0.12637039134E+02 -0.16870537779E+02  0.58650236121E+02  0.62500000000E+02  0.47000000000E+01 0.  1.
         -5    1    1    0    0  501  0.12637039134E+02  0.16870537779E+02 -0.58650236121E+02  0.62500000000E+02  0.47000000000E+01 0.  1.
</event>
<event>
 3    0  0.4580101E-005  0.9118800E+02  0.7546771E-02  0.1235069E+00
         25   -1    0    0    0    0  0.00000000000E+00  0.00000000000E+00  0.99999998245E-14  0.12500000000E+03  0.12500000000E+03 0.  0.
          5    1    1    0  501    0 -0.32742069052E+02 -0.52732656170E+02 -0.56021324019E+01  0.62500000000E+02  0.47000000000E+01 0.  1.
         -5    1    1    0    0  501  0.32742069052E+02  0.52732656170E+02  0.56021324019E+01  0.62500000000E+02  0.47000000000E+01 0.  1.
</event>
<event>
 3    0  0.4580101E-005  0.9118800E+02  0.7546771E-02  0.1235069E+00
         25   -1    0    0    0    0  0.00000000000E+00  0.00000000000E+00  0.99999998245E-14  0.12500000000E+03  0.12500000000E+03 0.  0.
          5    1    1    0  501    0 -0.36317137855E+02 -0.48801162500E+02  0.13552565686E+02  0.62500000000E+02  0.47000000000E+01 0. -1.
         -5    1    1    0    0  501  0.36317137855E+02  0.48801162500E+02 -0.13552565686E+02  0.62500000000E+02  0.47000000000E+01 0. -1.
</event>
<event>
 3    0  0.4580101E-005  0.9118800E+02  0.7546771E-02  0.1235069E+00
         25   -1    0    0    0    0  0.00000000000E+00  0.00000000000E+00  0.99999998245E-14  0.12500000000E+03  0.12500000000E+03 0.  0.
          5    1    1    0  501    0 -0.21612441751E+02  0.51994895765E+02  0.26713164844E+02  0.62500000000E+02  0.47000000000E+01 0. -1.
         -5    1    1    0    0  501  0.21612441751E+02 -0.51994895765E+02 -0.26713164844E+02  0.62500000000E+02  0.47000000000E+01 0. -1.
</event>
<event>
 3    0  0.4580101E-005  0.9118800E+02  0.7546771E-02  0.1235069E+00
         25   -1    0    0    0    0  0.00000000000E+00  0.00000000000E+00  0.99999998245E-14  0.12500000000E+03  0.12500000000E+03 0.  0.
          5    1    1    0  501    0  0.82433644191E+01  0.13526754825E+02 -0.60276312486E+02  0.62500000000E+02  0.47000000000E+01 0.  1.
         -5    1    1    0    0  501 -0.82433644191E+01 -0.13526754825E+02  0.60276312486E+02  0.62500000000E+02  0.47000000000E+01 0.  1.
</event>
<event>
 3    0  0.4580101E-005  0.9118800E+02  0.7546771E-02  0.1235069E+00
         25   -1    0    0    0    0  0.00000000000E+00  0.00000000000E+00  0.99999998245E-14  0.12500000000E+03  0.12500000000E+03 0.  0.
          5    1    1    0  501    0  0.56072777821E+02  0.15190733812E+02 -0.22566461700E+02  0.62500000000E+02  0.47000000000E+01 0.  1.
         -5    1    1    0    0  501 -0.56072777821E+02 -0.15190733812E+02  0.22566461700E+02  0.62500000000E+02  0.47000000000E+01 0.  1.
</event>
<event>
 3    0  0.4580101E-005  0.9118800E+02  0.7546771E-02  0.1235069E+00
         25   -1    0    0    0    0  0.00000000000E+00  0.00000000000E+00  0.99999998245E-14  0.12500000000E+03  0.12500000000E+03 0.  0.
          5    1    1    0  501    0 -0.56822823746E+02  0.23268663506E+02 -0.10672206900E+02  0.62500000000E+02  0.47000000000E+01 0.  1.
         -5    1    1    0    0  501  0.56822823746E+02 -0.23268663506E+02  0.10672206900E+02  0.62500000000E+02  0.47000000000E+01 0.  1.
</event>
<event>
 3    0  0.4580101E-005  0.9118800E+02  0.7546771E-02  0.1235069E+00
         25   -1    0    0    0    0  0.00000000000E+00  0.00000000000E+00  0.99999998245E-14  0.12500000000E+03  0.12500000000E+03 0.  0.
          5    1    1    0  501    0 -0.39739828282E+02  0.32153173412E+02 -0.35652201722E+02  0.62500000000E+02  0.47000000000E+01 0. -1.
         -5    1    1    0    0  501  0.39739828282E+02 -0.32153173412E+02  0.35652201722E+02  0.62500000000E+02  0.47000000000E+01 0. -1.
</event>
<event>
 3    0  0.4580101E-005  0.9118800E+02  0.7546771E-02  0.1235069E+00
         25   -1    0    0    0    0  0.00000000000E+00  0.00000000000E+00  0.99999998245E-14  0.12500000000E+03  0.12500000000E+03 0.  0.
          5    1    1    0  501    0  0.51267941848E+02 -0.33015707575E+02  0.12873274331E+02  0.62500000000E+02  0.47000000000E+01 0.  1.
         -5    1    1    0    0  501 -0.51267941848E+02  0.33015707575E+02 -0.12873274331E+02  0.62500000000E+02  0.47000000000E+01 0.  1.
</event>
<event>
 3    0  0.4580101E-005  0.9118800E+02  0.7546771E-02  0.1235069E+00
         25   -1    0    0    0    0  0.00000000000E+00  0.00000000000E+00  0.99999998245E-14  0.12500000000E+03  0.12500000000E+03 0.  0.
          5    1    1    0  501    0  0.20898221212E+02 -0.58487742003E+02 -0.51583316672E+01  0.62500000000E+02  0.47000000000E+01 0.  1.
         -5    1    1    0    0  501 -0.20898221212E+02  0.58487742003E+02  0.51583316672E+01  0.62500000000E+02  0.47000000000E+01 0.  1.
</event>
<event>
 3    0  0.4580101E-005  0.9118800E+02  0.7546771E-02  0.1235069E+00
         25   -1    0    0    0    0  0.00000000000E+00  0.00000000000E+00  0.99999998245E-14  0.12500000000E+03  0.12500000000E+03 0.  0.
          5    1    1    0  501    0 -0.17611725485E+01 -0.40718922791E+01  0.62164925517E+02  0.62500000000E+02  0.47000000000E+01 0. -1.
         -5    1    1    0    0  501  0.17611725485E+01  0.40718922791E+01 -0.62164925517E+02  0.62500000000E+02  0.47000000000E+01 0. -1.
</event>
<event>
 3    0  0.4580101E-005  0.9118800E+02  0.7546771E-02  0.1235069E+00
         25   -1    0    0    0    0  0.00000000000E+00  0.00000000000E+00  0.99999998245E-14  0.12500000000E+03  0.12500000000E+03 0.  0.
          5    1    1    0  501    0 -0.72923919787E+00  0.56708451350E+02  0.25841434860E+02  0.62500000000E+02  0.47000000000E+01 0.  1.
         -5    1    1    0    0  501  0.72923919787E+00 -0.56708451350E+02 -0.25841434860E+02  0.62500000000E+02  0.47000000000E+01 0.  1.
</event>
<event>
 3    0  0.4580101E-005  0.9118800E+02  0.7546771E-02  0.1235069E+00
         25   -1    0    0    0    0  0.00000000000E+00  0.00000000000E+00  0.99999998245E-14  0.12500000000E+03  0.12500000000E+03 0.  0.
          5    1    1    0  501    0 -0.20218810614E+01 -0.60225295148E+02 -0.15905528010E+02  0.62500000000E+02  0.47000000000E+01 0.  1.
         -5    1    1    0    0  501  0.20218810614E+01  0.60225295148E+02  0.15905528010E+02  0.62500000000E+02  0.47000000000E+01 0.  1.
</event>
<event>
 3    0  0.4580101E-005  0.9118800E+02  0.7546771E-02  0.1235069E+00
         25   -1    0    0    0    0  0.00000000000E+00  0.00000000000E+00  0.99999998245E-14  0.12500000000E+03  0.12500000000E+03 0.  0.
          5    1    1    0  501    0 -0.43508918460E+02  0.44505331632E+02 -0.32263711461E+01  0.62500000000E+02  0.47000000000E+01 0. -1.
         -5    1    1    0    0  501  0.43508918460E+02 -0.44505331632E+02  0.32263711461E+01  0.62500000000E+02  0.47000000000E+01 0. -1.
</event>
<event>
 3    0  0.4580101E-005  0.9118800E+02  0.7546771E-02  0.1235069E+00
         25   -1    0    0    0    0  0.00000000000E+00  0.00000000000E+00  0.99999998245E-14  0.12500000000E+03  0.12500000000E+03 0.  0.
          5    1    1    0  501    0  0.11343527186E+02 -0.61219235359E+02  0.27730151421E+01  0.62500000000E+02  0.47000000000E+01 0. -1.
         -5    1    1    0    0  501 -0.11343527186E+02  0.61219235359E+02 -0.27730151421E+01  0.62500000000E+02  0.47000000000E+01 0. -1.
</event>
<event>
 3    0  0.4580101E-005  0.9118800E+02  0.7546771E-02  0.1235069E+00
         25   -1    0    0    0    0  0.00000000000E+00  0.00000000000E+00  0.99999998245E-14  0.12500000000E+03  0.12500000000E+03 0.  0.
          5    1    1    0  501    0 -0.69207693950E+01 -0.54336611476E+02  0.29728700009E+02  0.62500000000E+02  0.47000000000E+01 0.  1.
         -5    1    1    0    0  501  0.69207693950E+01  0.54336611476E+02 -0.29728700009E+02  0.62500000000E+02  0.47000000000E+01 0.  1.
</event>
<event>
 3    0  0.4580101E-005  0.9118800E+02  0.7546771E-02  0.1235069E+00
         25   -1    0    0    0    0  0.00000000000E+00  0.00000000000E+00  0.99999998245E-14  0.12500000000E+03  0.12500000000E+03 0.  0.
          5    1    1    0  501    0 -0.27403033853E+02 -0.54224935706E+02 -0.13888487441E+02  0.62500000000E+02  0.47000000000E+01 0. -1.
         -5    1    1    0    0  501  0.27403033853E+02  0.54224935706E+02  0.13888487441E+02  0.62500000000E+02  0.47000000000E+01 0. -1.
</event>
<event>
 3    0  0.4580101E-005  0.9118800E+02  0.7546771E-02  0.1235069E+00
         25   -1    0    0    0    0  0.00000000000E+00  0.00000000000E+00  0.99999998245E-14  0.12500000000E+03  0.12500000000E+03 0.  0.
          5    1    1    0  501    0 -0.55640752040E+02 -0.27727449928E+02  0.44108086488E+01  0.62500000000E+02  0.47000000000E+01 0.  1.
         -5    1    1    0    0  501  0.55640752040E+02  0.27727449928E+02 -0.44108086488E+01  0.62500000000E+02  0.47000000000E+01 0.  1.
</event>
<event>
 3    0  0.4580101E-005  0.9118800E+02  0.7546771E-02  0.1235069E+00
         25   -1    0    0    0    0  0.00000000000E+00  0.00000000000E+00  0.99999998245E-14  0.12500000000E+03  0.12500000000E+03 0.  0.
          5    1    1    0  501    0 -0.25635457576E+02  0.20050751043E+02  0.53150265263E+02  0.62500000000E+02  0.47000000000E+01 0.  1.
         -5    1    1    0    0  501  0.25635457576E+02 -0.20050751043E+02 -0.53150265263E+02  0.62500000000E+02  0.47000000000E+01 0.  1.
</event>
<event>
 3    0  0.4580101E-005  0.9118800E+02  0.7546771E-02  0.1235069E+00
         25   -1    0    0    0    0  0.00000000000E+00  0.00000000000E+00  0.99999998245E-14  0.12500000000E+03  0.12500000000E+03 0.  0.
          5    1    1    0  501    0 -0.21810738522E+02 -0.56280404674E+02  0.15523135472E+02  0.62500000000E+02  0.47000000000E+01 0.  1.
         -5    1    1    0    0  501  0.21810738522E+02  0.56280404674E+02 -0.15523135472E+02  0.62500000000E+02  0.47000000000E+01 0.  1.
</event>
<event>
 3    0  0.4580101E-005  0.9118800E+02  0.7546771E-02  0.1235069E+00
         25   -1    0    0    0    0  0.00000000000E+00  0.00000000000E+00  0.99999998245E-14  0.12500000000E+03  0.12500000000E+03 0.  0.
          5    1    1    0  501    0  0.27228365183E+02 -0.54702603089E+02 -0.12263822601E+02  0.62500000000E+02  0.47000000000E+01 0.  1.
         -5    1    1    0    0  501 -0.27228365183E+02  0.54702603089E+02  0.12263822601E+02  0.62500000000E+02  0.47000000000E+01 0.  1.
</event>
<event>
 3    0  0.4580101E-005  0.9118800E+02  0.7546771E-02  0.1235069E+00
         25   -1    0    0    0    0  0.00000000000E+00  0.00000000000E+00  0.99999998245E-14  0.12500000000E+03  0.12500000000E+03 0.  0.
          5    1    1    0  501    0 -0.55009291992E+02  0.28857101914E+02 -0.50403832873E+01  0.62500000000E+02  0.47000000000E+01 0. -1.
         -5    1    1    0    0  501  0.55009291992E+02 -0.28857101914E+02  0.50403832873E+01  0.62500000000E+02  0.47000000000E+01 0. -1.
</event>
<event>
 3    0  0.4580101E-005  0.9118800E+02  0.7546771E-02  0.1235069E+00
         25   -1    0    0    0    0  0.00000000000E+00  0.00000000000E+00  0.99999998245E-14  0.12500000000E+03  0.12500000000E+03 0.  0.
          5    1    1    0  501    0  0.58044213543E+02  0.18491516237E+02 -0.13156485148E+02  0.62500000000E+02  0.47000000000E+01 0.  1.
         -5    1    1    0    0  501 -0.58044213543E+02 -0.18491516237E+02  0.13156485148E+02  0.62500000000E+02  0.47000000000E+01 0.  1.
</event>
<event>
 3    0  0.4580101E-005  0.9118800E+02  0.7546771E-02  0.1235069E+00
         25   -1    0    0    0    0  0.00000000000E+00  0.00000000000E+00  0.99999998245E-14  0.12500000000E+03  0.12500000000E+03 0.  0.
          5    1    1    0  501    0  0.18097183779E+02 -0.46710125170E+01 -0.59454466454E+02  0.62500000000E+02  0.47000000000E+01 0.  1.
         -5    1    1    0    0  501 -0.18097183779E+02  0.46710125170E+01  0.59454466454E+02  0.62500000000E+02  0.47000000000E+01 0.  1.
</event>
<event>
 3    0  0.4580101E-005  0.9118800E+02  0.7546771E-02  0.1235069E+00
         25   -1    0    0    0    0  0.00000000000E+00  0.00000000000E+00  0.99999998245E-14  0.12500000000E+03  0.12500000000E+03 0.  0.
          5    1    1    0  501    0 -0.35211546279E+01  0.44681725160E+02 -0.43304790807E+02  0.62500000000E+02  0.47000000000E+01 0.  1.
         -5    1    1    0    0  501  0.35211546279E+01 -0.44681725160E+02  0.43304790807E+02  0.62500000000E+02  0.47000000000E+01 0.  1.
</event>
<event>
 3    0  0.4580101E-005  0.9118800E+02  0.7546771E-02  0.1235069E+00
         25   -1    0    0    0    0  0.00000000000E+00  0.00000000000E+00  0.99999998245E-14  0.12500000000E+03  0.12500000000E+03 0.  0.
          5    1    1    0  501    0 -0.50092246864E+02  0.18749822578E+02  0.31990169700E+02  0.62500000000E+02  0.47000000000E+01 0.  1.
         -5    1    1    0    0  501  0.50092246864E+02 -0.18749822578E+02 -0.31990169700E+02  0.62500000000E+02  0.47000000000E+01 0.  1.
</event>
<event>
 3    0  0.4580101E-005  0.9118800E+02  0.7546771E-02  0.1235069E+00
         25   -1    0    0    0    0  0.00000000000E+00  0.00000000000E+00  0.99999998245E-14  0.12500000000E+03  0.12500000000E+03 0.  0.
          5    1    1    0  501    0 -0.44868649718E+01 -0.24986898661E+02  0.56918212709E+02  0.62500000000E+02  0.47000000000E+01 0. -1.
         -5    1    1    0    0  501  0.44868649718E+01  0.24986898661E+02 -0.56918212709E+02  0.62500000000E+02  0.47000000000E+01 0. -1.
</event>
<event>
 3    0  0.4580101E-005  0.9118800E+02  0.7546771E-02  0.1235069E+00
         25   -1    0    0    0    0  0.00000000000E+00  0.00000000000E+00  0.99999998245E-14  0.12500000000E+03  0.12500000000E+03 0.  0.
          5    1    1    0  501    0  0.31220070490E+01 -0.56681271351E+02  0.25722491132E+02  0.62500000000E+02  0.47000000000E+01 0.  1.
         -5    1    1    0    0  501 -0.31220070490E+01  0.56681271351E+02 -0.25722491132E+02  0.62500000000E+02  0.47000000000E+01 0.  1.
</event>
<event>
 3    0  0.4580101E-005  0.9118800E+02  0.7546771E-02  0.1235069E+00
         25   -1    0    0    0    0  0.00000000000E+00  0.00000000000E+00  0.99999998245E-14  0.12500000000E+03  0.12500000000E+03 0.  0.
          5    1    1    0  501    0 -0.33453239899E+02  0.16994070755E+02  0.49761855868E+02  0.62500000000E+02  0.47000000000E+01 0. -1.
         -5    1    1    0    0  501  0.33453239899E+02 -0.16994070755E+02 -0.49761855868E+02  0.62500000000E+02  0.47000000000E+01 0. -1.
</event>
<event>
 3    0  0.4580101E-005  0.9118800E+02  0.7546771E-02  0.1235069E+00
         25   -1    0    0    0    0  0.00000000000E+00  0.00000000000E+00  0.99999998245E-14  0.12500000000E+03  0.12500000000E+03 0.  0.
          5    1    1    0  501    0  0.55935048768E+02 -0.23119905213E+02  0.14862715171E+02  0.62500000000E+02  0.47000000000E+01 0. -1.
         -5    1    1    0    0  501 -0.55935048768E+02  0.23119905213E+02 -0.14862715171E+02  0.62500000000E+02  0.47000000000E+01 0. -1.
</event>
<event>
 3    0  0.4580101E-005  0.9118800E+02  0.7546771E-02  0.1235069E+00
         25   -1    0    0    0    0  0.00000000000E+00  0.00000000000E+00  0.99999998245E-14  0.12500000000E+03  0.12500000000E+03 0.  0.
          5    1    1    0  501    0 -0.23617316609E+01  0.18583726794E+02  0.59440956604E+02  0.62500000000E+02  0.47000000000E+01 0. -1.
         -5    1    1    0    0  501  0.23617316609E+01 -0.18583726794E+02 -0.59440956604E+02  0.62500000000E+02  0.47000000000E+01 0. -1.
</event>
<event>
 3    0  0.4580101E-005  0.9118800E+02  0.7546771E-02  0.1235069E+00
         25   -1    0    0    0    0  0.00000000000E+00  0.00000000000E+00  0.99999998245E-14  0.12500000000E+03  0.12500000000E+03 0.  0.
          5    1    1    0  501    0  0.27207406221E+02 -0.16938436812E+02  0.53450971975E+02  0.62500000000E+02  0.47000000000E+01 0.  1.
         -5    1    1    0    0  501 -0.27207406221E+02  0.16938436812E+02 -0.53450971975E+02  0.62500000000E+02  0.47000000000E+01 0.  1.
</event>
<event>
 3    0  0.4580101E-005  0.9118800E+02  0.7546771E-02  0.1235069E+00
         25   -1    0    0    0    0  0.00000000000E+00  0.00000000000E+00  0.99999998245E-14  0.12500000000E+03  0.12500000000E+03 0.  0.
          5    1    1    0  501    0 -0.10420106255E+02 -0.17026871463E+02 -0.59039537886E+02  0.62500000000E+02  0.47000000000E+01 0.  1.
         -5    1    1    0    0  501  0.10420106255E+02  0.17026871463E+02  0.59039537886E+02  0.62500000000E+02  0.47000000000E+01 0.  1.
</event>
<event>
 3    0  0.4580101E-005  0.9118800E+02  0.7546771E-02  0.1235069E+00
         25   -1    0    0    0    0  0.00000000000E+00  0.00000000000E+00  0.99999998245E-14  0.12500000000E+03  0.12500000000E+03 0.  0.
          5    1    1    0  501    0  0.61101773056E+02 -0.75650775952E+01 -0.96696913315E+01  0.62500000000E+02  0.47000000000E+01 0. -1.
         -5    1    1    0    0  501 -0.61101773056E+02  0.75650775952E+01  0.96696913315E+01  0.62500000000E+02  0.47000000000E+01 0. -1.
</event>
<event>
 3    0  0.4580101E-005  0.9118800E+02  0.7546771E-02  0.1235069E+00
         25   -1    0    0    0    0  0.00000000000E+00  0.00000000000E+00  0.99999998245E-14  0.12500000000E+03  0.12500000000E+03 0.  0.
          5    1    1    0  501    0 -0.10844731337E+02  0.31012679484E+02 -0.52960036947E+02  0.62500000000E+02  0.47000000000E+01 0. -1.
         -5    1    1    0    0  501  0.10844731337E+02 -0.31012679484E+02  0.52960036947E+02  0.62500000000E+02  0.47000000000E+01 0. -1.
</event>
<event>
 3    0  0.4580101E-005  0.9118800E+02  0.7546771E-02  0.1235069E+00
         25   -1    0    0    0    0  0.00000000000E+00  0.00000000000E+00  0.99999998245E-14  0.12500000000E+03  0.12500000000E+03 0.  0.
          5    1    1    0  501    0 -0.29088822527E+02  0.12414539552E+02 -0.53701765443E+02  0.62500000000E+02  0.47000000000E+01 0. -1.
         -5    1    1    0    0  501  0.29088822527E+02 -0.12414539552E+02  0.53701765443E+02  0.62500000000E+02  0.47000000000E+01 0. -1.
</event>
<event>
 3    0  0.4580101E-005  0.9118800E+02  0.7546771E-02  0.1235069E+00
         25   -1    0    0    0    0  0.00000000000E+00  0.00000000000E+00  0.99999998245E-14  0.12500000000E+03  0.12500000000E+03 0.  0.
          5    1    1    0  501    0  0.24176487044E+02  0.49004674020E+02 -0.29969974948E+02  0.62500000000E+02  0.47000000000E+01 0.  1.
         -5    1    1    0    0  501 -0.24176487044E+02 -0.49004674020E+02  0.29969974948E+02  0.62500000000E+02  0.47000000000E+01 0.  1.
</event>
<event>
 3    0  0.4580101E-005  0.9118800E+02  0.7546771E-02  0.1235069E+00
         25   -1    0    0    0    0  0.00000000000E+00  0.00000000000E+00  0.99999998245E-14  0.12500000000E+03  0.12500000000E+03 0.  0.
          5    1    1    0  501    0  0.39842420985E+02  0.25144107656E+02 -0.40798472278E+02  0.62500000000E+02  0.47000000000E+01 0.  1.
         -5    1    1    0    0  501 -0.39842420985E+02 -0.25144107656E+02  0.40798472278E+02  0.62500000000E+02  0.47000000000E+01 0.  1.
</event>
<event>
 3    0  0.4580101E-005  0.9118800E+02  0.7546771E-02  0.1235069E+00
         25   -1    0    0    0    0  0.00000000000E+00  0.00000000000E+00  0.99999998245E-14  0.12500000000E+03  0.12500000000E+03 0.  0.
          5    1    1    0  501    0 -0.30161435949E+02 -0.49904956895E+02 -0.21998705845E+02  0.62500000000E+02  0.47000000000E+01 0. -1.
         -5    1    1    0    0  501  0.30161435949E+02  0.49904956895E+02  0.21998705845E+02  0.62500000000E+02  0.47000000000E+01 0. -1.
</event>
<event>
 3    0  0.4580101E-005  0.9118800E+02  0.7546771E-02  0.1235069E+00
         25   -1    0    0    0    0  0.00000000000E+00  0.00000000000E+00  0.99999998245E-14  0.12500000000E+03  0.12500000000E+03 0.  0.
          5    1    1    0  501    0 -0.47554109877E+02  0.40171696191E+02 -0.30002431442E+01  0.62500000000E+02  0.47000000000E+01 0.  1.
         -5    1    1    0    0  501  0.47554109877E+02 -0.40171696191E+02  0.30002431442E+01  0.62500000000E+02  0.47000000000E+01 0.  1.
</event>
<event>
 3    0  0.4580101E-005  0.9118800E+02  0.7546771E-02  0.1235069E+00
         25   -1    0    0    0    0  0.00000000000E+00  0.00000000000E+00  0.99999998245E-14  0.12500000000E+03  0.12500000000E+03 0.  0.
          5    1    1    0  501    0 -0.21405830856E+02 -0.43389027765E+02 -0.39285400278E+02  0.62500000000E+02  0.47000000000E+01 0. -1.
         -5    1    1    0    0  501  0.21405830856E+02  0.43389027765E+02  0.39285400278E+02  0.62500000000E+02  0.47000000000E+01 0. -1.
</event>
<event>
 3    0  0.4580101E-005  0.9118800E+02  0.7546771E-02  0.1235069E+00
         25   -1    0    0    0    0  0.00000000000E+00  0.00000000000E+00  0.99999998245E-14  0.12500000000E+03  0.12500000000E+03 0.  0.
          5    1    1    0  501    0  0.56541068532E+02  0.26143957453E+02 -0.19393447129E+01  0.62500000000E+02  0.47000000000E+01 0.  1.
         -5    1    1    0    0  501 -0.56541068532E+02 -0.26143957453E+02  0.19393447129E+01  0.62500000000E+02  0.47000000000E+01 0.  1.
</event>
<event>
 3    0  0.4580101E-005  0.9118800E+02  0.7546771E-02  0.1235069E+00
         25   -1    0    0    0    0  0.00000000000E+00  0.00000000000E+00  0.99999998245E-14  0.12500000000E+03  0.12500000000E+03 0.  0.
          5    1    1    0  501    0  0.57303221614E+01  0.41232595389E+02 -0.46380992717E+02  0.62500000000E+02  0.47000000000E+01 0.  1.
         -5    1    1    0    0  501 -0.57303221614E+01 -0.41232595389E+02  0.46380992717E+02  0.62500000000E+02  0.47000000000E+01 0.  1.
</event>
<event>
 3    0  0.4580101E-005  0.9118800E+02  0.7546771E-02  0.1235069E+00
         25   -1    0    0    0    0  0.00000000000E+00  0.00000000000E+00  0.99999998245E-14  0.12500000000E+03  0.12500000000E+03 0.  0.
          5    1    1    0  501    0 -0.47909656291E+02  0.18804641540E+02 -0.35145558618E+02  0.62500000000E+02  0.47000000000E+01 0.  1.
         -5    1    1    0    0  501  0.47909656291E+02 -0.18804641540E+02  0.35145558618E+02  0.62500000000E+02  0.47000000000E+01 0.  1.
</event>
<event>
 3    0  0.4580101E-005  0.9118800E+02  0.7546771E-02  0.1235069E+00
         25   -1    0    0    0    0  0.00000000000E+00  0.00000000000E+00  0.99999998245E-14  0.12500000000E+03  0.12500000000E+03 0.  0.
          5    1    1    0  501    0 -0.38808488532E+02 -0.46902416851E+02  0.13350075334E+02  0.62500000000E+02  0.47000000000E+01 0. -1.
         -5    1    1    0    0  501  0.38808488532E+02  0.46902416851E+02 -0.13350075334E+02  0.62500000000E+02  0.47000000000E+01 0. -1.
</event>
<event>
 3    0  0.4580101E-005  0.9118800E+02  0.7546771E-02  0.1235069E+00
         25   -1    0    0    0    0  0.00000000000E+00  0.00000000000E+00  0.99999998245E-14  0.12500000000E+03  0.12500000000E+03 0.  0.
          5    1    1    0  501    0  0.49257825679E+02 -0.12074935886E+02 -0.36221851592E+02  0.62500000000E+02  0.47000000000E+01 0. -1.
         -5    1    1    0    0  501 -0.49257825679E+02  0.12074935886E+02  0.36221851592E+02  0.62500000000E+02  0.47000000000E+01 0. -1.
</event>
<event>
 3    0  0.4580101E-005  0.9118800E+02  0.7546771E-02  0.1235069E+00
         25   -1    0    0    0    0  0.00000000000E+00  0.00000000000E+00  0.99999998245E-14  0.12500000000E+03  0.12500000000E+03 0.  0.
          5    1    1    0  501    0 -0.47373827283E+02  0.13764898788E+02  0.38084223110E+02  0.62500000000E+02  0.47000000000E+01 0. -1.
         -5    1    1    0    0  501  0.47373827283E+02 -0.13764898788E+02 -0.38084223110E+02  0.62500000000E+02  0.47000000000E+01 0. -1.
</event>
<event>
 3    0  0.4580101E-005  0.9118800E+02  0.7546771E-02  0.1235069E+00
         25   -1    0    0    0    0  0.00000000000E+00  0.00000000000E+00  0.99999998245E-14  0.12500000000E+03  0.12500000000E+03 0.  0.
          5    1    1    0  501    0 -0.47671415002E+02  0.11925138082E+01 -0.40126974749E+02  0.62500000000E+02  0.47000000000E+01 0. -1.
         -5    1    1    0    0  501  0.47671415002E+02 -0.11925138082E+01  0.40126974749E+02  0.62500000000E+02  0.47000000000E+01 0. -1.
</event>
<event>
 3    0  0.4580101E-005  0.9118800E+02  0.7546771E-02  0.1235069E+00
         25   -1    0    0    0    0  0.00000000000E+00  0.00000000000E+00  0.99999998245E-14  0.12500000000E+03  0.12500000000E+03 0.  0.
          5    1    1    0  501    0  0.89588404069E+01 -0.61586121822E+02  0.33239701322E+01  0.62500000000E+02  0.47000000000E+01 0.  1.
         -5    1    1    0    0  501 -0.89588404069E+01  0.61586121822E+02 -0.33239701322E+01  0.62500000000E+02  0.47000000000E+01 0.  1.
</event>
<event>
 3    0  0.4580101E-005  0.9118800E+02  0.7546771E-02  0.1235069E+00
         25   -1    0    0    0    0  0.00000000000E+00  0.00000000000E+00  0.99999998245E-14  0.12500000000E+03  0.12500000000E+03 0.  0.
          5    1    1    0  501    0  0.19910159970E+02 -0.55765081767E+02 -0.19442252582E+02  0.62500000000E+02  0.47000000000E+01 0.  1.
         -5    1    1    0    0  501 -0.19910159970E+02  0.55765081767E+02  0.19442252582E+02  0.62500000000E+02  0.47000000000E+01 0.  1.
</event>
<event>
 3    0  0.4580101E-005  0.9118800E+02  0.7546771E-02  0.1235069E+00
         25   -1    0    0    0    0  0.00000000000E+00  0.00000000000E+00  0.99999998245E-14  0.12500000000E+03  0.12500000000E+03 0.  0.
          5    1    1    0  501    0  0.19256319329E+02 -0.18019553442E+02  0.56468131363E+02  0.62500000000E+02  0.47000000000E+01 0.  1.
         -5    1    1    0    0  501 -0.19256319329E+02  0.18019553442E+02 -0.56468131363E+02  0.62500000000E+02  0.47000000000E+01 0.  1.
</event>
<event>
 3    0  0.4580101E-005  0.9118800E+02  0.7546771E-02  0.1235069E+00
         25   -1    0    0    0    0  0.00000000000E+00  0.00000000000E+00  0.99999998245E-14  0.12500000000E+03  0.12500000000E+03 0.  0.
          5    1    1    0  501    0 -0.63822885284E+01  0.61995361975E+02  0.38558147725E-01  0.62500000000E+02  0.47000000000E+01 0.  1.
         -5    1    1    0    0  501  0.63822885284E+01 -0.61995361975E+02 -0.38558147725E-01  0.62500000000E+02  0.47000000000E+01 0.  1.
</event>
<event>
 3    0  0.4580101E-005  0.9118800E+02  0.7546771E-02  0.1235069E+00
         25   -1    0    0    0    0  0.00000000000E+00  0.00000000000E+00  0.99999998245E-14  0.12500000000E+03  0.12500000000E+03 0.  0.
          5    1    1    0  501    0 -0.25165221792E+02  0.56949652724E+02 -0.27583811732E+01  0.62500000000E+02  0.47000000000E+01 0.  1.
         -5    1    1    0    0  501  0.25165221792E+02 -0.56949652724E+02  0.27583811732E+01  0.62500000000E+02  0.47000000000E+01 0.  1.
</event>
<event>
 3    0  0.4580101E-005  0.9118800E+02  0.7546771E-02  0.1235069E+00
         25   -1    0    0    0    0  0.00000000000E+00  0.00000000000E+00  0.99999998245E-14  0.12500000000E+03  0.12500000000E+03 0.  0.
          5    1    1    0  501    0 -0.35573034736E+02 -0.47108140289E+02  0.19988554681E+02  0.62500000000E+02  0.47000000000E+01 0.  1.
         -5    1    1    0    0  501  0.35573034736E+02  0.47108140289E+02 -0.19988554681E+02  0.62500000000E+02  0.47000000000E+01 0.  1.
</event>
<event>
 3    0  0.4580101E-005  0.9118800E+02  0.7546771E-02  0.1235069E+00
         25   -1    0    0    0    0  0.00000000000E+00  0.00000000000E+00  0.99999998245E-14  0.12500000000E+03  0.12500000000E+03 0.  0.
          5    1    1    0  501    0 -0.33034174519E+02  0.46273120841E+02 -0.25528446906E+02  0.62500000000E+02  0.47000000000E+01 0. -1.
         -5    1    1    0    0  501  0.33034174519E+02 -0.46273120841E+02  0.25528446906E+02  0.62500000000E+02  0.47000000000E+01 0. -1.
</event>
<event>
 3    0  0.4580101E-005  0.9118800E+02  0.7546771E-02  0.1235069E+00
         25   -1    0    0    0    0  0.00000000000E+00  0.00000000000E+00  0.99999998245E-14  0.12500000000E+03  0.12500000000E+03 0.  0.
          5    1    1    0  501    0  0.55505146334E+02  0.22544565083E+02  0.17177931064E+02  0.62500000000E+02  0.47000000000E+01 0. -1.
         -5    1    1    0    0  501 -0.55505146334E+02 -0.22544565083E+02 -0.17177931064E+02  0.62500000000E+02  0.47000000000E+01 0. -1.
</event>
<event>
 3    0  0.4580101E-005  0.9118800E+02  0.7546771E-02  0.1235069E+00
         25   -1    0    0    0    0  0.00000000000E+00  0.00000000000E+00  0.99999998245E-14  0.12500000000E+03  0.12500000000E+03 0.  0.
          5    1    1    0  501    0  0.12033448723E+02 -0.49698448382E+02 -0.35628925611E+02  0.62500000000E+02  0.47000000000E+01 0.  1.
         -5    1    1    0    0  501 -0.12033448723E+02  0.49698448382E+02  0.35628925611E+02  0.62500000000E+02  0.47000000000E+01 0.  1.
</event>
<event>
 3    0  0.4580101E-005  0.9118800E+02  0.7546771E-02  0.1235069E+00
         25   -1    0    0    0    0  0.00000000000E+00  0.00000000000E+00  0.99999998245E-14  0.12500000000E+03  0.12500000000E+03 0.  0.
          5    1    1    0  501    0 -0.50151839449E+02  0.87295432248E+01 -0.35954806006E+02  0.62500000000E+02  0.47000000000E+01 0. -1.
         -5    1    1    0    0  501  0.50151839449E+02 -0.87295432248E+01  0.35954806006E+02  0.62500000000E+02  0.47000000000E+01 0. -1.
</event>
<event>
 3    0  0.4580101E-005  0.9118800E+02  0.7546771E-02  0.1235069E+00
         25   -1    0    0    0    0  0.00000000000E+00  0.00000000000E+00  0.99999998245E-14  0.12500000000E+03  0.12500000000E+03 0.  0.
          5    1    1    0  501    0 -0.22623049287E+02 -0.19165362596E+01 -0.58040369828E+02  0.62500000000E+02  0.47000000000E+01 0. -1.
         -5    1    1    0    0  501  0.22623049287E+02  0.19165362596E+01  0.58040369828E+02  0.62500000000E+02  0.47000000000E+01 0. -1.
</event>
<event>
 3    0  0.4580101E-005  0.9118800E+02  0.7546771E-02  0.1235069E+00
         25   -1    0    0    0    0  0.00000000000E+00  0.00000000000E+00  0.99999998245E-14  0.12500000000E+03  0.12500000000E+03 0.  0.
          5    1    1    0  501    0  0.27786956715E+02  0.53640667383E+02 -0.15320699697E+02  0.62500000000E+02  0.47000000000E+01 0. -1.
         -5    1    1    0    0  501 -0.27786956715E+02 -0.53640667383E+02  0.15320699697E+02  0.62500000000E+02  0.47000000000E+01 0. -1.
</event>
<event>
 3    0  0.4580101E-005  0.9118800E+02  0.7546771E-02  0.1235069E+00
         25   -1    0    0    0    0  0.00000000000E+00  0.00000000000E+00  0.99999998245E-14  0.12500000000E+03  0.12500000000E+03 0.  0.
          5    1    1    0  501    0 -0.49967700452E+01  0.29795532566E+02 -0.54510719388E+02  0.62500000000E+02  0.47000000000E+01 0. -1.
         -5    1    1    0    0  501  0.49967700452E+01 -0.29795532566E+02  0.54510719388E+02  0.62500000000E+02  0.47000000000E+01 0. -1.
</event>
<event>
 3    0  0.4580101E-005  0.9118800E+02  0.7546771E-02  0.1235069E+00
         25   -1    0    0    0    0  0.00000000000E+00  0.00000000000E+00  0.99999998245E-14  0.12500000000E+03  0.12500000000E+03 0.  0.
          5    1    1    0  501    0  0.13958003569E+02 -0.60739183209E+02 -0.29284708482E+00  0.62500000000E+02  0.47000000000E+01 0. -1.
         -5    1    1    0    0  501 -0.13958003569E+02  0.60739183209E+02  0.29284708482E+00  0.62500000000E+02  0.47000000000E+01 0. -1.
</event>
<event>
 3    0  0.4580101E-005  0.9118800E+02  0.7546771E-02  0.1235069E+00
         25   -1    0    0    0    0  0.00000000000E+00  0.00000000000E+00  0.99999998245E-14  0.12500000000E+03  0.12500000000E+03 0.  0.
          5    1    1    0  501    0 -0.45436975249E+02  0.22588313600E+02 -0.36185761964E+02  0.62500000000E+02  0.47000000000E+01 0. -1.
         -5    1    1    0    0  501  0.45436975249E+02 -0.22588313600E+02  0.36185761964E+02  0.62500000000E+02  0.47000000000E+01 0. -1.
</event>
<event>
 3    0  0.4580101E-005  0.9118800E+02  0.7546771E-02  0.1235069E+00
         25   -1    0    0    0    0  0.00000000000E+00  0.00000000000E+00  0.99999998245E-14  0.12500000000E+03  0.12500000000E+03 0.  0.
          5    1    1    0  501    0  0.47669661927E+02  0.77389530938E+01  0.39393805817E+02  0.62500000000E+02  0.47000000000E+01 0.  1.
         -5    1    1    0    0  501 -0.47669661927E+02 -0.77389530938E+01 -0.39393805817E+02  0.62500000000E+02  0.47000000000E+01 0.  1.
</event>
<event>
 3    0  0.4580101E-005  0.9118800E+02  0.7546771E-02  0.1235069E+00
         25   -1    0    0    0    0  0.00000000000E+00  0.00000000000E+00  0.99999998245E-14  0.12500000000E+03  0.12500000000E+03 0.  0.
          5    1    1    0  501    0 -0.25147614410E+02  0.56937922131E+02 -0.31353648783E+01  0.62500000000E+02  0.47000000000E+01 0.  1.
         -5    1    1    0    0  501  0.25147614410E+02 -0.56937922131E+02  0.31353648783E+01  0.62500000000E+02  0.47000000000E+01 0.  1.
</event>
<event>
 3    0  0.4580101E-005  0.9118800E+02  0.7546771E-02  0.1235069E+00
         25   -1    0    0    0    0  0.00000000000E+00  0.00000000000E+00  0.99999998245E-14  0.12500000000E+03  0.12500000000E+03 0.  0.
          5    1    1    0  501    0  0.58240496697E+02 -0.22144675796E+02  0.13482872226E+01  0.62500000000E+02  0.47000000000E+01 0. -1.
         -5    1    1    0    0  501 -0.58240496697E+02  0.22144675796E+02 -0.13482872226E+01  0.62500000000E+02  0.47000000000E+01 0. -1.
</event>
<event>
 3    0  0.4580101E-005  0.9118800E+02  0.7546771E-02  0.1235069E+00
         25   -1    0    0    0    0  0.00000000000E+00  0.00000000000E+00  0.99999998245E-14  0.12500000000E+03  0.12500000000E+03 0.  0.
          5    1    1    0  501    0  0.30213256052E+02 -0.43854185448E+02 -0.32374829380E+02  0.62500000000E+02  0.47000000000E+01 0.  1.
         -5    1    1    0    0  501 -0.30213256052E+02  0.43854185448E+02  0.32374829380E+02  0.62500000000E+02  0.47000000000E+01 0.  1.
</event>
<event>
 3    0  0.4580101E-005  0.9118800E+02  0.7546771E-02  0.1235069E+00
         25   -1    0    0    0    0  0.00000000000E+00  0.00000000000E+00  0.99999998245E-14  0.12500000000E+03  0.12500000000E+03 0.  0.
          5    1    1    0  501    0 -0.46085897293E+02  0.41150581807E+02  0.81780002201E+01  0.62500000000E+02  0.47000000000E+01 0.  1.
         -5    1    1    0    0  501  0.46085897293E+02 -0.41150581807E+02 -0.81780002201E+01  0.62500000000E+02  0.47000000000E+01 0.  1.
</event>
<event>
 3    0  0.4580101E-005  0.9118800E+02  0.7546771E-02  0.1235069E+00
         25   -1    0    0    0    0  0.00000000000E+00  0.00000000000E+00  0.99999998245E-14  0.12500000000E+03  0.12500000000E+03 0.  0.
          5    1    1    0  501    0 -0.17473758085E+02  0.56026746930E+02 -0.20972157897E+02  0.62500000000E+02  0.47000000000E+01 0.  1.
         -5    1    1    0    0  501  0.17473758085E+02 -0.56026746930E+02  0.20972157897E+02  0.62500000000E+02  0.47000000000E+01 0.  1.
</event>
<event>
 3    0  0.4580101E-005  0.9118800E+02  0.7546771E-02  0.1235069E+00
         25   -1    0    0    0    0  0.00000000000E+00  0.00000000000E+00  0.99999998245E-14  0.12500000000E+03  0.12500000000E+03 0.  0.
          5    1    1    0  501    0  0.36762701655E+02  0.42248042940E+02  0.27345321990E+02  0.62500000000E+02  0.47000000000E+01 0. -1.
         -5    1    1    0    0  501 -0.36762701655E+02 -0.42248042940E+02 -0.27345321990E+02  0.62500000000E+02  0.47000000000E+01 0. -1.
</event>
<event>
 3    0  0.4580101E-005  0.9118800E+02  0.7546771E-02  0.1235069E+00
         25   -1    0    0    0    0  0.00000000000E+00  0.00000000000E+00  0.99999998245E-14  0.12500000000E+03  0.12500000000E+03 0.  0.
          5    1    1    0  501    0 -0.28626635236E+02 -0.54666150879E+02  0.87342832074E+01  0.62500000000E+02  0.47000000000E+01 0.  1.
         -5    1    1    0    0  501  0.28626635236E+02  0.54666150879E+02 -0.87342832074E+01  0.62500000000E+02  0.47000000000E+01 0.  1.
</event>
<event>
 3    0  0.4580101E-005  0.9118800E+02  0.7546771E-02  0.1235069E+00
         25   -1    0    0    0    0  0.00000000000E+00  0.00000000000E+00  0.99999998245E-14  0.12500000000E+03  0.12500000000E+03 0.  0.
          5    1    1    0  501    0 -0.12666804898E+02  0.33195037262E+01 -0.60931871370E+02  0.62500000000E+02  0.47000000000E+01 0.  1.
         -5    1    1    0    0  501  0.12666804898E+02 -0.33195037262E+01  0.60931871370E+02  0.62500000000E+02  0.47000000000E+01 0.  1.
</event>
<event>
 3    0  0.4580101E-005  0.9118800E+02  0.7546771E-02  0.1235069E+00
         25   -1    0    0    0    0  0.00000000000E+00  0.00000000000E+00  0.99999998245E-14  0.12500000000E+03  0.12500000000E+03 0.  0.
          5    1    1    0  501    0 -0.47577252036E+02  0.20170106950E+01 -0.40205680651E+02  0.62500000000E+02  0.47000000000E+01 0.  1.
         -5    1    1    0    0  501  0.47577252036E+02 -0.20170106950E+01  0.40205680651E+02  0.62500000000E+02  0.47000000000E+01 0.  1.
</event>
<event>
 3    0  0.4580101E-005  0.9118800E+02  0.7546771E-02  0.1235069E+00
         25   -1    0    0    0    0  0.00000000000E+00  0.00000000000E+00  0.99999998245E-14  0.12500000000E+03  0.12500000000E+03 0.  0.
          5    1    1    0  501    0 -0.34227642086E+02  0.51725300863E+02 -0.60927635672E+01  0.62500000000E+02  0.47000000000E+01 0.  1.
         -5    1    1    0    0  501  0.34227642086E+02 -0.51725300863E+02  0.60927635672E+01  0.62500000000E+02  0.47000000000E+01 0.  1.
</event>
<event>
 3    0  0.4580101E-005  0.9118800E+02  0.7546771E-02  0.1235069E+00
         25   -1    0    0    0    0  0.00000000000E+00  0.00000000000E+00  0.99999998245E-14  0.12500000000E+03  0.12500000000E+03 0.  0.
          5    1    1    0  501    0  0.13817840064E+02  0.60540165797E+02 -0.53024165469E+01  0.62500000000E+02  0.47000000000E+01 0. -1.
         -5    1    1    0    0  501 -0.13817840064E+02 -0.60540165797E+02  0.53024165469E+01  0.62500000000E+02  0.47000000000E+01 0. -1.
</event>
<event>
 3    0  0.4580101E-005  0.9118800E+02  0.7546771E-02  0.1235069E+00
         25   -1    0    0    0    0  0.00000000000E+00  0.00000000000E+00  0.99999998245E-14  0.12500000000E+03  0.12500000000E+03 0.  0.
          5    1    1    0  501    0  0.52976930041E+01  0.38574889977E+02 -0.48662843239E+02  0.62500000000E+02  0.47000000000E+01 0. -1.
         -5    1    1    0    0  501 -0.52976930041E+01 -0.38574889977E+02  0.48662843239E+02  0.62500000000E+02  0.47000000000E+01 0. -1.
</event>
<event>
 3    0  0.4580101E-005  0.9118800E+02  0.7546771E-02  0.1235069E+00
         25   -1    0    0    0    0  0.00000000000E+00  0.00000000000E+00  0.99999998245E-14  0.12500000000E+03  0.12500000000E+03 0.  0.
          5    1    1    0  501    0 -0.21291591613E+02  0.32629382447E+02  0.48643103599E+02  0.62500000000E+02  0.47000000000E+01 0.  1.
         -5    1    1    0    0  501  0.21291591613E+02 -0.32629382447E+02 -0.48643103599E+02  0.62500000000E+02  0.47000000000E+01 0.  1.
</event>
<event>
 3    0  0.4580101E-005  0.9118800E+02  0.7546771E-02  0.1235069E+00
         25   -1    0    0    0    0  0.00000000000E+00  0.00000000000E+00  0.99999998245E-14  0.12500000000E+03  0.12500000000E+03 0.  0.
          5    1    1    0  501    0 -0.44566258926E+02 -0.12030710324E+02 -0.41872073921E+02  0.62500000000E+02  0.47000000000E+01 0.  1.
         -5    1    1    0    0  501  0.44566258926E+02  0.12030710324E+02  0.41872073921E+02  0.62500000000E+02  0.47000000000E+01 0.  1.
</event>
<event>
 3    0  0.4580101E-005  0.9118800E+02  0.7546771E-02  0.1235069E+00
         25   -1    0    0    0    0  0.00000000000E+00  0.00000000000E+00  0.99999998245E-14  0.12500000000E+03  0.12500000000E+03 0.  0.
          5    1    1    0  501    0 -0.27019660007E+02 -0.45377337994E+02  0.33090711230E+02  0.62500000000E+02  0.47000000000E+01 0. -1.
         -5    1    1    0    0  501  0.27019660007E+02  0.45377337994E+02 -0.33090711230E+02  0.62500000000E+02  0.47000000000E+01 0. -1.
</event>
<event>
 3    0  0.4580101E-005  0.9118800E+02  0.7546771E-02  0.1235069E+00
         25   -1    0    0    0    0  0.00000000000E+00  0.00000000000E+00  0.99999998245E-14  0.12500000000E+03  0.12500000000E+03 0.  0.
          5    1    1    0  501    0  0.51955351021E+02  0.11541024225E+02  0.32428479153E+02  0.62500000000E+02  0.47000000000E+01 0. -1.
         -5    1    1    0    0  501 -0.51955351021E+02 -0.11541024225E+02 -0.32428479153E+02  0.62500000000E+02  0.47000000000E+01 0. -1.
</event>
<event>
 3    0  0.4580101E-005  0.9118800E+02  0.7546771E-02  0.1235069E+00
         25   -1    0    0    0    0  0.00000000000E+00  0.00000000000E+00  0.99999998245E-14  0.12500000000E+03  0.12500000000E+03 0.  0.
          5    1    1    0  501    0 -0.56787636674E+02  0.20342887497E+02  0.15668160365E+02  0.62500000000E+02  0.47000000000E+01 0.  1.
         -5    1    1    0    0  501  0.56787636674E+02 -0.20342887497E+02 -0.15668160365E+02  0.62500000000E+02  0.47000000000E+01 0.  1.
</event>
<event>
 3    0  0.4580101E-005  0.9118800E+02  0.7546771E-02  0.1235069E+00
         25   -1    0    0    0    0  0.00000000000E+00  0.00000000000E+00  0.99999998245E-14  0.12500000000E+03  0.12500000000E+03 0.  0.
          5    1    1    0  501    0  0.57616930683E+02  0.22352569699E+02 -0.80505854751E+01  0.62500000000E+02  0.47000000000E+01 0. -1.
         -5    1    1    0    0  501 -0.57616930683E+02 -0.22352569699E+02  0.80505854751E+01  0.62500000000E+02  0.47000000000E+01 0. -1.
</event>
<event>
 3    0  0.4580101E-005  0.9118800E+02  0.7546771E-02  0.1235069E+00
         25   -1    0    0    0    0  0.00000000000E+00  0.00000000000E+00  0.99999998245E-14  0.12500000000E+03  0.12500000000E+03 0.  0.
          5    1    1    0  501    0  0.35086490784E+02  0.51122065802E+02 -0.62954390311E+01  0.62500000000E+02  0.47000000000E+01 0. -1.
         -5    1    1    0    0  501 -0.35086490784E+02 -0.51122065802E+02  0.62954390311E+01  0.62500000000E+02  0.47000000000E+01 0. -1.
</event>
<event>
 3    0  0.4580101E-005  0.9118800E+02  0.7546771E-02  0.1235069E+00
         25   -1    0    0    0    0  0.00000000000E+00  0.00000000000E+00  0.99999998245E-14  0.12500000000E+03  0.12500000000E+03 0.  0.
          5    1    1    0  501    0 -0.16421546563E+02  0.32562008076E+02  0.50539177264E+02  0.62500000000E+02  0.47000000000E+01 0.  1.
         -5    1    1    0    0  501  0.16421546563E+02 -0.32562008076E+02 -0.50539177264E+02  0.62500000000E+02  0.47000000000E+01 0.  1.
</event>
<event>
 3    0  0.4580101E-005  0.9118800E+02  0.7546771E-02  0.1235069E+00
         25   -1    0    0    0    0  0.00000000000E+00  0.00000000000E+00  0.99999998245E-14  0.12500000000E+03  0.12500000000E+03 0.  0.
          5    1    1    0  501    0 -0.57326732385E+02 -0.14011586902E+02 -0.20036995446E+02  0.62500000000E+02  0.47000000000E+01 0.  1.
         -5    1    1    0    0  501  0.57326732385E+02  0.14011586902E+02  0.20036995446E+02  0.62500000000E+02  0.47000000000E+01 0.  1.
</event>
<event>
 3    0  0.4580101E-005  0.9118800E+02  0.7546771E-02  0.1235069E+00
         25   -1    0    0    0    0  0.00000000000E+00  0.00000000000E+00  0.99999998245E-14  0.12500000000E+03  0.12500000000E+03 0.  0.
          5    1    1    0  501    0 -0.61426812744E+02 -0.10214582202E+02  0.25630034172E+01  0.62500000000E+02  0.47000000000E+01 0. -1.
         -5    1    1    0    0  501  0.61426812744E+02  0.10214582202E+02 -0.25630034172E+01  0.62500000000E+02  0.47000000000E+01 0. -1.
</event>
<event>
 3    0  0.4580101E-005  0.9118800E+02  0.7546771E-02  0.1235069E+00
         25   -1    0    0    0    0  0.00000000000E+00  0.00000000000E+00  0.99999998245E-14  0.12500000000E+03  0.12500000000E+03 0.  0.
          5    1    1    0  501    0  0.30405422883E+02  0.19309769641E+02 -0.50860623824E+02  0.62500000000E+02  0.47000000000E+01 0.  1.
         -5    1    1    0    0  501 -0.30405422883E+02 -0.19309769641E+02  0.50860623824E+02  0.62500000000E+02  0.47000000000E+01 0.  1.
</event>
<event>
 3    0  0.4580101E-005  0.9118800E+02  0.7546771E-02  0.1235069E+00
         25   -1    0    0    0    0  0.00000000000E+00  0.00000000000E+00  0.99999998245E-14  0.12500000000E+03  0.12500000000E+03 0.  0.
          5    1    1    0  501    0 -0.60244673925E+02 -0.27906742692E+01 -0.15714687424E+02  0.62500000000E+02  0.47000000000E+01 0.  1.
         -5    1    1    0    0  501  0.60244673925E+02  0.27906742692E+01  0.15714687424E+02  0.62500000000E+02  0.47000000000E+01 0.  1.
</event>
<event>
 3    0  0.4580101E-005  0.9118800E+02  0.7546771E-02  0.1235069E+00
         25   -1    0    0    0    0  0.00000000000E+00  0.00000000000E+00  0.99999998245E-14  0.12500000000E+03  0.12500000000E+03 0.  0.
          5    1    1    0  501    0 -0.49936751152E+02 -0.37251935309E+02 -0.16655930171E+01  0.62500000000E+02  0.47000000000E+01 0.  1.
         -5    1    1    0    0  501  0.49936751152E+02  0.37251935309E+02  0.16655930171E+01  0.62500000000E+02  0.47000000000E+01 0.  1.
</event>
<event>
 3    0  0.4580101E-005  0.9118800E+02  0.7546771E-02  0.1235069E+00
         25   -1    0    0    0    0  0.00000000000E+00  0.00000000000E+00  0.99999998245E-14  0.12500000000E+03  0.12500000000E+03 0.  0.
          5    1    1    0  501    0  0.17894664351E+02 -0.26879250637E+02  0.53305223693E+02  0.62500000000E+02  0.47000000000E+01 0. -1.
         -5    1    1    0    0  501 -0.17894664351E+02  0.26879250637E+02 -0.53305223693E+02  0.62500000000E+02  0.47000000000E+01 0. -1.
</event>
<event>
 3    0  0.4580101E-005  0.9118800E+02  0.7546771E-02  0.1235069E+00
         25   -1    0    0    0    0  0.00000000000E+00  0.00000000000E+00  0.99999998245E-14  0.12500000000E+03  0.12500000000E+03 0.  0.
          5    1    1    0  501    0  0.57261271671E+02 -0.22433242787E+02  0.10102296012E+02  0.62500000000E+02  0.47000000000E+01 0. -1.
         -5    1    1    0    0  501 -0.57261271671E+02  0.22433242787E+02 -0.10102296012E+02  0.62500000000E+02  0.47000000000E+01 0. -1.
</event>
<event>
 3    0  0.4580101E-005  0.9118800E+02  0.7546771E-02  0.1235069E+00
         25   -1    0    0    0    0  0.00000000000E+00  0.00000000000E+00  0.99999998245E-14  0.12500000000E+03  0.12500000000E+03 0.  0.
          5    1    1    0  501    0  0.24801098033E+01 -0.46362143897E+02 -0.41575962630E+02  0.62500000000E+02  0.47000000000E+01 0. -1.
         -5    1    1    0    0  501 -0.24801098033E+01  0.46362143897E+02  0.41575962630E+02  0.62500000000E+02  0.47000000000E+01 0. -1.
</event>
<event>
 3    0  0.4580101E-005  0.9118800E+02  0.7546771E-02  0.1235069E+00
         25   -1    0    0    0    0  0.00000000000E+00  0.00000000000E+00  0.99999998245E-14  0.12500000000E+03  0.12500000000E+03 0.  0.
          5    1    1    0  501    0 -0.19580861631E+01  0.54512184788E+02  0.30145440920E+02  0.62500000000E+02  0.47000000000E+01 0.  1.
         -5    1    1    0    0  501  0.19580861631E+01 -0.54512184788E+02 -0.30145440920E+02  0.62500000000E+02  0.47000000000E+01 0.  1.
</event>
<event>
 3    0  0.4580101E-005  0.9118800E+02  0.7546771E-02  0.1235069E+00
         25   -1    0    0    0    0  0.00000000000E+00  0.00000000000E+00  0.99999998245E-14  0.12500000000E+03  0.12500000000E+03 0.  0.
          5    1    1    0  501    0 -0.40119104897E+02 -0.44071519131E+02  0.18229608437E+02  0.62500000000E+02  0.47000000000E+01 0. -1.
         -5    1    1    0    0  501  0.40119104897E+02  0.44071519131E+02 -0.18229608437E+02  0.62500000000E+02  0.47000000000E+01 0. -1.
</event>
<event>
 3    0  0.4580101E-005  0.9118800E+02  0.7546771E-02  0.1235069E+00
         25   -1    0    0    0    0  0.00000000000E+00  0.00000000000E+00  0.99999998245E-14  0.12500000000E+03  0.12500000000E+03 0.  0.
          5    1    1    0  501    0 -0.39017976981E+02  0.25932584966E+02 -0.41100590133E+02  0.62500000000E+02  0.47000000000E+01 0. -1.
         -5    1    1    0    0  501  0.39017976981E+02 -0.25932584966E+02  0.41100590133E+02  0.62500000000E+02  0.47000000000E+01 0. -1.
</event>
<event>
 3    0  0.4580101E-005  0.9118800E+02  0.7546771E-02  0.1235069E+00
         25   -1    0    0    0    0  0.00000000000E+00  0.00000000000E+00  0.99999998245E-14  0.12500000000E+03  0.12500000000E+03 0.  0.
          5    1    1    0  501    0 -0.38654413008E+02  0.13754747359E+02  0.46912719811E+02  0.62500000000E+02  0.47000000000E+01 0. -1.
         -5    1    1    0    0  501  0.38654413008E+02 -0.13754747359E+02 -0.46912719811E+02  0.62500000000E+02  0.47000000000E+01 0. -1.
</event>
<event>
 3    0  0.4580101E-005  0.9118800E+02  0.7546771E-02  0.1235069E+00
         25   -1    0    0    0    0  0.00000000000E+00  0.00000000000E+00  0.99999998245E-14  0.12500000000E+03  0.12500000000E+03 0.  0.
          5    1    1    0  501    0 -0.56135449782E+02 -0.40398686670E+01 -0.26770333186E+02  0.62500000000E+02  0.47000000000E+01 0.  1.
         -5    1    1    0    0  501  0.56135449782E+02  0.40398686670E+01  0.26770333186E+02  0.62500000000E+02  0.47000000000E+01 0.  1.
</event>
<event>
 3    0  0.4580101E-005  0.9118800E+02  0.7546771E-02  0.1235069E+00
         25   -1    0    0    0    0  0.00000000000E+00  0.00000000000E+00  0.99999998245E-14  0.12500000000E+03  0.12500000000E+03 0.  0.
          5    1    1    0  501    0 -0.59691159761E+02  0.17905752976E+02 -0.71376241660E+00  0.62500000000E+02  0.47000000000E+01 0. -1.
         -5    1    1    0    0  501  0.59691159761E+02 -0.17905752976E+02  0.71376241660E+00  0.62500000000E+02  0.47000000000E+01 0. -1.
</event>
<event>
 3    0  0.4580101E-005  0.9118800E+02  0.7546771E-02  0.1235069E+00
         25   -1    0    0    0    0  0.00000000000E+00  0.00000000000E+00  0.99999998245E-14  0.12500000000E+03  0.12500000000E+03 0.  0.
          5    1    1    0  501    0  0.11715209387E+02 -0.52280295715E+02  0.31838413103E+02  0.62500000000E+02  0.47000000000E+01 0.  1.
         -5    1    1    0    0  501 -0.11715209387E+02  0.52280295715E+02 -0.31838413103E+02  0.62500000000E+02  0.47000000000E+01 0.  1.
</event>
<event>
 3    0  0.4580101E-005  0.9118800E+02  0.7546771E-02  0.1235069E+00
         25   -1    0    0    0    0  0.00000000000E+00  0.00000000000E+00  0.99999998245E-14  0.12500000000E+03  0.12500000000E+03 0.  0.
          5    1    1    0  501    0 -0.18609770370E+02 -0.37681985105E+02  0.46020695837E+02  0.62500000000E+02  0.47000000000E+01 0.  1.
         -5    1    1    0    0  501  0.18609770370E+02  0.37681985105E+02 -0.46020695837E+02  0.62500000000E+02  0.47000000000E+01 0.  1.
</event>
<event>
 3    0  0.4580101E-005  0.9118800E+02  0.7546771E-02  0.1235069E+00
         25   -1    0    0    0    0  0.00000000000E+00  0.00000000000E+00  0.99999998245E-14  0.12500000000E+03  0.12500000000E+03 0.  0.
          5    1    1    0  501    0 -0.48271394712E+02 -0.33360696904E+02 -0.21002294033E+02  0.62500000000E+02  0.47000000000E+01 0.  1.
         -5    1    1    0    0  501  0.48271394712E+02  0.33360696904E+02  0.21002294033E+02  0.62500000000E+02  0.47000000000E+01 0.  1.
</event>
<event>
 3    0  0.4580101E-005  0.9118800E+02  0.7546771E-02  0.1235069E+00
         25   -1    0    0    0    0  0.00000000000E+00  0.00000000000E+00  0.99999998245E-14  0.12500000000E+03  0.12500000000E+03 0.  0.
          5    1    1    0  501    0 -0.40069819024E+02  0.18325861888E+02 -0.44076438030E+02  0.62500000000E+02  0.47000000000E+01 0. -1.
         -5    1    1    0    0  501  0.40069819024E+02 -0.18325861888E+02  0.44076438030E+02  0.62500000000E+02  0.47000000000E+01 0. -1.
</event>
<event>
 3    0  0.4580101E-005  0.9118800E+02  0.7546771E-02  0.1235069E+00
         25   -1    0    0    0    0  0.00000000000E+00  0.00000000000E+00  0.99999998245E-14  0.12500000000E+03  0.12500000000E+03 0.  0.
          5    1    1    0  501    0  0.51314118227E+02 -0.19572155242E+02 -0.29461025267E+02  0.62500000000E+02  0.47000000000E+01 0. -1.
         -5    1    1    0    0  501 -0.51314118227E+02  0.19572155242E+02  0.29461025267E+02  0.62500000000E+02  0.47000000000E+01 0. -1.
</event>
<event>
 3    0  0.4580101E-005  0.9118800E+02  0.7546771E-02  0.1235069E+00
         25   -1    0    0    0    0  0.00000000000E+00  0.00000000000E+00  0.99999998245E-14  0.12500000000E+03  0.12500000000E+03 0.  0.
          5    1    1    0  501    0  0.94466232096E+01 -0.45910191384E+02  0.41075243603E+02  0.62500000000E+02  0.47000000000E+01 0.  1.
         -5    1    1    0    0  501 -0.94466232096E+01  0.45910191384E+02 -0.41075243603E+02  0.62500000000E+02  0.47000000000E+01 0.  1.
</event>
<event>
 3    0  0.4580101E-005  0.9118800E+02  0.7546771E-02  0.1235069E+00
         25   -1    0    0    0    0  0.00000000000E+00  0.00000000000E+00  0.99999998245E-14  0.12500000000E+03  0.12500000000E+03 0.  0.
          5    1    1    0  501    0  0.60972794486E+02  0.68805907973E+01 -0.10914934852E+02  0.62500000000E+02  0.47000000000E+01 0.  1.
         -5    1    1    0    0  501 -0.60972794486E+02 -0.68805907973E+01  0.10914934852E+02  0.62500000000E+02  0.47000000000E+01 0.  1.
</event>
<event>
 3    0  0.4580101E-005  0.9118800E+02  0.7546771E-02  0.1235069E+00
         25   -1    0    0    0    0  0.00000000000E+00  0.00000000000E+00  0.99999998245E-14  0.12500000000E+03  0.12500000000E+03 0.  0.
          5    1    1    0  501    0  0.31944231940E+01 -0.58551975071E+02 -0.21109757834E+02  0.62500000000E+02  0.47000000000E+01 0.  1.
         -5    1    1    0    0  501 -0.31944231940E+01  0.58551975071E+02  0.21109757834E+02  0.62500000000E+02  0.47000000000E+01 0.  1.
</event>
<event>
 3    0  0.4580101E-005  0.9118800E+02  0.7546771E-02  0.1235069E+00
         25   -1    0    0    0    0  0.00000000000E+00  0.00000000000E+00  0.99999998245E-14  0.12500000000E+03  0.12500000000E+03 0.  0.
          5    1    1    0  501    0 -0.21416164331E+02  0.56855438804E+02  0.13891255659E+02  0.62500000000E+02  0.47000000000E+01 0.  1.
         -5    1    1    0    0  501  0.21416164331E+02 -0.56855438804E+02 -0.13891255659E+02  0.62500000000E+02  0.47000000000E+01 0.  1.
</event>
<event>
 3    0  0.4580101E-005  0.9118800E+02  0.7546771E-02  0.1235069E+00
         25   -1    0    0    0    0  0.00000000000E+00  0.00000000000E+00  0.99999998245E-14  0.12500000000E+03  0.12500000000E+03 0.  0.
          5    1    1    0  501    0  0.42290763120E+02 -0.50235354976E+01  0.45501818049E+02  0.62500000000E+02  0.47000000000E+01 0. -1.
         -5    1    1    0    0  501 -0.42290763120E+02  0.50235354976E+01 -0.45501818049E+02  0.62500000000E+02  0.47000000000E+01 0. -1.
</event>
<event>
 3    0  0.4580101E-005  0.9118800E+02  0.7546771E-02  0.1235069E+00
         25   -1    0    0    0    0  0.00000000000E+00  0.00000000000E+00  0.99999998245E-14  0.12500000000E+03  0.12500000000E+03 0.  0.
          5    1    1    0  501    0  0.35662263728E+02 -0.99365208624E+01  0.50136099758E+02  0.62500000000E+02  0.47000000000E+01 0.  1.
         -5    1    1    0    0  501 -0.35662263728E+02  0.99365208624E+01 -0.50136099758E+02  0.62500000000E+02  0.47000000000E+01 0.  1.
</event>
<event>
 3    0  0.4580101E-005  0.9118800E+02  0.7546771E-02  0.1235069E+00
         25   -1    0    0    0    0  0.00000000000E+00  0.00000000000E+00  0.99999998245E-14  0.12500000000E+03  0.12500000000E+03 0.  0.
          5    1    1    0  501    0  0.55129366022E+02  0.27610237346E+02  0.90877827746E+01  0.62500000000E+02  0.47000000000E+01 0.  1.
         -5    1    1    0    0  501 -0.55129366022E+02 -0.27610237346E+02 -0.90877827746E+01  0.62500000000E+02  0.47000000000E+01 0.  1.
</event>
<event>
 3    0  0.4580101E-005  0.9118800E+02  0.7546771E-02  0.1235069E+00
         25   -1    0    0    0    0  0.00000000000E+00  0.00000000000E+00  0.99999998245E-14  0.12500000000E+03  0.12500000000E+03 0.  0.
          5    1    1    0  501    0 -0.31441817793E+02 -0.50968528913E+01  0.53568593266E+02  0.62500000000E+02  0.47000000000E+01 0.  1.
         -5    1    1    0    0  501  0.31441817793E+02  0.50968528913E+01 -0.53568593266E+02  0.62500000000E+02  0.47000000000E+01 0.  1.
</event>
<event>
 3    0  0.4580101E-005  0.9118800E+02  0.7546771E-02  0.1235069E+00
         25   -1    0    0    0    0  0.00000000000E+00  0.00000000000E+00  0.99999998245E-14  0.12500000000E+03  0.12500000000E+03 0.  0.
          5    1    1    0  501    0  0.38823159486E+02 -0.43478538233E+02 -0.22057629079E+02  0.62500000000E+02  0.47000000000E+01 0.  1.
         -5    1    1    0    0  501 -0.38823159486E+02  0.43478538233E+02  0.22057629079E+02  0.62500000000E+02  0.47000000000E+01 0.  1.
</event>
<event>
 3    0  0.4580101E-005  0.9118800E+02  0.7546771E-02  0.1235069E+00
         25   -1    0    0    0    0  0.00000000000E+00  0.00000000000E+00  0.99999998245E-14  0.12500000000E+03  0.12500000000E+03 0.  0.
          5    1    1    0  501    0 -0.56675083341E+02 -0.22971659070E+01 -0.25822818535E+02  0.62500000000E+02  0.47000000000E+01 0.  1.
         -5    1    1    0    0  501  0.56675083341E+02  0.22971659070E+01  0.25822818535E+02  0.62500000000E+02  0.47000000000E+01 0.  1.
</event>
<event>
 3    0  0.4580101E-005  0.9118800E+02  0.7546771E-02  0.1235069E+00
         25   -1    0    0    0    0  0.00000000000E+00  0.00000000000E+00  0.99999998245E-14  0.12500000000E+03  0.12500000000E+03 0.  0.
          5    1    1    0  501    0 -0.28394752870E+02 -0.37598442485E+01 -0.55351256360E+02  0.62500000000E+02  0.47000000000E+01 0.  1.
         -5    1    1    0    0  501  0.28394752870E+02  0.37598442485E+01  0.55351256360E+02  0.62500000000E+02  0.47000000000E+01 0.  1.
</event>
<event>
 3    0  0.4580101E-005  0.9118800E+02  0.7546771E-02  0.1235069E+00
         25   -1    0    0    0    0  0.00000000000E+00  0.00000000000E+00  0.99999998245E-14  0.12500000000E+03  0.12500000000E+03 0.  0.
          5    1    1    0  501    0  0.30903041705E+02  0.40228874598E+02  0.36204967366E+02  0.62500000000E+02  0.47000000000E+01 0. -1.
         -5    1    1    0    0  501 -0.30903041705E+02 -0.40228874598E+02 -0.36204967366E+02  0.62500000000E+02  0.47000000000E+01 0. -1.
</event>
<event>
 3    0  0.4580101E-005  0.9118800E+02  0.7546771E-02  0.1235069E+00
         25   -1    0    0    0    0  0.00000000000E+00  0.00000000000E+00  0.99999998245E-14  0.12500000000E+03  0.12500000000E+03 0.  0.
          5    1    1    0  501    0  0.24616157848E+02 -0.36020311098E+02  0.44505527311E+02  0.62500000000E+02  0.47000000000E+01 0.  1.
         -5    1    1    0    0  501 -0.24616157848E+02  0.36020311098E+02 -0.44505527311E+02  0.62500000000E+02  0.47000000000E+01 0.  1.
</event>
<event>
 3    0  0.4580101E-005  0.9118800E+02  0.7546771E-02  0.1235069E+00
         25   -1    0    0    0    0  0.00000000000E+00  0.00000000000E+00  0.99999998245E-14  0.12500000000E+03  0.12500000000E+03 0.  0.
          5    1    1    0  501    0  0.31461102141E+02  0.43078061325E+02 -0.32227933296E+02  0.62500000000E+02  0.47000000000E+01 0.  1.
         -5    1    1    0    0  501 -0.31461102141E+02 -0.43078061325E+02  0.32227933296E+02  0.62500000000E+02  0.47000000000E+01 0.  1.
</event>
<event>
 3    0  0.4580101E-005  0.9118800E+02  0.7546771E-02  0.1235069E+00
         25   -1    0    0    0    0  0.00000000000E+00  0.00000000000E+00  0.99999998245E-14  0.12500000000E+03  0.12500000000E+03 0.  0.
          5    1    1    0  501    0 -0.90644866662E+01  0.56260735137E+02  0.25233405703E+02  0.62500000000E+02  0.47000000000E+01 0. -1.
         -5    1    1    0    0  501  0.90644866662E+01 -0.56260735137E+02 -0.25233405703E+02  0.62500000000E+02  0.47000000000E+01 0. -1.
</event>
<event>
 3    0  0.4580101E-005  0.9118800E+02  0.7546771E-02  0.1235069E+00
         25   -1    0    0    0    0  0.00000000000E+00  0.00000000000E+00  0.99999998245E-14  0.12500000000E+03  0.12500000000E+03 0.  0.
          5    1    1    0  501    0  0.62231410626E+02  0.14519308080E+01  0.30501522072E+01  0.62500000000E+02  0.47000000000E+01 0. -1.
         -5    1    1    0    0  501 -0.62231410626E+02 -0.14519308080E+01 -0.30501522072E+01  0.62500000000E+02  0.47000000000E+01 0. -1.
</event>
<event>
 3    0  0.4580101E-005  0.9118800E+02  0.7546771E-02  0.1235069E+00
         25   -1    0    0    0    0  0.00000000000E+00  0.00000000000E+00  0.99999998245E-14  0.12500000000E+03  0.12500000000E+03 0.  0.
          5    1    1    0  501    0 -0.50874346624E+02  0.31960398470E+02 -0.16567853970E+02  0.62500000000E+02  0.47000000000E+01 0. -1.
         -5    1    1    0    0  501  0.50874346624E+02 -0.31960398470E+02  0.16567853970E+02  0.62500000000E+02  0.47000000000E+01 0. -1.
</event>
<event>
 3    0  0.4580101E-005  0.9118800E+02  0.7546771E-02  0.1235069E+00
         25   -1    0    0    0    0  0.00000000000E+00  0.00000000000E+00  0.99999998245E-14  0.12500000000E+03  0.12500000000E+03 0.  0.
          5    1    1    0  501    0  0.60445090383E+02  0.11650588492E+02 -0.97372910181E+01  0.62500000000E+02  0.47000000000E+01 0. -1.
         -5    1    1    0    0  501 -0.60445090383E+02 -0.11650588492E+02  0.97372910181E+01  0.62500000000E+02  0.47000000000E+01 0. -1.
</event>
<event>
 3    0  0.4580101E-005  0.9118800E+02  0.7546771E-02  0.1235069E+00
         25   -1    0    0    0    0  0.00000000000E+00  0.00000000000E+00  0.99999998245E-14  0.12500000000E+03  0.12500000000E+03 0.  0.
          5    1    1    0  501    0  0.45229653241E+02 -0.33274347219E+02 -0.27041750772E+02  0.62500000000E+02  0.47000000000E+01 0. -1.
         -5    1    1    0    0  501 -0.45229653241E+02  0.33274347219E+02  0.27041750772E+02  0.62500000000E+02  0.47000000000E+01 0. -1.
</event>
<event>
 3    0  0.4580101E-005  0.9118800E+02  0.7546771E-02  0.1235069E+00
         25   -1    0    0    0    0  0.00000000000E+00  0.00000000000E+00  0.99999998245E-14  0.12500000000E+03  0.12500000000E+03 0.  0.
          5    1    1    0  501    0  0.60752090455E+02 -0.10320886238E+00 -0.13904418481E+02  0.62500000000E+02  0.47000000000E+01 0. -1.
         -5    1    1    0    0  501 -0.60752090455E+02  0.10320886238E+00  0.13904418481E+02  0.62500000000E+02  0.47000000000E+01 0. -1.
</event>
<event>
 3    0  0.4580101E-005  0.9118800E+02  0.7546771E-02  0.1235069E+00
         25   -1    0    0    0    0  0.00000000000E+00  0.00000000000E+00  0.99999998245E-14  0.12500000000E+03  0.12500000000E+03 0.  0.
          5    1    1    0  501    0  0.37132739922E+02  0.29213491542E+01  0.49967843110E+02  0.62500000000E+02  0.47000000000E+01 0.  1.
         -5    1    1    0    0  501 -0.37132739922E+02 -0.29213491542E+01 -0.49967843110E+02  0.62500000000E+02  0.47000000000E+01 0.  1.
</event>
<event>
 3    0  0.4580101E-005  0.9118800E+02  0.7546771E-02  0.1235069E+00
         25   -1    0    0    0    0  0.00000000000E+00  0.00000000000E+00  0.99999998245E-14  0.12500000000E+03  0.12500000000E+03 0.  0.
          5    1    1    0  501    0  0.12454537291E+02 -0.59577047015E+02 -0.13402237493E+02  0.62500000000E+02  0.47000000000E+01 0.  1.
         -5    1    1    0    0  501 -0.12454537291E+02  0.59577047015E+02  0.13402237493E+02  0.62500000000E+02  0.47000000000E+01 0.  1.
</event>
<event>
 3    0  0.4580101E-005  0.9118800E+02  0.7546771E-02  0.1235069E+00
         25   -1    0    0    0    0  0.00000000000E+00  0.00000000000E+00  0.99999998245E-14  0.12500000000E+03  0.12500000000E+03 0.  0.
          5    1    1    0  501    0  0.28211413812E+02  0.44300611896E+02 -0.33551928654E+02  0.62500000000E+02  0.47000000000E+01 0. -1.
         -5    1    1    0    0  501 -0.28211413812E+02 -0.44300611896E+02  0.33551928654E+02  0.62500000000E+02  0.47000000000E+01 0. -1.
</event>
<event>
 3    0  0.4580101E-005  0.9118800E+02  0.7546771E-02  0.1235069E+00
         25   -1    0    0    0    0  0.00000000000E+00  0.00000000000E+00  0.99999998245E-14  0.12500000000E+03  0.12500000000E+03 0.  0.
          5    1    1    0  501    0 -0.10401575246E+02 -0.93610999678E+01 -0.60731680693E+02  0.62500000000E+02  0.47000000000E+01 0.  1.
         -5    1    1    0    0  501  0.10401575246E+02  0.93610999678E+01  0.60731680693E+02  0.62500000000E+02  0.47000000000E+01 0.  1.
</event>
<event>
 3    0  0.4580101E-005  0.9118800E+02  0.7546771E-02  0.1235069E+00
         25   -1    0    0    0    0  0.00000000000E+00  0.00000000000E+00  0.99999998245E-14  0.12500000000E+03  0.12500000000E+03 0.  0.
          5    1    1    0  501    0 -0.12002108138E+02 -0.60696557836E+02 -0.74858043746E+01  0.62500000000E+02  0.47000000000E+01 0.  1.
         -5    1    1    0    0  501  0.12002108138E+02  0.60696557836E+02  0.74858043746E+01  0.62500000000E+02  0.47000000000E+01 0.  1.
</event>
<event>
 3    0  0.4580101E-005  0.9118800E+02  0.7546771E-02  0.1235069E+00
         25   -1    0    0    0    0  0.00000000000E+00  0.00000000000E+00  0.99999998245E-14  0.12500000000E+03  0.12500000000E+03 0.  0.
          5    1    1    0  501    0 -0.25653079239E+02  0.53381753674E+02  0.19402780736E+02  0.62500000000E+02  0.47000000000E+01 0.  1.
         -5    1    1    0    0  501  0.25653079239E+02 -0.53381753674E+02 -0.19402780736E+02  0.62500000000E+02  0.47000000000E+01 0.  1.
</event>
<event>
 3    0  0.4580101E-005  0.9118800E+02  0.7546771E-02  0.1235069E+00
         25   -1    0    0    0    0  0.00000000000E+00  0.00000000000E+00  0.99999998245E-14  0.12500000000E+03  0.12500000000E+03 0.  0.
          5    1    1    0  501    0 -0.58336486158E+02  0.20581328727E+02 -0.75778156893E+01  0.62500000000E+02  0.47000000000E+01 0. -1.
         -5    1    1    0    0  501  0.58336486158E+02 -0.20581328727E+02  0.75778156893E+01  0.62500000000E+02  0.47000000000E+01 0. -1.
</event>
<event>
 3    0  0.4580101E-005  0.9118800E+02  0.7546771E-02  0.1235069E+00
         25   -1    0    0    0    0  0.00000000000E+00  0.00000000000E+00  0.99999998245E-14  0.12500000000E+03  0.12500000000E+03 0.  0.
          5    1    1    0  501    0  0.60634815439E+02 -0.91736623117E+00 -0.14378372506E+02  0.62500000000E+02  0.47000000000E+01 0.  1.
         -5    1    1    0    0  501 -0.60634815439E+02  0.91736623117E+00  0.14378372506E+02  0.62500000000E+02  0.47000000000E+01 0.  1.
</event>
<event>
 3    0  0.4580101E-005  0.9118800E+02  0.7546771E-02  0.1235069E+00
         25   -1    0    0    0    0  0.00000000000E+00  0.00000000000E+00  0.99999998245E-14  0.12500000000E+03  0.12500000000E+03 0.  0.
          5    1    1    0  501    0 -0.40769264998E+02  0.46686408773E+02  0.65120094720E+01  0.62500000000E+02  0.47000000000E+01 0. -1.
         -5    1    1    0    0  501  0.40769264998E+02 -0.46686408773E+02 -0.65120094720E+01  0.62500000000E+02  0.47000000000E+01 0. -1.
</event>
<event>
 3    0  0.4580101E-005  0.9118800E+02  0.7546771E-02  0.1235069E+00
         25   -1    0    0    0    0  0.00000000000E+00  0.00000000000E+00  0.99999998245E-14  0.12500000000E+03  0.12500000000E+03 0.  0.
          5    1    1    0  501    0  0.61873449460E+02  0.74277454137E+01  0.81538330466E+00  0.62500000000E+02  0.47000000000E+01 0.  1.
         -5    1    1    0    0  501 -0.61873449460E+02 -0.74277454137E+01 -0.81538330466E+00  0.62500000000E+02  0.47000000000E+01 0.  1.
</event>
<event>
 3    0  0.4580101E-005  0.9118800E+02  0.7546771E-02  0.1235069E+00
         25   -1    0    0    0    0  0.00000000000E+00  0.00000000000E+00  0.99999998245E-14  0.12500000000E+03  0.12500000000E+03 0.  0.
          5    1    1    0  501    0  0.58122355323E+02  0.19206261910E+02 -0.11707745944E+02  0.62500000000E+02  0.47000000000E+01 0. -1.
         -5    1    1    0    0  501 -0.58122355323E+02 -0.19206261910E+02  0.11707745944E+02  0.62500000000E+02  0.47000000000E+01 0. -1.
</event>
<event>
 3    0  0.4580101E-005  0.9118800E+02  0.7546771E-02  0.1235069E+00
         25   -1    0    0    0    0  0.00000000000E+00  0.00000000000E+00  0.99999998245E-14  0.12500000000E+03  0.12500000000E+03 0.  0.
          5    1    1    0  501    0  0.16712243098E+02  0.17393654456E+02  0.57465830850E+02  0.62500000000E+02  0.47000000000E+01 0. -1.
         -5    1    1    0    0  501 -0.16712243098E+02 -0.17393654456E+02 -0.57465830850E+02  0.62500000000E+02  0.47000000000E+01 0. -1.
</event>
<event>
 3    0  0.4580101E-005  0.9118800E+02  0.7546771E-02  0.1235069E+00
         25   -1    0    0    0    0  0.00000000000E+00  0.00000000000E+00  0.99999998245E-14  0.12500000000E+03  0.12500000000E+03 0.  0.
          5    1    1    0  501    0  0.38229730659E+02 -0.30903548851E+02 -0.38309507463E+02  0.62500000000E+02  0.47000000000E+01 0. -1.
         -5    1    1    0    0  501 -0.38229730659E+02  0.30903548851E+02  0.38309507463E+02  0.62500000000E+02  0.47000000000E+01 0. -1.
</event>
<event>
 3    0  0.4580101E-005  0.9118800E+02  0.7546771E-02  0.1235069E+00
         25   -1    0    0    0    0  0.00000000000E+00  0.00000000000E+00  0.99999998245E-14  0.12500000000E+03  0.12500000000E+03 0.  0.
          5    1    1    0  501    0  0.33416770980E+02  0.37052871206E+02  0.37343863655E+02  0.62500000000E+02  0.47000000000E+01 0. -1.
         -5    1    1    0    0  501 -0.33416770980E+02 -0.37052871206E+02 -0.37343863655E+02  0.62500000000E+02  0.47000000000E+01 0. -1.
</event>
<event>
 3    0  0.4580101E-005  0.9118800E+02  0.7546771E-02  0.1235069E+00
         25   -1    0    0    0    0  0.00000000000E+00  0.00000000000E+00  0.99999998245E-14  0.12500000000E+03  0.12500000000E+03 0.  0.
          5    1    1    0  501    0  0.55778593962E+02  0.10457349095E+02  0.25759509030E+02  0.62500000000E+02  0.47000000000E+01 0. -1.
         -5    1    1    0    0  501 -0.55778593962E+02 -0.10457349095E+02 -0.25759509030E+02  0.62500000000E+02  0.47000000000E+01 0. -1.
</event>
<event>
 3    0  0.4580101E-005  0.9118800E+02  0.7546771E-02  0.1235069E+00
         25   -1    0    0    0    0  0.00000000000E+00  0.00000000000E+00  0.99999998245E-14  0.12500000000E+03  0.12500000000E+03 0.  0.
          5    1    1    0  501    0  0.55095657888E+02  0.13392784569E+02 -0.25870094770E+02  0.62500000000E+02  0.47000000000E+01 0. -1.
         -5    1    1    0    0  501 -0.55095657888E+02 -0.13392784569E+02  0.25870094770E+02  0.62500000000E+02  0.47000000000E+01 0. -1.
</event>
<event>
 3    0  0.4580101E-005  0.9118800E+02  0.7546771E-02  0.1235069E+00
         25   -1    0    0    0    0  0.00000000000E+00  0.00000000000E+00  0.99999998245E-14  0.12500000000E+03  0.12500000000E+03 0.  0.
          5    1    1    0  501    0  0.33788707148E+02  0.37799443400E+02  0.36244797530E+02  0.62500000000E+02  0.47000000000E+01 0. -1.
         -5    1    1    0    0  501 -0.33788707148E+02 -0.37799443400E+02 -0.36244797530E+02  0.62500000000E+02  0.47000000000E+01 0. -1.
</event>
<event>
 3    0  0.4580101E-005  0.9118800E+02  0.7546771E-02  0.1235069E+00
         25   -1    0    0    0    0  0.00000000000E+00  0.00000000000E+00  0.99999998245E-14  0.12500000000E+03  0.12500000000E+03 0.  0.
          5    1    1    0  501    0  0.49497624360E+02 -0.34181080294E+02 -0.16303341149E+02  0.62500000000E+02  0.47000000000E+01 0. -1.
         -5    1    1    0    0  501 -0.49497624360E+02  0.34181080294E+02  0.16303341149E+02  0.62500000000E+02  0.47000000000E+01 0. -1.
</event>
<event>
 3    0  0.4580101E-005  0.9118800E+02  0.7546771E-02  0.1235069E+00
         25   -1    0    0    0    0  0.00000000000E+00  0.00000000000E+00  0.99999998245E-14  0.12500000000E+03  0.12500000000E+03 0.  0.
          5    1    1    0  501    0  0.19812904162E+02 -0.58899352921E+02 -0.47407862345E+01  0.62500000000E+02  0.47000000000E+01 0. -1.
         -5    1    1    0    0  501 -0.19812904162E+02  0.58899352921E+02  0.47407862345E+01  0.62500000000E+02  0.47000000000E+01 0. -1.
</event>
<event>
 3    0  0.4580101E-005  0.9118800E+02  0.7546771E-02  0.1235069E+00
         25   -1    0    0    0    0  0.00000000000E+00  0.00000000000E+00  0.99999998245E-14  0.12500000000E+03  0.12500000000E+03 0.  0.
          5    1    1    0  501    0  0.73414413031E+01 -0.60244071256E+02  0.14174453007E+02  0.62500000000E+02  0.47000000000E+01 0. -1.
         -5    1    1    0    0  501 -0.73414413031E+01  0.60244071256E+02 -0.14174453007E+02  0.62500000000E+02  0.47000000000E+01 0. -1.
</event>
<event>
 3    0  0.4580101E-005  0.9118800E+02  0.7546771E-02  0.1235069E+00
         25   -1    0    0    0    0  0.00000000000E+00  0.00000000000E+00  0.99999998245E-14  0.12500000000E+03  0.12500000000E+03 0.  0.
          5    1    1    0  501    0  0.59659544575E+02  0.74148391958E+01  0.16429208771E+02  0.62500000000E+02  0.47000000000E+01 0.  1.
         -5    1    1    0    0  501 -0.59659544575E+02 -0.74148391958E+01 -0.16429208771E+02  0.62500000000E+02  0.47000000000E+01 0.  1.
</event>
<event>
 3    0  0.4580101E-005  0.9118800E+02  0.7546771E-02  0.1235069E+00
         25   -1    0    0    0    0  0.00000000000E+00  0.00000000000E+00  0.99999998245E-14  0.12500000000E+03  0.12500000000E+03 0.  0.
          5    1    1    0  501    0 -0.13228324932E+02  0.57231231919E+02 -0.20826845956E+02  0.62500000000E+02  0.47000000000E+01 0. -1.
         -5    1    1    0    0  501  0.13228324932E+02 -0.57231231919E+02  0.20826845956E+02  0.62500000000E+02  0.47000000000E+01 0. -1.
</event>
<event>
 3    0  0.4580101E-005  0.9118800E+02  0.7546771E-02  0.1235069E+00
         25   -1    0    0    0    0  0.00000000000E+00  0.00000000000E+00  0.99999998245E-14  0.12500000000E+03  0.12500000000E+03 0.  0.
          5    1    1    0  501    0 -0.15679400627E+01 -0.13446609009E+02  0.60834942838E+02  0.62500000000E+02  0.47000000000E+01 0. -1.
         -5    1    1    0    0  501  0.15679400627E+01  0.13446609009E+02 -0.60834942838E+02  0.62500000000E+02  0.47000000000E+01 0. -1.
</event>
<event>
 3    0  0.4580101E-005  0.9118800E+02  0.7546771E-02  0.1235069E+00
         25   -1    0    0    0    0  0.00000000000E+00  0.00000000000E+00  0.99999998245E-14  0.12500000000E+03  0.12500000000E+03 0.  0.
          5    1    1    0  501    0  0.50185006975E+01 -0.33547139386E+02 -0.52283497298E+02  0.62500000000E+02  0.47000000000E+01 0.  1.
         -5    1    1    0    0  501 -0.50185006975E+01  0.33547139386E+02  0.52283497298E+02  0.62500000000E+02  0.47000000000E+01 0.  1.
</event>
<event>
 3    0  0.4580101E-005  0.9118800E+02  0.7546771E-02  0.1235069E+00
         25   -1    0    0    0    0  0.00000000000E+00  0.00000000000E+00  0.99999998245E-14  0.12500000000E+03  0.12500000000E+03 0.  0.
          5    1    1    0  501    0 -0.87064830612E+01  0.20070507326E+02  0.58356935221E+02  0.62500000000E+02  0.47000000000E+01 0. -1.
         -5    1    1    0    0  501  0.87064830612E+01 -0.20070507326E+02 -0.58356935221E+02  0.62500000000E+02  0.47000000000E+01 0. -1.
</event>
<event>
 3    0  0.4580101E-005  0.9118800E+02  0.7546771E-02  0.1235069E+00
         25   -1    0    0    0    0  0.00000000000E+00  0.00000000000E+00  0.99999998245E-14  0.12500000000E+03  0.12500000000E+03 0.  0.
          5    1    1    0  501    0  0.30456754878E+02 -0.49054802945E+02  0.23455753886E+02  0.62500000000E+02  0.47000000000E+01 0.  1.
         -5    1    1    0    0  501 -0.30456754878E+02  0.49054802945E+02 -0.23455753886E+02  0.62500000000E+02  0.47000000000E+01 0.  1.
</event>
<event>
 3    0  0.4580101E-005  0.9118800E+02  0.7546771E-02  0.1235069E+00
         25   -1    0    0    0    0  0.00000000000E+00  0.00000000000E+00  0.99999998245E-14  0.12500000000E+03  0.12500000000E+03 0.  0.
          5    1    1    0  501    0 -0.41535440114E+02 -0.40204511861E+01  0.46290422193E+02  0.62500000000E+02  0.47000000000E+01 0.  1.
         -5    1    1    0    0  501  0.41535440114E+02  0.40204511861E+01 -0.46290422193E+02  0.62500000000E+02  0.47000000000E+01 0.  1.
</event>
<event>
 3    0  0.4580101E-005  0.9118800E+02  0.7546771E-02  0.1235069E+00
         25   -1    0    0    0    0  0.00000000000E+00  0.00000000000E+00  0.99999998245E-14  0.12500000000E+03  0.12500000000E+03 0.  0.
          5    1    1    0  501    0  0.54602587027E+02 -0.28246317788E+02 -0.10240264711E+02  0.62500000000E+02  0.47000000000E+01 0.  1.
         -5    1    1    0    0  501 -0.54602587027E+02  0.28246317788E+02  0.10240264711E+02  0.62500000000E+02  0.47000000000E+01 0.  1.
</event>
<event>
 3    0  0.4580101E-005  0.9118800E+02  0.7546771E-02  0.1235069E+00
         25   -1    0    0    0    0  0.00000000000E+00  0.00000000000E+00  0.99999998245E-14  0.12500000000E+03  0.12500000000E+03 0.  0.
          5    1    1    0  501    0 -0.37040429538E+02  0.49981879690E+02 -0.37387541062E+01  0.62500000000E+02  0.47000000000E+01 0. -1.
         -5    1    1    0    0  501  0.37040429538E+02 -0.49981879690E+02  0.37387541062E+01  0.62500000000E+02  0.47000000000E+01 0. -1.
</event>
<event>
 3    0  0.4580101E-005  0.9118800E+02  0.7546771E-02  0.1235069E+00
         25   -1    0    0    0    0  0.00000000000E+00  0.00000000000E+00  0.99999998245E-14  0.12500000000E+03  0.12500000000E+03 0.  0.
          5    1    1    0  501    0 -0.17497996553E+01  0.23178274945E+01  0.62255328100E+02  0.62500000000E+02  0.47000000000E+01 0.  1.
         -5    1    1    0    0  501  0.17497996553E+01 -0.23178274945E+01 -0.62255328100E+02  0.62500000000E+02  0.47000000000E+01 0.  1.
</event>
<event>
 3    0  0.4580101E-005  0.9118800E+02  0.7546771E-02  0.1235069E+00
         25   -1    0    0    0    0  0.00000000000E+00  0.00000000000E+00  0.99999998245E-14  0.12500000000E+03  0.12500000000E+03 0.  0.
          5    1    1    0  501    0 -0.16338521254E+02 -0.28143606743E+02  0.53152141281E+02  0.62500000000E+02  0.47000000000E+01 0.  1.
         -5    1    1    0    0  501  0.16338521254E+02  0.28143606743E+02 -0.53152141281E+02  0.62500000000E+02  0.47000000000E+01 0.  1.
</event>
<event>
 3    0  0.4580101E-005  0.9118800E+02  0.7546771E-02  0.1235069E+00
         25   -1    0    0    0    0  0.00000000000E+00  0.00000000000E+00  0.99999998245E-14  0.12500000000E+03  0.12500000000E+03 0.  0.
          5    1    1    0  501    0 -0.21302538281E+01  0.23044144573E+02 -0.57866997671E+02  0.62500000000E+02  0.47000000000E+01 0.  1.
         -5    1    1    0    0  501  0.21302538281E+01 -0.23044144573E+02  0.57866997671E+02  0.62500000000E+02  0.47000000000E+01 0.  1.
</event>
<event>
 3    0  0.4580101E-005  0.9118800E+02  0.7546771E-02  0.1235069E+00
         25   -1    0    0    0    0  0.00000000000E+00  0.00000000000E+00  0.99999998245E-14  0.12500000000E+03  0.12500000000E+03 0.  0.
          5    1    1    0  501    0  0.50867388639E+02  0.32978300400E+02  0.14460306907E+02  0.62500000000E+02  0.47000000000E+01 0.  1.
         -5    1    1    0    0  501 -0.50867388639E+02 -0.32978300400E+02 -0.14460306907E+02  0.62500000000E+02  0.47000000000E+01 0.  1.
</event>
<event>
 3    0  0.4580101E-005  0.9118800E+02  0.7546771E-02  0.1235069E+00
         25   -1    0    0    0    0  0.00000000000E+00  0.00000000000E+00  0.99999998245E-14  0.12500000000E+03  0.12500000000E+03 0.  0.
          5    1    1    0  501    0  0.40347355466E+02 -0.34083964290E+02  0.33083746541E+02  0.62500000000E+02  0.47000000000E+01 0. -1.
         -5    1    1    0    0  501 -0.40347355466E+02  0.34083964290E+02 -0.33083746541E+02  0.62500000000E+02  0.47000000000E+01 0. -1.
</event>
<event>
 3    0  0.4580101E-005  0.9118800E+02  0.7546771E-02  0.1235069E+00
         25   -1    0    0    0    0  0.00000000000E+00  0.00000000000E+00  0.99999998245E-14  0.12500000000E+03  0.12500000000E+03 0.  0.
          5    1    1    0  501    0 -0.44863373865E+02 -0.42900526358E+02 -0.55661947148E+01  0.62500000000E+02  0.47000000000E+01 0.  1.
         -5    1    1    0    0  501  0.44863373865E+02  0.42900526358E+02  0.55661947148E+01  0.62500000000E+02  0.47000000000E+01 0.  1.
</event>
<event>
 3    0  0.4580101E-005  0.9118800E+02  0.7546771E-02  0.1235069E+00
         25   -1    0    0    0    0  0.00000000000E+00  0.00000000000E+00  0.99999998245E-14  0.12500000000E+03  0.12500000000E+03 0.  0.
          5    1    1    0  501    0 -0.37244906393E+02 -0.47696052308E+02 -0.14901796603E+02  0.62500000000E+02  0.47000000000E+01 0.  1.
         -5    1    1    0    0  501  0.37244906393E+02  0.47696052308E+02  0.14901796603E+02  0.62500000000E+02  0.47000000000E+01 0.  1.
</event>
<event>
 3    0  0.4580101E-005  0.9118800E+02  0.7546771E-02  0.1235069E+00
         25   -1    0    0    0    0  0.00000000000E+00  0.00000000000E+00  0.99999998245E-14  0.12500000000E+03  0.12500000000E+03 0.  0.
          5    1    1    0  501    0 -0.33292014984E+02 -0.48491618661E+02 -0.20600113057E+02  0.62500000000E+02  0.47000000000E+01 0. -1.
         -5    1    1    0    0  501  0.33292014984E+02  0.48491618661E+02  0.20600113057E+02  0.62500000000E+02  0.47000000000E+01 0. -1.
</event>
<event>
 3    0  0.4580101E-005  0.9118800E+02  0.7546771E-02  0.1235069E+00
         25   -1    0    0    0    0  0.00000000000E+00  0.00000000000E+00  0.99999998245E-14  0.12500000000E+03  0.12500000000E+03 0.  0.
          5    1    1    0  501    0 -0.60765558946E+02  0.11623666055E+02 -0.75231132753E+01  0.62500000000E+02  0.47000000000E+01 0. -1.
         -5    1    1    0    0  501  0.60765558946E+02 -0.11623666055E+02  0.75231132753E+01  0.62500000000E+02  0.47000000000E+01 0. -1.
</event>
<event>
 3    0  0.4580101E-005  0.9118800E+02  0.7546771E-02  0.1235069E+00
         25   -1    0    0    0    0  0.00000000000E+00  0.00000000000E+00  0.99999998245E-14  0.12500000000E+03  0.12500000000E+03 0.  0.
          5    1    1    0  501    0 -0.42251075021E+02  0.20652448526E+02  0.40896002609E+02  0.62500000000E+02  0.47000000000E+01 0. -1.
         -5    1    1    0    0  501  0.42251075021E+02 -0.20652448526E+02 -0.40896002609E+02  0.62500000000E+02  0.47000000000E+01 0. -1.
</event>
<event>
 3    0  0.4580101E-005  0.9118800E+02  0.7546771E-02  0.1235069E+00
         25   -1    0    0    0    0  0.00000000000E+00  0.00000000000E+00  0.99999998245E-14  0.12500000000E+03  0.12500000000E+03 0.  0.
          5    1    1    0  501    0  0.57437159322E+02  0.85358983597E+01  0.22633408233E+02  0.62500000000E+02  0.47000000000E+01 0.  1.
         -5    1    1    0    0  501 -0.57437159322E+02 -0.85358983597E+01 -0.22633408233E+02  0.62500000000E+02  0.47000000000E+01 0.  1.
</event>
<event>
 3    0  0.4580101E-005  0.9118800E+02  0.7546771E-02  0.1235069E+00
         25   -1    0    0    0    0  0.00000000000E+00  0.00000000000E+00  0.99999998245E-14  0.12500000000E+03  0.12500000000E+03 0.  0.
          5    1    1    0  501    0  0.57986127733E+02 -0.87675015811E+01 -0.21092650534E+02  0.62500000000E+02  0.47000000000E+01 0.  1.
         -5    1    1    0    0  501 -0.57986127733E+02  0.87675015811E+01  0.21092650534E+02  0.62500000000E+02  0.47000000000E+01 0.  1.
</event>
<event>
 3    0  0.4580101E-005  0.9118800E+02  0.7546771E-02  0.1235069E+00
         25   -1    0    0    0    0  0.00000000000E+00  0.00000000000E+00  0.99999998245E-14  0.12500000000E+03  0.12500000000E+03 0.  0.
          5    1    1    0  501    0 -0.61981401818E+02  0.65159972303E+01 -0.87228153618E-01  0.62500000000E+02  0.47000000000E+01 0.  1.
         -5    1    1    0    0  501  0.61981401818E+02 -0.65159972303E+01  0.87228153618E-01  0.62500000000E+02  0.47000000000E+01 0.  1.
</event>
<event>
 3    0  0.4580101E-005  0.9118800E+02  0.7546771E-02  0.1235069E+00
         25   -1    0    0    0    0  0.00000000000E+00  0.00000000000E+00  0.99999998245E-14  0.12500000000E+03  0.12500000000E+03 0.  0.
          5    1    1    0  501    0  0.33685033316E+02  0.23930067881E+02 -0.46656514890E+02  0.62500000000E+02  0.47000000000E+01 0. -1.
         -5    1    1    0    0  501 -0.33685033316E+02 -0.23930067881E+02  0.46656514890E+02  0.62500000000E+02  0.47000000000E+01 0. -1.
</event>
<event>
 3    0  0.4580101E-005  0.9118800E+02  0.7546771E-02  0.1235069E+00
         25   -1    0    0    0    0  0.00000000000E+00  0.00000000000E+00  0.99999998245E-14  0.12500000000E+03  0.12500000000E+03 0.  0.
          5    1    1    0  501    0 -0.29269598313E+02  0.29156249226E+02  0.46662230398E+02  0.62500000000E+02  0.47000000000E+01 0. -1.
         -5    1    1    0    0  501  0.29269598313E+02 -0.29156249226E+02 -0.46662230398E+02  0.62500000000E+02  0.47000000000E+01 0. -1.
</event>
<event>
 3    0  0.4580101E-005  0.9118800E+02  0.7546771E-02  0.1235069E+00
         25   -1    0    0    0    0  0.00000000000E+00  0.00000000000E+00  0.99999998245E-14  0.12500000000E+03  0.12500000000E+03 0.  0.
          5    1    1    0  501    0  0.53271069741E+02 -0.15172822354E+02 -0.28568139431E+02  0.62500000000E+02  0.47000000000E+01 0.  1.
         -5    1    1    0    0  501 -0.53271069741E+02  0.15172822354E+02  0.28568139431E+02  0.62500000000E+02  0.47000000000E+01 0.  1.
</event>
<event>
 3    0  0.4580101E-005  0.9118800E+02  0.7546771E-02  0.1235069E+00
         25   -1    0    0    0    0  0.00000000000E+00  0.00000000000E+00  0.99999998245E-14  0.12500000000E+03  0.12500000000E+03 0.  0.
          5    1    1    0  501    0  0.21505302539E+02  0.98326554739E+01  0.57662820336E+02  0.62500000000E+02  0.47000000000E+01 0. -1.
         -5    1    1    0    0  501 -0.21505302539E+02 -0.98326554739E+01 -0.57662820336E+02  0.62500000000E+02  0.47000000000E+01 0. -1.
</event>
<event>
 3    0  0.4580101E-005  0.9118800E+02  0.7546771E-02  0.1235069E+00
         25   -1    0    0    0    0  0.00000000000E+00  0.00000000000E+00  0.99999998245E-14  0.12500000000E+03  0.12500000000E+03 0.  0.
          5    1    1    0  501    0 -0.34726520452E+02  0.43442597117E+02  0.28124180575E+02  0.62500000000E+02  0.47000000000E+01 0.  1.
         -5    1    1    0    0  501  0.34726520452E+02 -0.43442597117E+02 -0.28124180575E+02  0.62500000000E+02  0.47000000000E+01 0.  1.
</event>
<event>
 3    0  0.4580101E-005  0.9118800E+02  0.7546771E-02  0.1235069E+00
         25   -1    0    0    0    0  0.00000000000E+00  0.00000000000E+00  0.99999998245E-14  0.12500000000E+03  0.12500000000E+03 0.  0.
          5    1    1    0  501    0 -0.17614238365E+02 -0.10094134115E+02 -0.58923739387E+02  0.62500000000E+02  0.47000000000E+01 0. -1.
         -5    1    1    0    0  501  0.17614238365E+02  0.10094134115E+02  0.58923739387E+02  0.62500000000E+02  0.47000000000E+01 0. -1.
</event>
<event>
 3    0  0.4580101E-005  0.9118800E+02  0.7546771E-02  0.1235069E+00
         25   -1    0    0    0    0  0.00000000000E+00  0.00000000000E+00  0.99999998245E-14  0.12500000000E+03  0.12500000000E+03 0.  0.
          5    1    1    0  501    0  0.54638366104E+02 -0.28241889967E+02 -0.10060049733E+02  0.62500000000E+02  0.47000000000E+01 0. -1.
         -5    1    1    0    0  501 -0.54638366104E+02  0.28241889967E+02  0.10060049733E+02  0.62500000000E+02  0.47000000000E+01 0. -1.
</event>
<event>
 3    0  0.4580101E-005  0.9118800E+02  0.7546771E-02  0.1235069E+00
         25   -1    0    0    0    0  0.00000000000E+00  0.00000000000E+00  0.99999998245E-14  0.12500000000E+03  0.12500000000E+03 0.  0.
          5    1    1    0  501    0  0.33108295814E+02  0.23804084162E+02  0.47131373049E+02  0.62500000000E+02  0.47000000000E+01 0.  1.
         -5    1    1    0    0  501 -0.33108295814E+02 -0.23804084162E+02 -0.47131373049E+02  0.62500000000E+02  0.47000000000E+01 0.  1.
</event>
<event>
 3    0  0.4580101E-005  0.9118800E+02  0.7546771E-02  0.1235069E+00
         25   -1    0    0    0    0  0.00000000000E+00  0.00000000000E+00  0.99999998245E-14  0.12500000000E+03  0.12500000000E+03 0.  0.
          5    1    1    0  501    0  0.20128374776E+02  0.44787719697E+02  0.38380577030E+02  0.62500000000E+02  0.47000000000E+01 0. -1.
         -5    1    1    0    0  501 -0.20128374776E+02 -0.44787719697E+02 -0.38380577030E+02  0.62500000000E+02  0.47000000000E+01 0. -1.
</event>
<event>
 3    0  0.4580101E-005  0.9118800E+02  0.7546771E-02  0.1235069E+00
         25   -1    0    0    0    0  0.00000000000E+00  0.00000000000E+00  0.99999998245E-14  0.12500000000E+03  0.12500000000E+03 0.  0.
          5    1    1    0  501    0 -0.22615976289E+02 -0.55377174082E+01 -0.57810131486E+02  0.62500000000E+02  0.47000000000E+01 0.  1.
         -5    1    1    0    0  501  0.22615976289E+02  0.55377174082E+01  0.57810131486E+02  0.62500000000E+02  0.47000000000E+01 0.  1.
</event>
<event>
 3    0  0.4580101E-005  0.9118800E+02  0.7546771E-02  0.1235069E+00
         25   -1    0    0    0    0  0.00000000000E+00  0.00000000000E+00  0.99999998245E-14  0.12500000000E+03  0.12500000000E+03 0.  0.
          5    1    1    0  501    0  0.55980869569E+02 -0.26066387481E+02  0.84169879391E+01  0.62500000000E+02  0.47000000000E+01 0. -1.
         -5    1    1    0    0  501 -0.55980869569E+02  0.26066387481E+02 -0.84169879391E+01  0.62500000000E+02  0.47000000000E+01 0. -1.
</event>
<event>
 3    0  0.4580101E-005  0.9118800E+02  0.7546771E-02  0.1235069E+00
         25   -1    0    0    0    0  0.00000000000E+00  0.00000000000E+00  0.99999998245E-14  0.12500000000E+03  0.12500000000E+03 0.  0.
          5    1    1    0  501    0  0.28905682170E+01  0.28310001757E+02  0.55446807085E+02  0.62500000000E+02  0.47000000000E+01 0. -1.
         -5    1    1    0    0  501 -0.28905682170E+01 -0.28310001757E+02 -0.55446807085E+02  0.62500000000E+02  0.47000000000E+01 0. -1.
</event>
<event>
 3    0  0.4580101E-005  0.9118800E+02  0.7546771E-02  0.1235069E+00
         25   -1    0    0    0    0  0.00000000000E+00  0.00000000000E+00  0.99999998245E-14  0.12500000000E+03  0.12500000000E+03 0.  0.
          5    1    1    0  501    0 -0.52056417111E+02  0.78685023809E+01  0.33352302887E+02  0.62500000000E+02  0.47000000000E+01 0. -1.
         -5    1    1    0    0  501  0.52056417111E+02 -0.78685023809E+01 -0.33352302887E+02  0.62500000000E+02  0.47000000000E+01 0. -1.
</event>
<event>
 3    0  0.4580101E-005  0.9118800E+02  0.7546771E-02  0.1235069E+00
         25   -1    0    0    0    0  0.00000000000E+00  0.00000000000E+00  0.99999998245E-14  0.12500000000E+03  0.12500000000E+03 0.  0.
          5    1    1    0  501    0  0.42248621286E+02 -0.11386501370E+02  0.44379742969E+02  0.62500000000E+02  0.47000000000E+01 0.  1.
         -5    1    1    0    0  501 -0.42248621286E+02  0.11386501370E+02 -0.44379742969E+02  0.62500000000E+02  0.47000000000E+01 0.  1.
</event>
<event>
 3    0  0.4580101E-005  0.9118800E+02  0.7546771E-02  0.1235069E+00
         25   -1    0    0    0    0  0.00000000000E+00  0.00000000000E+00  0.99999998245E-14  0.12500000000E+03  0.12500000000E+03 0.  0.
          5    1    1    0  501    0  0.31518097397E+01 -0.37129837022E+02 -0.49955993615E+02  0.62500000000E+02  0.47000000000E+01 0.  1.
         -5    1    1    0    0  501 -0.31518097397E+01  0.37129837022E+02  0.49955993615E+02  0.62500000000E+02  0.47000000000E+01 0.  1.
</event>
<event>
 3    0  0.4580101E-005  0.9118800E+02  0.7546771E-02  0.1235069E+00
         25   -1    0    0    0    0  0.00000000000E+00  0.00000000000E+00  0.99999998245E-14  0.12500000000E+03  0.12500000000E+03 0.  0.
          5    1    1    0  501    0  0.30306417939E+02 -0.53191931139E+02 -0.11674737404E+02  0.62500000000E+02  0.47000000000E+01 0. -1.
         -5    1    1    0    0  501 -0.30306417939E+02  0.53191931139E+02  0.11674737404E+02  0.62500000000E+02  0.47000000000E+01 0. -1.
</event>
<event>
 3    0  0.4580101E-005  0.9118800E+02  0.7546771E-02  0.1235069E+00
         25   -1    0    0    0    0  0.00000000000E+00  0.00000000000E+00  0.99999998245E-14  0.12500000000E+03  0.12500000000E+03 0.  0.
          5    1    1    0  501    0  0.44439383410E+02  0.30310615644E+02  0.31473286791E+02  0.62500000000E+02  0.47000000000E+01 0.  1.
         -5    1    1    0    0  501 -0.44439383410E+02 -0.30310615644E+02 -0.31473286791E+02  0.62500000000E+02  0.47000000000E+01 0.  1.
</event>
<event>
 3    0  0.4580101E-005  0.9118800E+02  0.7546771E-02  0.1235069E+00
         25   -1    0    0    0    0  0.00000000000E+00  0.00000000000E+00  0.99999998245E-14  0.12500000000E+03  0.12500000000E+03 0.  0.
          5    1    1    0  501    0 -0.17606150598E+02 -0.59639899555E+02  0.41552186682E+01  0.62500000000E+02  0.47000000000E+01 0. -1.
         -5    1    1    0    0  501  0.17606150598E+02  0.59639899555E+02 -0.41552186682E+01  0.62500000000E+02  0.47000000000E+01 0. -1.
</event>
<event>
 3    0  0.4580101E-005  0.9118800E+02  0.7546771E-02  0.1235069E+00
         25   -1    0    0    0    0  0.00000000000E+00  0.00000000000E+00  0.99999998245E-14  0.12500000000E+03  0.12500000000E+03 0.  0.
          5    1    1    0  501    0 -0.30319981257E+02  0.47009980790E+02 -0.27475815597E+02  0.62500000000E+02  0.47000000000E+01 0.  1.
         -5    1    1    0    0  501  0.30319981257E+02 -0.47009980790E+02  0.27475815597E+02  0.62500000000E+02  0.47000000000E+01 0.  1.
</event>
<event>
 3    0  0.4580101E-005  0.9118800E+02  0.7546771E-02  0.1235069E+00
         25   -1    0    0    0    0  0.00000000000E+00  0.00000000000E+00  0.99999998245E-14  0.12500000000E+03  0.12500000000E+03 0.  0.
          5    1    1    0  501    0  0.80297398814E+01 -0.46312260976E+01 -0.61629822507E+02  0.62500000000E+02  0.47000000000E+01 0.  1.
         -5    1    1    0    0  501 -0.80297398814E+01  0.46312260976E+01  0.61629822507E+02  0.62500000000E+02  0.47000000000E+01 0.  1.
</event>
<event>
 3    0  0.4580101E-005  0.9118800E+02  0.7546771E-02  0.1235069E+00
         25   -1    0    0    0    0  0.00000000000E+00  0.00000000000E+00  0.99999998245E-14  0.12500000000E+03  0.12500000000E+03 0.  0.
          5    1    1    0  501    0  0.34871011095E+02  0.28715086900E+02  0.42937354012E+02  0.62500000000E+02  0.47000000000E+01 0.  1.
         -5    1    1    0    0  501 -0.34871011095E+02 -0.28715086900E+02 -0.42937354012E+02  0.62500000000E+02  0.47000000000E+01 0.  1.
</event>
<event>
 3    0  0.4580101E-005  0.9118800E+02  0.7546771E-02  0.1235069E+00
         25   -1    0    0    0    0  0.00000000000E+00  0.00000000000E+00  0.99999998245E-14  0.12500000000E+03  0.12500000000E+03 0.  0.
          5    1    1    0  501    0  0.14697458257E+02 -0.57493492642E+02 -0.19043188406E+02  0.62500000000E+02  0.47000000000E+01 0. -1.
         -5    1    1    0    0  501 -0.14697458257E+02  0.57493492642E+02  0.19043188406E+02  0.62500000000E+02  0.47000000000E+01 0. -1.
</event>
<event>
 3    0  0.4580101E-005  0.9118800E+02  0.7546771E-02  0.1235069E+00
         25   -1    0    0    0    0  0.00000000000E+00  0.00000000000E+00  0.99999998245E-14  0.12500000000E+03  0.12500000000E+03 0.  0.
          5    1    1    0  501    0  0.15410884610E+02 -0.43351332534E+02  0.42039583764E+02  0.62500000000E+02  0.47000000000E+01 0.  1.
         -5    1    1    0    0  501 -0.15410884610E+02  0.43351332534E+02 -0.42039583764E+02  0.62500000000E+02  0.47000000000E+01 0.  1.
</event>
<event>
 3    0  0.4580101E-005  0.9118800E+02  0.7546771E-02  0.1235069E+00
         25   -1    0    0    0    0  0.00000000000E+00  0.00000000000E+00  0.99999998245E-14  0.12500000000E+03  0.12500000000E+03 0.  0.
          5    1    1    0  501    0  0.98691592586E+01  0.34029042868E+01 -0.61442492934E+02  0.62500000000E+02  0.47000000000E+01 0. -1.
         -5    1    1    0    0  501 -0.98691592586E+01 -0.34029042868E+01  0.61442492934E+02  0.62500000000E+02  0.47000000000E+01 0. -1.
</event>
<event>
 3    0  0.4580101E-005  0.9118800E+02  0.7546771E-02  0.1235069E+00
         25   -1    0    0    0    0  0.00000000000E+00  0.00000000000E+00  0.99999998245E-14  0.12500000000E+03  0.12500000000E+03 0.  0.
          5    1    1    0  501    0  0.58802045273E+02  0.10752562056E+01 -0.20623367713E+02  0.62500000000E+02  0.47000000000E+01 0.  1.
         -5    1    1    0    0  501 -0.58802045273E+02 -0.10752562056E+01  0.20623367713E+02  0.62500000000E+02  0.47000000000E+01 0.  1.
</event>
<event>
 3    0  0.4580101E-005  0.9118800E+02  0.7546771E-02  0.1235069E+00
         25   -1    0    0    0    0  0.00000000000E+00  0.00000000000E+00  0.99999998245E-14  0.12500000000E+03  0.12500000000E+03 0.  0.
          5    1    1    0  501    0  0.12713952284E+02 -0.58259247681E+02 -0.18121133434E+02  0.62500000000E+02  0.47000000000E+01 0. -1.
         -5    1    1    0    0  501 -0.12713952284E+02  0.58259247681E+02  0.18121133434E+02  0.62500000000E+02  0.47000000000E+01 0. -1.
</event>
<event>
 3    0  0.4580101E-005  0.9118800E+02  0.7546771E-02  0.1235069E+00
         25   -1    0    0    0    0  0.00000000000E+00  0.00000000000E+00  0.99999998245E-14  0.12500000000E+03  0.12500000000E+03 0.  0.
          5    1    1    0  501    0  0.18645490755E+02  0.35087721384E+02  0.48014138361E+02  0.62500000000E+02  0.47000000000E+01 0.  1.
         -5    1    1    0    0  501 -0.18645490755E+02 -0.35087721384E+02 -0.48014138361E+02  0.62500000000E+02  0.47000000000E+01 0.  1.
</event>
<event>
 3    0  0.4580101E-005  0.9118800E+02  0.7546771E-02  0.1235069E+00
         25   -1    0    0    0    0  0.00000000000E+00  0.00000000000E+00  0.99999998245E-14  0.12500000000E+03  0.12500000000E+03 0.  0.
          5    1    1    0  501    0 -0.74370897397E+00 -0.57713986932E+02 -0.23509628015E+02  0.62500000000E+02  0.47000000000E+01 0.  1.
         -5    1    1    0    0  501  0.74370897397E+00  0.57713986932E+02  0.23509628015E+02  0.62500000000E+02  0.47000000000E+01 0.  1.
</event>
<event>
 3    0  0.4580101E-005  0.9118800E+02  0.7546771E-02  0.1235069E+00
         25   -1    0    0    0    0  0.00000000000E+00  0.00000000000E+00  0.99999998245E-14  0.12500000000E+03  0.12500000000E+03 0.  0.
          5    1    1    0  501    0  0.58592703059E+02  0.14941211449E+02  0.15093553214E+02  0.62500000000E+02  0.47000000000E+01 0.  1.
         -5    1    1    0    0  501 -0.58592703059E+02 -0.14941211449E+02 -0.15093553214E+02  0.62500000000E+02  0.47000000000E+01 0.  1.
</event>
<event>
 3    0  0.4580101E-005  0.9118800E+02  0.7546771E-02  0.1235069E+00
         25   -1    0    0    0    0  0.00000000000E+00  0.00000000000E+00  0.99999998245E-14  0.12500000000E+03  0.12500000000E+03 0.  0.
          5    1    1    0  501    0  0.25321566664E+02  0.21185899745E+02 -0.52859586772E+02  0.62500000000E+02  0.47000000000E+01 0. -1.
         -5    1    1    0    0  501 -0.25321566664E+02 -0.21185899745E+02  0.52859586772E+02  0.62500000000E+02  0.47000000000E+01 0. -1.
</event>
<event>
 3    0  0.4580101E-005  0.9118800E+02  0.7546771E-02  0.1235069E+00
         25   -1    0    0    0    0  0.00000000000E+00  0.00000000000E+00  0.99999998245E-14  0.12500000000E+03  0.12500000000E+03 0.  0.
          5    1    1    0  501    0  0.54179757255E+02 -0.30529662727E+02  0.40808819587E+01  0.62500000000E+02  0.47000000000E+01 0. -1.
         -5    1    1    0    0  501 -0.54179757255E+02  0.30529662727E+02 -0.40808819587E+01  0.62500000000E+02  0.47000000000E+01 0. -1.
</event>
<event>
 3    0  0.4580101E-005  0.9118800E+02  0.7546771E-02  0.1235069E+00
         25   -1    0    0    0    0  0.00000000000E+00  0.00000000000E+00  0.99999998245E-14  0.12500000000E+03  0.12500000000E+03 0.  0.
          5    1    1    0  501    0  0.18108977113E+01  0.57153426058E+02 -0.24786418444E+02  0.62500000000E+02  0.47000000000E+01 0.  1.
         -5    1    1    0    0  501 -0.18108977113E+01 -0.57153426058E+02  0.24786418444E+02  0.62500000000E+02  0.47000000000E+01 0.  1.
</event>
<event>
 3    0  0.4580101E-005  0.9118800E+02  0.7546771E-02  0.1235069E+00
         25   -1    0    0    0    0  0.00000000000E+00  0.00000000000E+00  0.99999998245E-14  0.12500000000E+03  0.12500000000E+03 0.  0.
          5    1    1    0  501    0  0.58120365209E+02  0.52254579011E+01 -0.21883275296E+02  0.62500000000E+02  0.47000000000E+01 0. -1.
         -5    1    1    0    0  501 -0.58120365209E+02 -0.52254579011E+01  0.21883275296E+02  0.62500000000E+02  0.47000000000E+01 0. -1.
</event>
<event>
 3    0  0.4580101E-005  0.9118800E+02  0.7546771E-02  0.1235069E+00
         25   -1    0    0    0    0  0.00000000000E+00  0.00000000000E+00  0.99999998245E-14  0.12500000000E+03  0.12500000000E+03 0.  0.
          5    1    1    0  501    0  0.25016864527E+02  0.44848499823E+02  0.35311875521E+02  0.62500000000E+02  0.47000000000E+01 0. -1.
         -5    1    1    0    0  501 -0.25016864527E+02 -0.44848499823E+02 -0.35311875521E+02  0.62500000000E+02  0.47000000000E+01 0. -1.
</event>
<event>
 3    0  0.4580101E-005  0.9118800E+02  0.7546771E-02  0.1235069E+00
         25   -1    0    0    0    0  0.00000000000E+00  0.00000000000E+00  0.99999998245E-14  0.12500000000E+03  0.12500000000E+03 0.  0.
          5    1    1    0  501    0 -0.13402491066E+02  0.20549700386E+02  0.57290863559E+02  0.62500000000E+02  0.47000000000E+01 0. -1.
         -5    1    1    0    0  501  0.13402491066E+02 -0.20549700386E+02 -0.57290863559E+02  0.62500000000E+02  0.47000000000E+01 0. -1.
</event>
<event>
 3    0  0.4580101E-005  0.9118800E+02  0.7546771E-02  0.1235069E+00
         25   -1    0    0    0    0  0.00000000000E+00  0.00000000000E+00  0.99999998245E-14  0.12500000000E+03  0.12500000000E+03 0.  0.
          5    1    1    0  501    0  0.62319924012E+02  0.45917363180E+00  0.41979847459E+00  0.62500000000E+02  0.47000000000E+01 0. -1.
         -5    1    1    0    0  501 -0.62319924012E+02 -0.45917363180E+00 -0.41979847459E+00  0.62500000000E+02  0.47000000000E+01 0. -1.
</event>
<event>
 3    0  0.4580101E-005  0.9118800E+02  0.7546771E-02  0.1235069E+00
         25   -1    0    0    0    0  0.00000000000E+00  0.00000000000E+00  0.99999998245E-14  0.12500000000E+03  0.12500000000E+03 0.  0.
          5    1    1    0  501    0 -0.30010062364E+02 -0.19003299262E+02  0.51209674614E+02  0.62500000000E+02  0.47000000000E+01 0.  1.
         -5    1    1    0    0  501  0.30010062364E+02  0.19003299262E+02 -0.51209674614E+02  0.62500000000E+02  0.47000000000E+01 0.  1.
</event>
<event>
 3    0  0.4580101E-005  0.9118800E+02  0.7546771E-02  0.1235069E+00
         25   -1    0    0    0    0  0.00000000000E+00  0.00000000000E+00  0.99999998245E-14  0.12500000000E+03  0.12500000000E+03 0.  0.
          5    1    1    0  501    0  0.73329463997E+01 -0.16151023289E+02 -0.59745563382E+02  0.62500000000E+02  0.47000000000E+01 0. -1.
         -5    1    1    0    0  501 -0.73329463997E+01  0.16151023289E+02  0.59745563382E+02  0.62500000000E+02  0.47000000000E+01 0. -1.
</event>
<event>
 3    0  0.4580101E-005  0.9118800E+02  0.7546771E-02  0.1235069E+00
         25   -1    0    0    0    0  0.00000000000E+00  0.00000000000E+00  0.99999998245E-14  0.12500000000E+03  0.12500000000E+03 0.  0.
          5    1    1    0  501    0 -0.17182697958E+02  0.55997822174E+02 -0.21287526927E+02  0.62500000000E+02  0.47000000000E+01 0. -1.
         -5    1    1    0    0  501  0.17182697958E+02 -0.55997822174E+02  0.21287526927E+02  0.62500000000E+02  0.47000000000E+01 0. -1.
</event>
<event>
 3    0  0.4580101E-005  0.9118800E+02  0.7546771E-02  0.1235069E+00
         25   -1    0    0    0    0  0.00000000000E+00  0.00000000000E+00  0.99999998245E-14  0.12500000000E+03  0.12500000000E+03 0.  0.
          5    1    1    0  501    0  0.10388358873E+02 -0.61263908198E+02 -0.47932819881E+01  0.62500000000E+02  0.47000000000E+01 0.  1.
         -5    1    1    0    0  501 -0.10388358873E+02  0.61263908198E+02  0.47932819881E+01  0.62500000000E+02  0.47000000000E+01 0.  1.
</event>
<event>
 3    0  0.4580101E-005  0.9118800E+02  0.7546771E-02  0.1235069E+00
         25   -1    0    0    0    0  0.00000000000E+00  0.00000000000E+00  0.99999998245E-14  0.12500000000E+03  0.12500000000E+03 0.  0.
          5    1    1    0  501    0  0.55435779813E+02  0.20552668149E+02  0.19713501680E+02  0.62500000000E+02  0.47000000000E+01 0.  1.
         -5    1    1    0    0  501 -0.55435779813E+02 -0.20552668149E+02 -0.19713501680E+02  0.62500000000E+02  0.47000000000E+01 0.  1.
</event>
<event>
 3    0  0.4580101E-005  0.9118800E+02  0.7546771E-02  0.1235069E+00
         25   -1    0    0    0    0  0.00000000000E+00  0.00000000000E+00  0.99999998245E-14  0.12500000000E+03  0.12500000000E+03 0.  0.
          5    1    1    0  501    0 -0.15582934734E+01 -0.18174546027E+02 -0.59593771471E+02  0.62500000000E+02  0.47000000000E+01 0. -1.
         -5    1    1    0    0  501  0.15582934734E+01  0.18174546027E+02  0.59593771471E+02  0.62500000000E+02  0.47000000000E+01 0. -1.
</event>
<event>
 3    0  0.4580101E-005  0.9118800E+02  0.7546771E-02  0.1235069E+00
         25   -1    0    0    0    0  0.00000000000E+00  0.00000000000E+00  0.99999998245E-14  0.12500000000E+03  0.12500000000E+03 0.  0.
          5    1    1    0  501    0  0.19698508653E+02  0.54915836507E+02 -0.21917565046E+02  0.62500000000E+02  0.47000000000E+01 0. -1.
         -5    1    1    0    0  501 -0.19698508653E+02 -0.54915836507E+02  0.21917565046E+02  0.62500000000E+02  0.47000000000E+01 0. -1.
</event>
<event>
 3    0  0.4580101E-005  0.9118800E+02  0.7546771E-02  0.1235069E+00
         25   -1    0    0    0    0  0.00000000000E+00  0.00000000000E+00  0.99999998245E-14  0.12500000000E+03  0.12500000000E+03 0.  0.
          5    1    1    0  501    0 -0.51746844346E+02  0.34729636719E+02 -0.52576956212E+00  0.62500000000E+02  0.47000000000E+01 0. -1.
         -5    1    1    0    0  501  0.51746844346E+02 -0.34729636719E+02  0.52576956212E+00  0.62500000000E+02  0.47000000000E+01 0. -1.
</event>
<event>
 3    0  0.4580101E-005  0.9118800E+02  0.7546771E-02  0.1235069E+00
         25   -1    0    0    0    0  0.00000000000E+00  0.00000000000E+00  0.99999998245E-14  0.12500000000E+03  0.12500000000E+03 0.  0.
          5    1    1    0  501    0  0.13291011264E+01 -0.54195437477E+02 -0.30744886515E+02  0.62500000000E+02  0.47000000000E+01 0.  1.
         -5    1    1    0    0  501 -0.13291011264E+01  0.54195437477E+02  0.30744886515E+02  0.62500000000E+02  0.47000000000E+01 0.  1.
</event>
<event>
 3    0  0.4580101E-005  0.9118800E+02  0.7546771E-02  0.1235069E+00
         25   -1    0    0    0    0  0.00000000000E+00  0.00000000000E+00  0.99999998245E-14  0.12500000000E+03  0.12500000000E+03 0.  0.
          5    1    1    0  501    0 -0.46836809358E+02  0.27504177884E+02  0.30561307041E+02  0.62500000000E+02  0.47000000000E+01 0.  1.
         -5    1    1    0    0  501  0.46836809358E+02 -0.27504177884E+02 -0.30561307041E+02  0.62500000000E+02  0.47000000000E+01 0.  1.
</event>
<event>
 3    0  0.4580101E-005  0.9118800E+02  0.7546771E-02  0.1235069E+00
         25   -1    0    0    0    0  0.00000000000E+00  0.00000000000E+00  0.99999998245E-14  0.12500000000E+03  0.12500000000E+03 0.  0.
          5    1    1    0  501    0  0.45006084568E+02  0.41865292245E+02  0.10291241769E+02  0.62500000000E+02  0.47000000000E+01 0. -1.
         -5    1    1    0    0  501 -0.45006084568E+02 -0.41865292245E+02 -0.10291241769E+02  0.62500000000E+02  0.47000000000E+01 0. -1.
</event>
<event>
 3    0  0.4580101E-005  0.9118800E+02  0.7546771E-02  0.1235069E+00
         25   -1    0    0    0    0  0.00000000000E+00  0.00000000000E+00  0.99999998245E-14  0.12500000000E+03  0.12500000000E+03 0.  0.
          5    1    1    0  501    0 -0.27314458028E+02  0.13853609876E+02 -0.54278521314E+02  0.62500000000E+02  0.47000000000E+01 0.  1.
         -5    1    1    0    0  501  0.27314458028E+02 -0.13853609876E+02  0.54278521314E+02  0.62500000000E+02  0.47000000000E+01 0.  1.
</event>
<event>
 3    0  0.4580101E-005  0.9118800E+02  0.7546771E-02  0.1235069E+00
         25   -1    0    0    0    0  0.00000000000E+00  0.00000000000E+00  0.99999998245E-14  0.12500000000E+03  0.12500000000E+03 0.  0.
          5    1    1    0  501    0  0.11749711242E+02 -0.58535964062E+02 -0.17878624027E+02  0.62500000000E+02  0.47000000000E+01 0.  1.
         -5    1    1    0    0  501 -0.11749711242E+02  0.58535964062E+02  0.17878624027E+02  0.62500000000E+02  0.47000000000E+01 0.  1.
</event>
<event>
 3    0  0.4580101E-005  0.9118800E+02  0.7546771E-02  0.1235069E+00
         25   -1    0    0    0    0  0.00000000000E+00  0.00000000000E+00  0.99999998245E-14  0.12500000000E+03  0.12500000000E+03 0.  0.
          5    1    1    0  501    0 -0.44530279650E+02 -0.14897070031E+02  0.40979159322E+02  0.62500000000E+02  0.47000000000E+01 0. -1.
         -5    1    1    0    0  501  0.44530279650E+02  0.14897070031E+02 -0.40979159322E+02  0.62500000000E+02  0.47000000000E+01 0. -1.
</event>
<event>
 3    0  0.4580101E-005  0.9118800E+02  0.7546771E-02  0.1235069E+00
         25   -1    0    0    0    0  0.00000000000E+00  0.00000000000E+00  0.99999998245E-14  0.12500000000E+03  0.12500000000E+03 0.  0.
          5    1    1    0  501    0 -0.12207229724E+01 -0.61571310830E+02 -0.95730621053E+01  0.62500000000E+02  0.47000000000E+01 0. -1.
         -5    1    1    0    0  501  0.12207229724E+01  0.61571310830E+02  0.95730621053E+01  0.62500000000E+02  0.47000000000E+01 0. -1.
</event>
<event>
 3    0  0.4580101E-005  0.9118800E+02  0.7546771E-02  0.1235069E+00
         25   -1    0    0    0    0  0.00000000000E+00  0.00000000000E+00  0.99999998245E-14  0.12500000000E+03  0.12500000000E+03 0.  0.
          5    1    1    0  501    0  0.31682329904E+02  0.37381287129E+02  0.38510120026E+02  0.62500000000E+02  0.47000000000E+01 0.  1.
         -5    1    1    0    0  501 -0.31682329904E+02 -0.37381287129E+02 -0.38510120026E+02  0.62500000000E+02  0.47000000000E+01 0.  1.
</event>
<event>
 3    0  0.4580101E-005  0.9118800E+02  0.7546771E-02  0.1235069E+00
         25   -1    0    0    0    0  0.00000000000E+00  0.00000000000E+00  0.99999998245E-14  0.12500000000E+03  0.12500000000E+03 0.  0.
          5    1    1    0  501    0 -0.51383215276E+02  0.11530339468E+02 -0.33331313500E+02  0.62500000000E+02  0.47000000000E+01 0. -1.
         -5    1    1    0    0  501  0.51383215276E+02 -0.11530339468E+02  0.33331313500E+02  0.62500000000E+02  0.47000000000E+01 0. -1.
</event>
<event>
 3    0  0.4580101E-005  0.9118800E+02  0.7546771E-02  0.1235069E+00
         25   -1    0    0    0    0  0.00000000000E+00  0.00000000000E+00  0.99999998245E-14  0.12500000000E+03  0.12500000000E+03 0.  0.
          5    1    1    0  501    0  0.56440811443E+02 -0.25638904713E+02  0.64219443099E+01  0.62500000000E+02  0.47000000000E+01 0.  1.
         -5    1    1    0    0  501 -0.56440811443E+02  0.25638904713E+02 -0.64219443099E+01  0.62500000000E+02  0.47000000000E+01 0.  1.
</event>
<event>
 3    0  0.4580101E-005  0.9118800E+02  0.7546771E-02  0.1235069E+00
         25   -1    0    0    0    0  0.00000000000E+00  0.00000000000E+00  0.99999998245E-14  0.12500000000E+03  0.12500000000E+03 0.  0.
          5    1    1    0  501    0 -0.19416524873E+02  0.35377745311E+02 -0.47492880504E+02  0.62500000000E+02  0.47000000000E+01 0.  1.
         -5    1    1    0    0  501  0.19416524873E+02 -0.35377745311E+02  0.47492880504E+02  0.62500000000E+02  0.47000000000E+01 0.  1.
</event>
<event>
 3    0  0.4580101E-005  0.9118800E+02  0.7546771E-02  0.1235069E+00
         25   -1    0    0    0    0  0.00000000000E+00  0.00000000000E+00  0.99999998245E-14  0.12500000000E+03  0.12500000000E+03 0.  0.
          5    1    1    0  501    0  0.95139750461E+01  0.43730923696E+02 -0.43373385751E+02  0.62500000000E+02  0.47000000000E+01 0. -1.
         -5    1    1    0    0  501 -0.95139750461E+01 -0.43730923696E+02  0.43373385751E+02  0.62500000000E+02  0.47000000000E+01 0. -1.
</event>
<event>
 3    0  0.4580101E-005  0.9118800E+02  0.7546771E-02  0.1235069E+00
         25   -1    0    0    0    0  0.00000000000E+00  0.00000000000E+00  0.99999998245E-14  0.12500000000E+03  0.12500000000E+03 0.  0.
          5    1    1    0  501    0 -0.57618376946E+02 -0.23401816271E+02 -0.40789255200E+01  0.62500000000E+02  0.47000000000E+01 0.  1.
         -5    1    1    0    0  501  0.57618376946E+02  0.23401816271E+02  0.40789255200E+01  0.62500000000E+02  0.47000000000E+01 0.  1.
</event>
<event>
 3    0  0.4580101E-005  0.9118800E+02  0.7546771E-02  0.1235069E+00
         25   -1    0    0    0    0  0.00000000000E+00  0.00000000000E+00  0.99999998245E-14  0.12500000000E+03  0.12500000000E+03 0.  0.
          5    1    1    0  501    0  0.22317940297E+02  0.35456153635E+02  0.46140337128E+02  0.62500000000E+02  0.47000000000E+01 0. -1.
         -5    1    1    0    0  501 -0.22317940297E+02 -0.35456153635E+02 -0.46140337128E+02  0.62500000000E+02  0.47000000000E+01 0. -1.
</event>
<event>
 3    0  0.4580101E-005  0.9118800E+02  0.7546771E-02  0.1235069E+00
         25   -1    0    0    0    0  0.00000000000E+00  0.00000000000E+00  0.99999998245E-14  0.12500000000E+03  0.12500000000E+03 0.  0.
          5    1    1    0  501    0 -0.16346465190E+02 -0.49969002800E+02 -0.33467175486E+02  0.62500000000E+02  0.47000000000E+01 0. -1.
         -5    1    1    0    0  501  0.16346465190E+02  0.49969002800E+02  0.33467175486E+02  0.62500000000E+02  0.47000000000E+01 0. -1.
</event>
<event>
 3    0  0.4580101E-005  0.9118800E+02  0.7546771E-02  0.1235069E+00
         25   -1    0    0    0    0  0.00000000000E+00  0.00000000000E+00  0.99999998245E-14  0.12500000000E+03  0.12500000000E+03 0.  0.
          5    1    1    0  501    0  0.25026628318E+02  0.56620313689E+02  0.72088801379E+01  0.62500000000E+02  0.47000000000E+01 0. -1.
         -5    1    1    0    0  501 -0.25026628318E+02 -0.56620313689E+02 -0.72088801379E+01  0.62500000000E+02  0.47000000000E+01 0. -1.
</event>
<event>
 3    0  0.4580101E-005  0.9118800E+02  0.7546771E-02  0.1235069E+00
         25   -1    0    0    0    0  0.00000000000E+00  0.00000000000E+00  0.99999998245E-14  0.12500000000E+03  0.12500000000E+03 0.  0.
          5    1    1    0  501    0 -0.33789578525E+02 -0.25945737462E+02  0.45488933717E+02  0.62500000000E+02  0.47000000000E+01 0. -1.
         -5    1    1    0    0  501  0.33789578525E+02  0.25945737462E+02 -0.45488933717E+02  0.62500000000E+02  0.47000000000E+01 0. -1.
</event>
<event>
 3    0  0.4580101E-005  0.9118800E+02  0.7546771E-02  0.1235069E+00
         25   -1    0    0    0    0  0.00000000000E+00  0.00000000000E+00  0.99999998245E-14  0.12500000000E+03  0.12500000000E+03 0.  0.
          5    1    1    0  501    0  0.19801402089E+02  0.31293041228E+02  0.50127936782E+02  0.62500000000E+02  0.47000000000E+01 0.  1.
         -5    1    1    0    0  501 -0.19801402089E+02 -0.31293041228E+02 -0.50127936782E+02  0.62500000000E+02  0.47000000000E+01 0.  1.
</event>
<event>
 3    0  0.4580101E-005  0.9118800E+02  0.7546771E-02  0.1235069E+00
         25   -1    0    0    0    0  0.00000000000E+00  0.00000000000E+00  0.99999998245E-14  0.12500000000E+03  0.12500000000E+03 0.  0.
          5    1    1    0  501    0  0.25935617022E+02  0.54453545294E+02  0.15694431323E+02  0.62500000000E+02  0.47000000000E+01 0. -1.
         -5    1    1    0    0  501 -0.25935617022E+02 -0.54453545294E+02 -0.15694431323E+02  0.62500000000E+02  0.47000000000E+01 0. -1.
</event>
<event>
 3    0  0.4580101E-005  0.9118800E+02  0.7546771E-02  0.1235069E+00
         25   -1    0    0    0    0  0.00000000000E+00  0.00000000000E+00  0.99999998245E-14  0.12500000000E+03  0.12500000000E+03 0.  0.
          5    1    1    0  501    0  0.43668823713E+02  0.39074383598E+02 -0.21222308590E+02  0.62500000000E+02  0.47000000000E+01 0. -1.
         -5    1    1    0    0  501 -0.43668823713E+02 -0.39074383598E+02  0.21222308590E+02  0.62500000000E+02  0.47000000000E+01 0. -1.
</event>
<event>
 3    0  0.4580101E-005  0.9118800E+02  0.7546771E-02  0.1235069E+00
         25   -1    0    0    0    0  0.00000000000E+00  0.00000000000E+00  0.99999998245E-14  0.12500000000E+03  0.12500000000E+03 0.  0.
          5    1    1    0  501    0 -0.22075187550E+02 -0.85476557050E+00 -0.58276199863E+02  0.62500000000E+02  0.47000000000E+01 0.  1.
         -5    1    1    0    0  501  0.22075187550E+02  0.85476557050E+00  0.58276199863E+02  0.62500000000E+02  0.47000000000E+01 0.  1.
</event>
<event>
 3    0  0.4580101E-005  0.9118800E+02  0.7546771E-02  0.1235069E+00
         25   -1    0    0    0    0  0.00000000000E+00  0.00000000000E+00  0.99999998245E-14  0.12500000000E+03  0.12500000000E+03 0.  0.
          5    1    1    0  501    0 -0.58535605476E+02  0.12422333799E+02 -0.17419199595E+02  0.62500000000E+02  0.47000000000E+01 0.  1.
         -5    1    1    0    0  501  0.58535605476E+02 -0.12422333799E+02  0.17419199595E+02  0.62500000000E+02  0.47000000000E+01 0.  1.
</event>
<event>
 3    0  0.4580101E-005  0.9118800E+02  0.7546771E-02  0.1235069E+00
         25   -1    0    0    0    0  0.00000000000E+00  0.00000000000E+00  0.99999998245E-14  0.12500000000E+03  0.12500000000E+03 0.  0.
          5    1    1    0  501    0 -0.33020134767E+02 -0.13829523191E+02  0.51015438725E+02  0.62500000000E+02  0.47000000000E+01 0.  1.
         -5    1    1    0    0  501  0.33020134767E+02  0.13829523191E+02 -0.51015438725E+02  0.62500000000E+02  0.47000000000E+01 0.  1.
</event>
<event>
 3    0  0.4580101E-005  0.9118800E+02  0.7546771E-02  0.1235069E+00
         25   -1    0    0    0    0  0.00000000000E+00  0.00000000000E+00  0.99999998245E-14  0.12500000000E+03  0.12500000000E+03 0.  0.
          5    1    1    0  501    0  0.60668166192E+02  0.96918433420E+01  0.10469087047E+02  0.62500000000E+02  0.47000000000E+01 0. -1.
         -5    1    1    0    0  501 -0.60668166192E+02 -0.96918433420E+01 -0.10469087047E+02  0.62500000000E+02  0.47000000000E+01 0. -1.
</event>
<event>
 3    0  0.4580101E-005  0.9118800E+02  0.7546771E-02  0.1235069E+00
         25   -1    0    0    0    0  0.00000000000E+00  0.00000000000E+00  0.99999998245E-14  0.12500000000E+03  0.12500000000E+03 0.  0.
          5    1    1    0  501    0 -0.35990856879E+02  0.53073884256E+01 -0.50602864042E+02  0.62500000000E+02  0.47000000000E+01 0. -1.
         -5    1    1    0    0  501  0.35990856879E+02 -0.53073884256E+01  0.50602864042E+02  0.62500000000E+02  0.47000000000E+01 0. -1.
</event>
<event>
 3    0  0.4580101E-005  0.9118800E+02  0.7546771E-02  0.1235069E+00
         25   -1    0    0    0    0  0.00000000000E+00  0.00000000000E+00  0.99999998245E-14  0.12500000000E+03  0.12500000000E+03 0.  0.
          5    1    1    0  501    0  0.11503197620E+02 -0.57821986020E+02  0.20210254260E+02  0.62500000000E+02  0.47000000000E+01 0.  1.
         -5    1    1    0    0  501 -0.11503197620E+02  0.57821986020E+02 -0.20210254260E+02  0.62500000000E+02  0.47000000000E+01 0.  1.
</event>
<event>
 3    0  0.4580101E-005  0.9118800E+02  0.7546771E-02  0.1235069E+00
         25   -1    0    0    0    0  0.00000000000E+00  0.00000000000E+00  0.99999998245E-14  0.12500000000E+03  0.12500000000E+03 0.  0.
          5    1    1    0  501    0  0.22590861437E+02 -0.14589928066E+02  0.56222299656E+02  0.62500000000E+02  0.47000000000E+01 0. -1.
         -5    1    1    0    0  501 -0.22590861437E+02  0.14589928066E+02 -0.56222299656E+02  0.62500000000E+02  0.47000000000E+01 0. -1.
</event>
<event>
 3    0  0.4580101E-005  0.9118800E+02  0.7546771E-02  0.1235069E+00
         25   -1    0    0    0    0  0.00000000000E+00  0.00000000000E+00  0.99999998245E-14  0.12500000000E+03  0.12500000000E+03 0.  0.
          5    1    1    0  501    0 -0.52543497978E+02  0.18732864981E+02 -0.27792455629E+02  0.62500000000E+02  0.47000000000E+01 0.  1.
         -5    1    1    0    0  501  0.52543497978E+02 -0.18732864981E+02  0.27792455629E+02  0.62500000000E+02  0.47000000000E+01 0.  1.
</event>
<event>
 3    0  0.4580101E-005  0.9118800E+02  0.7546771E-02  0.1235069E+00
         25   -1    0    0    0    0  0.00000000000E+00  0.00000000000E+00  0.99999998245E-14  0.12500000000E+03  0.12500000000E+03 0.  0.
          5    1    1    0  501    0  0.80416333678E+01 -0.57047251130E+02  0.23771900877E+02  0.62500000000E+02  0.47000000000E+01 0.  1.
         -5    1    1    0    0  501 -0.80416333678E+01  0.57047251130E+02 -0.23771900877E+02  0.62500000000E+02  0.47000000000E+01 0.  1.
</event>
<event>
 3    0  0.4580101E-005  0.9118800E+02  0.7546771E-02  0.1235069E+00
         25   -1    0    0    0    0  0.00000000000E+00  0.00000000000E+00  0.99999998245E-14  0.12500000000E+03  0.12500000000E+03 0.  0.
          5    1    1    0  501    0 -0.17017240527E+02  0.58259122472E+02 -0.14157972086E+02  0.62500000000E+02  0.47000000000E+01 0.  1.
         -5    1    1    0    0  501  0.17017240527E+02 -0.58259122472E+02  0.14157972086E+02  0.62500000000E+02  0.47000000000E+01 0.  1.
</event>
<event>
 3    0  0.4580101E-005  0.9118800E+02  0.7546771E-02  0.1235069E+00
         25   -1    0    0    0    0  0.00000000000E+00  0.00000000000E+00  0.99999998245E-14  0.12500000000E+03  0.12500000000E+03 0.  0.
          5    1    1    0  501    0  0.35341828689E+02  0.48184192098E+02 -0.17703072523E+02  0.62500000000E+02  0.47000000000E+01 0.  1.
         -5    1    1    0    0  501 -0.35341828689E+02 -0.48184192098E+02  0.17703072523E+02  0.62500000000E+02  0.47000000000E+01 0.  1.
</event>
<event>
 3    0  0.4580101E-005  0.9118800E+02  0.7546771E-02  0.1235069E+00
         25   -1    0    0    0    0  0.00000000000E+00  0.00000000000E+00  0.99999998245E-14  0.12500000000E+03  0.12500000000E+03 0.  0.
          5    1    1    0  501    0  0.38527918798E+02 -0.45479289872E+02  0.18204221099E+02  0.62500000000E+02  0.47000000000E+01 0. -1.
         -5    1    1    0    0  501 -0.38527918798E+02  0.45479289872E+02 -0.18204221099E+02  0.62500000000E+02  0.47000000000E+01 0. -1.
</event>
<event>
 3    0  0.4580101E-005  0.9118800E+02  0.7546771E-02  0.1235069E+00
         25   -1    0    0    0    0  0.00000000000E+00  0.00000000000E+00  0.99999998245E-14  0.12500000000E+03  0.12500000000E+03 0.  0.
          5    1    1    0  501    0  0.39922586808E+02  0.46498247703E+02 -0.11325194176E+02  0.62500000000E+02  0.47000000000E+01 0. -1.
         -5    1    1    0    0  501 -0.39922586808E+02 -0.46498247703E+02  0.11325194176E+02  0.62500000000E+02  0.47000000000E+01 0. -1.
</event>
<event>
 3    0  0.4580101E-005  0.9118800E+02  0.7546771E-02  0.1235069E+00
         25   -1    0    0    0    0  0.00000000000E+00  0.00000000000E+00  0.99999998245E-14  0.12500000000E+03  0.12500000000E+03 0.  0.
          5    1    1    0  501    0  0.33123025555E+02  0.31084698148E+02  0.42670443156E+02  0.62500000000E+02  0.47000000000E+01 0. -1.
         -5    1    1    0    0  501 -0.33123025555E+02 -0.31084698148E+02 -0.42670443156E+02  0.62500000000E+02  0.47000000000E+01 0. -1.
</event>
<event>
 3    0  0.4580101E-005  0.9118800E+02  0.7546771E-02  0.1235069E+00
         25   -1    0    0    0    0  0.00000000000E+00  0.00000000000E+00  0.99999998245E-14  0.12500000000E+03  0.12500000000E+03 0.  0.
          5    1    1    0  501    0  0.59859646630E+02 -0.11352629392E+01 -0.17311668994E+02  0.62500000000E+02  0.47000000000E+01 0.  1.
         -5    1    1    0    0  501 -0.59859646630E+02  0.11352629392E+01  0.17311668994E+02  0.62500000000E+02  0.47000000000E+01 0.  1.
</event>
<event>
 3    0  0.4580101E-005  0.9118800E+02  0.7546771E-02  0.1235069E+00
         25   -1    0    0    0    0  0.00000000000E+00  0.00000000000E+00  0.99999998245E-14  0.12500000000E+03  0.12500000000E+03 0.  0.
          5    1    1    0  501    0  0.38380751373E+02 -0.38257998971E+02 -0.30779919409E+02  0.62500000000E+02  0.47000000000E+01 0.  1.
         -5    1    1    0    0  501 -0.38380751373E+02  0.38257998971E+02  0.30779919409E+02  0.62500000000E+02  0.47000000000E+01 0.  1.
</event>
<event>
 3    0  0.4580101E-005  0.9118800E+02  0.7546771E-02  0.1235069E+00
         25   -1    0    0    0    0  0.00000000000E+00  0.00000000000E+00  0.99999998245E-14  0.12500000000E+03  0.12500000000E+03 0.  0.
          5    1    1    0  501    0 -0.22990444895E+02 -0.54708300662E+02  0.19042092381E+02  0.62500000000E+02  0.47000000000E+01 0.  1.
         -5    1    1    0    0  501  0.22990444895E+02  0.54708300662E+02 -0.19042092381E+02  0.62500000000E+02  0.47000000000E+01 0.  1.
</event>
<event>
 3    0  0.4580101E-005  0.9118800E+02  0.7546771E-02  0.1235069E+00
         25   -1    0    0    0    0  0.00000000000E+00  0.00000000000E+00  0.99999998245E-14  0.12500000000E+03  0.12500000000E+03 0.  0.
          5    1    1    0  501    0 -0.36014156796E+02 -0.46644778797E+02 -0.20283124050E+02  0.62500000000E+02  0.47000000000E+01 0. -1.
         -5    1    1    0    0  501  0.36014156796E+02  0.46644778797E+02  0.20283124050E+02  0.62500000000E+02  0.47000000000E+01 0. -1.
</event>
<event>
 3    0  0.4580101E-005  0.9118800E+02  0.7546771E-02  0.1235069E+00
         25   -1    0    0    0    0  0.00000000000E+00  0.00000000000E+00  0.99999998245E-14  0.12500000000E+03  0.12500000000E+03 0.  0.
          5    1    1    0  501    0 -0.60619291707E+02 -0.14108218964E+02  0.32279452541E+01  0.62500000000E+02  0.47000000000E+01 0. -1.
         -5    1    1    0    0  501  0.60619291707E+02  0.14108218964E+02 -0.32279452541E+01  0.62500000000E+02  0.47000000000E+01 0. -1.
</event>
<event>
 3    0  0.4580101E-005  0.9118800E+02  0.7546771E-02  0.1235069E+00
         25   -1    0    0    0    0  0.00000000000E+00  0.00000000000E+00  0.99999998245E-14  0.12500000000E+03  0.12500000000E+03 0.  0.
          5    1    1    0  501    0  0.53555400552E+02 -0.30356866335E+02  0.97180110133E+01  0.62500000000E+02  0.47000000000E+01 0.  1.
         -5    1    1    0    0  501 -0.53555400552E+02  0.30356866335E+02 -0.97180110133E+01  0.62500000000E+02  0.47000000000E+01 0.  1.
</event>
<event>
 3    0  0.4580101E-005  0.9118800E+02  0.7546771E-02  0.1235069E+00
         25   -1    0    0    0    0  0.00000000000E+00  0.00000000000E+00  0.99999998245E-14  0.12500000000E+03  0.12500000000E+03 0.  0.
          5    1    1    0  501    0  0.24296751923E+02  0.15605720750E+02  0.55229424457E+02  0.62500000000E+02  0.47000000000E+01 0.  1.
         -5    1    1    0    0  501 -0.24296751923E+02 -0.15605720750E+02 -0.55229424457E+02  0.62500000000E+02  0.47000000000E+01 0.  1.
</event>
<event>
 3    0  0.4580101E-005  0.9118800E+02  0.7546771E-02  0.1235069E+00
         25   -1    0    0    0    0  0.00000000000E+00  0.00000000000E+00  0.99999998245E-14  0.12500000000E+03  0.12500000000E+03 0.  0.
          5    1    1    0  501    0 -0.53713508581E+02  0.27876013612E+02  0.14897881092E+02  0.62500000000E+02  0.47000000000E+01 0. -1.
         -5    1    1    0    0  501  0.53713508581E+02 -0.27876013612E+02 -0.14897881092E+02  0.62500000000E+02  0.47000000000E+01 0. -1.
</event>
<event>
 3    0  0.4580101E-005  0.9118800E+02  0.7546771E-02  0.1235069E+00
         25   -1    0    0    0    0  0.00000000000E+00  0.00000000000E+00  0.99999998245E-14  0.12500000000E+03  0.12500000000E+03 0.  0.
          5    1    1    0  501    0  0.55506354365E+02  0.19275717030E+02  0.20776220977E+02  0.62500000000E+02  0.47000000000E+01 0. -1.
         -5    1    1    0    0  501 -0.55506354365E+02 -0.19275717030E+02 -0.20776220977E+02  0.62500000000E+02  0.47000000000E+01 0. -1.
</event>
<event>
 3    0  0.4580101E-005  0.9118800E+02  0.7546771E-02  0.1235069E+00
         25   -1    0    0    0    0  0.00000000000E+00  0.00000000000E+00  0.99999998245E-14  0.12500000000E+03  0.12500000000E+03 0.  0.
          5    1    1    0  501    0 -0.61076072386E+02 -0.10284428128E+02 -0.69356989522E+01  0.62500000000E+02  0.47000000000E+01 0.  1.
         -5    1    1    0    0  501  0.61076072386E+02  0.10284428128E+02  0.69356989522E+01  0.62500000000E+02  0.47000000000E+01 0.  1.
</event>
<event>
 3    0  0.4580101E-005  0.9118800E+02  0.7546771E-02  0.1235069E+00
         25   -1    0    0    0    0  0.00000000000E+00  0.00000000000E+00  0.99999998245E-14  0.12500000000E+03  0.12500000000E+03 0.  0.
          5    1    1    0  501    0  0.14221327101E+02 -0.17474806601E+02  0.58108045826E+02  0.62500000000E+02  0.47000000000E+01 0. -1.
         -5    1    1    0    0  501 -0.14221327101E+02  0.17474806601E+02 -0.58108045826E+02  0.62500000000E+02  0.47000000000E+01 0. -1.
</event>
<event>
 3    0  0.4580101E-005  0.9118800E+02  0.7546771E-02  0.1235069E+00
         25   -1    0    0    0    0  0.00000000000E+00  0.00000000000E+00  0.99999998245E-14  0.12500000000E+03  0.12500000000E+03 0.  0.
          5    1    1    0  501    0 -0.35247940772E+02 -0.35359588302E+02 -0.37302039977E+02  0.62500000000E+02  0.47000000000E+01 0. -1.
         -5    1    1    0    0  501  0.35247940772E+02  0.35359588302E+02  0.37302039977E+02  0.62500000000E+02  0.47000000000E+01 0. -1.
</event>
<event>
 3    0  0.4580101E-005  0.9118800E+02  0.7546771E-02  0.1235069E+00
         25   -1    0    0    0    0  0.00000000000E+00  0.00000000000E+00  0.99999998245E-14  0.12500000000E+03  0.12500000000E+03 0.  0.
          5    1    1    0  501    0 -0.41510769949E+02 -0.32464305416E+02  0.33272884637E+02  0.62500000000E+02  0.47000000000E+01 0. -1.
         -5    1    1    0    0  501  0.41510769949E+02  0.32464305416E+02 -0.33272884637E+02  0.62500000000E+02  0.47000000000E+01 0. -1.
</event>
<event>
 3    0  0.4580101E-005  0.9118800E+02  0.7546771E-02  0.1235069E+00
         25   -1    0    0    0    0  0.00000000000E+00  0.00000000000E+00  0.99999998245E-14  0.12500000000E+03  0.12500000000E+03 0.  0.
          5    1    1    0  501    0 -0.24220515378E+02 -0.76454299001E+01 -0.56912863541E+02  0.62500000000E+02  0.47000000000E+01 0. -1.
         -5    1    1    0    0  501  0.24220515378E+02  0.76454299001E+01  0.56912863541E+02  0.62500000000E+02  0.47000000000E+01 0. -1.
</event>
<event>
 3    0  0.4580101E-005  0.9118800E+02  0.7546771E-02  0.1235069E+00
         25   -1    0    0    0    0  0.00000000000E+00  0.00000000000E+00  0.99999998245E-14  0.12500000000E+03  0.12500000000E+03 0.  0.
          5    1    1    0  501    0 -0.27210404474E+02  0.51814467848E+02  0.21424630918E+02  0.62500000000E+02  0.47000000000E+01 0. -1.
         -5    1    1    0    0  501  0.27210404474E+02 -0.51814467848E+02 -0.21424630918E+02  0.62500000000E+02  0.47000000000E+01 0. -1.
</event>
<event>
 3    0  0.4580101E-005  0.9118800E+02  0.7546771E-02  0.1235069E+00
         25   -1    0    0    0    0  0.00000000000E+00  0.00000000000E+00  0.99999998245E-14  0.12500000000E+03  0.12500000000E+03 0.  0.
          5    1    1    0  501    0  0.55752736563E+02  0.12265071280E+02 -0.25007206805E+02  0.62500000000E+02  0.47000000000E+01 0.  1.
         -5    1    1    0    0  501 -0.55752736563E+02 -0.12265071280E+02  0.25007206805E+02  0.62500000000E+02  0.47000000000E+01 0.  1.
</event>
<event>
 3    0  0.4580101E-005  0.9118800E+02  0.7546771E-02  0.1235069E+00
         25   -1    0    0    0    0  0.00000000000E+00  0.00000000000E+00  0.99999998245E-14  0.12500000000E+03  0.12500000000E+03 0.  0.
          5    1    1    0  501    0  0.26200489554E+02  0.28910154382E+01 -0.56474209838E+02  0.62500000000E+02  0.47000000000E+01 0.  1.
         -5    1    1    0    0  501 -0.26200489554E+02 -0.28910154382E+01  0.56474209838E+02  0.62500000000E+02  0.47000000000E+01 0.  1.
</event>
<event>
 3    0  0.4580101E-005  0.9118800E+02  0.7546771E-02  0.1235069E+00
         25   -1    0    0    0    0  0.00000000000E+00  0.00000000000E+00  0.99999998245E-14  0.12500000000E+03  0.12500000000E+03 0.  0.
          5    1    1    0  501    0 -0.42473634180E+02 -0.44709389326E+02 -0.90122641792E+01  0.62500000000E+02  0.47000000000E+01 0.  1.
         -5    1    1    0    0  501  0.42473634180E+02  0.44709389326E+02  0.90122641792E+01  0.62500000000E+02  0.47000000000E+01 0.  1.
</event>
<event>
 3    0  0.4580101E-005  0.9118800E+02  0.7546771E-02  0.1235069E+00
         25   -1    0    0    0    0  0.00000000000E+00  0.00000000000E+00  0.99999998245E-14  0.12500000000E+03  0.12500000000E+03 0.  0.
          5    1    1    0  501    0  0.60262764267E+02 -0.40914688441E+00  0.15886844925E+02  0.62500000000E+02  0.47000000000E+01 0.  1.
         -5    1    1    0    0  501 -0.60262764267E+02  0.40914688441E+00 -0.15886844925E+02  0.62500000000E+02  0.47000000000E+01 0.  1.
</event>
<event>
 3    0  0.4580101E-005  0.9118800E+02  0.7546771E-02  0.1235069E+00
         25   -1    0    0    0    0  0.00000000000E+00  0.00000000000E+00  0.99999998245E-14  0.12500000000E+03  0.12500000000E+03 0.  0.
          5    1    1    0  501    0 -0.18106730372E+02  0.43909992615E+01 -0.59472896690E+02  0.62500000000E+02  0.47000000000E+01 0.  1.
         -5    1    1    0    0  501  0.18106730372E+02 -0.43909992615E+01  0.59472896690E+02  0.62500000000E+02  0.47000000000E+01 0.  1.
</event>
<event>
 3    0  0.4580101E-005  0.9118800E+02  0.7546771E-02  0.1235069E+00
         25   -1    0    0    0    0  0.00000000000E+00  0.00000000000E+00  0.99999998245E-14  0.12500000000E+03  0.12500000000E+03 0.  0.
          5    1    1    0  501    0 -0.42008597158E+02  0.21068017456E+02  0.40933805165E+02  0.62500000000E+02  0.47000000000E+01 0.  1.
         -5    1    1    0    0  501  0.42008597158E+02 -0.21068017456E+02 -0.40933805165E+02  0.62500000000E+02  0.47000000000E+01 0.  1.
</event>
<event>
 3    0  0.4580101E-005  0.9118800E+02  0.7546771E-02  0.1235069E+00
         25   -1    0    0    0    0  0.00000000000E+00  0.00000000000E+00  0.99999998245E-14  0.12500000000E+03  0.12500000000E+03 0.  0.
          5    1    1    0  501    0  0.15086605661E+02  0.48882960465E+02 -0.35595091035E+02  0.62500000000E+02  0.47000000000E+01 0.  1.
         -5    1    1    0    0  501 -0.15086605661E+02 -0.48882960465E+02  0.35595091035E+02  0.62500000000E+02  0.47000000000E+01 0.  1.
</event>
<event>
 3    0  0.4580101E-005  0.9118800E+02  0.7546771E-02  0.1235069E+00
         25   -1    0    0    0    0  0.00000000000E+00  0.00000000000E+00  0.99999998245E-14  0.12500000000E+03  0.12500000000E+03 0.  0.
          5    1    1    0  501    0  0.30145477463E+02 -0.52524191306E+02 -0.14717999735E+02  0.62500000000E+02  0.47000000000E+01 0. -1.
         -5    1    1    0    0  501 -0.30145477463E+02  0.52524191306E+02  0.14717999735E+02  0.62500000000E+02  0.47000000000E+01 0. -1.
</event>
<event>
 3    0  0.4580101E-005  0.9118800E+02  0.7546771E-02  0.1235069E+00
         25   -1    0    0    0    0  0.00000000000E+00  0.00000000000E+00  0.99999998245E-14  0.12500000000E+03  0.12500000000E+03 0.  0.
          5    1    1    0  501    0 -0.28012886315E+01  0.45262987974E+01  0.62095292907E+02  0.62500000000E+02  0.47000000000E+01 0. -1.
         -5    1    1    0    0  501  0.28012886315E+01 -0.45262987974E+01 -0.62095292907E+02  0.62500000000E+02  0.47000000000E+01 0. -1.
</event>
<event>
 3    0  0.4580101E-005  0.9118800E+02  0.7546771E-02  0.1235069E+00
         25   -1    0    0    0    0  0.00000000000E+00  0.00000000000E+00  0.99999998245E-14  0.12500000000E+03  0.12500000000E+03 0.  0.
          5    1    1    0  501    0  0.32633637199E+02 -0.10195311913E+02 -0.52108169591E+02  0.62500000000E+02  0.47000000000E+01 0. -1.
         -5    1    1    0    0  501 -0.32633637199E+02  0.10195311913E+02  0.52108169591E+02  0.62500000000E+02  0.47000000000E+01 0. -1.
</event>
<event>
 3    0  0.4580101E-005  0.9118800E+02  0.7546771E-02  0.1235069E+00
         25   -1    0    0    0    0  0.00000000000E+00  0.00000000000E+00  0.99999998245E-14  0.12500000000E+03  0.12500000000E+03 0.  0.
          5    1    1    0  501    0 -0.11953372458E+02  0.51235542768E+02  0.33409520262E+02  0.62500000000E+02  0.47000000000E+01 0. -1.
         -5    1    1    0    0  501  0.11953372458E+02 -0.51235542768E+02 -0.33409520262E+02  0.62500000000E+02  0.47000000000E+01 0. -1.
</event>
<event>
 3    0  0.4580101E-005  0.9118800E+02  0.7546771E-02  0.1235069E+00
         25   -1    0    0    0    0  0.00000000000E+00  0.00000000000E+00  0.99999998245E-14  0.12500000000E+03  0.12500000000E+03 0.  0.
          5    1    1    0  501    0  0.19295279835E+02 -0.55357785884E+02 -0.21151068959E+02  0.62500000000E+02  0.47000000000E+01 0. -1.
         -5    1    1    0    0  501 -0.19295279835E+02  0.55357785884E+02  0.21151068959E+02  0.62500000000E+02  0.47000000000E+01 0. -1.
</event>
<event>
 3    0  0.4580101E-005  0.9118800E+02  0.7546771E-02  0.1235069E+00
         25   -1    0    0    0    0  0.00000000000E+00  0.00000000000E+00  0.99999998245E-14  0.12500000000E+03  0.12500000000E+03 0.  0.
          5    1    1    0  501    0  0.23913694472E+02 -0.34021397986E+02  0.46420250923E+02  0.62500000000E+02  0.47000000000E+01 0.  1.
         -5    1    1    0    0  501 -0.23913694472E+02  0.34021397986E+02 -0.46420250923E+02  0.62500000000E+02  0.47000000000E+01 0.  1.
</event>
<event>
 3    0  0.4580101E-005  0.9118800E+02  0.7546771E-02  0.1235069E+00
         25   -1    0    0    0    0  0.00000000000E+00  0.00000000000E+00  0.99999998245E-14  0.12500000000E+03  0.12500000000E+03 0.  0.
          5    1    1    0  501    0  0.62953249526E+01 -0.63865571014E+01 -0.61674474235E+02  0.62500000000E+02  0.47000000000E+01 0.  1.
         -5    1    1    0    0  501 -0.62953249526E+01  0.63865571014E+01  0.61674474235E+02  0.62500000000E+02  0.47000000000E+01 0.  1.
</event>
<event>
 3    0  0.4580101E-005  0.9118800E+02  0.7546771E-02  0.1235069E+00
         25   -1    0    0    0    0  0.00000000000E+00  0.00000000000E+00  0.99999998245E-14  0.12500000000E+03  0.12500000000E+03 0.  0.
          5    1    1    0  501    0 -0.37097918821E+02  0.53195982698E+00  0.50076156381E+02  0.62500000000E+02  0.47000000000E+01 0. -1.
         -5    1    1    0    0  501  0.37097918821E+02 -0.53195982698E+00 -0.50076156381E+02  0.62500000000E+02  0.47000000000E+01 0. -1.
</event>
<event>
 3    0  0.4580101E-005  0.9118800E+02  0.7546771E-02  0.1235069E+00
         25   -1    0    0    0    0  0.00000000000E+00  0.00000000000E+00  0.99999998245E-14  0.12500000000E+03  0.12500000000E+03 0.  0.
          5    1    1    0  501    0  0.18641101471E+02 -0.56441519572E+02  0.18735639951E+02  0.62500000000E+02  0.47000000000E+01 0. -1.
         -5    1    1    0    0  501 -0.18641101471E+02  0.56441519572E+02 -0.18735639951E+02  0.62500000000E+02  0.47000000000E+01 0. -1.
</event>
<event>
 3    0  0.4580101E-005  0.9118800E+02  0.7546771E-02  0.1235069E+00
         25   -1    0    0    0    0  0.00000000000E+00  0.00000000000E+00  0.99999998245E-14  0.12500000000E+03  0.12500000000E+03 0.  0.
          5    1    1    0  501    0 -0.34435666862E+02  0.44943859265E+02  0.26046004725E+02  0.62500000000E+02  0.47000000000E+01 0. -1.
         -5    1    1    0    0  501  0.34435666862E+02 -0.44943859265E+02 -0.26046004725E+02  0.62500000000E+02  0.47000000000E+01 0. -1.
</event>
<event>
 3    0  0.4580101E-005  0.9118800E+02  0.7546771E-02  0.1235069E+00
         25   -1    0    0    0    0  0.00000000000E+00  0.00000000000E+00  0.99999998245E-14  0.12500000000E+03  0.12500000000E+03 0.  0.
          5    1    1    0  501    0  0.42627992004E+02 -0.44815470576E+02 -0.76542729753E+01  0.62500000000E+02  0.47000000000E+01 0. -1.
         -5    1    1    0    0  501 -0.42627992004E+02  0.44815470576E+02  0.76542729753E+01  0.62500000000E+02  0.47000000000E+01 0. -1.
</event>
<event>
 3    0  0.4580101E-005  0.9118800E+02  0.7546771E-02  0.1235069E+00
         25   -1    0    0    0    0  0.00000000000E+00  0.00000000000E+00  0.99999998245E-14  0.12500000000E+03  0.12500000000E+03 0.  0.
          5    1    1    0  501    0  0.37372090521E+02 -0.48947908327E+01 -0.49633938720E+02  0.62500000000E+02  0.47000000000E+01 0.  1.
         -5    1    1    0    0  501 -0.37372090521E+02  0.48947908327E+01  0.49633938720E+02  0.62500000000E+02  0.47000000000E+01 0.  1.
</event>
<event>
 3    0  0.4580101E-005  0.9118800E+02  0.7546771E-02  0.1235069E+00
         25   -1    0    0    0    0  0.00000000000E+00  0.00000000000E+00  0.99999998245E-14  0.12500000000E+03  0.12500000000E+03 0.  0.
          5    1    1    0  501    0  0.26528856720E+02  0.26223053238E+01 -0.56333855504E+02  0.62500000000E+02  0.47000000000E+01 0. -1.
         -5    1    1    0    0  501 -0.26528856720E+02 -0.26223053238E+01  0.56333855504E+02  0.62500000000E+02  0.47000000000E+01 0. -1.
</event>
<event>
 3    0  0.4580101E-005  0.9118800E+02  0.7546771E-02  0.1235069E+00
         25   -1    0    0    0    0  0.00000000000E+00  0.00000000000E+00  0.99999998245E-14  0.12500000000E+03  0.12500000000E+03 0.  0.
          5    1    1    0  501    0 -0.12236608889E+02 -0.45070576246E+02  0.41268251232E+02  0.62500000000E+02  0.47000000000E+01 0. -1.
         -5    1    1    0    0  501  0.12236608889E+02  0.45070576246E+02 -0.41268251232E+02  0.62500000000E+02  0.47000000000E+01 0. -1.
</event>
<event>
 3    0  0.4580101E-005  0.9118800E+02  0.7546771E-02  0.1235069E+00
         25   -1    0    0    0    0  0.00000000000E+00  0.00000000000E+00  0.99999998245E-14  0.12500000000E+03  0.12500000000E+03 0.  0.
          5    1    1    0  501    0  0.37400277813E+02  0.41470023997E+01  0.49680797001E+02  0.62500000000E+02  0.47000000000E+01 0.  1.
         -5    1    1    0    0  501 -0.37400277813E+02 -0.41470023997E+01 -0.49680797001E+02  0.62500000000E+02  0.47000000000E+01 0.  1.
</event>
<event>
 3    0  0.4580101E-005  0.9118800E+02  0.7546771E-02  0.1235069E+00
         25   -1    0    0    0    0  0.00000000000E+00  0.00000000000E+00  0.99999998245E-14  0.12500000000E+03  0.12500000000E+03 0.  0.
          5    1    1    0  501    0  0.35092830462E+02 -0.24792782300E+02  0.45143894338E+02  0.62500000000E+02  0.47000000000E+01 0. -1.
         -5    1    1    0    0  501 -0.35092830462E+02  0.24792782300E+02 -0.45143894338E+02  0.62500000000E+02  0.47000000000E+01 0. -1.
</event>
<event>
 3    0  0.4580101E-005  0.9118800E+02  0.7546771E-02  0.1235069E+00
         25   -1    0    0    0    0  0.00000000000E+00  0.00000000000E+00  0.99999998245E-14  0.12500000000E+03  0.12500000000E+03 0.  0.
          5    1    1    0  501    0 -0.82747853806E+01  0.52769080153E+02  0.32110934379E+02  0.62500000000E+02  0.47000000000E+01 0. -1.
         -5    1    1    0    0  501  0.82747853806E+01 -0.52769080153E+02 -0.32110934379E+02  0.62500000000E+02  0.47000000000E+01 0. -1.
</event>
<event>
 3    0  0.4580101E-005  0.9118800E+02  0.7546771E-02  0.1235069E+00
         25   -1    0    0    0    0  0.00000000000E+00  0.00000000000E+00  0.99999998245E-14  0.12500000000E+03  0.12500000000E+03 0.  0.
          5    1    1    0  501    0  0.20728342649E+02 -0.34463394646E+02  0.47610610587E+02  0.62500000000E+02  0.47000000000E+01 0. -1.
         -5    1    1    0    0  501 -0.20728342649E+02  0.34463394646E+02 -0.47610610587E+02  0.62500000000E+02  0.47000000000E+01 0. -1.
</event>
<event>
 3    0  0.4580101E-005  0.9118800E+02  0.7546771E-02  0.1235069E+00
         25   -1    0    0    0    0  0.00000000000E+00  0.00000000000E+00  0.99999998245E-14  0.12500000000E+03  0.12500000000E+03 0.  0.
          5    1    1    0  501    0  0.45417010817E+02  0.15063720765E+02  0.39931684728E+02  0.62500000000E+02  0.47000000000E+01 0. -1.
         -5    1    1    0    0  501 -0.45417010817E+02 -0.15063720765E+02 -0.39931684728E+02  0.62500000000E+02  0.47000000000E+01 0. -1.
</event>
<event>
 3    0  0.4580101E-005  0.9118800E+02  0.7546771E-02  0.1235069E+00
         25   -1    0    0    0    0  0.00000000000E+00  0.00000000000E+00  0.99999998245E-14  0.12500000000E+03  0.12500000000E+03 0.  0.
          5    1    1    0  501    0 -0.83963309666E+01  0.16808912040E+02 -0.59423245471E+02  0.62500000000E+02  0.47000000000E+01 0.  1.
         -5    1    1    0    0  501  0.83963309666E+01 -0.16808912040E+02  0.59423245471E+02  0.62500000000E+02  0.47000000000E+01 0.  1.
</event>
<event>
 3    0  0.4580101E-005  0.9118800E+02  0.7546771E-02  0.1235069E+00
         25   -1    0    0    0    0  0.00000000000E+00  0.00000000000E+00  0.99999998245E-14  0.12500000000E+03  0.12500000000E+03 0.  0.
          5    1    1    0  501    0  0.13548710931E+02  0.17209102869E+02  0.58347572448E+02  0.62500000000E+02  0.47000000000E+01 0. -1.
         -5    1    1    0    0  501 -0.13548710931E+02 -0.17209102869E+02 -0.58347572448E+02  0.62500000000E+02  0.47000000000E+01 0. -1.
</event>
<event>
 3    0  0.4580101E-005  0.9118800E+02  0.7546771E-02  0.1235069E+00
         25   -1    0    0    0    0  0.00000000000E+00  0.00000000000E+00  0.99999998245E-14  0.12500000000E+03  0.12500000000E+03 0.  0.
          5    1    1    0  501    0  0.13451584623E+02 -0.52553391539E+02  0.30681523902E+02  0.62500000000E+02  0.47000000000E+01 0. -1.
         -5    1    1    0    0  501 -0.13451584623E+02  0.52553391539E+02 -0.30681523902E+02  0.62500000000E+02  0.47000000000E+01 0. -1.
</event>
<event>
 3    0  0.4580101E-005  0.9118800E+02  0.7546771E-02  0.1235069E+00
         25   -1    0    0    0    0  0.00000000000E+00  0.00000000000E+00  0.99999998245E-14  0.12500000000E+03  0.12500000000E+03 0.  0.
          5    1    1    0  501    0 -0.55430431253E+02  0.16539108593E+01  0.28441024419E+02  0.62500000000E+02  0.47000000000E+01 0. -1.
         -5    1    1    0    0  501  0.55430431253E+02 -0.16539108593E+01 -0.28441024419E+02  0.62500000000E+02  0.47000000000E+01 0. -1.
</event>
<event>
 3    0  0.4580101E-005  0.9118800E+02  0.7546771E-02  0.1235069E+00
         25   -1    0    0    0    0  0.00000000000E+00  0.00000000000E+00  0.99999998245E-14  0.12500000000E+03  0.12500000000E+03 0.  0.
          5    1    1    0  501    0  0.37099283170E+02  0.39209844286E+02  0.31151104304E+02  0.62500000000E+02  0.47000000000E+01 0. -1.
         -5    1    1    0    0  501 -0.37099283170E+02 -0.39209844286E+02 -0.31151104304E+02  0.62500000000E+02  0.47000000000E+01 0. -1.
</event>
<event>
 3    0  0.4580101E-005  0.9118800E+02  0.7546771E-02  0.1235069E+00
         25   -1    0    0    0    0  0.00000000000E+00  0.00000000000E+00  0.99999998245E-14  0.12500000000E+03  0.12500000000E+03 0.  0.
          5    1    1    0  501    0  0.53386601189E+02 -0.19043849355E+02 -0.25910666051E+02  0.62500000000E+02  0.47000000000E+01 0.  1.
         -5    1    1    0    0  501 -0.53386601189E+02  0.19043849355E+02  0.25910666051E+02  0.62500000000E+02  0.47000000000E+01 0.  1.
</event>
<event>
 3    0  0.4580101E-005  0.9118800E+02  0.7546771E-02  0.1235069E+00
         25   -1    0    0    0    0  0.00000000000E+00  0.00000000000E+00  0.99999998245E-14  0.12500000000E+03  0.12500000000E+03 0.  0.
          5    1    1    0  501    0 -0.78965016248E+01 -0.30436056448E+02  0.53809401873E+02  0.62500000000E+02  0.47000000000E+01 0.  1.
         -5    1    1    0    0  501  0.78965016248E+01  0.30436056448E+02 -0.53809401873E+02  0.62500000000E+02  0.47000000000E+01 0.  1.
</event>
<event>
 3    0  0.4580101E-005  0.9118800E+02  0.7546771E-02  0.1235069E+00
         25   -1    0    0    0    0  0.00000000000E+00  0.00000000000E+00  0.99999998245E-14  0.12500000000E+03  0.12500000000E+03 0.  0.
          5    1    1    0  501    0 -0.10299495424E+02 -0.57928842336E+02 -0.20550659835E+02  0.62500000000E+02  0.47000000000E+01 0.  1.
         -5    1    1    0    0  501  0.10299495424E+02  0.57928842336E+02  0.20550659835E+02  0.62500000000E+02  0.47000000000E+01 0.  1.
</event>
<event>
 3    0  0.4580101E-005  0.9118800E+02  0.7546771E-02  0.1235069E+00
         25   -1    0    0    0    0  0.00000000000E+00  0.00000000000E+00  0.99999998245E-14  0.12500000000E+03  0.12500000000E+03 0.  0.
          5    1    1    0  501    0 -0.58635721753E+02  0.14725300804E+02 -0.15138614559E+02  0.62500000000E+02  0.47000000000E+01 0.  1.
         -5    1    1    0    0  501  0.58635721753E+02 -0.14725300804E+02  0.15138614559E+02  0.62500000000E+02  0.47000000000E+01 0.  1.
</event>
<event>
 3    0  0.4580101E-005  0.9118800E+02  0.7546771E-02  0.1235069E+00
         25   -1    0    0    0    0  0.00000000000E+00  0.00000000000E+00  0.99999998245E-14  0.12500000000E+03  0.12500000000E+03 0.  0.
          5    1    1    0  501    0  0.19696816388E+02 -0.55276443632E+02 -0.20993098952E+02  0.62500000000E+02  0.47000000000E+01 0.  1.
         -5    1    1    0    0  501 -0.19696816388E+02  0.55276443632E+02  0.20993098952E+02  0.62500000000E+02  0.47000000000E+01 0.  1.
</event>
<event>
 3    0  0.4580101E-005  0.9118800E+02  0.7546771E-02  0.1235069E+00
         25   -1    0    0    0    0  0.00000000000E+00  0.00000000000E+00  0.99999998245E-14  0.12500000000E+03  0.12500000000E+03 0.  0.
          5    1    1    0  501    0  0.24753971820E+02  0.45748667904E+02  0.34328709037E+02  0.62500000000E+02  0.47000000000E+01 0.  1.
         -5    1    1    0    0  501 -0.24753971820E+02 -0.45748667904E+02 -0.34328709037E+02  0.62500000000E+02  0.47000000000E+01 0.  1.
</event>
<event>
 3    0  0.4580101E-005  0.9118800E+02  0.7546771E-02  0.1235069E+00
         25   -1    0    0    0    0  0.00000000000E+00  0.00000000000E+00  0.99999998245E-14  0.12500000000E+03  0.12500000000E+03 0.  0.
          5    1    1    0  501    0  0.38135943009E+02 -0.48943957236E+01  0.49049513161E+02  0.62500000000E+02  0.47000000000E+01 0.  1.
         -5    1    1    0    0  501 -0.38135943009E+02  0.48943957236E+01 -0.49049513161E+02  0.62500000000E+02  0.47000000000E+01 0.  1.
</event>
<event>
 3    0  0.4580101E-005  0.9118800E+02  0.7546771E-02  0.1235069E+00
         25   -1    0    0    0    0  0.00000000000E+00  0.00000000000E+00  0.99999998245E-14  0.12500000000E+03  0.12500000000E+03 0.  0.
          5    1    1    0  501    0  0.26333717441E+02 -0.13098604567E+02 -0.54946536598E+02  0.62500000000E+02  0.47000000000E+01 0. -1.
         -5    1    1    0    0  501 -0.26333717441E+02  0.13098604567E+02  0.54946536598E+02  0.62500000000E+02  0.47000000000E+01 0. -1.
</event>
<event>
 3    0  0.4580101E-005  0.9118800E+02  0.7546771E-02  0.1235069E+00
         25   -1    0    0    0    0  0.00000000000E+00  0.00000000000E+00  0.99999998245E-14  0.12500000000E+03  0.12500000000E+03 0.  0.
          5    1    1    0  501    0  0.23696199885E+02  0.23169127031E+02 -0.52781072968E+02  0.62500000000E+02  0.47000000000E+01 0.  1.
         -5    1    1    0    0  501 -0.23696199885E+02 -0.23169127031E+02  0.52781072968E+02  0.62500000000E+02  0.47000000000E+01 0.  1.
</event>
<event>
 3    0  0.4580101E-005  0.9118800E+02  0.7546771E-02  0.1235069E+00
         25   -1    0    0    0    0  0.00000000000E+00  0.00000000000E+00  0.99999998245E-14  0.12500000000E+03  0.12500000000E+03 0.  0.
          5    1    1    0  501    0  0.58563698380E+02 -0.12631068540E+02 -0.17172924607E+02  0.62500000000E+02  0.47000000000E+01 0.  1.
         -5    1    1    0    0  501 -0.58563698380E+02  0.12631068540E+02  0.17172924607E+02  0.62500000000E+02  0.47000000000E+01 0.  1.
</event>
<event>
 3    0  0.4580101E-005  0.9118800E+02  0.7546771E-02  0.1235069E+00
         25   -1    0    0    0    0  0.00000000000E+00  0.00000000000E+00  0.99999998245E-14  0.12500000000E+03  0.12500000000E+03 0.  0.
          5    1    1    0  501    0  0.19355352596E+02 -0.42854794958E+02  0.40902284472E+02  0.62500000000E+02  0.47000000000E+01 0. -1.
         -5    1    1    0    0  501 -0.19355352596E+02  0.42854794958E+02 -0.40902284472E+02  0.62500000000E+02  0.47000000000E+01 0. -1.
</event>
<event>
 3    0  0.4580101E-005  0.9118800E+02  0.7546771E-02  0.1235069E+00
         25   -1    0    0    0    0  0.00000000000E+00  0.00000000000E+00  0.99999998245E-14  0.12500000000E+03  0.12500000000E+03 0.  0.
          5    1    1    0  501    0  0.48839327518E+02 -0.34774286786E+02 -0.17018491888E+02  0.62500000000E+02  0.47000000000E+01 0.  1.
         -5    1    1    0    0  501 -0.48839327518E+02  0.34774286786E+02  0.17018491888E+02  0.62500000000E+02  0.47000000000E+01 0.  1.
</event>
<event>
 3    0  0.4580101E-005  0.9118800E+02  0.7546771E-02  0.1235069E+00
         25   -1    0    0    0    0  0.00000000000E+00  0.00000000000E+00  0.99999998245E-14  0.12500000000E+03  0.12500000000E+03 0.  0.
          5    1    1    0  501    0  0.59516893543E+02  0.12918333175E+02  0.13229363213E+02  0.62500000000E+02  0.47000000000E+01 0. -1.
         -5    1    1    0    0  501 -0.59516893543E+02 -0.12918333175E+02 -0.13229363213E+02  0.62500000000E+02  0.47000000000E+01 0. -1.
</event>
<event>
 3    0  0.4580101E-005  0.9118800E+02  0.7546771E-02  0.1235069E+00
         25   -1    0    0    0    0  0.00000000000E+00  0.00000000000E+00  0.99999998245E-14  0.12500000000E+03  0.12500000000E+03 0.  0.
          5    1    1    0  501    0 -0.53618041028E+02  0.19049772240E+02 -0.25423844200E+02  0.62500000000E+02  0.47000000000E+01 0. -1.
         -5    1    1    0    0  501  0.53618041028E+02 -0.19049772240E+02  0.25423844200E+02  0.62500000000E+02  0.47000000000E+01 0. -1.
</event>
<event>
 3    0  0.4580101E-005  0.9118800E+02  0.7546771E-02  0.1235069E+00
         25   -1    0    0    0    0  0.00000000000E+00  0.00000000000E+00  0.99999998245E-14  0.12500000000E+03  0.12500000000E+03 0.  0.
          5    1    1    0  501    0  0.25993090633E+02 -0.11165291628E+02 -0.55532472502E+02  0.62500000000E+02  0.47000000000E+01 0.  1.
         -5    1    1    0    0  501 -0.25993090633E+02  0.11165291628E+02  0.55532472502E+02  0.62500000000E+02  0.47000000000E+01 0.  1.
</event>
<event>
 3    0  0.4580101E-005  0.9118800E+02  0.7546771E-02  0.1235069E+00
         25   -1    0    0    0    0  0.00000000000E+00  0.00000000000E+00  0.99999998245E-14  0.12500000000E+03  0.12500000000E+03 0.  0.
          5    1    1    0  501    0  0.22077071553E+02 -0.53686762914E+02  0.22682468990E+02  0.62500000000E+02  0.47000000000E+01 0. -1.
         -5    1    1    0    0  501 -0.22077071553E+02  0.53686762914E+02 -0.22682468990E+02  0.62500000000E+02  0.47000000000E+01 0. -1.
</event>
<event>
 3    0  0.4580101E-005  0.9118800E+02  0.7546771E-02  0.1235069E+00
         25   -1    0    0    0    0  0.00000000000E+00  0.00000000000E+00  0.99999998245E-14  0.12500000000E+03  0.12500000000E+03 0.  0.
          5    1    1    0  501    0  0.57790771396E+02  0.23315457642E+02  0.88100872026E+00  0.62500000000E+02  0.47000000000E+01 0. -1.
         -5    1    1    0    0  501 -0.57790771396E+02 -0.23315457642E+02 -0.88100872026E+00  0.62500000000E+02  0.47000000000E+01 0. -1.
</event>
<event>
 3    0  0.4580101E-005  0.9118800E+02  0.7546771E-02  0.1235069E+00
         25   -1    0    0    0    0  0.00000000000E+00  0.00000000000E+00  0.99999998245E-14  0.12500000000E+03  0.12500000000E+03 0.  0.
          5    1    1    0  501    0  0.31291830558E+02 -0.50772033001E+02 -0.18088173077E+02  0.62500000000E+02  0.47000000000E+01 0. -1.
         -5    1    1    0    0  501 -0.31291830558E+02  0.50772033001E+02  0.18088173077E+02  0.62500000000E+02  0.47000000000E+01 0. -1.
</event>
<event>
 3    0  0.4580101E-005  0.9118800E+02  0.7546771E-02  0.1235069E+00
         25   -1    0    0    0    0  0.00000000000E+00  0.00000000000E+00  0.99999998245E-14  0.12500000000E+03  0.12500000000E+03 0.  0.
          5    1    1    0  501    0 -0.28817638563E+02 -0.54230884305E+02  0.10616727139E+02  0.62500000000E+02  0.47000000000E+01 0.  1.
         -5    1    1    0    0  501  0.28817638563E+02  0.54230884305E+02 -0.10616727139E+02  0.62500000000E+02  0.47000000000E+01 0.  1.
</event>
<event>
 3    0  0.4580101E-005  0.9118800E+02  0.7546771E-02  0.1235069E+00
         25   -1    0    0    0    0  0.00000000000E+00  0.00000000000E+00  0.99999998245E-14  0.12500000000E+03  0.12500000000E+03 0.  0.
          5    1    1    0  501    0 -0.37226513001E+02  0.26318744132E+02 -0.42493181066E+02  0.62500000000E+02  0.47000000000E+01 0.  1.
         -5    1    1    0    0  501  0.37226513001E+02 -0.26318744132E+02  0.42493181066E+02  0.62500000000E+02  0.47000000000E+01 0.  1.
</event>
<event>
 3    0  0.4580101E-005  0.9118800E+02  0.7546771E-02  0.1235069E+00
         25   -1    0    0    0    0  0.00000000000E+00  0.00000000000E+00  0.99999998245E-14  0.12500000000E+03  0.12500000000E+03 0.  0.
          5    1    1    0  501    0 -0.55423752540E+02  0.23950051009E+02  0.15451948454E+02  0.62500000000E+02  0.47000000000E+01 0. -1.
         -5    1    1    0    0  501  0.55423752540E+02 -0.23950051009E+02 -0.15451948454E+02  0.62500000000E+02  0.47000000000E+01 0. -1.
</event>
<event>
 3    0  0.4580101E-005  0.9118800E+02  0.7546771E-02  0.1235069E+00
         25   -1    0    0    0    0  0.00000000000E+00  0.00000000000E+00  0.99999998245E-14  0.12500000000E+03  0.12500000000E+03 0.  0.
          5    1    1    0  501    0 -0.34207904123E+02 -0.44195163519E+02  0.27582001687E+02  0.62500000000E+02  0.47000000000E+01 0. -1.
         -5    1    1    0    0  501  0.34207904123E+02  0.44195163519E+02 -0.27582001687E+02  0.62500000000E+02  0.47000000000E+01 0. -1.
</event>
<event>
 3    0  0.4580101E-005  0.9118800E+02  0.7546771E-02  0.1235069E+00
         25   -1    0    0    0    0  0.00000000000E+00  0.00000000000E+00  0.99999998245E-14  0.12500000000E+03  0.12500000000E+03 0.  0.
          5    1    1    0  501    0  0.27914626988E+02  0.52324492204E+02 -0.19159361047E+02  0.62500000000E+02  0.47000000000E+01 0.  1.
         -5    1    1    0    0  501 -0.27914626988E+02 -0.52324492204E+02  0.19159361047E+02  0.62500000000E+02  0.47000000000E+01 0.  1.
</event>
<event>
 3    0  0.4580101E-005  0.9118800E+02  0.7546771E-02  0.1235069E+00
         25   -1    0    0    0    0  0.00000000000E+00  0.00000000000E+00  0.99999998245E-14  0.12500000000E+03  0.12500000000E+03 0.  0.
          5    1    1    0  501    0 -0.22252754814E+02  0.53590496245E+02  0.22738373191E+02  0.62500000000E+02  0.47000000000E+01 0. -1.
         -5    1    1    0    0  501  0.22252754814E+02 -0.53590496245E+02 -0.22738373191E+02  0.62500000000E+02  0.47000000000E+01 0. -1.
</event>
<event>
 3    0  0.4580101E-005  0.9118800E+02  0.7546771E-02  0.1235069E+00
         25   -1    0    0    0    0  0.00000000000E+00  0.00000000000E+00  0.99999998245E-14  0.12500000000E+03  0.12500000000E+03 0.  0.
          5    1    1    0  501    0 -0.28993855411E+02  0.26610510858E+01 -0.55103857901E+02  0.62500000000E+02  0.47000000000E+01 0. -1.
         -5    1    1    0    0  501  0.28993855411E+02 -0.26610510858E+01  0.55103857901E+02  0.62500000000E+02  0.47000000000E+01 0. -1.
</event>
<event>
 3    0  0.4580101E-005  0.9118800E+02  0.7546771E-02  0.1235069E+00
         25   -1    0    0    0    0  0.00000000000E+00  0.00000000000E+00  0.99999998245E-14  0.12500000000E+03  0.12500000000E+03 0.  0.
          5    1    1    0  501    0 -0.33990472072E+02  0.50457780906E+02 -0.13521100337E+02  0.62500000000E+02  0.47000000000E+01 0.  1.
         -5    1    1    0    0  501  0.33990472072E+02 -0.50457780906E+02  0.13521100337E+02  0.62500000000E+02  0.47000000000E+01 0.  1.
</event>
<event>
 3    0  0.4580101E-005  0.9118800E+02  0.7546771E-02  0.1235069E+00
         25   -1    0    0    0    0  0.00000000000E+00  0.00000000000E+00  0.99999998245E-14  0.12500000000E+03  0.12500000000E+03 0.  0.
          5    1    1    0  501    0  0.49757817070E+02  0.25521186734E+02  0.27513427051E+02  0.62500000000E+02  0.47000000000E+01 0.  1.
         -5    1    1    0    0  501 -0.49757817070E+02 -0.25521186734E+02 -0.27513427051E+02  0.62500000000E+02  0.47000000000E+01 0.  1.
</event>
<event>
 3    0  0.4580101E-005  0.9118800E+02  0.7546771E-02  0.1235069E+00
         25   -1    0    0    0    0  0.00000000000E+00  0.00000000000E+00  0.99999998245E-14  0.12500000000E+03  0.12500000000E+03 0.  0.
          5    1    1    0  501    0  0.11867217636E+00  0.12874157564E+02  0.60978701068E+02  0.62500000000E+02  0.47000000000E+01 0.  1.
         -5    1    1    0    0  501 -0.11867217636E+00 -0.12874157564E+02 -0.60978701068E+02  0.62500000000E+02  0.47000000000E+01 0.  1.
</event>
<event>
 3    0  0.4580101E-005  0.9118800E+02  0.7546771E-02  0.1235069E+00
         25   -1    0    0    0    0  0.00000000000E+00  0.00000000000E+00  0.99999998245E-14  0.12500000000E+03  0.12500000000E+03 0.  0.
          5    1    1    0  501    0 -0.57427029124E+02 -0.21929731708E+02 -0.10265631650E+02  0.62500000000E+02  0.47000000000E+01 0.  1.
         -5    1    1    0    0  501  0.57427029124E+02  0.21929731708E+02  0.10265631650E+02  0.62500000000E+02  0.47000000000E+01 0.  1.
</event>
<event>
 3    0  0.4580101E-005  0.9118800E+02  0.7546771E-02  0.1235069E+00
         25   -1    0    0    0    0  0.00000000000E+00  0.00000000000E+00  0.99999998245E-14  0.12500000000E+03  0.12500000000E+03 0.  0.
          5    1    1    0  501    0  0.34423346679E+02  0.14192411249E+02  0.49977681682E+02  0.62500000000E+02  0.47000000000E+01 0.  1.
         -5    1    1    0    0  501 -0.34423346679E+02 -0.14192411249E+02 -0.49977681682E+02  0.62500000000E+02  0.47000000000E+01 0.  1.
</event>
<event>
 3    0  0.4580101E-005  0.9118800E+02  0.7546771E-02  0.1235069E+00
         25   -1    0    0    0    0  0.00000000000E+00  0.00000000000E+00  0.99999998245E-14  0.12500000000E+03  0.12500000000E+03 0.  0.
          5    1    1    0  501    0  0.35137096483E+02  0.34111860235E+02 -0.38547703459E+02  0.62500000000E+02  0.47000000000E+01 0. -1.
         -5    1    1    0    0  501 -0.35137096483E+02 -0.34111860235E+02  0.38547703459E+02  0.62500000000E+02  0.47000000000E+01 0. -1.
</event>
<event>
 3    0  0.4580101E-005  0.9118800E+02  0.7546771E-02  0.1235069E+00
         25   -1    0    0    0    0  0.00000000000E+00  0.00000000000E+00  0.99999998245E-14  0.12500000000E+03  0.12500000000E+03 0.  0.
          5    1    1    0  501    0 -0.59878799123E+02  0.11509889188E+00  0.17282250081E+02  0.62500000000E+02  0.47000000000E+01 0. -1.
         -5    1    1    0    0  501  0.59878799123E+02 -0.11509889188E+00 -0.17282250081E+02  0.62500000000E+02  0.47000000000E+01 0. -1.
</event>
<event>
 3    0  0.4580101E-005  0.9118800E+02  0.7546771E-02  0.1235069E+00
         25   -1    0    0    0    0  0.00000000000E+00  0.00000000000E+00  0.99999998245E-14  0.12500000000E+03  0.12500000000E+03 0.  0.
          5    1    1    0  501    0 -0.13212773391E+02  0.75938094353E+01  0.60431090323E+02  0.62500000000E+02  0.47000000000E+01 0. -1.
         -5    1    1    0    0  501  0.13212773391E+02 -0.75938094353E+01 -0.60431090323E+02  0.62500000000E+02  0.47000000000E+01 0. -1.
</event>
<event>
 3    0  0.4580101E-005  0.9118800E+02  0.7546771E-02  0.1235069E+00
         25   -1    0    0    0    0  0.00000000000E+00  0.00000000000E+00  0.99999998245E-14  0.12500000000E+03  0.12500000000E+03 0.  0.
          5    1    1    0  501    0 -0.60506482521E+02  0.14888771474E+02  0.12041830768E+01  0.62500000000E+02  0.47000000000E+01 0. -1.
         -5    1    1    0    0  501  0.60506482521E+02 -0.14888771474E+02 -0.12041830768E+01  0.62500000000E+02  0.47000000000E+01 0. -1.
</event>
<event>
 3    0  0.4580101E-005  0.9118800E+02  0.7546771E-02  0.1235069E+00
         25   -1    0    0    0    0  0.00000000000E+00  0.00000000000E+00  0.99999998245E-14  0.12500000000E+03  0.12500000000E+03 0.  0.
          5    1    1    0  501    0  0.37297980881E+02 -0.25315601763E+02  0.43036506939E+02  0.62500000000E+02  0.47000000000E+01 0. -1.
         -5    1    1    0    0  501 -0.37297980881E+02  0.25315601763E+02 -0.43036506939E+02  0.62500000000E+02  0.47000000000E+01 0. -1.
</event>
<event>
 3    0  0.4580101E-005  0.9118800E+02  0.7546771E-02  0.1235069E+00
         25   -1    0    0    0    0  0.00000000000E+00  0.00000000000E+00  0.99999998245E-14  0.12500000000E+03  0.12500000000E+03 0.  0.
          5    1    1    0  501    0 -0.67978239504E+00 -0.49232112092E+02 -0.38208598964E+02  0.62500000000E+02  0.47000000000E+01 0. -1.
         -5    1    1    0    0  501  0.67978239504E+00  0.49232112092E+02  0.38208598964E+02  0.62500000000E+02  0.47000000000E+01 0. -1.
</event>
<event>
 3    0  0.4580101E-005  0.9118800E+02  0.7546771E-02  0.1235069E+00
         25   -1    0    0    0    0  0.00000000000E+00  0.00000000000E+00  0.99999998245E-14  0.12500000000E+03  0.12500000000E+03 0.  0.
          5    1    1    0  501    0  0.48041632105E+02 -0.36636848639E+02  0.15293884611E+02  0.62500000000E+02  0.47000000000E+01 0.  1.
         -5    1    1    0    0  501 -0.48041632105E+02  0.36636848639E+02 -0.15293884611E+02  0.62500000000E+02  0.47000000000E+01 0.  1.
</event>
<event>
 3    0  0.4580101E-005  0.9118800E+02  0.7546771E-02  0.1235069E+00
         25   -1    0    0    0    0  0.00000000000E+00  0.00000000000E+00  0.99999998245E-14  0.12500000000E+03  0.12500000000E+03 0.  0.
          5    1    1    0  501    0 -0.40845079720E+02  0.47035155879E+02  0.18797803203E+01  0.62500000000E+02  0.47000000000E+01 0. -1.
         -5    1    1    0    0  501  0.40845079720E+02 -0.47035155879E+02 -0.18797803203E+01  0.62500000000E+02  0.47000000000E+01 0. -1.
</event>
<event>
 3    0  0.4580101E-005  0.9118800E+02  0.7546771E-02  0.1235069E+00
         25   -1    0    0    0    0  0.00000000000E+00  0.00000000000E+00  0.99999998245E-14  0.12500000000E+03  0.12500000000E+03 0.  0.
          5    1    1    0  501    0  0.58257120900E+02  0.20795212534E+02 -0.76044066255E+01  0.62500000000E+02  0.47000000000E+01 0.  1.
         -5    1    1    0    0  501 -0.58257120900E+02 -0.20795212534E+02  0.76044066255E+01  0.62500000000E+02  0.47000000000E+01 0.  1.
</event>
<event>
 3    0  0.4580101E-005  0.9118800E+02  0.7546771E-02  0.1235069E+00
         25   -1    0    0    0    0  0.00000000000E+00  0.00000000000E+00  0.99999998245E-14  0.12500000000E+03  0.12500000000E+03 0.  0.
          5    1    1    0  501    0 -0.59857498010E+02 -0.15688532408E+02 -0.74236030940E+01  0.62500000000E+02  0.47000000000E+01 0. -1.
         -5    1    1    0    0  501  0.59857498010E+02  0.15688532408E+02  0.74236030940E+01  0.62500000000E+02  0.47000000000E+01 0. -1.
</event>
<event>
 3    0  0.4580101E-005  0.9118800E+02  0.7546771E-02  0.1235069E+00
         25   -1    0    0    0    0  0.00000000000E+00  0.00000000000E+00  0.99999998245E-14  0.12500000000E+03  0.12500000000E+03 0.  0.
          5    1    1    0  501    0  0.98726506406E+01 -0.26617229746E+02 -0.55481653274E+02  0.62500000000E+02  0.47000000000E+01 0. -1.
         -5    1    1    0    0  501 -0.98726506406E+01  0.26617229746E+02  0.55481653274E+02  0.62500000000E+02  0.47000000000E+01 0. -1.
</event>
<event>
 3    0  0.4580101E-005  0.9118800E+02  0.7546771E-02  0.1235069E+00
         25   -1    0    0    0    0  0.00000000000E+00  0.00000000000E+00  0.99999998245E-14  0.12500000000E+03  0.12500000000E+03 0.  0.
          5    1    1    0  501    0  0.56334195687E+02  0.85898684788E+01 -0.25235541520E+02  0.62500000000E+02  0.47000000000E+01 0. -1.
         -5    1    1    0    0  501 -0.56334195687E+02 -0.85898684788E+01  0.25235541520E+02  0.62500000000E+02  0.47000000000E+01 0. -1.
</event>
<event>
 3    0  0.4580101E-005  0.9118800E+02  0.7546771E-02  0.1235069E+00
         25   -1    0    0    0    0  0.00000000000E+00  0.00000000000E+00  0.99999998245E-14  0.12500000000E+03  0.12500000000E+03 0.  0.
          5    1    1    0  501    0  0.93127943469E+01  0.59737523221E+02  0.15128125493E+02  0.62500000000E+02  0.47000000000E+01 0. -1.
         -5    1    1    0    0  501 -0.93127943469E+01 -0.59737523221E+02 -0.15128125493E+02  0.62500000000E+02  0.47000000000E+01 0. -1.
</event>
<event>
 3    0  0.4580101E-005  0.9118800E+02  0.7546771E-02  0.1235069E+00
         25   -1    0    0    0    0  0.00000000000E+00  0.00000000000E+00  0.99999998245E-14  0.12500000000E+03  0.12500000000E+03 0.  0.
          5    1    1    0  501    0  0.98449903184E+01  0.28556256736E+02  0.54514001567E+02  0.62500000000E+02  0.47000000000E+01 0. -1.
         -5    1    1    0    0  501 -0.98449903184E+01 -0.28556256736E+02 -0.54514001567E+02  0.62500000000E+02  0.47000000000E+01 0. -1.
</event>
<event>
 3    0  0.4580101E-005  0.9118800E+02  0.7546771E-02  0.1235069E+00
         25   -1    0    0    0    0  0.00000000000E+00  0.00000000000E+00  0.99999998245E-14  0.12500000000E+03  0.12500000000E+03 0.  0.
          5    1    1    0  501    0 -0.32180745008E+02  0.38845566226E+02 -0.36600295562E+02  0.62500000000E+02  0.47000000000E+01 0.  1.
         -5    1    1    0    0  501  0.32180745008E+02 -0.38845566226E+02  0.36600295562E+02  0.62500000000E+02  0.47000000000E+01 0.  1.
</event>
<event>
 3    0  0.4580101E-005  0.9118800E+02  0.7546771E-02  0.1235069E+00
         25   -1    0    0    0    0  0.00000000000E+00  0.00000000000E+00  0.99999998245E-14  0.12500000000E+03  0.12500000000E+03 0.  0.
          5    1    1    0  501    0  0.40399014818E+02 -0.41916528990E+02 -0.22250487618E+02  0.62500000000E+02  0.47000000000E+01 0.  1.
         -5    1    1    0    0  501 -0.40399014818E+02  0.41916528990E+02  0.22250487618E+02  0.62500000000E+02  0.47000000000E+01 0.  1.
</event>
<event>
 3    0  0.4580101E-005  0.9118800E+02  0.7546771E-02  0.1235069E+00
         25   -1    0    0    0    0  0.00000000000E+00  0.00000000000E+00  0.99999998245E-14  0.12500000000E+03  0.12500000000E+03 0.  0.
          5    1    1    0  501    0 -0.46999203845E+02 -0.38504147153E+02 -0.13880399488E+02  0.62500000000E+02  0.47000000000E+01 0. -1.
         -5    1    1    0    0  501  0.46999203845E+02  0.38504147153E+02  0.13880399488E+02  0.62500000000E+02  0.47000000000E+01 0. -1.
</event>
<event>
 3    0  0.4580101E-005  0.9118800E+02  0.7546771E-02  0.1235069E+00
         25   -1    0    0    0    0  0.00000000000E+00  0.00000000000E+00  0.99999998245E-14  0.12500000000E+03  0.12500000000E+03 0.  0.
          5    1    1    0  501    0 -0.21952503618E+02  0.58325606555E+02 -0.60926589044E+00  0.62500000000E+02  0.47000000000E+01 0. -1.
         -5    1    1    0    0  501  0.21952503618E+02 -0.58325606555E+02  0.60926589044E+00  0.62500000000E+02  0.47000000000E+01 0. -1.
</event>
<event>
 3    0  0.4580101E-005  0.9118800E+02  0.7546771E-02  0.1235069E+00
         25   -1    0    0    0    0  0.00000000000E+00  0.00000000000E+00  0.99999998245E-14  0.12500000000E+03  0.12500000000E+03 0.  0.
          5    1    1    0  501    0 -0.59714393517E+02  0.14131618387E+02 -0.10892592376E+02  0.62500000000E+02  0.47000000000E+01 0. -1.
         -5    1    1    0    0  501  0.59714393517E+02 -0.14131618387E+02  0.10892592376E+02  0.62500000000E+02  0.47000000000E+01 0. -1.
</event>
<event>
 3    0  0.4580101E-005  0.9118800E+02  0.7546771E-02  0.1235069E+00
         25   -1    0    0    0    0  0.00000000000E+00  0.00000000000E+00  0.99999998245E-14  0.12500000000E+03  0.12500000000E+03 0.  0.
          5    1    1    0  501    0  0.58048403779E+02 -0.18282109906E+02 -0.13427854485E+02  0.62500000000E+02  0.47000000000E+01 0. -1.
         -5    1    1    0    0  501 -0.58048403779E+02  0.18282109906E+02  0.13427854485E+02  0.62500000000E+02  0.47000000000E+01 0. -1.
</event>
<event>
 3    0  0.4580101E-005  0.9118800E+02  0.7546771E-02  0.1235069E+00
         25   -1    0    0    0    0  0.00000000000E+00  0.00000000000E+00  0.99999998245E-14  0.12500000000E+03  0.12500000000E+03 0.  0.
          5    1    1    0  501    0 -0.15818996159E+02 -0.22096097696E+02  0.56086378267E+02  0.62500000000E+02  0.47000000000E+01 0. -1.
         -5    1    1    0    0  501  0.15818996159E+02  0.22096097696E+02 -0.56086378267E+02  0.62500000000E+02  0.47000000000E+01 0. -1.
</event>
<event>
 3    0  0.4580101E-005  0.9118800E+02  0.7546771E-02  0.1235069E+00
         25   -1    0    0    0    0  0.00000000000E+00  0.00000000000E+00  0.99999998245E-14  0.12500000000E+03  0.12500000000E+03 0.  0.
          5    1    1    0  501    0  0.21743018994E+02 -0.32282976367E+01 -0.58317915081E+02  0.62500000000E+02  0.47000000000E+01 0.  1.
         -5    1    1    0    0  501 -0.21743018994E+02  0.32282976367E+01  0.58317915081E+02  0.62500000000E+02  0.47000000000E+01 0.  1.
</event>
<event>
 3    0  0.4580101E-005  0.9118800E+02  0.7546771E-02  0.1235069E+00
         25   -1    0    0    0    0  0.00000000000E+00  0.00000000000E+00  0.99999998245E-14  0.12500000000E+03  0.12500000000E+03 0.  0.
          5    1    1    0  501    0  0.91370980240E+01  0.61591012556E+02 -0.26871196616E+01  0.62500000000E+02  0.47000000000E+01 0.  1.
         -5    1    1    0    0  501 -0.91370980240E+01 -0.61591012556E+02  0.26871196616E+01  0.62500000000E+02  0.47000000000E+01 0.  1.
</event>
<event>
 3    0  0.4580101E-005  0.9118800E+02  0.7546771E-02  0.1235069E+00
         25   -1    0    0    0    0  0.00000000000E+00  0.00000000000E+00  0.99999998245E-14  0.12500000000E+03  0.12500000000E+03 0.  0.
          5    1    1    0  501    0  0.37054394342E+02 -0.46725929419E+02 -0.18105783050E+02  0.62500000000E+02  0.47000000000E+01 0.  1.
         -5    1    1    0    0  501 -0.37054394342E+02  0.46725929419E+02  0.18105783050E+02  0.62500000000E+02  0.47000000000E+01 0.  1.
</event>
<event>
 3    0  0.4580101E-005  0.9118800E+02  0.7546771E-02  0.1235069E+00
         25   -1    0    0    0    0  0.00000000000E+00  0.00000000000E+00  0.99999998245E-14  0.12500000000E+03  0.12500000000E+03 0.  0.
          5    1    1    0  501    0  0.56789383732E+02 -0.19477818716E+02  0.16725443891E+02  0.62500000000E+02  0.47000000000E+01 0.  1.
         -5    1    1    0    0  501 -0.56789383732E+02  0.19477818716E+02 -0.16725443891E+02  0.62500000000E+02  0.47000000000E+01 0.  1.
</event>
<event>
 3    0  0.4580101E-005  0.9118800E+02  0.7546771E-02  0.1235069E+00
         25   -1    0    0    0    0  0.00000000000E+00  0.00000000000E+00  0.99999998245E-14  0.12500000000E+03  0.12500000000E+03 0.  0.
          5    1    1    0  501    0  0.58992364655E+02  0.77579982363E+01  0.18543850079E+02  0.62500000000E+02  0.47000000000E+01 0.  1.
         -5    1    1    0    0  501 -0.58992364655E+02 -0.77579982363E+01 -0.18543850079E+02  0.62500000000E+02  0.47000000000E+01 0.  1.
</event>
<event>
 3    0  0.4580101E-005  0.9118800E+02  0.7546771E-02  0.1235069E+00
         25   -1    0    0    0    0  0.00000000000E+00  0.00000000000E+00  0.99999998245E-14  0.12500000000E+03  0.12500000000E+03 0.  0.
          5    1    1    0  501    0  0.10199185820E+02 -0.15488055640E+02 -0.59500056648E+02  0.62500000000E+02  0.47000000000E+01 0. -1.
         -5    1    1    0    0  501 -0.10199185820E+02  0.15488055640E+02  0.59500056648E+02  0.62500000000E+02  0.47000000000E+01 0. -1.
</event>
<event>
 3    0  0.4580101E-005  0.9118800E+02  0.7546771E-02  0.1235069E+00
         25   -1    0    0    0    0  0.00000000000E+00  0.00000000000E+00  0.99999998245E-14  0.12500000000E+03  0.12500000000E+03 0.  0.
          5    1    1    0  501    0 -0.40202985497E+02  0.31207689511E+02 -0.35971656516E+02  0.62500000000E+02  0.47000000000E+01 0.  1.
         -5    1    1    0    0  501  0.40202985497E+02 -0.31207689511E+02  0.35971656516E+02  0.62500000000E+02  0.47000000000E+01 0.  1.
</event>
<event>
 3    0  0.4580101E-005  0.9118800E+02  0.7546771E-02  0.1235069E+00
         25   -1    0    0    0    0  0.00000000000E+00  0.00000000000E+00  0.99999998245E-14  0.12500000000E+03  0.12500000000E+03 0.  0.
          5    1    1    0  501    0  0.46722817434E+02 -0.76126039185E+01 -0.40536238017E+02  0.62500000000E+02  0.47000000000E+01 0. -1.
         -5    1    1    0    0  501 -0.46722817434E+02  0.76126039185E+01  0.40536238017E+02  0.62500000000E+02  0.47000000000E+01 0. -1.
</event>
<event>
 3    0  0.4580101E-005  0.9118800E+02  0.7546771E-02  0.1235069E+00
         25   -1    0    0    0    0  0.00000000000E+00  0.00000000000E+00  0.99999998245E-14  0.12500000000E+03  0.12500000000E+03 0.  0.
          5    1    1    0  501    0 -0.10821251550E+02  0.15798913135E+02  0.59308134844E+02  0.62500000000E+02  0.47000000000E+01 0. -1.
         -5    1    1    0    0  501  0.10821251550E+02 -0.15798913135E+02 -0.59308134844E+02  0.62500000000E+02  0.47000000000E+01 0. -1.
</event>
<event>
 3    0  0.4580101E-005  0.9118800E+02  0.7546771E-02  0.1235069E+00
         25   -1    0    0    0    0  0.00000000000E+00  0.00000000000E+00  0.99999998245E-14  0.12500000000E+03  0.12500000000E+03 0.  0.
          5    1    1    0  501    0  0.41534665991E+02  0.14660608215E+02  0.44091927694E+02  0.62500000000E+02  0.47000000000E+01 0.  1.
         -5    1    1    0    0  501 -0.41534665991E+02 -0.14660608215E+02 -0.44091927694E+02  0.62500000000E+02  0.47000000000E+01 0.  1.
</event>
<event>
 3    0  0.4580101E-005  0.9118800E+02  0.7546771E-02  0.1235069E+00
         25   -1    0    0    0    0  0.00000000000E+00  0.00000000000E+00  0.99999998245E-14  0.12500000000E+03  0.12500000000E+03 0.  0.
          5    1    1    0  501    0 -0.48514696475E+02 -0.35873676775E+02  0.15606522372E+02  0.62500000000E+02  0.47000000000E+01 0. -1.
         -5    1    1    0    0  501  0.48514696475E+02  0.35873676775E+02 -0.15606522372E+02  0.62500000000E+02  0.47000000000E+01 0. -1.
</event>
<event>
 3    0  0.4580101E-005  0.9118800E+02  0.7546771E-02  0.1235069E+00
         25   -1    0    0    0    0  0.00000000000E+00  0.00000000000E+00  0.99999998245E-14  0.12500000000E+03  0.12500000000E+03 0.  0.
          5    1    1    0  501    0 -0.30725029452E+02  0.54021505711E+02  0.46700627327E+01  0.62500000000E+02  0.47000000000E+01 0. -1.
         -5    1    1    0    0  501  0.30725029452E+02 -0.54021505711E+02 -0.46700627327E+01  0.62500000000E+02  0.47000000000E+01 0. -1.
</event>
<event>
 3    0  0.4580101E-005  0.9118800E+02  0.7546771E-02  0.1235069E+00
         25   -1    0    0    0    0  0.00000000000E+00  0.00000000000E+00  0.99999998245E-14  0.12500000000E+03  0.12500000000E+03 0.  0.
          5    1    1    0  501    0  0.13060798868E+02  0.34846421092E+02 -0.49993024214E+02  0.62500000000E+02  0.47000000000E+01 0. -1.
         -5    1    1    0    0  501 -0.13060798868E+02 -0.34846421092E+02  0.49993024214E+02  0.62500000000E+02  0.47000000000E+01 0. -1.
</event>
<event>
 3    0  0.4580101E-005  0.9118800E+02  0.7546771E-02  0.1235069E+00
         25   -1    0    0    0    0  0.00000000000E+00  0.00000000000E+00  0.99999998245E-14  0.12500000000E+03  0.12500000000E+03 0.  0.
          5    1    1    0  501    0  0.38563687482E+02 -0.40269580301E+02 -0.27845339110E+02  0.62500000000E+02  0.47000000000E+01 0.  1.
         -5    1    1    0    0  501 -0.38563687482E+02  0.40269580301E+02  0.27845339110E+02  0.62500000000E+02  0.47000000000E+01 0.  1.
</event>
<event>
 3    0  0.4580101E-005  0.9118800E+02  0.7546771E-02  0.1235069E+00
         25   -1    0    0    0    0  0.00000000000E+00  0.00000000000E+00  0.99999998245E-14  0.12500000000E+03  0.12500000000E+03 0.  0.
          5    1    1    0  501    0 -0.31655383047E+01  0.61890163679E+02  0.66141520254E+01  0.62500000000E+02  0.47000000000E+01 0.  1.
         -5    1    1    0    0  501  0.31655383047E+01 -0.61890163679E+02 -0.66141520254E+01  0.62500000000E+02  0.47000000000E+01 0.  1.
</event>
<event>
 3    0  0.4580101E-005  0.9118800E+02  0.7546771E-02  0.1235069E+00
         25   -1    0    0    0    0  0.00000000000E+00  0.00000000000E+00  0.99999998245E-14  0.12500000000E+03  0.12500000000E+03 0.  0.
          5    1    1    0  501    0 -0.53112337271E+02  0.52182513059E+01 -0.32187101189E+02  0.62500000000E+02  0.47000000000E+01 0. -1.
         -5    1    1    0    0  501  0.53112337271E+02 -0.52182513059E+01  0.32187101189E+02  0.62500000000E+02  0.47000000000E+01 0. -1.
</event>
<event>
 3    0  0.4580101E-005  0.9118800E+02  0.7546771E-02  0.1235069E+00
         25   -1    0    0    0    0  0.00000000000E+00  0.00000000000E+00  0.99999998245E-14  0.12500000000E+03  0.12500000000E+03 0.  0.
          5    1    1    0  501    0  0.14753541091E+02  0.16036752683E+02  0.58389344821E+02  0.62500000000E+02  0.47000000000E+01 0.  1.
         -5    1    1    0    0  501 -0.14753541091E+02 -0.16036752683E+02 -0.58389344821E+02  0.62500000000E+02  0.47000000000E+01 0.  1.
</event>
<event>
 3    0  0.4580101E-005  0.9118800E+02  0.7546771E-02  0.1235069E+00
         25   -1    0    0    0    0  0.00000000000E+00  0.00000000000E+00  0.99999998245E-14  0.12500000000E+03  0.12500000000E+03 0.  0.
          5    1    1    0  501    0  0.54838038857E+02 -0.77571061021E+01 -0.28579307186E+02  0.62500000000E+02  0.47000000000E+01 0.  1.
         -5    1    1    0    0  501 -0.54838038857E+02  0.77571061021E+01  0.28579307186E+02  0.62500000000E+02  0.47000000000E+01 0.  1.
</event>
<event>
 3    0  0.4580101E-005  0.9118800E+02  0.7546771E-02  0.1235069E+00
         25   -1    0    0    0    0  0.00000000000E+00  0.00000000000E+00  0.99999998245E-14  0.12500000000E+03  0.12500000000E+03 0.  0.
          5    1    1    0  501    0  0.13075633251E+02  0.10710903880E+02  0.59987201578E+02  0.62500000000E+02  0.47000000000E+01 0. -1.
         -5    1    1    0    0  501 -0.13075633251E+02 -0.10710903880E+02 -0.59987201578E+02  0.62500000000E+02  0.47000000000E+01 0. -1.
</event>
<event>
 3    0  0.4580101E-005  0.9118800E+02  0.7546771E-02  0.1235069E+00
         25   -1    0    0    0    0  0.00000000000E+00  0.00000000000E+00  0.99999998245E-14  0.12500000000E+03  0.12500000000E+03 0.  0.
          5    1    1    0  501    0 -0.17138271868E+01 -0.61700282633E+02 -0.86196240872E+01  0.62500000000E+02  0.47000000000E+01 0. -1.
         -5    1    1    0    0  501  0.17138271868E+01  0.61700282633E+02  0.86196240872E+01  0.62500000000E+02  0.47000000000E+01 0. -1.
</event>
<event>
 3    0  0.4580101E-005  0.9118800E+02  0.7546771E-02  0.1235069E+00
         25   -1    0    0    0    0  0.00000000000E+00  0.00000000000E+00  0.99999998245E-14  0.12500000000E+03  0.12500000000E+03 0.  0.
          5    1    1    0  501    0  0.42080021898E+02 -0.36546884544E+02  0.27888294806E+02  0.62500000000E+02  0.47000000000E+01 0.  1.
         -5    1    1    0    0  501 -0.42080021898E+02  0.36546884544E+02 -0.27888294806E+02  0.62500000000E+02  0.47000000000E+01 0.  1.
</event>
<event>
 3    0  0.4580101E-005  0.9118800E+02  0.7546771E-02  0.1235069E+00
         25   -1    0    0    0    0  0.00000000000E+00  0.00000000000E+00  0.99999998245E-14  0.12500000000E+03  0.12500000000E+03 0.  0.
          5    1    1    0  501    0  0.37034923146E+02  0.48536720173E+02 -0.12520433794E+02  0.62500000000E+02  0.47000000000E+01 0. -1.
         -5    1    1    0    0  501 -0.37034923146E+02 -0.48536720173E+02  0.12520433794E+02  0.62500000000E+02  0.47000000000E+01 0. -1.
</event>
<event>
 3    0  0.4580101E-005  0.9118800E+02  0.7546771E-02  0.1235069E+00
         25   -1    0    0    0    0  0.00000000000E+00  0.00000000000E+00  0.99999998245E-14  0.12500000000E+03  0.12500000000E+03 0.  0.
          5    1    1    0  501    0 -0.17305841472E+02  0.22785744525E+02  0.55366756248E+02  0.62500000000E+02  0.47000000000E+01 0. -1.
         -5    1    1    0    0  501  0.17305841472E+02 -0.22785744525E+02 -0.55366756248E+02  0.62500000000E+02  0.47000000000E+01 0. -1.
</event>
<event>
 3    0  0.4580101E-005  0.9118800E+02  0.7546771E-02  0.1235069E+00
         25   -1    0    0    0    0  0.00000000000E+00  0.00000000000E+00  0.99999998245E-14  0.12500000000E+03  0.12500000000E+03 0.  0.
          5    1    1    0  501    0 -0.61827233275E+00  0.11863217828E+02  0.61180403742E+02  0.62500000000E+02  0.47000000000E+01 0.  1.
         -5    1    1    0    0  501  0.61827233275E+00 -0.11863217828E+02 -0.61180403742E+02  0.62500000000E+02  0.47000000000E+01 0.  1.
</event>
<event>
 3    0  0.4580101E-005  0.9118800E+02  0.7546771E-02  0.1235069E+00
         25   -1    0    0    0    0  0.00000000000E+00  0.00000000000E+00  0.99999998245E-14  0.12500000000E+03  0.12500000000E+03 0.  0.
          5    1    1    0  501    0  0.46260849829E+02 -0.36652423797E+02  0.20017332563E+02  0.62500000000E+02  0.47000000000E+01 0.  1.
         -5    1    1    0    0  501 -0.46260849829E+02  0.36652423797E+02 -0.20017332563E+02  0.62500000000E+02  0.47000000000E+01 0.  1.
</event>
<event>
 3    0  0.4580101E-005  0.9118800E+02  0.7546771E-02  0.1235069E+00
         25   -1    0    0    0    0  0.00000000000E+00  0.00000000000E+00  0.99999998245E-14  0.12500000000E+03  0.12500000000E+03 0.  0.
          5    1    1    0  501    0  0.28127503628E+02 -0.48183013191E+02  0.27774102677E+02  0.62500000000E+02  0.47000000000E+01 0. -1.
         -5    1    1    0    0  501 -0.28127503628E+02  0.48183013191E+02 -0.27774102677E+02  0.62500000000E+02  0.47000000000E+01 0. -1.
</event>
<event>
 3    0  0.4580101E-005  0.9118800E+02  0.7546771E-02  0.1235069E+00
         25   -1    0    0    0    0  0.00000000000E+00  0.00000000000E+00  0.99999998245E-14  0.12500000000E+03  0.12500000000E+03 0.  0.
          5    1    1    0  501    0 -0.55396037460E+02  0.23088334956E+02  0.16803803817E+02  0.62500000000E+02  0.47000000000E+01 0.  1.
         -5    1    1    0    0  501  0.55396037460E+02 -0.23088334956E+02 -0.16803803817E+02  0.62500000000E+02  0.47000000000E+01 0.  1.
</event>
<event>
 3    0  0.4580101E-005  0.9118800E+02  0.7546771E-02  0.1235069E+00
         25   -1    0    0    0    0  0.00000000000E+00  0.00000000000E+00  0.99999998245E-14  0.12500000000E+03  0.12500000000E+03 0.  0.
          5    1    1    0  501    0  0.27001618667E+02  0.47947193295E+02  0.29259857219E+02  0.62500000000E+02  0.47000000000E+01 0.  1.
         -5    1    1    0    0  501 -0.27001618667E+02 -0.47947193295E+02 -0.29259857219E+02  0.62500000000E+02  0.47000000000E+01 0.  1.
</event>
<event>
 3    0  0.4580101E-005  0.9118800E+02  0.7546771E-02  0.1235069E+00
         25   -1    0    0    0    0  0.00000000000E+00  0.00000000000E+00  0.99999998245E-14  0.12500000000E+03  0.12500000000E+03 0.  0.
          5    1    1    0  501    0  0.58974238781E+01 -0.40960421045E+02 -0.46600689903E+02  0.62500000000E+02  0.47000000000E+01 0. -1.
         -5    1    1    0    0  501 -0.58974238781E+01  0.40960421045E+02  0.46600689903E+02  0.62500000000E+02  0.47000000000E+01 0. -1.
</event>
<event>
 3    0  0.4580101E-005  0.9118800E+02  0.7546771E-02  0.1235069E+00
         25   -1    0    0    0    0  0.00000000000E+00  0.00000000000E+00  0.99999998245E-14  0.12500000000E+03  0.12500000000E+03 0.  0.
          5    1    1    0  501    0 -0.43678319438E+02 -0.44193361031E+02 -0.48281727302E+01  0.62500000000E+02  0.47000000000E+01 0. -1.
         -5    1    1    0    0  501  0.43678319438E+02  0.44193361031E+02  0.48281727302E+01  0.62500000000E+02  0.47000000000E+01 0. -1.
</event>
<event>
 3    0  0.4580101E-005  0.9118800E+02  0.7546771E-02  0.1235069E+00
         25   -1    0    0    0    0  0.00000000000E+00  0.00000000000E+00  0.99999998245E-14  0.12500000000E+03  0.12500000000E+03 0.  0.
          5    1    1    0  501    0  0.21678543963E+02 -0.33201875075E+02 -0.48081558036E+02  0.62500000000E+02  0.47000000000E+01 0. -1.
         -5    1    1    0    0  501 -0.21678543963E+02  0.33201875075E+02  0.48081558036E+02  0.62500000000E+02  0.47000000000E+01 0. -1.
</event>
<event>
 3    0  0.4580101E-005  0.9118800E+02  0.7546771E-02  0.1235069E+00
         25   -1    0    0    0    0  0.00000000000E+00  0.00000000000E+00  0.99999998245E-14  0.12500000000E+03  0.12500000000E+03 0.  0.
          5    1    1    0  501    0  0.58517370708E+02 -0.74740302032E+01 -0.20100154177E+02  0.62500000000E+02  0.47000000000E+01 0. -1.
         -5    1    1    0    0  501 -0.58517370708E+02  0.74740302032E+01  0.20100154177E+02  0.62500000000E+02  0.47000000000E+01 0. -1.
</event>
<event>
 3    0  0.4580101E-005  0.9118800E+02  0.7546771E-02  0.1235069E+00
         25   -1    0    0    0    0  0.00000000000E+00  0.00000000000E+00  0.99999998245E-14  0.12500000000E+03  0.12500000000E+03 0.  0.
          5    1    1    0  501    0 -0.44644098633E+02 -0.39477804087E+02 -0.18236431715E+02  0.62500000000E+02  0.47000000000E+01 0. -1.
         -5    1    1    0    0  501  0.44644098633E+02  0.39477804087E+02  0.18236431715E+02  0.62500000000E+02  0.47000000000E+01 0. -1.
</event>
<event>
 3    0  0.4580101E-005  0.9118800E+02  0.7546771E-02  0.1235069E+00
         25   -1    0    0    0    0  0.00000000000E+00  0.00000000000E+00  0.99999998245E-14  0.12500000000E+03  0.12500000000E+03 0.  0.
          5    1    1    0  501    0  0.44867612861E+02  0.31878510857E+02  0.29237268370E+02  0.62500000000E+02  0.47000000000E+01 0.  1.
         -5    1    1    0    0  501 -0.44867612861E+02 -0.31878510857E+02 -0.29237268370E+02  0.62500000000E+02  0.47000000000E+01 0.  1.
</event>
<event>
 3    0  0.4580101E-005  0.9118800E+02  0.7546771E-02  0.1235069E+00
         25   -1    0    0    0    0  0.00000000000E+00  0.00000000000E+00  0.99999998245E-14  0.12500000000E+03  0.12500000000E+03 0.  0.
          5    1    1    0  501    0 -0.46971675612E+02 -0.13618064170E+02 -0.38631205242E+02  0.62500000000E+02  0.47000000000E+01 0. -1.
         -5    1    1    0    0  501  0.46971675612E+02  0.13618064170E+02  0.38631205242E+02  0.62500000000E+02  0.47000000000E+01 0. -1.
</event>
<event>
 3    0  0.4580101E-005  0.9118800E+02  0.7546771E-02  0.1235069E+00
         25   -1    0    0    0    0  0.00000000000E+00  0.00000000000E+00  0.99999998245E-14  0.12500000000E+03  0.12500000000E+03 0.  0.
          5    1    1    0  501    0 -0.47330237987E+02 -0.12068885023E+01  0.40528409693E+02  0.62500000000E+02  0.47000000000E+01 0. -1.
         -5    1    1    0    0  501  0.47330237987E+02  0.12068885023E+01 -0.40528409693E+02  0.62500000000E+02  0.47000000000E+01 0. -1.
</event>
<event>
 3    0  0.4580101E-005  0.9118800E+02  0.7546771E-02  0.1235069E+00
         25   -1    0    0    0    0  0.00000000000E+00  0.00000000000E+00  0.99999998245E-14  0.12500000000E+03  0.12500000000E+03 0.  0.
          5    1    1    0  501    0 -0.42313376986E+02  0.38660986016E+02 -0.24475830697E+02  0.62500000000E+02  0.47000000000E+01 0. -1.
         -5    1    1    0    0  501  0.42313376986E+02 -0.38660986016E+02  0.24475830697E+02  0.62500000000E+02  0.47000000000E+01 0. -1.
</event>
<event>
 3    0  0.4580101E-005  0.9118800E+02  0.7546771E-02  0.1235069E+00
         25   -1    0    0    0    0  0.00000000000E+00  0.00000000000E+00  0.99999998245E-14  0.12500000000E+03  0.12500000000E+03 0.  0.
          5    1    1    0  501    0  0.60256557707E+01 -0.80242336432E+01  0.61509862193E+02  0.62500000000E+02  0.47000000000E+01 0. -1.
         -5    1    1    0    0  501 -0.60256557707E+01  0.80242336432E+01 -0.61509862193E+02  0.62500000000E+02  0.47000000000E+01 0. -1.
</event>
<event>
 3    0  0.4580101E-005  0.9118800E+02  0.7546771E-02  0.1235069E+00
         25   -1    0    0    0    0  0.00000000000E+00  0.00000000000E+00  0.99999998245E-14  0.12500000000E+03  0.12500000000E+03 0.  0.
          5    1    1    0  501    0  0.42982298717E+02  0.42978478261E+02  0.13767076792E+02  0.62500000000E+02  0.47000000000E+01 0. -1.
         -5    1    1    0    0  501 -0.42982298717E+02 -0.42978478261E+02 -0.13767076792E+02  0.62500000000E+02  0.47000000000E+01 0. -1.
</event>
<event>
 3    0  0.4580101E-005  0.9118800E+02  0.7546771E-02  0.1235069E+00
         25   -1    0    0    0    0  0.00000000000E+00  0.00000000000E+00  0.99999998245E-14  0.12500000000E+03  0.12500000000E+03 0.  0.
          5    1    1    0  501    0  0.26490668281E+02  0.42311396771E+02  0.37311529014E+02  0.62500000000E+02  0.47000000000E+01 0.  1.
         -5    1    1    0    0  501 -0.26490668281E+02 -0.42311396771E+02 -0.37311529014E+02  0.62500000000E+02  0.47000000000E+01 0.  1.
</event>
<event>
 3    0  0.4580101E-005  0.9118800E+02  0.7546771E-02  0.1235069E+00
         25   -1    0    0    0    0  0.00000000000E+00  0.00000000000E+00  0.99999998245E-14  0.12500000000E+03  0.12500000000E+03 0.  0.
          5    1    1    0  501    0 -0.10337429589E+02 -0.61252843468E+02  0.50385232547E+01  0.62500000000E+02  0.47000000000E+01 0.  1.
         -5    1    1    0    0  501  0.10337429589E+02  0.61252843468E+02 -0.50385232547E+01  0.62500000000E+02  0.47000000000E+01 0.  1.
</event>
<event>
 3    0  0.4580101E-005  0.9118800E+02  0.7546771E-02  0.1235069E+00
         25   -1    0    0    0    0  0.00000000000E+00  0.00000000000E+00  0.99999998245E-14  0.12500000000E+03  0.12500000000E+03 0.  0.
          5    1    1    0  501    0  0.42363131152E+02 -0.30556940811E+02  0.33997036448E+02  0.62500000000E+02  0.47000000000E+01 0. -1.
         -5    1    1    0    0  501 -0.42363131152E+02  0.30556940811E+02 -0.33997036448E+02  0.62500000000E+02  0.47000000000E+01 0. -1.
</event>
<event>
 3    0  0.4580101E-005  0.9118800E+02  0.7546771E-02  0.1235069E+00
         25   -1    0    0    0    0  0.00000000000E+00  0.00000000000E+00  0.99999998245E-14  0.12500000000E+03  0.12500000000E+03 0.  0.
          5    1    1    0  501    0  0.37101586752E+02 -0.48276116601E+02 -0.13305969579E+02  0.62500000000E+02  0.47000000000E+01 0.  1.
         -5    1    1    0    0  501 -0.37101586752E+02  0.48276116601E+02  0.13305969579E+02  0.62500000000E+02  0.47000000000E+01 0.  1.
</event>
<event>
 3    0  0.4580101E-005  0.9118800E+02  0.7546771E-02  0.1235069E+00
         25   -1    0    0    0    0  0.00000000000E+00  0.00000000000E+00  0.99999998245E-14  0.12500000000E+03  0.12500000000E+03 0.  0.
          5    1    1    0  501    0  0.13432373073E+02  0.41718328011E+02 -0.44309281890E+02  0.62500000000E+02  0.47000000000E+01 0.  1.
         -5    1    1    0    0  501 -0.13432373073E+02 -0.41718328011E+02  0.44309281890E+02  0.62500000000E+02  0.47000000000E+01 0.  1.
</event>
<event>
 3    0  0.4580101E-005  0.9118800E+02  0.7546771E-02  0.1235069E+00
         25   -1    0    0    0    0  0.00000000000E+00  0.00000000000E+00  0.99999998245E-14  0.12500000000E+03  0.12500000000E+03 0.  0.
          5    1    1    0  501    0 -0.52706493770E+01 -0.38228028995E+02  0.48938717334E+02  0.62500000000E+02  0.47000000000E+01 0.  1.
         -5    1    1    0    0  501  0.52706493770E+01  0.38228028995E+02 -0.48938717334E+02  0.62500000000E+02  0.47000000000E+01 0.  1.
</event>
<event>
 3    0  0.4580101E-005  0.9118800E+02  0.7546771E-02  0.1235069E+00
         25   -1    0    0    0    0  0.00000000000E+00  0.00000000000E+00  0.99999998245E-14  0.12500000000E+03  0.12500000000E+03 0.  0.
          5    1    1    0  501    0 -0.42428456287E+02 -0.95778309928E+01 -0.44634641822E+02  0.62500000000E+02  0.47000000000E+01 0.  1.
         -5    1    1    0    0  501  0.42428456287E+02  0.95778309928E+01  0.44634641822E+02  0.62500000000E+02  0.47000000000E+01 0.  1.
</event>
<event>
 3    0  0.4580101E-005  0.9118800E+02  0.7546771E-02  0.1235069E+00
         25   -1    0    0    0    0  0.00000000000E+00  0.00000000000E+00  0.99999998245E-14  0.12500000000E+03  0.12500000000E+03 0.  0.
          5    1    1    0  501    0  0.31054346051E+02 -0.35968459166E+02 -0.40324403735E+02  0.62500000000E+02  0.47000000000E+01 0. -1.
         -5    1    1    0    0  501 -0.31054346051E+02  0.35968459166E+02  0.40324403735E+02  0.62500000000E+02  0.47000000000E+01 0. -1.
</event>
<event>
 3    0  0.4580101E-005  0.9118800E+02  0.7546771E-02  0.1235069E+00
         25   -1    0    0    0    0  0.00000000000E+00  0.00000000000E+00  0.99999998245E-14  0.12500000000E+03  0.12500000000E+03 0.  0.
          5    1    1    0  501    0  0.34826362031E+01  0.62993118099E+00 -0.62222459223E+02  0.62500000000E+02  0.47000000000E+01 0.  1.
         -5    1    1    0    0  501 -0.34826362031E+01 -0.62993118099E+00  0.62222459223E+02  0.62500000000E+02  0.47000000000E+01 0.  1.
</event>
<event>
 3    0  0.4580101E-005  0.9118800E+02  0.7546771E-02  0.1235069E+00
         25   -1    0    0    0    0  0.00000000000E+00  0.00000000000E+00  0.99999998245E-14  0.12500000000E+03  0.12500000000E+03 0.  0.
          5    1    1    0  501    0  0.38541594714E+02 -0.37868995536E+02  0.31058729111E+02  0.62500000000E+02  0.47000000000E+01 0.  1.
         -5    1    1    0    0  501 -0.38541594714E+02  0.37868995536E+02 -0.31058729111E+02  0.62500000000E+02  0.47000000000E+01 0.  1.
</event>
<event>
 3    0  0.4580101E-005  0.9118800E+02  0.7546771E-02  0.1235069E+00
         25   -1    0    0    0    0  0.00000000000E+00  0.00000000000E+00  0.99999998245E-14  0.12500000000E+03  0.12500000000E+03 0.  0.
          5    1    1    0  501    0 -0.17484412280E+02  0.30490914139E+02 -0.51466100320E+02  0.62500000000E+02  0.47000000000E+01 0. -1.
         -5    1    1    0    0  501  0.17484412280E+02 -0.30490914139E+02  0.51466100320E+02  0.62500000000E+02  0.47000000000E+01 0. -1.
</event>
<event>
 3    0  0.4580101E-005  0.9118800E+02  0.7546771E-02  0.1235069E+00
         25   -1    0    0    0    0  0.00000000000E+00  0.00000000000E+00  0.99999998245E-14  0.12500000000E+03  0.12500000000E+03 0.  0.
          5    1    1    0  501    0 -0.71297747867E+01 -0.61369459336E+02  0.81924216372E+01  0.62500000000E+02  0.47000000000E+01 0.  1.
         -5    1    1    0    0  501  0.71297747867E+01  0.61369459336E+02 -0.81924216372E+01  0.62500000000E+02  0.47000000000E+01 0.  1.
</event>
<event>
 3    0  0.4580101E-005  0.9118800E+02  0.7546771E-02  0.1235069E+00
         25   -1    0    0    0    0  0.00000000000E+00  0.00000000000E+00  0.99999998245E-14  0.12500000000E+03  0.12500000000E+03 0.  0.
          5    1    1    0  501    0 -0.15925175615E+02  0.59281558208E+02  0.10781727046E+02  0.62500000000E+02  0.47000000000E+01 0.  1.
         -5    1    1    0    0  501  0.15925175615E+02 -0.59281558208E+02 -0.10781727046E+02  0.62500000000E+02  0.47000000000E+01 0.  1.
</event>
<event>
 3    0  0.4580101E-005  0.9118800E+02  0.7546771E-02  0.1235069E+00
         25   -1    0    0    0    0  0.00000000000E+00  0.00000000000E+00  0.99999998245E-14  0.12500000000E+03  0.12500000000E+03 0.  0.
          5    1    1    0  501    0  0.14301662389E+02  0.33103633114E+02  0.50830816711E+02  0.62500000000E+02  0.47000000000E+01 0. -1.
         -5    1    1    0    0  501 -0.14301662389E+02 -0.33103633114E+02 -0.50830816711E+02  0.62500000000E+02  0.47000000000E+01 0. -1.
</event>
<event>
 3    0  0.4580101E-005  0.9118800E+02  0.7546771E-02  0.1235069E+00
         25   -1    0    0    0    0  0.00000000000E+00  0.00000000000E+00  0.99999998245E-14  0.12500000000E+03  0.12500000000E+03 0.  0.
          5    1    1    0  501    0  0.17625208451E+01 -0.61378872437E+02  0.10662435870E+02  0.62500000000E+02  0.47000000000E+01 0.  1.
         -5    1    1    0    0  501 -0.17625208451E+01  0.61378872437E+02 -0.10662435870E+02  0.62500000000E+02  0.47000000000E+01 0.  1.
</event>
<event>
 3    0  0.4580101E-005  0.9118800E+02  0.7546771E-02  0.1235069E+00
         25   -1    0    0    0    0  0.00000000000E+00  0.00000000000E+00  0.99999998245E-14  0.12500000000E+03  0.12500000000E+03 0.  0.
          5    1    1    0  501    0 -0.14693455134E+02  0.60518997011E+02 -0.23902671495E+01  0.62500000000E+02  0.47000000000E+01 0. -1.
         -5    1    1    0    0  501  0.14693455134E+02 -0.60518997011E+02  0.23902671495E+01  0.62500000000E+02  0.47000000000E+01 0. -1.
</event>
<event>
 3    0  0.4580101E-005  0.9118800E+02  0.7546771E-02  0.1235069E+00
         25   -1    0    0    0    0  0.00000000000E+00  0.00000000000E+00  0.99999998245E-14  0.12500000000E+03  0.12500000000E+03 0.  0.
          5    1    1    0  501    0  0.22924825535E+02 -0.57217353536E+02 -0.92079763543E+01  0.62500000000E+02  0.47000000000E+01 0.  1.
         -5    1    1    0    0  501 -0.22924825535E+02  0.57217353536E+02  0.92079763543E+01  0.62500000000E+02  0.47000000000E+01 0.  1.
</event>
<event>
 3    0  0.4580101E-005  0.9118800E+02  0.7546771E-02  0.1235069E+00
         25   -1    0    0    0    0  0.00000000000E+00  0.00000000000E+00  0.99999998245E-14  0.12500000000E+03  0.12500000000E+03 0.  0.
          5    1    1    0  501    0  0.40078269894E+02  0.28258372200E+02 -0.38462406099E+02  0.62500000000E+02  0.47000000000E+01 0.  1.
         -5    1    1    0    0  501 -0.40078269894E+02 -0.28258372200E+02  0.38462406099E+02  0.62500000000E+02  0.47000000000E+01 0.  1.
</event>
<event>
 3    0  0.4580101E-005  0.9118800E+02  0.7546771E-02  0.1235069E+00
         25   -1    0    0    0    0  0.00000000000E+00  0.00000000000E+00  0.99999998245E-14  0.12500000000E+03  0.12500000000E+03 0.  0.
          5    1    1    0  501    0 -0.56112825045E+02  0.22330360829E+02 -0.15390446734E+02  0.62500000000E+02  0.47000000000E+01 0. -1.
         -5    1    1    0    0  501  0.56112825045E+02 -0.22330360829E+02  0.15390446734E+02  0.62500000000E+02  0.47000000000E+01 0. -1.
</event>
<event>
 3    0  0.4580101E-005  0.9118800E+02  0.7546771E-02  0.1235069E+00
         25   -1    0    0    0    0  0.00000000000E+00  0.00000000000E+00  0.99999998245E-14  0.12500000000E+03  0.12500000000E+03 0.  0.
          5    1    1    0  501    0 -0.45718696970E+02 -0.38771734303E+02  0.17050318662E+02  0.62500000000E+02  0.47000000000E+01 0. -1.
         -5    1    1    0    0  501  0.45718696970E+02  0.38771734303E+02 -0.17050318662E+02  0.62500000000E+02  0.47000000000E+01 0. -1.
</event>
<event>
 3    0  0.4580101E-005  0.9118800E+02  0.7546771E-02  0.1235069E+00
         25   -1    0    0    0    0  0.00000000000E+00  0.00000000000E+00  0.99999998245E-14  0.12500000000E+03  0.12500000000E+03 0.  0.
          5    1    1    0  501    0 -0.11901560507E+02  0.58806114136E+01  0.60892785015E+02  0.62500000000E+02  0.47000000000E+01 0.  1.
         -5    1    1    0    0  501  0.11901560507E+02 -0.58806114136E+01 -0.60892785015E+02  0.62500000000E+02  0.47000000000E+01 0.  1.
</event>
<event>
 3    0  0.4580101E-005  0.9118800E+02  0.7546771E-02  0.1235069E+00
         25   -1    0    0    0    0  0.00000000000E+00  0.00000000000E+00  0.99999998245E-14  0.12500000000E+03  0.12500000000E+03 0.  0.
          5    1    1    0  501    0 -0.32449786248E+02 -0.19852248815E+02 -0.49366583733E+02  0.62500000000E+02  0.47000000000E+01 0.  1.
         -5    1    1    0    0  501  0.32449786248E+02  0.19852248815E+02  0.49366583733E+02  0.62500000000E+02  0.47000000000E+01 0.  1.
</event>
<event>
 3    0  0.4580101E-005  0.9118800E+02  0.7546771E-02  0.1235069E+00
         25   -1    0    0    0    0  0.00000000000E+00  0.00000000000E+00  0.99999998245E-14  0.12500000000E+03  0.12500000000E+03 0.  0.
          5    1    1    0  501    0 -0.61164173743E+02  0.11264004064E+02  0.40281587292E+01  0.62500000000E+02  0.47000000000E+01 0. -1.
         -5    1    1    0    0  501  0.61164173743E+02 -0.11264004064E+02 -0.40281587292E+01  0.62500000000E+02  0.47000000000E+01 0. -1.
</event>
<event>
 3    0  0.4580101E-005  0.9118800E+02  0.7546771E-02  0.1235069E+00
         25   -1    0    0    0    0  0.00000000000E+00  0.00000000000E+00  0.99999998245E-14  0.12500000000E+03  0.12500000000E+03 0.  0.
          5    1    1    0  501    0  0.36947134638E+02  0.10758672174E+02  0.49023669947E+02  0.62500000000E+02  0.47000000000E+01 0. -1.
         -5    1    1    0    0  501 -0.36947134638E+02 -0.10758672174E+02 -0.49023669947E+02  0.62500000000E+02  0.47000000000E+01 0. -1.
</event>
<event>
 3    0  0.4580101E-005  0.9118800E+02  0.7546771E-02  0.1235069E+00
         25   -1    0    0    0    0  0.00000000000E+00  0.00000000000E+00  0.99999998245E-14  0.12500000000E+03  0.12500000000E+03 0.  0.
          5    1    1    0  501    0  0.59602423763E+02  0.18157252683E+02 -0.14231150949E+01  0.62500000000E+02  0.47000000000E+01 0. -1.
         -5    1    1    0    0  501 -0.59602423763E+02 -0.18157252683E+02  0.14231150949E+01  0.62500000000E+02  0.47000000000E+01 0. -1.
</event>
<event>
 3    0  0.4580101E-005  0.9118800E+02  0.7546771E-02  0.1235069E+00
         25   -1    0    0    0    0  0.00000000000E+00  0.00000000000E+00  0.99999998245E-14  0.12500000000E+03  0.12500000000E+03 0.  0.
          5    1    1    0  501    0  0.24501282553E+02  0.50972959943E+02  0.26184050639E+02  0.62500000000E+02  0.47000000000E+01 0. -1.
         -5    1    1    0    0  501 -0.24501282553E+02 -0.50972959943E+02 -0.26184050639E+02  0.62500000000E+02  0.47000000000E+01 0. -1.
</event>
<event>
 3    0  0.4580101E-005  0.9118800E+02  0.7546771E-02  0.1235069E+00
         25   -1    0    0    0    0  0.00000000000E+00  0.00000000000E+00  0.99999998245E-14  0.12500000000E+03  0.12500000000E+03 0.  0.
          5    1    1    0  501    0 -0.21791630871E+02  0.56836914865E+02  0.13373478704E+02  0.62500000000E+02  0.47000000000E+01 0.  1.
         -5    1    1    0    0  501  0.21791630871E+02 -0.56836914865E+02 -0.13373478704E+02  0.62500000000E+02  0.47000000000E+01 0.  1.
</event>
<event>
 3    0  0.4580101E-005  0.9118800E+02  0.7546771E-02  0.1235069E+00
         25   -1    0    0    0    0  0.00000000000E+00  0.00000000000E+00  0.99999998245E-14  0.12500000000E+03  0.12500000000E+03 0.  0.
          5    1    1    0  501    0 -0.37106216615E+02  0.40465786252E+02  0.29492521621E+02  0.62500000000E+02  0.47000000000E+01 0. -1.
         -5    1    1    0    0  501  0.37106216615E+02 -0.40465786252E+02 -0.29492521621E+02  0.62500000000E+02  0.47000000000E+01 0. -1.
</event>
<event>
 3    0  0.4580101E-005  0.9118800E+02  0.7546771E-02  0.1235069E+00
         25   -1    0    0    0    0  0.00000000000E+00  0.00000000000E+00  0.99999998245E-14  0.12500000000E+03  0.12500000000E+03 0.  0.
          5    1    1    0  501    0 -0.28090679008E+02 -0.55471183600E+02 -0.42451787798E+01  0.62500000000E+02  0.47000000000E+01 0.  1.
         -5    1    1    0    0  501  0.28090679008E+02  0.55471183600E+02  0.42451787798E+01  0.62500000000E+02  0.47000000000E+01 0.  1.
</event>
<event>
 3    0  0.4580101E-005  0.9118800E+02  0.7546771E-02  0.1235069E+00
         25   -1    0    0    0    0  0.00000000000E+00  0.00000000000E+00  0.99999998245E-14  0.12500000000E+03  0.12500000000E+03 0.  0.
          5    1    1    0  501    0  0.29639580210E+02 -0.36558435490E+02 -0.40855061859E+02  0.62500000000E+02  0.47000000000E+01 0. -1.
         -5    1    1    0    0  501 -0.29639580210E+02  0.36558435490E+02  0.40855061859E+02  0.62500000000E+02  0.47000000000E+01 0. -1.
</event>
<event>
 3    0  0.4580101E-005  0.9118800E+02  0.7546771E-02  0.1235069E+00
         25   -1    0    0    0    0  0.00000000000E+00  0.00000000000E+00  0.99999998245E-14  0.12500000000E+03  0.12500000000E+03 0.  0.
          5    1    1    0  501    0  0.30408380691E+02  0.32923552276E+01 -0.54301480466E+02  0.62500000000E+02  0.47000000000E+01 0.  1.
         -5    1    1    0    0  501 -0.30408380691E+02 -0.32923552276E+01  0.54301480466E+02  0.62500000000E+02  0.47000000000E+01 0.  1.
</event>
<event>
 3    0  0.4580101E-005  0.9118800E+02  0.7546771E-02  0.1235069E+00
         25   -1    0    0    0    0  0.00000000000E+00  0.00000000000E+00  0.99999998245E-14  0.12500000000E+03  0.12500000000E+03 0.  0.
          5    1    1    0  501    0 -0.15118913977E+02 -0.52176277538E+02 -0.30548559744E+02  0.62500000000E+02  0.47000000000E+01 0.  1.
         -5    1    1    0    0  501  0.15118913977E+02  0.52176277538E+02  0.30548559744E+02  0.62500000000E+02  0.47000000000E+01 0.  1.
</event>
<event>
 3    0  0.4580101E-005  0.9118800E+02  0.7546771E-02  0.1235069E+00
         25   -1    0    0    0    0  0.00000000000E+00  0.00000000000E+00  0.99999998245E-14  0.12500000000E+03  0.12500000000E+03 0.  0.
          5    1    1    0  501    0 -0.30326717406E+02  0.52085806074E-02 -0.54446764681E+02  0.62500000000E+02  0.47000000000E+01 0.  1.
         -5    1    1    0    0  501  0.30326717406E+02 -0.52085806074E-02  0.54446764681E+02  0.62500000000E+02  0.47000000000E+01 0.  1.
</event>
<event>
 3    0  0.4580101E-005  0.9118800E+02  0.7546771E-02  0.1235069E+00
         25   -1    0    0    0    0  0.00000000000E+00  0.00000000000E+00  0.99999998245E-14  0.12500000000E+03  0.12500000000E+03 0.  0.
          5    1    1    0  501    0 -0.99396982435E+00 -0.59245459931E+02  0.19317026210E+02  0.62500000000E+02  0.47000000000E+01 0.  1.
         -5    1    1    0    0  501  0.99396982435E+00  0.59245459931E+02 -0.19317026210E+02  0.62500000000E+02  0.47000000000E+01 0.  1.
</event>
<event>
 3    0  0.4580101E-005  0.9118800E+02  0.7546771E-02  0.1235069E+00
         25   -1    0    0    0    0  0.00000000000E+00  0.00000000000E+00  0.99999998245E-14  0.12500000000E+03  0.12500000000E+03 0.  0.
          5    1    1    0  501    0  0.37991175578E+02 -0.22026741481E+02  0.44222768321E+02  0.62500000000E+02  0.47000000000E+01 0. -1.
         -5    1    1    0    0  501 -0.37991175578E+02  0.22026741481E+02 -0.44222768321E+02  0.62500000000E+02  0.47000000000E+01 0. -1.
</event>
<event>
 3    0  0.4580101E-005  0.9118800E+02  0.7546771E-02  0.1235069E+00
         25   -1    0    0    0    0  0.00000000000E+00  0.00000000000E+00  0.99999998245E-14  0.12500000000E+03  0.12500000000E+03 0.  0.
          5    1    1    0  501    0 -0.45317885311E+02  0.39987780919E+02 -0.15212713372E+02  0.62500000000E+02  0.47000000000E+01 0. -1.
         -5    1    1    0    0  501  0.45317885311E+02 -0.39987780919E+02  0.15212713372E+02  0.62500000000E+02  0.47000000000E+01 0. -1.
</event>
<event>
 3    0  0.4580101E-005  0.9118800E+02  0.7546771E-02  0.1235069E+00
         25   -1    0    0    0    0  0.00000000000E+00  0.00000000000E+00  0.99999998245E-14  0.12500000000E+03  0.12500000000E+03 0.  0.
          5    1    1    0  501    0 -0.50859505592E+02  0.68403551984E+01  0.35364957680E+02  0.62500000000E+02  0.47000000000E+01 0. -1.
         -5    1    1    0    0  501  0.50859505592E+02 -0.68403551984E+01 -0.35364957680E+02  0.62500000000E+02  0.47000000000E+01 0. -1.
</event>
<event>
 3    0  0.4580101E-005  0.9118800E+02  0.7546771E-02  0.1235069E+00
         25   -1    0    0    0    0  0.00000000000E+00  0.00000000000E+00  0.99999998245E-14  0.12500000000E+03  0.12500000000E+03 0.  0.
          5    1    1    0  501    0  0.60399778390E+02  0.79109776576E+01 -0.13169783708E+02  0.62500000000E+02  0.47000000000E+01 0. -1.
         -5    1    1    0    0  501 -0.60399778390E+02 -0.79109776576E+01  0.13169783708E+02  0.62500000000E+02  0.47000000000E+01 0. -1.
</event>
<event>
 3    0  0.4580101E-005  0.9118800E+02  0.7546771E-02  0.1235069E+00
         25   -1    0    0    0    0  0.00000000000E+00  0.00000000000E+00  0.99999998245E-14  0.12500000000E+03  0.12500000000E+03 0.  0.
          5    1    1    0  501    0  0.46494274523E+02  0.81616451253E+01 -0.40691890905E+02  0.62500000000E+02  0.47000000000E+01 0. -1.
         -5    1    1    0    0  501 -0.46494274523E+02 -0.81616451253E+01  0.40691890905E+02  0.62500000000E+02  0.47000000000E+01 0. -1.
</event>
<event>
 3    0  0.4580101E-005  0.9118800E+02  0.7546771E-02  0.1235069E+00
         25   -1    0    0    0    0  0.00000000000E+00  0.00000000000E+00  0.99999998245E-14  0.12500000000E+03  0.12500000000E+03 0.  0.
          5    1    1    0  501    0 -0.59547731658E+02  0.67476902270E+01  0.17108370202E+02  0.62500000000E+02  0.47000000000E+01 0. -1.
         -5    1    1    0    0  501  0.59547731658E+02 -0.67476902270E+01 -0.17108370202E+02  0.62500000000E+02  0.47000000000E+01 0. -1.
</event>
<event>
 3    0  0.4580101E-005  0.9118800E+02  0.7546771E-02  0.1235069E+00
         25   -1    0    0    0    0  0.00000000000E+00  0.00000000000E+00  0.99999998245E-14  0.12500000000E+03  0.12500000000E+03 0.  0.
          5    1    1    0  501    0 -0.46533582636E+02 -0.36278908019E+02  0.20065555563E+02  0.62500000000E+02  0.47000000000E+01 0. -1.
         -5    1    1    0    0  501  0.46533582636E+02  0.36278908019E+02 -0.20065555563E+02  0.62500000000E+02  0.47000000000E+01 0. -1.
</event>
<event>
 3    0  0.4580101E-005  0.9118800E+02  0.7546771E-02  0.1235069E+00
         25   -1    0    0    0    0  0.00000000000E+00  0.00000000000E+00  0.99999998245E-14  0.12500000000E+03  0.12500000000E+03 0.  0.
          5    1    1    0  501    0  0.26286969071E+02 -0.36806901033E+02  0.42876652078E+02  0.62500000000E+02  0.47000000000E+01 0. -1.
         -5    1    1    0    0  501 -0.26286969071E+02  0.36806901033E+02 -0.42876652078E+02  0.62500000000E+02  0.47000000000E+01 0. -1.
</event>
<event>
 3    0  0.4580101E-005  0.9118800E+02  0.7546771E-02  0.1235069E+00
         25   -1    0    0    0    0  0.00000000000E+00  0.00000000000E+00  0.99999998245E-14  0.12500000000E+03  0.12500000000E+03 0.  0.
          5    1    1    0  501    0 -0.58922225292E+02 -0.20270776399E+02  0.11945672233E+01  0.62500000000E+02  0.47000000000E+01 0.  1.
         -5    1    1    0    0  501  0.58922225292E+02  0.20270776399E+02 -0.11945672233E+01  0.62500000000E+02  0.47000000000E+01 0.  1.
</event>
<event>
 3    0  0.4580101E-005  0.9118800E+02  0.7546771E-02  0.1235069E+00
         25   -1    0    0    0    0  0.00000000000E+00  0.00000000000E+00  0.99999998245E-14  0.12500000000E+03  0.12500000000E+03 0.  0.
          5    1    1    0  501    0  0.50830901425E+02 -0.27979766193E+02 -0.22748893250E+02  0.62500000000E+02  0.47000000000E+01 0.  1.
         -5    1    1    0    0  501 -0.50830901425E+02  0.27979766193E+02  0.22748893250E+02  0.62500000000E+02  0.47000000000E+01 0.  1.
</event>
<event>
 3    0  0.4580101E-005  0.9118800E+02  0.7546771E-02  0.1235069E+00
         25   -1    0    0    0    0  0.00000000000E+00  0.00000000000E+00  0.99999998245E-14  0.12500000000E+03  0.12500000000E+03 0.  0.
          5    1    1    0  501    0  0.53457117847E+02 -0.31474772657E+02 -0.59862540654E+01  0.62500000000E+02  0.47000000000E+01 0.  1.
         -5    1    1    0    0  501 -0.53457117847E+02  0.31474772657E+02  0.59862540654E+01  0.62500000000E+02  0.47000000000E+01 0.  1.
</event>
<event>
 3    0  0.4580101E-005  0.9118800E+02  0.7546771E-02  0.1235069E+00
         25   -1    0    0    0    0  0.00000000000E+00  0.00000000000E+00  0.99999998245E-14  0.12500000000E+03  0.12500000000E+03 0.  0.
          5    1    1    0  501    0 -0.22572253069E+02 -0.79825091906E+01 -0.57540706795E+02  0.62500000000E+02  0.47000000000E+01 0.  1.
         -5    1    1    0    0  501  0.22572253069E+02  0.79825091906E+01  0.57540706795E+02  0.62500000000E+02  0.47000000000E+01 0.  1.
</event>
<event>
 3    0  0.4580101E-005  0.9118800E+02  0.7546771E-02  0.1235069E+00
         25   -1    0    0    0    0  0.00000000000E+00  0.00000000000E+00  0.99999998245E-14  0.12500000000E+03  0.12500000000E+03 0.  0.
          5    1    1    0  501    0  0.60755575508E+02 -0.13533495616E+02 -0.31248265696E+01  0.62500000000E+02  0.47000000000E+01 0. -1.
         -5    1    1    0    0  501 -0.60755575508E+02  0.13533495616E+02  0.31248265696E+01  0.62500000000E+02  0.47000000000E+01 0. -1.
</event>
<event>
 3    0  0.4580101E-005  0.9118800E+02  0.7546771E-02  0.1235069E+00
         25   -1    0    0    0    0  0.00000000000E+00  0.00000000000E+00  0.99999998245E-14  0.12500000000E+03  0.12500000000E+03 0.  0.
          5    1    1    0  501    0  0.25482158369E+02  0.17200106174E+02  0.54212322884E+02  0.62500000000E+02  0.47000000000E+01 0.  1.
         -5    1    1    0    0  501 -0.25482158369E+02 -0.17200106174E+02 -0.54212322884E+02  0.62500000000E+02  0.47000000000E+01 0.  1.
</event>
<event>
 3    0  0.4580101E-005  0.9118800E+02  0.7546771E-02  0.1235069E+00
         25   -1    0    0    0    0  0.00000000000E+00  0.00000000000E+00  0.99999998245E-14  0.12500000000E+03  0.12500000000E+03 0.  0.
          5    1    1    0  501    0  0.51630180425E+02  0.34502876385E+02 -0.52949023032E+01  0.62500000000E+02  0.47000000000E+01 0.  1.
         -5    1    1    0    0  501 -0.51630180425E+02 -0.34502876385E+02  0.52949023032E+01  0.62500000000E+02  0.47000000000E+01 0.  1.
</event>
<event>
 3    0  0.4580101E-005  0.9118800E+02  0.7546771E-02  0.1235069E+00
         25   -1    0    0    0    0  0.00000000000E+00  0.00000000000E+00  0.99999998245E-14  0.12500000000E+03  0.12500000000E+03 0.  0.
          5    1    1    0  501    0  0.82779820462E+01  0.62519469358E+01 -0.61453626197E+02  0.62500000000E+02  0.47000000000E+01 0.  1.
         -5    1    1    0    0  501 -0.82779820462E+01 -0.62519469358E+01  0.61453626197E+02  0.62500000000E+02  0.47000000000E+01 0.  1.
</event>
<event>
 3    0  0.4580101E-005  0.9118800E+02  0.7546771E-02  0.1235069E+00
         25   -1    0    0    0    0  0.00000000000E+00  0.00000000000E+00  0.99999998245E-14  0.12500000000E+03  0.12500000000E+03 0.  0.
          5    1    1    0  501    0 -0.54543172295E+01 -0.10974375829E+02 -0.61106247624E+02  0.62500000000E+02  0.47000000000E+01 0.  1.
         -5    1    1    0    0  501  0.54543172295E+01  0.10974375829E+02  0.61106247624E+02  0.62500000000E+02  0.47000000000E+01 0.  1.
</event>
<event>
 3    0  0.4580101E-005  0.9118800E+02  0.7546771E-02  0.1235069E+00
         25   -1    0    0    0    0  0.00000000000E+00  0.00000000000E+00  0.99999998245E-14  0.12500000000E+03  0.12500000000E+03 0.  0.
          5    1    1    0  501    0 -0.42389680775E+02  0.45401917838E+02 -0.50932131723E+01  0.62500000000E+02  0.47000000000E+01 0. -1.
         -5    1    1    0    0  501  0.42389680775E+02 -0.45401917838E+02  0.50932131723E+01  0.62500000000E+02  0.47000000000E+01 0. -1.
</event>
<event>
 3    0  0.4580101E-005  0.9118800E+02  0.7546771E-02  0.1235069E+00
         25   -1    0    0    0    0  0.00000000000E+00  0.00000000000E+00  0.99999998245E-14  0.12500000000E+03  0.12500000000E+03 0.  0.
          5    1    1    0  501    0  0.21011862106E+02  0.58468941433E+02 -0.49035230707E+01  0.62500000000E+02  0.47000000000E+01 0. -1.
         -5    1    1    0    0  501 -0.21011862106E+02 -0.58468941433E+02  0.49035230707E+01  0.62500000000E+02  0.47000000000E+01 0. -1.
</event>
<event>
 3    0  0.4580101E-005  0.9118800E+02  0.7546771E-02  0.1235069E+00
         25   -1    0    0    0    0  0.00000000000E+00  0.00000000000E+00  0.99999998245E-14  0.12500000000E+03  0.12500000000E+03 0.  0.
          5    1    1    0  501    0 -0.11075905255E+02  0.45843531566E+02  0.40741317312E+02  0.62500000000E+02  0.47000000000E+01 0.  1.
         -5    1    1    0    0  501  0.11075905255E+02 -0.45843531566E+02 -0.40741317312E+02  0.62500000000E+02  0.47000000000E+01 0.  1.
</event>
<event>
 3    0  0.4580101E-005  0.9118800E+02  0.7546771E-02  0.1235069E+00
         25   -1    0    0    0    0  0.00000000000E+00  0.00000000000E+00  0.99999998245E-14  0.12500000000E+03  0.12500000000E+03 0.  0.
          5    1    1    0  501    0  0.48754444944E+02  0.21012468216E+01 -0.38765304848E+02  0.62500000000E+02  0.47000000000E+01 0.  1.
         -5    1    1    0    0  501 -0.48754444944E+02 -0.21012468216E+01  0.38765304848E+02  0.62500000000E+02  0.47000000000E+01 0.  1.
</event>
<event>
 3    0  0.4580101E-005  0.9118800E+02  0.7546771E-02  0.1235069E+00
         25   -1    0    0    0    0  0.00000000000E+00  0.00000000000E+00  0.99999998245E-14  0.12500000000E+03  0.12500000000E+03 0.  0.
          5    1    1    0  501    0  0.31574463404E+02 -0.22789418838E+02 -0.48660617030E+02  0.62500000000E+02  0.47000000000E+01 0. -1.
         -5    1    1    0    0  501 -0.31574463404E+02  0.22789418838E+02  0.48660617030E+02  0.62500000000E+02  0.47000000000E+01 0. -1.
</event>
<event>
 3    0  0.4580101E-005  0.9118800E+02  0.7546771E-02  0.1235069E+00
         25   -1    0    0    0    0  0.00000000000E+00  0.00000000000E+00  0.99999998245E-14  0.12500000000E+03  0.12500000000E+03 0.  0.
          5    1    1    0  501    0  0.14503889763E+02  0.43699829539E+02 -0.42001453308E+02  0.62500000000E+02  0.47000000000E+01 0.  1.
         -5    1    1    0    0  501 -0.14503889763E+02 -0.43699829539E+02  0.42001453308E+02  0.62500000000E+02  0.47000000000E+01 0.  1.
</event>
<event>
 3    0  0.4580101E-005  0.9118800E+02  0.7546771E-02  0.1235069E+00
         25   -1    0    0    0    0  0.00000000000E+00  0.00000000000E+00  0.99999998245E-14  0.12500000000E+03  0.12500000000E+03 0.  0.
          5    1    1    0  501    0 -0.50756263845E+02  0.17228582080E+02  0.31798390526E+02  0.62500000000E+02  0.47000000000E+01 0. -1.
         -5    1    1    0    0  501  0.50756263845E+02 -0.17228582080E+02 -0.31798390526E+02  0.62500000000E+02  0.47000000000E+01 0. -1.
</event>
<event>
 3    0  0.4580101E-005  0.9118800E+02  0.7546771E-02  0.1235069E+00
         25   -1    0    0    0    0  0.00000000000E+00  0.00000000000E+00  0.99999998245E-14  0.12500000000E+03  0.12500000000E+03 0.  0.
          5    1    1    0  501    0  0.39595359271E+01 -0.26631635198E+02  0.56207099924E+02  0.62500000000E+02  0.47000000000E+01 0.  1.
         -5    1    1    0    0  501 -0.39595359271E+01  0.26631635198E+02 -0.56207099924E+02  0.62500000000E+02  0.47000000000E+01 0.  1.
</event>
<event>
 3    0  0.4580101E-005  0.9118800E+02  0.7546771E-02  0.1235069E+00
         25   -1    0    0    0    0  0.00000000000E+00  0.00000000000E+00  0.99999998245E-14  0.12500000000E+03  0.12500000000E+03 0.  0.
          5    1    1    0  501    0 -0.46246580799E+02  0.26616992992E+02 -0.32201699465E+02  0.62500000000E+02  0.47000000000E+01 0.  1.
         -5    1    1    0    0  501  0.46246580799E+02 -0.26616992992E+02  0.32201699465E+02  0.62500000000E+02  0.47000000000E+01 0.  1.
</event>
<event>
 3    0  0.4580101E-005  0.9118800E+02  0.7546771E-02  0.1235069E+00
         25   -1    0    0    0    0  0.00000000000E+00  0.00000000000E+00  0.99999998245E-14  0.12500000000E+03  0.12500000000E+03 0.  0.
          5    1    1    0  501    0 -0.31979840246E+02 -0.19219198085E+02  0.49920659479E+02  0.62500000000E+02  0.47000000000E+01 0.  1.
         -5    1    1    0    0  501  0.31979840246E+02  0.19219198085E+02 -0.49920659479E+02  0.62500000000E+02  0.47000000000E+01 0.  1.
</event>
<event>
 3    0  0.4580101E-005  0.9118800E+02  0.7546771E-02  0.1235069E+00
         25   -1    0    0    0    0  0.00000000000E+00  0.00000000000E+00  0.99999998245E-14  0.12500000000E+03  0.12500000000E+03 0.  0.
          5    1    1    0  501    0 -0.27726548069E+02 -0.54775171360E+02  0.10727494334E+02  0.62500000000E+02  0.47000000000E+01 0. -1.
         -5    1    1    0    0  501  0.27726548069E+02  0.54775171360E+02 -0.10727494334E+02  0.62500000000E+02  0.47000000000E+01 0. -1.
</event>
<event>
 3    0  0.4580101E-005  0.9118800E+02  0.7546771E-02  0.1235069E+00
         25   -1    0    0    0    0  0.00000000000E+00  0.00000000000E+00  0.99999998245E-14  0.12500000000E+03  0.12500000000E+03 0.  0.
          5    1    1    0  501    0 -0.13311042048E+02 -0.17341073582E+02  0.58363201820E+02  0.62500000000E+02  0.47000000000E+01 0. -1.
         -5    1    1    0    0  501  0.13311042048E+02  0.17341073582E+02 -0.58363201820E+02  0.62500000000E+02  0.47000000000E+01 0. -1.
</event>
<event>
 3    0  0.4580101E-005  0.9118800E+02  0.7546771E-02  0.1235069E+00
         25   -1    0    0    0    0  0.00000000000E+00  0.00000000000E+00  0.99999998245E-14  0.12500000000E+03  0.12500000000E+03 0.  0.
          5    1    1    0  501    0  0.61455548876E+01 -0.15407082128E+02 -0.60075069500E+02  0.62500000000E+02  0.47000000000E+01 0. -1.
         -5    1    1    0    0  501 -0.61455548876E+01  0.15407082128E+02  0.60075069500E+02  0.62500000000E+02  0.47000000000E+01 0. -1.
</event>
<event>
 3    0  0.4580101E-005  0.9118800E+02  0.7546771E-02  0.1235069E+00
         25   -1    0    0    0    0  0.00000000000E+00  0.00000000000E+00  0.99999998245E-14  0.12500000000E+03  0.12500000000E+03 0.  0.
          5    1    1    0  501    0  0.18317431160E+02  0.30846357750E+02 -0.50962083251E+02  0.62500000000E+02  0.47000000000E+01 0.  1.
         -5    1    1    0    0  501 -0.18317431160E+02 -0.30846357750E+02  0.50962083251E+02  0.62500000000E+02  0.47000000000E+01 0.  1.
</event>
<event>
 3    0  0.4580101E-005  0.9118800E+02  0.7546771E-02  0.1235069E+00
         25   -1    0    0    0    0  0.00000000000E+00  0.00000000000E+00  0.99999998245E-14  0.12500000000E+03  0.12500000000E+03 0.  0.
          5    1    1    0  501    0  0.21221575972E+01  0.49286895421E+02  0.38084883968E+02  0.62500000000E+02  0.47000000000E+01 0.  1.
         -5    1    1    0    0  501 -0.21221575972E+01 -0.49286895421E+02 -0.38084883968E+02  0.62500000000E+02  0.47000000000E+01 0.  1.
</event>
<event>
 3    0  0.4580101E-005  0.9118800E+02  0.7546771E-02  0.1235069E+00
         25   -1    0    0    0    0  0.00000000000E+00  0.00000000000E+00  0.99999998245E-14  0.12500000000E+03  0.12500000000E+03 0.  0.
          5    1    1    0  501    0 -0.31458508003E+02 -0.52004112819E+02 -0.13787477074E+02  0.62500000000E+02  0.47000000000E+01 0. -1.
         -5    1    1    0    0  501  0.31458508003E+02  0.52004112819E+02  0.13787477074E+02  0.62500000000E+02  0.47000000000E+01 0. -1.
</event>
<event>
 3    0  0.4580101E-005  0.9118800E+02  0.7546771E-02  0.1235069E+00
         25   -1    0    0    0    0  0.00000000000E+00  0.00000000000E+00  0.99999998245E-14  0.12500000000E+03  0.12500000000E+03 0.  0.
          5    1    1    0  501    0 -0.46139156966E+01  0.48992580015E+02 -0.38243939198E+02  0.62500000000E+02  0.47000000000E+01 0.  1.
         -5    1    1    0    0  501  0.46139156966E+01 -0.48992580015E+02  0.38243939198E+02  0.62500000000E+02  0.47000000000E+01 0.  1.
</event>
<event>
 3    0  0.4580101E-005  0.9118800E+02  0.7546771E-02  0.1235069E+00
         25   -1    0    0    0    0  0.00000000000E+00  0.00000000000E+00  0.99999998245E-14  0.12500000000E+03  0.12500000000E+03 0.  0.
          5    1    1    0  501    0  0.24748572376E+01 -0.53985315037E+02 -0.31042242864E+02  0.62500000000E+02  0.47000000000E+01 0.  1.
         -5    1    1    0    0  501 -0.24748572376E+01  0.53985315037E+02  0.31042242864E+02  0.62500000000E+02  0.47000000000E+01 0.  1.
</event>
<event>
 3    0  0.4580101E-005  0.9118800E+02  0.7546771E-02  0.1235069E+00
         25   -1    0    0    0    0  0.00000000000E+00  0.00000000000E+00  0.99999998245E-14  0.12500000000E+03  0.12500000000E+03 0.  0.
          5    1    1    0  501    0  0.58949083522E+02 -0.13824633024E+02 -0.14766349367E+02  0.62500000000E+02  0.47000000000E+01 0.  1.
         -5    1    1    0    0  501 -0.58949083522E+02  0.13824633024E+02  0.14766349367E+02  0.62500000000E+02  0.47000000000E+01 0.  1.
</event>
<event>
 3    0  0.4580101E-005  0.9118800E+02  0.7546771E-02  0.1235069E+00
         25   -1    0    0    0    0  0.00000000000E+00  0.00000000000E+00  0.99999998245E-14  0.12500000000E+03  0.12500000000E+03 0.  0.
          5    1    1    0  501    0 -0.81383831819E+00  0.58650632820E+02  0.21061836032E+02  0.62500000000E+02  0.47000000000E+01 0. -1.
         -5    1    1    0    0  501  0.81383831819E+00 -0.58650632820E+02 -0.21061836032E+02  0.62500000000E+02  0.47000000000E+01 0. -1.
</event>
<event>
 3    0  0.4580101E-005  0.9118800E+02  0.7546771E-02  0.1235069E+00
         25   -1    0    0    0    0  0.00000000000E+00  0.00000000000E+00  0.99999998245E-14  0.12500000000E+03  0.12500000000E+03 0.  0.
          5    1    1    0  501    0  0.29790865766E+02 -0.53242617648E+02 -0.12723520853E+02  0.62500000000E+02  0.47000000000E+01 0. -1.
         -5    1    1    0    0  501 -0.29790865766E+02  0.53242617648E+02  0.12723520853E+02  0.62500000000E+02  0.47000000000E+01 0. -1.
</event>
<event>
 3    0  0.4580101E-005  0.9118800E+02  0.7546771E-02  0.1235069E+00
         25   -1    0    0    0    0  0.00000000000E+00  0.00000000000E+00  0.99999998245E-14  0.12500000000E+03  0.12500000000E+03 0.  0.
          5    1    1    0  501    0  0.47126889648E+02  0.36563112739E+02  0.18065299858E+02  0.62500000000E+02  0.47000000000E+01 0.  1.
         -5    1    1    0    0  501 -0.47126889648E+02 -0.36563112739E+02 -0.18065299858E+02  0.62500000000E+02  0.47000000000E+01 0.  1.
</event>
<event>
 3    0  0.4580101E-005  0.9118800E+02  0.7546771E-02  0.1235069E+00
         25   -1    0    0    0    0  0.00000000000E+00  0.00000000000E+00  0.99999998245E-14  0.12500000000E+03  0.12500000000E+03 0.  0.
          5    1    1    0  501    0 -0.43538533556E+02 -0.30374513947E+01  0.44489661550E+02  0.62500000000E+02  0.47000000000E+01 0. -1.
         -5    1    1    0    0  501  0.43538533556E+02  0.30374513947E+01 -0.44489661550E+02  0.62500000000E+02  0.47000000000E+01 0. -1.
</event>
<event>
 3    0  0.4580101E-005  0.9118800E+02  0.7546771E-02  0.1235069E+00
         25   -1    0    0    0    0  0.00000000000E+00  0.00000000000E+00  0.99999998245E-14  0.12500000000E+03  0.12500000000E+03 0.  0.
          5    1    1    0  501    0  0.33480761994E+01 -0.12483918693E+02  0.60968042119E+02  0.62500000000E+02  0.47000000000E+01 0.  1.
         -5    1    1    0    0  501 -0.33480761994E+01  0.12483918693E+02 -0.60968042119E+02  0.62500000000E+02  0.47000000000E+01 0.  1.
</event>
<event>
 3    0  0.4580101E-005  0.9118800E+02  0.7546771E-02  0.1235069E+00
         25   -1    0    0    0    0  0.00000000000E+00  0.00000000000E+00  0.99999998245E-14  0.12500000000E+03  0.12500000000E+03 0.  0.
          5    1    1    0  501    0  0.19297791216E+02  0.14239838870E+02 -0.57523753730E+02  0.62500000000E+02  0.47000000000E+01 0.  1.
         -5    1    1    0    0  501 -0.19297791216E+02 -0.14239838870E+02  0.57523753730E+02  0.62500000000E+02  0.47000000000E+01 0.  1.
</event>
<event>
 3    0  0.4580101E-005  0.9118800E+02  0.7546771E-02  0.1235069E+00
         25   -1    0    0    0    0  0.00000000000E+00  0.00000000000E+00  0.99999998245E-14  0.12500000000E+03  0.12500000000E+03 0.  0.
          5    1    1    0  501    0  0.41800585251E+02 -0.26203709434E+02  0.38081973223E+02  0.62500000000E+02  0.47000000000E+01 0.  1.
         -5    1    1    0    0  501 -0.41800585251E+02  0.26203709434E+02 -0.38081973223E+02  0.62500000000E+02  0.47000000000E+01 0.  1.
</event>
<event>
 3    0  0.4580101E-005  0.9118800E+02  0.7546771E-02  0.1235069E+00
         25   -1    0    0    0    0  0.00000000000E+00  0.00000000000E+00  0.99999998245E-14  0.12500000000E+03  0.12500000000E+03 0.  0.
          5    1    1    0  501    0  0.10854693473E+02 -0.20835348276E+02 -0.57725418074E+02  0.62500000000E+02  0.47000000000E+01 0. -1.
         -5    1    1    0    0  501 -0.10854693473E+02  0.20835348276E+02  0.57725418074E+02  0.62500000000E+02  0.47000000000E+01 0. -1.
</event>
<event>
 3    0  0.4580101E-005  0.9118800E+02  0.7546771E-02  0.1235069E+00
         25   -1    0    0    0    0  0.00000000000E+00  0.00000000000E+00  0.99999998245E-14  0.12500000000E+03  0.12500000000E+03 0.  0.
          5    1    1    0  501    0 -0.46911222968E+02  0.19719117010E+02 -0.35981294918E+02  0.62500000000E+02  0.47000000000E+01 0.  1.
         -5    1    1    0    0  501  0.46911222968E+02 -0.19719117010E+02  0.35981294918E+02  0.62500000000E+02  0.47000000000E+01 0.  1.
</event>
<event>
 3    0  0.4580101E-005  0.9118800E+02  0.7546771E-02  0.1235069E+00
         25   -1    0    0    0    0  0.00000000000E+00  0.00000000000E+00  0.99999998245E-14  0.12500000000E+03  0.12500000000E+03 0.  0.
          5    1    1    0  501    0 -0.37434191961E+02  0.28647032778E+02  0.40769949537E+02  0.62500000000E+02  0.47000000000E+01 0. -1.
         -5    1    1    0    0  501  0.37434191961E+02 -0.28647032778E+02 -0.40769949537E+02  0.62500000000E+02  0.47000000000E+01 0. -1.
</event>
<event>
 3    0  0.4580101E-005  0.9118800E+02  0.7546771E-02  0.1235069E+00
         25   -1    0    0    0    0  0.00000000000E+00  0.00000000000E+00  0.99999998245E-14  0.12500000000E+03  0.12500000000E+03 0.  0.
          5    1    1    0  501    0  0.14711210759E+02  0.58961560565E+02  0.13830208014E+02  0.62500000000E+02  0.47000000000E+01 0.  1.
         -5    1    1    0    0  501 -0.14711210759E+02 -0.58961560565E+02 -0.13830208014E+02  0.62500000000E+02  0.47000000000E+01 0.  1.
</event>
<event>
 3    0  0.4580101E-005  0.9118800E+02  0.7546771E-02  0.1235069E+00
         25   -1    0    0    0    0  0.00000000000E+00  0.00000000000E+00  0.99999998245E-14  0.12500000000E+03  0.12500000000E+03 0.  0.
          5    1    1    0  501    0  0.56359763717E+02  0.19713240591E+01  0.26530188753E+02  0.62500000000E+02  0.47000000000E+01 0. -1.
         -5    1    1    0    0  501 -0.56359763717E+02 -0.19713240591E+01 -0.26530188753E+02  0.62500000000E+02  0.47000000000E+01 0. -1.
</event>
<event>
 3    0  0.4580101E-005  0.9118800E+02  0.7546771E-02  0.1235069E+00
         25   -1    0    0    0    0  0.00000000000E+00  0.00000000000E+00  0.99999998245E-14  0.12500000000E+03  0.12500000000E+03 0.  0.
          5    1    1    0  501    0 -0.15520947185E+02  0.21789755246E+02  0.56289135406E+02  0.62500000000E+02  0.47000000000E+01 0. -1.
         -5    1    1    0    0  501  0.15520947185E+02 -0.21789755246E+02 -0.56289135406E+02  0.62500000000E+02  0.47000000000E+01 0. -1.
</event>
<event>
 3    0  0.4580101E-005  0.9118800E+02  0.7546771E-02  0.1235069E+00
         25   -1    0    0    0    0  0.00000000000E+00  0.00000000000E+00  0.99999998245E-14  0.12500000000E+03  0.12500000000E+03 0.  0.
          5    1    1    0  501    0 -0.41839629516E+02 -0.43532106786E+01 -0.45985377663E+02  0.62500000000E+02  0.47000000000E+01 0. -1.
         -5    1    1    0    0  501  0.41839629516E+02  0.43532106786E+01  0.45985377663E+02  0.62500000000E+02  0.47000000000E+01 0. -1.
</event>
<event>
 3    0  0.4580101E-005  0.9118800E+02  0.7546771E-02  0.1235069E+00
         25   -1    0    0    0    0  0.00000000000E+00  0.00000000000E+00  0.99999998245E-14  0.12500000000E+03  0.12500000000E+03 0.  0.
          5    1    1    0  501    0  0.30573377928E+02 -0.11956680919E+02  0.52976092188E+02  0.62500000000E+02  0.47000000000E+01 0.  1.
         -5    1    1    0    0  501 -0.30573377928E+02  0.11956680919E+02 -0.52976092188E+02  0.62500000000E+02  0.47000000000E+01 0.  1.
</event>
<event>
 3    0  0.4580101E-005  0.9118800E+02  0.7546771E-02  0.1235069E+00
         25   -1    0    0    0    0  0.00000000000E+00  0.00000000000E+00  0.99999998245E-14  0.12500000000E+03  0.12500000000E+03 0.  0.
          5    1    1    0  501    0  0.62711183947E+01 -0.22845004396E+01  0.61964620001E+02  0.62500000000E+02  0.47000000000E+01 0.  1.
         -5    1    1    0    0  501 -0.62711183947E+01  0.22845004396E+01 -0.61964620001E+02  0.62500000000E+02  0.47000000000E+01 0.  1.
</event>
<event>
 3    0  0.4580101E-005  0.9118800E+02  0.7546771E-02  0.1235069E+00
         25   -1    0    0    0    0  0.00000000000E+00  0.00000000000E+00  0.99999998245E-14  0.12500000000E+03  0.12500000000E+03 0.  0.
          5    1    1    0  501    0 -0.39605725920E+02 -0.47856928093E+02 -0.50260230627E+01  0.62500000000E+02  0.47000000000E+01 0.  1.
         -5    1    1    0    0  501  0.39605725920E+02  0.47856928093E+02  0.50260230627E+01  0.62500000000E+02  0.47000000000E+01 0.  1.
</event>
<event>
 3    0  0.4580101E-005  0.9118800E+02  0.7546771E-02  0.1235069E+00
         25   -1    0    0    0    0  0.00000000000E+00  0.00000000000E+00  0.99999998245E-14  0.12500000000E+03  0.12500000000E+03 0.  0.
          5    1    1    0  501    0  0.74311846008E+01 -0.32919005808E+02  0.52395386744E+02  0.62500000000E+02  0.47000000000E+01 0. -1.
         -5    1    1    0    0  501 -0.74311846008E+01  0.32919005808E+02 -0.52395386744E+02  0.62500000000E+02  0.47000000000E+01 0. -1.
</event>
<event>
 3    0  0.4580101E-005  0.9118800E+02  0.7546771E-02  0.1235069E+00
         25   -1    0    0    0    0  0.00000000000E+00  0.00000000000E+00  0.99999998245E-14  0.12500000000E+03  0.12500000000E+03 0.  0.
          5    1    1    0  501    0 -0.58079287053E+02 -0.90291270440E+01  0.20722723765E+02  0.62500000000E+02  0.47000000000E+01 0.  1.
         -5    1    1    0    0  501  0.58079287053E+02  0.90291270440E+01 -0.20722723765E+02  0.62500000000E+02  0.47000000000E+01 0.  1.
</event>
<event>
 3    0  0.4580101E-005  0.9118800E+02  0.7546771E-02  0.1235069E+00
         25   -1    0    0    0    0  0.00000000000E+00  0.00000000000E+00  0.99999998245E-14  0.12500000000E+03  0.12500000000E+03 0.  0.
          5    1    1    0  501    0 -0.28320123195E+01 -0.35070675315E+02 -0.51441106512E+02  0.62500000000E+02  0.47000000000E+01 0. -1.
         -5    1    1    0    0  501  0.28320123195E+01  0.35070675315E+02  0.51441106512E+02  0.62500000000E+02  0.47000000000E+01 0. -1.
</event>
<event>
 3    0  0.4580101E-005  0.9118800E+02  0.7546771E-02  0.1235069E+00
         25   -1    0    0    0    0  0.00000000000E+00  0.00000000000E+00  0.99999998245E-14  0.12500000000E+03  0.12500000000E+03 0.  0.
          5    1    1    0  501    0 -0.47422196951E+02  0.23116406072E+02  0.33180220112E+02  0.62500000000E+02  0.47000000000E+01 0. -1.
         -5    1    1    0    0  501  0.47422196951E+02 -0.23116406072E+02 -0.33180220112E+02  0.62500000000E+02  0.47000000000E+01 0. -1.
</event>
<event>
 3    0  0.4580101E-005  0.9118800E+02  0.7546771E-02  0.1235069E+00
         25   -1    0    0    0    0  0.00000000000E+00  0.00000000000E+00  0.99999998245E-14  0.12500000000E+03  0.12500000000E+03 0.  0.
          5    1    1    0  501    0  0.12685354762E+01 -0.62268513259E+02  0.22766366178E+01  0.62500000000E+02  0.47000000000E+01 0.  1.
         -5    1    1    0    0  501 -0.12685354762E+01  0.62268513259E+02 -0.22766366178E+01  0.62500000000E+02  0.47000000000E+01 0.  1.
</event>
<event>
 3    0  0.4580101E-005  0.9118800E+02  0.7546771E-02  0.1235069E+00
         25   -1    0    0    0    0  0.00000000000E+00  0.00000000000E+00  0.99999998245E-14  0.12500000000E+03  0.12500000000E+03 0.  0.
          5    1    1    0  501    0 -0.35206540287E+01 -0.54118744684E+02  0.30707107793E+02  0.62500000000E+02  0.47000000000E+01 0.  1.
         -5    1    1    0    0  501  0.35206540287E+01  0.54118744684E+02 -0.30707107793E+02  0.62500000000E+02  0.47000000000E+01 0.  1.
</event>
<event>
 3    0  0.4580101E-005  0.9118800E+02  0.7546771E-02  0.1235069E+00
         25   -1    0    0    0    0  0.00000000000E+00  0.00000000000E+00  0.99999998245E-14  0.12500000000E+03  0.12500000000E+03 0.  0.
          5    1    1    0  501    0 -0.14472696230E+02  0.55136624760E+02  0.25192333634E+02  0.62500000000E+02  0.47000000000E+01 0. -1.
         -5    1    1    0    0  501  0.14472696230E+02 -0.55136624760E+02 -0.25192333634E+02  0.62500000000E+02  0.47000000000E+01 0. -1.
</event>
<event>
 3    0  0.4580101E-005  0.9118800E+02  0.7546771E-02  0.1235069E+00
         25   -1    0    0    0    0  0.00000000000E+00  0.00000000000E+00  0.99999998245E-14  0.12500000000E+03  0.12500000000E+03 0.  0.
          5    1    1    0  501    0  0.61532002194E+02  0.19624140014E+01  0.97016306481E+01  0.62500000000E+02  0.47000000000E+01 0.  1.
         -5    1    1    0    0  501 -0.61532002194E+02 -0.19624140014E+01 -0.97016306481E+01  0.62500000000E+02  0.47000000000E+01 0.  1.
</event>
<event>
 3    0  0.4580101E-005  0.9118800E+02  0.7546771E-02  0.1235069E+00
         25   -1    0    0    0    0  0.00000000000E+00  0.00000000000E+00  0.99999998245E-14  0.12500000000E+03  0.12500000000E+03 0.  0.
          5    1    1    0  501    0  0.30155795294E+02  0.22296012140E+02 -0.49776257923E+02  0.62500000000E+02  0.47000000000E+01 0. -1.
         -5    1    1    0    0  501 -0.30155795294E+02 -0.22296012140E+02  0.49776257923E+02  0.62500000000E+02  0.47000000000E+01 0. -1.
</event>
<event>
 3    0  0.4580101E-005  0.9118800E+02  0.7546771E-02  0.1235069E+00
         25   -1    0    0    0    0  0.00000000000E+00  0.00000000000E+00  0.99999998245E-14  0.12500000000E+03  0.12500000000E+03 0.  0.
          5    1    1    0  501    0 -0.21899080483E+02  0.56145658872E+02 -0.15882545887E+02  0.62500000000E+02  0.47000000000E+01 0.  1.
         -5    1    1    0    0  501  0.21899080483E+02 -0.56145658872E+02  0.15882545887E+02  0.62500000000E+02  0.47000000000E+01 0.  1.
</event>
<event>
 3    0  0.4580101E-005  0.9118800E+02  0.7546771E-02  0.1235069E+00
         25   -1    0    0    0    0  0.00000000000E+00  0.00000000000E+00  0.99999998245E-14  0.12500000000E+03  0.12500000000E+03 0.  0.
          5    1    1    0  501    0  0.38837630957E+02 -0.41486256358E+02 -0.25586890297E+02  0.62500000000E+02  0.47000000000E+01 0.  1.
         -5    1    1    0    0  501 -0.38837630957E+02  0.41486256358E+02  0.25586890297E+02  0.62500000000E+02  0.47000000000E+01 0.  1.
</event>
<event>
 3    0  0.4580101E-005  0.9118800E+02  0.7546771E-02  0.1235069E+00
         25   -1    0    0    0    0  0.00000000000E+00  0.00000000000E+00  0.99999998245E-14  0.12500000000E+03  0.12500000000E+03 0.  0.
          5    1    1    0  501    0  0.36666825488E+02 -0.11234965921E+02  0.49127176282E+02  0.62500000000E+02  0.47000000000E+01 0.  1.
         -5    1    1    0    0  501 -0.36666825488E+02  0.11234965921E+02 -0.49127176282E+02  0.62500000000E+02  0.47000000000E+01 0.  1.
</event>
<event>
 3    0  0.4580101E-005  0.9118800E+02  0.7546771E-02  0.1235069E+00
         25   -1    0    0    0    0  0.00000000000E+00  0.00000000000E+00  0.99999998245E-14  0.12500000000E+03  0.12500000000E+03 0.  0.
          5    1    1    0  501    0  0.73619404302E+00 -0.51972796888E+02 -0.34386718395E+02  0.62500000000E+02  0.47000000000E+01 0.  1.
         -5    1    1    0    0  501 -0.73619404302E+00  0.51972796888E+02  0.34386718395E+02  0.62500000000E+02  0.47000000000E+01 0.  1.
</event>
<event>
 3    0  0.4580101E-005  0.9118800E+02  0.7546771E-02  0.1235069E+00
         25   -1    0    0    0    0  0.00000000000E+00  0.00000000000E+00  0.99999998245E-14  0.12500000000E+03  0.12500000000E+03 0.  0.
          5    1    1    0  501    0  0.93072858033E+01 -0.54860338378E+00  0.61621696385E+02  0.62500000000E+02  0.47000000000E+01 0. -1.
         -5    1    1    0    0  501 -0.93072858033E+01  0.54860338378E+00 -0.61621696385E+02  0.62500000000E+02  0.47000000000E+01 0. -1.
</event>
<event>
 3    0  0.4580101E-005  0.9118800E+02  0.7546771E-02  0.1235069E+00
         25   -1    0    0    0    0  0.00000000000E+00  0.00000000000E+00  0.99999998245E-14  0.12500000000E+03  0.12500000000E+03 0.  0.
          5    1    1    0  501    0  0.50968977278E+02 -0.35013845814E+02 -0.77687808897E+01  0.62500000000E+02  0.47000000000E+01 0. -1.
         -5    1    1    0    0  501 -0.50968977278E+02  0.35013845814E+02  0.77687808897E+01  0.62500000000E+02  0.47000000000E+01 0. -1.
</event>
<event>
 3    0  0.4580101E-005  0.9118800E+02  0.7546771E-02  0.1235069E+00
         25   -1    0    0    0    0  0.00000000000E+00  0.00000000000E+00  0.99999998245E-14  0.12500000000E+03  0.12500000000E+03 0.  0.
          5    1    1    0  501    0  0.32083155392E+02 -0.38550272177E+02  0.36996049183E+02  0.62500000000E+02  0.47000000000E+01 0. -1.
         -5    1    1    0    0  501 -0.32083155392E+02  0.38550272177E+02 -0.36996049183E+02  0.62500000000E+02  0.47000000000E+01 0. -1.
</event>
<event>
 3    0  0.4580101E-005  0.9118800E+02  0.7546771E-02  0.1235069E+00
         25   -1    0    0    0    0  0.00000000000E+00  0.00000000000E+00  0.99999998245E-14  0.12500000000E+03  0.12500000000E+03 0.  0.
          5    1    1    0  501    0 -0.52323886988E+02  0.13580368096E+02 -0.31015229370E+02  0.62500000000E+02  0.47000000000E+01 0.  1.
         -5    1    1    0    0  501  0.52323886988E+02 -0.13580368096E+02  0.31015229370E+02  0.62500000000E+02  0.47000000000E+01 0.  1.
</event>
<event>
 3    0  0.4580101E-005  0.9118800E+02  0.7546771E-02  0.1235069E+00
         25   -1    0    0    0    0  0.00000000000E+00  0.00000000000E+00  0.99999998245E-14  0.12500000000E+03  0.12500000000E+03 0.  0.
          5    1    1    0  501    0  0.50721256015E+02  0.35751057776E+02  0.57772014146E+01  0.62500000000E+02  0.47000000000E+01 0.  1.
         -5    1    1    0    0  501 -0.50721256015E+02 -0.35751057776E+02 -0.57772014146E+01  0.62500000000E+02  0.47000000000E+01 0.  1.
</event>
<event>
 3    0  0.4580101E-005  0.9118800E+02  0.7546771E-02  0.1235069E+00
         25   -1    0    0    0    0  0.00000000000E+00  0.00000000000E+00  0.99999998245E-14  0.12500000000E+03  0.12500000000E+03 0.  0.
          5    1    1    0  501    0 -0.38747578024E+02 -0.38316759953E+02 -0.30242537988E+02  0.62500000000E+02  0.47000000000E+01 0.  1.
         -5    1    1    0    0  501  0.38747578024E+02  0.38316759953E+02  0.30242537988E+02  0.62500000000E+02  0.47000000000E+01 0.  1.
</event>
<event>
 3    0  0.4580101E-005  0.9118800E+02  0.7546771E-02  0.1235069E+00
         25   -1    0    0    0    0  0.00000000000E+00  0.00000000000E+00  0.99999998245E-14  0.12500000000E+03  0.12500000000E+03 0.  0.
          5    1    1    0  501    0  0.53529992066E+02 -0.31916982208E+02  0.78715660060E-01  0.62500000000E+02  0.47000000000E+01 0. -1.
         -5    1    1    0    0  501 -0.53529992066E+02  0.31916982208E+02 -0.78715660060E-01  0.62500000000E+02  0.47000000000E+01 0. -1.
</event>
<event>
 3    0  0.4580101E-005  0.9118800E+02  0.7546771E-02  0.1235069E+00
         25   -1    0    0    0    0  0.00000000000E+00  0.00000000000E+00  0.99999998245E-14  0.12500000000E+03  0.12500000000E+03 0.  0.
          5    1    1    0  501    0  0.24818477769E+02 -0.57061209328E+02 -0.34959335256E+01  0.62500000000E+02  0.47000000000E+01 0.  1.
         -5    1    1    0    0  501 -0.24818477769E+02  0.57061209328E+02  0.34959335256E+01  0.62500000000E+02  0.47000000000E+01 0.  1.
</event>
<event>
 3    0  0.4580101E-005  0.9118800E+02  0.7546771E-02  0.1235069E+00
         25   -1    0    0    0    0  0.00000000000E+00  0.00000000000E+00  0.99999998245E-14  0.12500000000E+03  0.12500000000E+03 0.  0.
          5    1    1    0  501    0  0.27508804417E+02  0.41932019083E+01  0.55765963968E+02  0.62500000000E+02  0.47000000000E+01 0.  1.
         -5    1    1    0    0  501 -0.27508804417E+02 -0.41932019083E+01 -0.55765963968E+02  0.62500000000E+02  0.47000000000E+01 0.  1.
</event>
<event>
 3    0  0.4580101E-005  0.9118800E+02  0.7546771E-02  0.1235069E+00
         25   -1    0    0    0    0  0.00000000000E+00  0.00000000000E+00  0.99999998245E-14  0.12500000000E+03  0.12500000000E+03 0.  0.
          5    1    1    0  501    0  0.53779812122E+02  0.19549675181E+02 -0.24692144671E+02  0.62500000000E+02  0.47000000000E+01 0. -1.
         -5    1    1    0    0  501 -0.53779812122E+02 -0.19549675181E+02  0.24692144671E+02  0.62500000000E+02  0.47000000000E+01 0. -1.
</event>
<event>
 3    0  0.4580101E-005  0.9118800E+02  0.7546771E-02  0.1235069E+00
         25   -1    0    0    0    0  0.00000000000E+00  0.00000000000E+00  0.99999998245E-14  0.12500000000E+03  0.12500000000E+03 0.  0.
          5    1    1    0  501    0  0.81134524754E+01 -0.80899446567E+01  0.61260792391E+02  0.62500000000E+02  0.47000000000E+01 0. -1.
         -5    1    1    0    0  501 -0.81134524754E+01  0.80899446567E+01 -0.61260792391E+02  0.62500000000E+02  0.47000000000E+01 0. -1.
</event>
<event>
 3    0  0.4580101E-005  0.9118800E+02  0.7546771E-02  0.1235069E+00
         25   -1    0    0    0    0  0.00000000000E+00  0.00000000000E+00  0.99999998245E-14  0.12500000000E+03  0.12500000000E+03 0.  0.
          5    1    1    0  501    0  0.15639265318E+02  0.52936817596E+02 -0.28935561566E+02  0.62500000000E+02  0.47000000000E+01 0. -1.
         -5    1    1    0    0  501 -0.15639265318E+02 -0.52936817596E+02  0.28935561566E+02  0.62500000000E+02  0.47000000000E+01 0. -1.
</event>
<event>
 3    0  0.4580101E-005  0.9118800E+02  0.7546771E-02  0.1235069E+00
         25   -1    0    0    0    0  0.00000000000E+00  0.00000000000E+00  0.99999998245E-14  0.12500000000E+03  0.12500000000E+03 0.  0.
          5    1    1    0  501    0  0.29815899280E+01  0.44460918882E+02 -0.43571743293E+02  0.62500000000E+02  0.47000000000E+01 0.  1.
         -5    1    1    0    0  501 -0.29815899280E+01 -0.44460918882E+02  0.43571743293E+02  0.62500000000E+02  0.47000000000E+01 0.  1.
</event>
<event>
 3    0  0.4580101E-005  0.9118800E+02  0.7546771E-02  0.1235069E+00
         25   -1    0    0    0    0  0.00000000000E+00  0.00000000000E+00  0.99999998245E-14  0.12500000000E+03  0.12500000000E+03 0.  0.
          5    1    1    0  501    0  0.55953903890E+02  0.33261835589E+01 -0.27244396531E+02  0.62500000000E+02  0.47000000000E+01 0.  1.
         -5    1    1    0    0  501 -0.55953903890E+02 -0.33261835589E+01  0.27244396531E+02  0.62500000000E+02  0.47000000000E+01 0.  1.
</event>
<event>
 3    0  0.4580101E-005  0.9118800E+02  0.7546771E-02  0.1235069E+00
         25   -1    0    0    0    0  0.00000000000E+00  0.00000000000E+00  0.99999998245E-14  0.12500000000E+03  0.12500000000E+03 0.  0.
          5    1    1    0  501    0  0.39105412030E+02 -0.10905492043E+02  0.47286329877E+02  0.62500000000E+02  0.47000000000E+01 0. -1.
         -5    1    1    0    0  501 -0.39105412030E+02  0.10905492043E+02 -0.47286329877E+02  0.62500000000E+02  0.47000000000E+01 0. -1.
</event>
<event>
 3    0  0.4580101E-005  0.9118800E+02  0.7546771E-02  0.1235069E+00
         25   -1    0    0    0    0  0.00000000000E+00  0.00000000000E+00  0.99999998245E-14  0.12500000000E+03  0.12500000000E+03 0.  0.
          5    1    1    0  501    0 -0.41336710052E+02  0.46641522107E+02 -0.69409231586E-01  0.62500000000E+02  0.47000000000E+01 0.  1.
         -5    1    1    0    0  501  0.41336710052E+02 -0.46641522107E+02  0.69409231586E-01  0.62500000000E+02  0.47000000000E+01 0.  1.
</event>
<event>
 3    0  0.4580101E-005  0.9118800E+02  0.7546771E-02  0.1235069E+00
         25   -1    0    0    0    0  0.00000000000E+00  0.00000000000E+00  0.99999998245E-14  0.12500000000E+03  0.12500000000E+03 0.  0.
          5    1    1    0  501    0 -0.59861889893E+02  0.66278614193E+01 -0.16024530927E+02  0.62500000000E+02  0.47000000000E+01 0.  1.
         -5    1    1    0    0  501  0.59861889893E+02 -0.66278614193E+01  0.16024530927E+02  0.62500000000E+02  0.47000000000E+01 0.  1.
</event>
<event>
 3    0  0.4580101E-005  0.9118800E+02  0.7546771E-02  0.1235069E+00
         25   -1    0    0    0    0  0.00000000000E+00  0.00000000000E+00  0.99999998245E-14  0.12500000000E+03  0.12500000000E+03 0.  0.
          5    1    1    0  501    0  0.15608493742E+02  0.36015260459E+02 -0.48409048092E+02  0.62500000000E+02  0.47000000000E+01 0.  1.
         -5    1    1    0    0  501 -0.15608493742E+02 -0.36015260459E+02  0.48409048092E+02  0.62500000000E+02  0.47000000000E+01 0.  1.
</event>
<event>
 3    0  0.4580101E-005  0.9118800E+02  0.7546771E-02  0.1235069E+00
         25   -1    0    0    0    0  0.00000000000E+00  0.00000000000E+00  0.99999998245E-14  0.12500000000E+03  0.12500000000E+03 0.  0.
          5    1    1    0  501    0 -0.36791129114E+02 -0.18264343851E+02 -0.46872023236E+02  0.62500000000E+02  0.47000000000E+01 0.  1.
         -5    1    1    0    0  501  0.36791129114E+02  0.18264343851E+02  0.46872023236E+02  0.62500000000E+02  0.47000000000E+01 0.  1.
</event>
<event>
 3    0  0.4580101E-005  0.9118800E+02  0.7546771E-02  0.1235069E+00
         25   -1    0    0    0    0  0.00000000000E+00  0.00000000000E+00  0.99999998245E-14  0.12500000000E+03  0.12500000000E+03 0.  0.
          5    1    1    0  501    0 -0.30991601330E+02  0.50308282271E+02 -0.19818107426E+02  0.62500000000E+02  0.47000000000E+01 0.  1.
         -5    1    1    0    0  501  0.30991601330E+02 -0.50308282271E+02  0.19818107426E+02  0.62500000000E+02  0.47000000000E+01 0.  1.
</event>
<event>
 3    0  0.4580101E-005  0.9118800E+02  0.7546771E-02  0.1235069E+00
         25   -1    0    0    0    0  0.00000000000E+00  0.00000000000E+00  0.99999998245E-14  0.12500000000E+03  0.12500000000E+03 0.  0.
          5    1    1    0  501    0 -0.86511781915E+00 -0.49147787018E+02 -0.38313269273E+02  0.62500000000E+02  0.47000000000E+01 0.  1.
         -5    1    1    0    0  501  0.86511781915E+00  0.49147787018E+02  0.38313269273E+02  0.62500000000E+02  0.47000000000E+01 0.  1.
</event>
<event>
 3    0  0.4580101E-005  0.9118800E+02  0.7546771E-02  0.1235069E+00
         25   -1    0    0    0    0  0.00000000000E+00  0.00000000000E+00  0.99999998245E-14  0.12500000000E+03  0.12500000000E+03 0.  0.
          5    1    1    0  501    0  0.35860941619E+02 -0.11662879868E+01  0.50958734664E+02  0.62500000000E+02  0.47000000000E+01 0.  1.
         -5    1    1    0    0  501 -0.35860941619E+02  0.11662879868E+01 -0.50958734664E+02  0.62500000000E+02  0.47000000000E+01 0.  1.
</event>
<event>
 3    0  0.4580101E-005  0.9118800E+02  0.7546771E-02  0.1235069E+00
         25   -1    0    0    0    0  0.00000000000E+00  0.00000000000E+00  0.99999998245E-14  0.12500000000E+03  0.12500000000E+03 0.  0.
          5    1    1    0  501    0 -0.31762491502E+02  0.44758802658E+02  0.29528862460E+02  0.62500000000E+02  0.47000000000E+01 0.  1.
         -5    1    1    0    0  501  0.31762491502E+02 -0.44758802658E+02 -0.29528862460E+02  0.62500000000E+02  0.47000000000E+01 0.  1.
</event>
<event>
 3    0  0.4580101E-005  0.9118800E+02  0.7546771E-02  0.1235069E+00
         25   -1    0    0    0    0  0.00000000000E+00  0.00000000000E+00  0.99999998245E-14  0.12500000000E+03  0.12500000000E+03 0.  0.
          5    1    1    0  501    0 -0.40235945226E+02  0.37313696620E+02  0.29545164685E+02  0.62500000000E+02  0.47000000000E+01 0.  1.
         -5    1    1    0    0  501  0.40235945226E+02 -0.37313696620E+02 -0.29545164685E+02  0.62500000000E+02  0.47000000000E+01 0.  1.
</event>
<event>
 3    0  0.4580101E-005  0.9118800E+02  0.7546771E-02  0.1235069E+00
         25   -1    0    0    0    0  0.00000000000E+00  0.00000000000E+00  0.99999998245E-14  0.12500000000E+03  0.12500000000E+03 0.  0.
          5    1    1    0  501    0 -0.29825255384E+02 -0.24282284943E+02  0.49040644156E+02  0.62500000000E+02  0.47000000000E+01 0. -1.
         -5    1    1    0    0  501  0.29825255384E+02  0.24282284943E+02 -0.49040644156E+02  0.62500000000E+02  0.47000000000E+01 0. -1.
</event>
<event>
 3    0  0.4580101E-005  0.9118800E+02  0.7546771E-02  0.1235069E+00
         25   -1    0    0    0    0  0.00000000000E+00  0.00000000000E+00  0.99999998245E-14  0.12500000000E+03  0.12500000000E+03 0.  0.
          5    1    1    0  501    0  0.26571094778E+02  0.23324075838E+02 -0.51323721695E+02  0.62500000000E+02  0.47000000000E+01 0.  1.
         -5    1    1    0    0  501 -0.26571094778E+02 -0.23324075838E+02  0.51323721695E+02  0.62500000000E+02  0.47000000000E+01 0.  1.
</event>
<event>
 3    0  0.4580101E-005  0.9118800E+02  0.7546771E-02  0.1235069E+00
         25   -1    0    0    0    0  0.00000000000E+00  0.00000000000E+00  0.99999998245E-14  0.12500000000E+03  0.12500000000E+03 0.  0.
          5    1    1    0  501    0  0.32157300706E+02  0.30572521460E+02 -0.43765156722E+02  0.62500000000E+02  0.47000000000E+01 0.  1.
         -5    1    1    0    0  501 -0.32157300706E+02 -0.30572521460E+02  0.43765156722E+02  0.62500000000E+02  0.47000000000E+01 0.  1.
</event>
<event>
 3    0  0.4580101E-005  0.9118800E+02  0.7546771E-02  0.1235069E+00
         25   -1    0    0    0    0  0.00000000000E+00  0.00000000000E+00  0.99999998245E-14  0.12500000000E+03  0.12500000000E+03 0.  0.
          5    1    1    0  501    0 -0.13130007805E+02 -0.48314683940E+02  0.37114070254E+02  0.62500000000E+02  0.47000000000E+01 0.  1.
         -5    1    1    0    0  501  0.13130007805E+02  0.48314683940E+02 -0.37114070254E+02  0.62500000000E+02  0.47000000000E+01 0.  1.
</event>
<event>
 3    0  0.4580101E-005  0.9118800E+02  0.7546771E-02  0.1235069E+00
         25   -1    0    0    0    0  0.00000000000E+00  0.00000000000E+00  0.99999998245E-14  0.12500000000E+03  0.12500000000E+03 0.  0.
          5    1    1    0  501    0 -0.83606401157E+01 -0.46951876149E+02 -0.40122076503E+02  0.62500000000E+02  0.47000000000E+01 0.  1.
         -5    1    1    0    0  501  0.83606401157E+01  0.46951876149E+02  0.40122076503E+02  0.62500000000E+02  0.47000000000E+01 0.  1.
</event>
<event>
 3    0  0.4580101E-005  0.9118800E+02  0.7546771E-02  0.1235069E+00
         25   -1    0    0    0    0  0.00000000000E+00  0.00000000000E+00  0.99999998245E-14  0.12500000000E+03  0.12500000000E+03 0.  0.
          5    1    1    0  501    0  0.45134058288E+02  0.42244585542E+02 -0.79039088327E+01  0.62500000000E+02  0.47000000000E+01 0. -1.
         -5    1    1    0    0  501 -0.45134058288E+02 -0.42244585542E+02  0.79039088327E+01  0.62500000000E+02  0.47000000000E+01 0. -1.
</event>
<event>
 3    0  0.4580101E-005  0.9118800E+02  0.7546771E-02  0.1235069E+00
         25   -1    0    0    0    0  0.00000000000E+00  0.00000000000E+00  0.99999998245E-14  0.12500000000E+03  0.12500000000E+03 0.  0.
          5    1    1    0  501    0 -0.27588828210E+02  0.37028988507E+02  0.41855352921E+02  0.62500000000E+02  0.47000000000E+01 0.  1.
         -5    1    1    0    0  501  0.27588828210E+02 -0.37028988507E+02 -0.41855352921E+02  0.62500000000E+02  0.47000000000E+01 0.  1.
</event>
<event>
 3    0  0.4580101E-005  0.9118800E+02  0.7546771E-02  0.1235069E+00
         25   -1    0    0    0    0  0.00000000000E+00  0.00000000000E+00  0.99999998245E-14  0.12500000000E+03  0.12500000000E+03 0.  0.
          5    1    1    0  501    0  0.20222431408E+02  0.80849483588E+01 -0.58393894184E+02  0.62500000000E+02  0.47000000000E+01 0. -1.
         -5    1    1    0    0  501 -0.20222431408E+02 -0.80849483588E+01  0.58393894184E+02  0.62500000000E+02  0.47000000000E+01 0. -1.
</event>
<event>
 3    0  0.4580101E-005  0.9118800E+02  0.7546771E-02  0.1235069E+00
         25   -1    0    0    0    0  0.00000000000E+00  0.00000000000E+00  0.99999998245E-14  0.12500000000E+03  0.12500000000E+03 0.  0.
          5    1    1    0  501    0 -0.47313467507E+02 -0.33202539391E+02 -0.23306376176E+02  0.62500000000E+02  0.47000000000E+01 0. -1.
         -5    1    1    0    0  501  0.47313467507E+02  0.33202539391E+02  0.23306376176E+02  0.62500000000E+02  0.47000000000E+01 0. -1.
</event>
<event>
 3    0  0.4580101E-005  0.9118800E+02  0.7546771E-02  0.1235069E+00
         25   -1    0    0    0    0  0.00000000000E+00  0.00000000000E+00  0.99999998245E-14  0.12500000000E+03  0.12500000000E+03 0.  0.
          5    1    1    0  501    0 -0.39181923157E+02 -0.31877674942E+02  0.36506858781E+02  0.62500000000E+02  0.47000000000E+01 0. -1.
         -5    1    1    0    0  501  0.39181923157E+02  0.31877674942E+02 -0.36506858781E+02  0.62500000000E+02  0.47000000000E+01 0. -1.
</event>
<event>
 3    0  0.4580101E-005  0.9118800E+02  0.7546771E-02  0.1235069E+00
         25   -1    0    0    0    0  0.00000000000E+00  0.00000000000E+00  0.99999998245E-14  0.12500000000E+03  0.12500000000E+03 0.  0.
          5    1    1    0  501    0  0.51538261075E+02  0.33126966461E+02  0.11426799133E+02  0.62500000000E+02  0.47000000000E+01 0. -1.
         -5    1    1    0    0  501 -0.51538261075E+02 -0.33126966461E+02 -0.11426799133E+02  0.62500000000E+02  0.47000000000E+01 0. -1.
</event>
<event>
 3    0  0.4580101E-005  0.9118800E+02  0.7546771E-02  0.1235069E+00
         25   -1    0    0    0    0  0.00000000000E+00  0.00000000000E+00  0.99999998245E-14  0.12500000000E+03  0.12500000000E+03 0.  0.
          5    1    1    0  501    0 -0.53166931488E+02  0.25918678069E+02  0.19638215888E+02  0.62500000000E+02  0.47000000000E+01 0. -1.
         -5    1    1    0    0  501  0.53166931488E+02 -0.25918678069E+02 -0.19638215888E+02  0.62500000000E+02  0.47000000000E+01 0. -1.
</event>
<event>
 3    0  0.4580101E-005  0.9118800E+02  0.7546771E-02  0.1235069E+00
         25   -1    0    0    0    0  0.00000000000E+00  0.00000000000E+00  0.99999998245E-14  0.12500000000E+03  0.12500000000E+03 0.  0.
          5    1    1    0  501    0  0.47467072465E+02 -0.21374133062E+02 -0.34266360581E+02  0.62500000000E+02  0.47000000000E+01 0. -1.
         -5    1    1    0    0  501 -0.47467072465E+02  0.21374133062E+02  0.34266360581E+02  0.62500000000E+02  0.47000000000E+01 0. -1.
</event>
<event>
 3    0  0.4580101E-005  0.9118800E+02  0.7546771E-02  0.1235069E+00
         25   -1    0    0    0    0  0.00000000000E+00  0.00000000000E+00  0.99999998245E-14  0.12500000000E+03  0.12500000000E+03 0.  0.
          5    1    1    0  501    0 -0.71964006177E+01 -0.60521493420E+02 -0.13020009694E+02  0.62500000000E+02  0.47000000000E+01 0.  1.
         -5    1    1    0    0  501  0.71964006177E+01  0.60521493420E+02  0.13020009694E+02  0.62500000000E+02  0.47000000000E+01 0.  1.
</event>
<event>
 3    0  0.4580101E-005  0.9118800E+02  0.7546771E-02  0.1235069E+00
         25   -1    0    0    0    0  0.00000000000E+00  0.00000000000E+00  0.99999998245E-14  0.12500000000E+03  0.12500000000E+03 0.  0.
          5    1    1    0  501    0 -0.50324864469E+02  0.34999552462E+02 -0.11251637375E+02  0.62500000000E+02  0.47000000000E+01 0. -1.
         -5    1    1    0    0  501  0.50324864469E+02 -0.34999552462E+02  0.11251637375E+02  0.62500000000E+02  0.47000000000E+01 0. -1.
</event>
<event>
 3    0  0.4580101E-005  0.9118800E+02  0.7546771E-02  0.1235069E+00
         25   -1    0    0    0    0  0.00000000000E+00  0.00000000000E+00  0.99999998245E-14  0.12500000000E+03  0.12500000000E+03 0.  0.
          5    1    1    0  501    0 -0.54031463829E+02  0.45242450777E+00  0.31057305559E+02  0.62500000000E+02  0.47000000000E+01 0.  1.
         -5    1    1    0    0  501  0.54031463829E+02 -0.45242450777E+00 -0.31057305559E+02  0.62500000000E+02  0.47000000000E+01 0.  1.
</event>
<event>
 3    0  0.4580101E-005  0.9118800E+02  0.7546771E-02  0.1235069E+00
         25   -1    0    0    0    0  0.00000000000E+00  0.00000000000E+00  0.99999998245E-14  0.12500000000E+03  0.12500000000E+03 0.  0.
          5    1    1    0  501    0  0.33461852842E+02 -0.34888777119E+02 -0.39334941662E+02  0.62500000000E+02  0.47000000000E+01 0. -1.
         -5    1    1    0    0  501 -0.33461852842E+02  0.34888777119E+02  0.39334941662E+02  0.62500000000E+02  0.47000000000E+01 0. -1.
</event>
<event>
 3    0  0.4580101E-005  0.9118800E+02  0.7546771E-02  0.1235069E+00
         25   -1    0    0    0    0  0.00000000000E+00  0.00000000000E+00  0.99999998245E-14  0.12500000000E+03  0.12500000000E+03 0.  0.
          5    1    1    0  501    0  0.43272836166E+02 -0.27041047961E+02 -0.35782724537E+02  0.62500000000E+02  0.47000000000E+01 0. -1.
         -5    1    1    0    0  501 -0.43272836166E+02  0.27041047961E+02  0.35782724537E+02  0.62500000000E+02  0.47000000000E+01 0. -1.
</event>
<event>
 3    0  0.4580101E-005  0.9118800E+02  0.7546771E-02  0.1235069E+00
         25   -1    0    0    0    0  0.00000000000E+00  0.00000000000E+00  0.99999998245E-14  0.12500000000E+03  0.12500000000E+03 0.  0.
          5    1    1    0  501    0 -0.28795887078E+02  0.45262689665E+02  0.31721377835E+02  0.62500000000E+02  0.47000000000E+01 0. -1.
         -5    1    1    0    0  501  0.28795887078E+02 -0.45262689665E+02 -0.31721377835E+02  0.62500000000E+02  0.47000000000E+01 0. -1.
</event>
<event>
 3    0  0.4580101E-005  0.9118800E+02  0.7546771E-02  0.1235069E+00
         25   -1    0    0    0    0  0.00000000000E+00  0.00000000000E+00  0.99999998245E-14  0.12500000000E+03  0.12500000000E+03 0.  0.
          5    1    1    0  501    0 -0.48782176666E+02 -0.38660060154E+02  0.31399026481E+01  0.62500000000E+02  0.47000000000E+01 0.  1.
         -5    1    1    0    0  501  0.48782176666E+02  0.38660060154E+02 -0.31399026481E+01  0.62500000000E+02  0.47000000000E+01 0.  1.
</event>
<event>
 3    0  0.4580101E-005  0.9118800E+02  0.7546771E-02  0.1235069E+00
         25   -1    0    0    0    0  0.00000000000E+00  0.00000000000E+00  0.99999998245E-14  0.12500000000E+03  0.12500000000E+03 0.  0.
          5    1    1    0  501    0 -0.50759194879E+02  0.35287208504E+02 -0.79042426101E+01  0.62500000000E+02  0.47000000000E+01 0. -1.
         -5    1    1    0    0  501  0.50759194879E+02 -0.35287208504E+02  0.79042426101E+01  0.62500000000E+02  0.47000000000E+01 0. -1.
</event>
<event>
 3    0  0.4580101E-005  0.9118800E+02  0.7546771E-02  0.1235069E+00
         25   -1    0    0    0    0  0.00000000000E+00  0.00000000000E+00  0.99999998245E-14  0.12500000000E+03  0.12500000000E+03 0.  0.
          5    1    1    0  501    0  0.51448099854E+02 -0.27179395903E+02  0.22327862856E+02  0.62500000000E+02  0.47000000000E+01 0. -1.
         -5    1    1    0    0  501 -0.51448099854E+02  0.27179395903E+02 -0.22327862856E+02  0.62500000000E+02  0.47000000000E+01 0. -1.
</event>
<event>
 3    0  0.4580101E-005  0.9118800E+02  0.7546771E-02  0.1235069E+00
         25   -1    0    0    0    0  0.00000000000E+00  0.00000000000E+00  0.99999998245E-14  0.12500000000E+03  0.12500000000E+03 0.  0.
          5    1    1    0  501    0 -0.41829964710E+02  0.43577358377E+02 -0.15343659579E+02  0.62500000000E+02  0.47000000000E+01 0.  1.
         -5    1    1    0    0  501  0.41829964710E+02 -0.43577358377E+02  0.15343659579E+02  0.62500000000E+02  0.47000000000E+01 0.  1.
</event>
<event>
 3    0  0.4580101E-005  0.9118800E+02  0.7546771E-02  0.1235069E+00
         25   -1    0    0    0    0  0.00000000000E+00  0.00000000000E+00  0.99999998245E-14  0.12500000000E+03  0.12500000000E+03 0.  0.
          5    1    1    0  501    0 -0.61251291700E+02 -0.50386655573E+01 -0.10346550851E+02  0.62500000000E+02  0.47000000000E+01 0.  1.
         -5    1    1    0    0  501  0.61251291700E+02  0.50386655573E+01  0.10346550851E+02  0.62500000000E+02  0.47000000000E+01 0.  1.
</event>
<event>
 3    0  0.4580101E-005  0.9118800E+02  0.7546771E-02  0.1235069E+00
         25   -1    0    0    0    0  0.00000000000E+00  0.00000000000E+00  0.99999998245E-14  0.12500000000E+03  0.12500000000E+03 0.  0.
          5    1    1    0  501    0 -0.65221878550E+00 -0.56777014416E+01  0.62060440838E+02  0.62500000000E+02  0.47000000000E+01 0. -1.
         -5    1    1    0    0  501  0.65221878550E+00  0.56777014416E+01 -0.62060440838E+02  0.62500000000E+02  0.47000000000E+01 0. -1.
</event>
<event>
 3    0  0.4580101E-005  0.9118800E+02  0.7546771E-02  0.1235069E+00
         25   -1    0    0    0    0  0.00000000000E+00  0.00000000000E+00  0.99999998245E-14  0.12500000000E+03  0.12500000000E+03 0.  0.
          5    1    1    0  501    0 -0.22150293564E+02  0.55455504372E+02  0.17838484518E+02  0.62500000000E+02  0.47000000000E+01 0. -1.
         -5    1    1    0    0  501  0.22150293564E+02 -0.55455504372E+02 -0.17838484518E+02  0.62500000000E+02  0.47000000000E+01 0. -1.
</event>
<event>
 3    0  0.4580101E-005  0.9118800E+02  0.7546771E-02  0.1235069E+00
         25   -1    0    0    0    0  0.00000000000E+00  0.00000000000E+00  0.99999998245E-14  0.12500000000E+03  0.12500000000E+03 0.  0.
          5    1    1    0  501    0  0.47785144613E+02 -0.23520832110E+02 -0.32365265504E+02  0.62500000000E+02  0.47000000000E+01 0.  1.
         -5    1    1    0    0  501 -0.47785144613E+02  0.23520832110E+02  0.32365265504E+02  0.62500000000E+02  0.47000000000E+01 0.  1.
</event>
<event>
 3    0  0.4580101E-005  0.9118800E+02  0.7546771E-02  0.1235069E+00
         25   -1    0    0    0    0  0.00000000000E+00  0.00000000000E+00  0.99999998245E-14  0.12500000000E+03  0.12500000000E+03 0.  0.
          5    1    1    0  501    0  0.42675580942E+01  0.56736449840E+02 -0.25434685127E+02  0.62500000000E+02  0.47000000000E+01 0. -1.
         -5    1    1    0    0  501 -0.42675580942E+01 -0.56736449840E+02  0.25434685127E+02  0.62500000000E+02  0.47000000000E+01 0. -1.
</event>
<event>
 3    0  0.4580101E-005  0.9118800E+02  0.7546771E-02  0.1235069E+00
         25   -1    0    0    0    0  0.00000000000E+00  0.00000000000E+00  0.99999998245E-14  0.12500000000E+03  0.12500000000E+03 0.  0.
          5    1    1    0  501    0  0.13486440946E+02  0.19992407776E+02 -0.57468074110E+02  0.62500000000E+02  0.47000000000E+01 0.  1.
         -5    1    1    0    0  501 -0.13486440946E+02 -0.19992407776E+02  0.57468074110E+02  0.62500000000E+02  0.47000000000E+01 0.  1.
</event>
<event>
 3    0  0.4580101E-005  0.9118800E+02  0.7546771E-02  0.1235069E+00
         25   -1    0    0    0    0  0.00000000000E+00  0.00000000000E+00  0.99999998245E-14  0.12500000000E+03  0.12500000000E+03 0.  0.
          5    1    1    0  501    0  0.37484954585E+02 -0.13170527268E+02  0.48016407521E+02  0.62500000000E+02  0.47000000000E+01 0. -1.
         -5    1    1    0    0  501 -0.37484954585E+02  0.13170527268E+02 -0.48016407521E+02  0.62500000000E+02  0.47000000000E+01 0. -1.
</event>
<event>
 3    0  0.4580101E-005  0.9118800E+02  0.7546771E-02  0.1235069E+00
         25   -1    0    0    0    0  0.00000000000E+00  0.00000000000E+00  0.99999998245E-14  0.12500000000E+03  0.12500000000E+03 0.  0.
          5    1    1    0  501    0 -0.33787387220E+02 -0.16004384117E+02 -0.49864136951E+02  0.62500000000E+02  0.47000000000E+01 0.  1.
         -5    1    1    0    0  501  0.33787387220E+02  0.16004384117E+02  0.49864136951E+02  0.62500000000E+02  0.47000000000E+01 0.  1.
</event>
<event>
 3    0  0.4580101E-005  0.9118800E+02  0.7546771E-02  0.1235069E+00
         25   -1    0    0    0    0  0.00000000000E+00  0.00000000000E+00  0.99999998245E-14  0.12500000000E+03  0.12500000000E+03 0.  0.
          5    1    1    0  501    0 -0.43427564393E+02  0.42848019173E+02  0.12737892439E+02  0.62500000000E+02  0.47000000000E+01 0. -1.
         -5    1    1    0    0  501  0.43427564393E+02 -0.42848019173E+02 -0.12737892439E+02  0.62500000000E+02  0.47000000000E+01 0. -1.
</event>
<event>
 3    0  0.4580101E-005  0.9118800E+02  0.7546771E-02  0.1235069E+00
         25   -1    0    0    0    0  0.00000000000E+00  0.00000000000E+00  0.99999998245E-14  0.12500000000E+03  0.12500000000E+03 0.  0.
          5    1    1    0  501    0 -0.16489035744E+02  0.29698173018E+02  0.52252179090E+02  0.62500000000E+02  0.47000000000E+01 0. -1.
         -5    1    1    0    0  501  0.16489035744E+02 -0.29698173018E+02 -0.52252179090E+02  0.62500000000E+02  0.47000000000E+01 0. -1.
</event>
<event>
 3    0  0.4580101E-005  0.9118800E+02  0.7546771E-02  0.1235069E+00
         25   -1    0    0    0    0  0.00000000000E+00  0.00000000000E+00  0.99999998245E-14  0.12500000000E+03  0.12500000000E+03 0.  0.
          5    1    1    0  501    0  0.10030005736E+02 -0.57264532745E+01 -0.61243503474E+02  0.62500000000E+02  0.47000000000E+01 0.  1.
         -5    1    1    0    0  501 -0.10030005736E+02  0.57264532745E+01  0.61243503474E+02  0.62500000000E+02  0.47000000000E+01 0.  1.
</event>
<event>
 3    0  0.4580101E-005  0.9118800E+02  0.7546771E-02  0.1235069E+00
         25   -1    0    0    0    0  0.00000000000E+00  0.00000000000E+00  0.99999998245E-14  0.12500000000E+03  0.12500000000E+03 0.  0.
          5    1    1    0  501    0  0.54316932152E+02  0.20452498907E+02  0.22705201388E+02  0.62500000000E+02  0.47000000000E+01 0.  1.
         -5    1    1    0    0  501 -0.54316932152E+02 -0.20452498907E+02 -0.22705201388E+02  0.62500000000E+02  0.47000000000E+01 0.  1.
</event>
<event>
 3    0  0.4580101E-005  0.9118800E+02  0.7546771E-02  0.1235069E+00
         25   -1    0    0    0    0  0.00000000000E+00  0.00000000000E+00  0.99999998245E-14  0.12500000000E+03  0.12500000000E+03 0.  0.
          5    1    1    0  501    0 -0.38075727909E+02  0.48546911192E+02 -0.88088794878E+01  0.62500000000E+02  0.47000000000E+01 0.  1.
         -5    1    1    0    0  501  0.38075727909E+02 -0.48546911192E+02  0.88088794878E+01  0.62500000000E+02  0.47000000000E+01 0.  1.
</event>
<event>
 3    0  0.4580101E-005  0.9118800E+02  0.7546771E-02  0.1235069E+00
         25   -1    0    0    0    0  0.00000000000E+00  0.00000000000E+00  0.99999998245E-14  0.12500000000E+03  0.12500000000E+03 0.  0.
          5    1    1    0  501    0  0.42974664545E+02  0.35307149972E+02 -0.28120159461E+02  0.62500000000E+02  0.47000000000E+01 0. -1.
         -5    1    1    0    0  501 -0.42974664545E+02 -0.35307149972E+02  0.28120159461E+02  0.62500000000E+02  0.47000000000E+01 0. -1.
</event>
<event>
 3    0  0.4580101E-005  0.9118800E+02  0.7546771E-02  0.1235069E+00
         25   -1    0    0    0    0  0.00000000000E+00  0.00000000000E+00  0.99999998245E-14  0.12500000000E+03  0.12500000000E+03 0.  0.
          5    1    1    0  501    0  0.55260240661E+02  0.27011540260E+02 -0.10042036389E+02  0.62500000000E+02  0.47000000000E+01 0. -1.
         -5    1    1    0    0  501 -0.55260240661E+02 -0.27011540260E+02  0.10042036389E+02  0.62500000000E+02  0.47000000000E+01 0. -1.
</event>
<event>
 3    0  0.4580101E-005  0.9118800E+02  0.7546771E-02  0.1235069E+00
         25   -1    0    0    0    0  0.00000000000E+00  0.00000000000E+00  0.99999998245E-14  0.12500000000E+03  0.12500000000E+03 0.  0.
          5    1    1    0  501    0  0.61465820818E+02 -0.65937251430E+00  0.10279985363E+02  0.62500000000E+02  0.47000000000E+01 0.  1.
         -5    1    1    0    0  501 -0.61465820818E+02  0.65937251430E+00 -0.10279985363E+02  0.62500000000E+02  0.47000000000E+01 0.  1.
</event>
<event>
 3    0  0.4580101E-005  0.9118800E+02  0.7546771E-02  0.1235069E+00
         25   -1    0    0    0    0  0.00000000000E+00  0.00000000000E+00  0.99999998245E-14  0.12500000000E+03  0.12500000000E+03 0.  0.
          5    1    1    0  501    0 -0.37052655540E+02  0.14975944467E+02 -0.47822398568E+02  0.62500000000E+02  0.47000000000E+01 0.  1.
         -5    1    1    0    0  501  0.37052655540E+02 -0.14975944467E+02  0.47822398568E+02  0.62500000000E+02  0.47000000000E+01 0.  1.
</event>
<event>
 3    0  0.4580101E-005  0.9118800E+02  0.7546771E-02  0.1235069E+00
         25   -1    0    0    0    0  0.00000000000E+00  0.00000000000E+00  0.99999998245E-14  0.12500000000E+03  0.12500000000E+03 0.  0.
          5    1    1    0  501    0 -0.87675287941E+01  0.57629126903E+02  0.22049357614E+02  0.62500000000E+02  0.47000000000E+01 0.  1.
         -5    1    1    0    0  501  0.87675287941E+01 -0.57629126903E+02 -0.22049357614E+02  0.62500000000E+02  0.47000000000E+01 0.  1.
</event>
<event>
 3    0  0.4580101E-005  0.9118800E+02  0.7546771E-02  0.1235069E+00
         25   -1    0    0    0    0  0.00000000000E+00  0.00000000000E+00  0.99999998245E-14  0.12500000000E+03  0.12500000000E+03 0.  0.
          5    1    1    0  501    0  0.44265581107E+02  0.42102511425E+01 -0.43669120836E+02  0.62500000000E+02  0.47000000000E+01 0. -1.
         -5    1    1    0    0  501 -0.44265581107E+02 -0.42102511425E+01  0.43669120836E+02  0.62500000000E+02  0.47000000000E+01 0. -1.
</event>
<event>
 3    0  0.4580101E-005  0.9118800E+02  0.7546771E-02  0.1235069E+00
         25   -1    0    0    0    0  0.00000000000E+00  0.00000000000E+00  0.99999998245E-14  0.12500000000E+03  0.12500000000E+03 0.  0.
          5    1    1    0  501    0  0.55917461759E+02  0.27458552320E+02  0.18507768270E+01  0.62500000000E+02  0.47000000000E+01 0. -1.
         -5    1    1    0    0  501 -0.55917461759E+02 -0.27458552320E+02 -0.18507768270E+01  0.62500000000E+02  0.47000000000E+01 0. -1.
</event>
<event>
 3    0  0.4580101E-005  0.9118800E+02  0.7546771E-02  0.1235069E+00
         25   -1    0    0    0    0  0.00000000000E+00  0.00000000000E+00  0.99999998245E-14  0.12500000000E+03  0.12500000000E+03 0.  0.
          5    1    1    0  501    0 -0.69059376462E+01 -0.59179510321E+02  0.18282603300E+02  0.62500000000E+02  0.47000000000E+01 0.  1.
         -5    1    1    0    0  501  0.69059376462E+01  0.59179510321E+02 -0.18282603300E+02  0.62500000000E+02  0.47000000000E+01 0.  1.
</event>
<event>
 3    0  0.4580101E-005  0.9118800E+02  0.7546771E-02  0.1235069E+00
         25   -1    0    0    0    0  0.00000000000E+00  0.00000000000E+00  0.99999998245E-14  0.12500000000E+03  0.12500000000E+03 0.  0.
          5    1    1    0  501    0 -0.45151534584E+02  0.36824453993E+01 -0.42801150926E+02  0.62500000000E+02  0.47000000000E+01 0. -1.
         -5    1    1    0    0  501  0.45151534584E+02 -0.36824453993E+01  0.42801150926E+02  0.62500000000E+02  0.47000000000E+01 0. -1.
</event>
<event>
 3    0  0.4580101E-005  0.9118800E+02  0.7546771E-02  0.1235069E+00
         25   -1    0    0    0    0  0.00000000000E+00  0.00000000000E+00  0.99999998245E-14  0.12500000000E+03  0.12500000000E+03 0.  0.
          5    1    1    0  501    0 -0.21392665441E+02  0.58442659669E+02  0.33120078619E+01  0.62500000000E+02  0.47000000000E+01 0. -1.
         -5    1    1    0    0  501  0.21392665441E+02 -0.58442659669E+02 -0.33120078619E+01  0.62500000000E+02  0.47000000000E+01 0. -1.
</event>
<event>
 3    0  0.4580101E-005  0.9118800E+02  0.7546771E-02  0.1235069E+00
         25   -1    0    0    0    0  0.00000000000E+00  0.00000000000E+00  0.99999998245E-14  0.12500000000E+03  0.12500000000E+03 0.  0.
          5    1    1    0  501    0 -0.22471586198E+02  0.11432738535E+02 -0.56995441075E+02  0.62500000000E+02  0.47000000000E+01 0.  1.
         -5    1    1    0    0  501  0.22471586198E+02 -0.11432738535E+02  0.56995441075E+02  0.62500000000E+02  0.47000000000E+01 0.  1.
</event>
<event>
 3    0  0.4580101E-005  0.9118800E+02  0.7546771E-02  0.1235069E+00
         25   -1    0    0    0    0  0.00000000000E+00  0.00000000000E+00  0.99999998245E-14  0.12500000000E+03  0.12500000000E+03 0.  0.
          5    1    1    0  501    0  0.57935097856E+02  0.17595947461E+02  0.14767094140E+02  0.62500000000E+02  0.47000000000E+01 0.  1.
         -5    1    1    0    0  501 -0.57935097856E+02 -0.17595947461E+02 -0.14767094140E+02  0.62500000000E+02  0.47000000000E+01 0.  1.
</event>
<event>
 3    0  0.4580101E-005  0.9118800E+02  0.7546771E-02  0.1235069E+00
         25   -1    0    0    0    0  0.00000000000E+00  0.00000000000E+00  0.99999998245E-14  0.12500000000E+03  0.12500000000E+03 0.  0.
          5    1    1    0  501    0  0.15469143380E+02 -0.17905767912E+02  0.57656301291E+02  0.62500000000E+02  0.47000000000E+01 0.  1.
         -5    1    1    0    0  501 -0.15469143380E+02  0.17905767912E+02 -0.57656301291E+02  0.62500000000E+02  0.47000000000E+01 0.  1.
</event>
<event>
 3    0  0.4580101E-005  0.9118800E+02  0.7546771E-02  0.1235069E+00
         25   -1    0    0    0    0  0.00000000000E+00  0.00000000000E+00  0.99999998245E-14  0.12500000000E+03  0.12500000000E+03 0.  0.
          5    1    1    0  501    0  0.38576694455E+02 -0.41220823896E+02  0.26397771162E+02  0.62500000000E+02  0.47000000000E+01 0. -1.
         -5    1    1    0    0  501 -0.38576694455E+02  0.41220823896E+02 -0.26397771162E+02  0.62500000000E+02  0.47000000000E+01 0. -1.
</event>
<event>
 3    0  0.4580101E-005  0.9118800E+02  0.7546771E-02  0.1235069E+00
         25   -1    0    0    0    0  0.00000000000E+00  0.00000000000E+00  0.99999998245E-14  0.12500000000E+03  0.12500000000E+03 0.  0.
          5    1    1    0  501    0 -0.79649753375E+01  0.15779093973E+02 -0.59764030664E+02  0.62500000000E+02  0.47000000000E+01 0. -1.
         -5    1    1    0    0  501  0.79649753375E+01 -0.15779093973E+02  0.59764030664E+02  0.62500000000E+02  0.47000000000E+01 0. -1.
</event>
<event>
 3    0  0.4580101E-005  0.9118800E+02  0.7546771E-02  0.1235069E+00
         25   -1    0    0    0    0  0.00000000000E+00  0.00000000000E+00  0.99999998245E-14  0.12500000000E+03  0.12500000000E+03 0.  0.
          5    1    1    0  501    0 -0.42975876738E+01  0.62027456890E+02 -0.42761351575E+01  0.62500000000E+02  0.47000000000E+01 0. -1.
         -5    1    1    0    0  501  0.42975876738E+01 -0.62027456890E+02  0.42761351575E+01  0.62500000000E+02  0.47000000000E+01 0. -1.
</event>
<event>
 3    0  0.4580101E-005  0.9118800E+02  0.7546771E-02  0.1235069E+00
         25   -1    0    0    0    0  0.00000000000E+00  0.00000000000E+00  0.99999998245E-14  0.12500000000E+03  0.12500000000E+03 0.  0.
          5    1    1    0  501    0  0.29417907376E+02 -0.52364732451E+02 -0.16633746449E+02  0.62500000000E+02  0.47000000000E+01 0.  1.
         -5    1    1    0    0  501 -0.29417907376E+02  0.52364732451E+02  0.16633746449E+02  0.62500000000E+02  0.47000000000E+01 0.  1.
</event>
<event>
 3    0  0.4580101E-005  0.9118800E+02  0.7546771E-02  0.1235069E+00
         25   -1    0    0    0    0  0.00000000000E+00  0.00000000000E+00  0.99999998245E-14  0.12500000000E+03  0.12500000000E+03 0.  0.
          5    1    1    0  501    0 -0.13508948629E+02  0.32194581977E+02 -0.51625354219E+02  0.62500000000E+02  0.47000000000E+01 0.  1.
         -5    1    1    0    0  501  0.13508948629E+02 -0.32194581977E+02  0.51625354219E+02  0.62500000000E+02  0.47000000000E+01 0.  1.
</event>
<event>
 3    0  0.4580101E-005  0.9118800E+02  0.7546771E-02  0.1235069E+00
         25   -1    0    0    0    0  0.00000000000E+00  0.00000000000E+00  0.99999998245E-14  0.12500000000E+03  0.12500000000E+03 0.  0.
          5    1    1    0  501    0  0.30942673405E+02 -0.34254733538E+01  0.53990527825E+02  0.62500000000E+02  0.47000000000E+01 0. -1.
         -5    1    1    0    0  501 -0.30942673405E+02  0.34254733538E+01 -0.53990527825E+02  0.62500000000E+02  0.47000000000E+01 0. -1.
</event>
<event>
 3    0  0.4580101E-005  0.9118800E+02  0.7546771E-02  0.1235069E+00
         25   -1    0    0    0    0  0.00000000000E+00  0.00000000000E+00  0.99999998245E-14  0.12500000000E+03  0.12500000000E+03 0.  0.
          5    1    1    0  501    0 -0.10008009116E+02 -0.14639195144E+02  0.59746913888E+02  0.62500000000E+02  0.47000000000E+01 0. -1.
         -5    1    1    0    0  501  0.10008009116E+02  0.14639195144E+02 -0.59746913888E+02  0.62500000000E+02  0.47000000000E+01 0. -1.
</event>
<event>
 3    0  0.4580101E-005  0.9118800E+02  0.7546771E-02  0.1235069E+00
         25   -1    0    0    0    0  0.00000000000E+00  0.00000000000E+00  0.99999998245E-14  0.12500000000E+03  0.12500000000E+03 0.  0.
          5    1    1    0  501    0 -0.21368853606E+02  0.58534949901E+02  0.10916664528E+01  0.62500000000E+02  0.47000000000E+01 0.  1.
         -5    1    1    0    0  501  0.21368853606E+02 -0.58534949901E+02 -0.10916664528E+01  0.62500000000E+02  0.47000000000E+01 0.  1.
</event>
<event>
 3    0  0.4580101E-005  0.9118800E+02  0.7546771E-02  0.1235069E+00
         25   -1    0    0    0    0  0.00000000000E+00  0.00000000000E+00  0.99999998245E-14  0.12500000000E+03  0.12500000000E+03 0.  0.
          5    1    1    0  501    0  0.39696940490E+02  0.39965450330E+02  0.26666002617E+02  0.62500000000E+02  0.47000000000E+01 0.  1.
         -5    1    1    0    0  501 -0.39696940490E+02 -0.39965450330E+02 -0.26666002617E+02  0.62500000000E+02  0.47000000000E+01 0.  1.
</event>
<event>
 3    0  0.4580101E-005  0.9118800E+02  0.7546771E-02  0.1235069E+00
         25   -1    0    0    0    0  0.00000000000E+00  0.00000000000E+00  0.99999998245E-14  0.12500000000E+03  0.12500000000E+03 0.  0.
          5    1    1    0  501    0  0.52702821226E+02 -0.18529606860E+02  0.27626550716E+02  0.62500000000E+02  0.47000000000E+01 0. -1.
         -5    1    1    0    0  501 -0.52702821226E+02  0.18529606860E+02 -0.27626550716E+02  0.62500000000E+02  0.47000000000E+01 0. -1.
</event>
<event>
 3    0  0.4580101E-005  0.9118800E+02  0.7546771E-02  0.1235069E+00
         25   -1    0    0    0    0  0.00000000000E+00  0.00000000000E+00  0.99999998245E-14  0.12500000000E+03  0.12500000000E+03 0.  0.
          5    1    1    0  501    0 -0.23201221936E+02 -0.25212581983E+02  0.52059475703E+02  0.62500000000E+02  0.47000000000E+01 0.  1.
         -5    1    1    0    0  501  0.23201221936E+02  0.25212581983E+02 -0.52059475703E+02  0.62500000000E+02  0.47000000000E+01 0.  1.
</event>
<event>
 3    0  0.4580101E-005  0.9118800E+02  0.7546771E-02  0.1235069E+00
         25   -1    0    0    0    0  0.00000000000E+00  0.00000000000E+00  0.99999998245E-14  0.12500000000E+03  0.12500000000E+03 0.  0.
          5    1    1    0  501    0 -0.27343955005E+02  0.52430817167E+02  0.19684449086E+02  0.62500000000E+02  0.47000000000E+01 0.  1.
         -5    1    1    0    0  501  0.27343955005E+02 -0.52430817167E+02 -0.19684449086E+02  0.62500000000E+02  0.47000000000E+01 0.  1.
</event>
<event>
 3    0  0.4580101E-005  0.9118800E+02  0.7546771E-02  0.1235069E+00
         25   -1    0    0    0    0  0.00000000000E+00  0.00000000000E+00  0.99999998245E-14  0.12500000000E+03  0.12500000000E+03 0.  0.
          5    1    1    0  501    0 -0.28731870382E+02 -0.53796054889E+02 -0.12830592456E+02  0.62500000000E+02  0.47000000000E+01 0. -1.
         -5    1    1    0    0  501  0.28731870382E+02  0.53796054889E+02  0.12830592456E+02  0.62500000000E+02  0.47000000000E+01 0. -1.
</event>
<event>
 3    0  0.4580101E-005  0.9118800E+02  0.7546771E-02  0.1235069E+00
         25   -1    0    0    0    0  0.00000000000E+00  0.00000000000E+00  0.99999998245E-14  0.12500000000E+03  0.12500000000E+03 0.  0.
          5    1    1    0  501    0 -0.38082222525E+02  0.27941365083E+02  0.40659370935E+02  0.62500000000E+02  0.47000000000E+01 0. -1.
         -5    1    1    0    0  501  0.38082222525E+02 -0.27941365083E+02 -0.40659370935E+02  0.62500000000E+02  0.47000000000E+01 0. -1.
</event>
<event>
 3    0  0.4580101E-005  0.9118800E+02  0.7546771E-02  0.1235069E+00
         25   -1    0    0    0    0  0.00000000000E+00  0.00000000000E+00  0.99999998245E-14  0.12500000000E+03  0.12500000000E+03 0.  0.
          5    1    1    0  501    0 -0.35347809137E+02  0.38320119360E+02  0.34150561363E+02  0.62500000000E+02  0.47000000000E+01 0.  1.
         -5    1    1    0    0  501  0.35347809137E+02 -0.38320119360E+02 -0.34150561363E+02  0.62500000000E+02  0.47000000000E+01 0.  1.
</event>
<event>
 3    0  0.4580101E-005  0.9118800E+02  0.7546771E-02  0.1235069E+00
         25   -1    0    0    0    0  0.00000000000E+00  0.00000000000E+00  0.99999998245E-14  0.12500000000E+03  0.12500000000E+03 0.  0.
          5    1    1    0  501    0 -0.84498204391E+01 -0.53455920814E+02  0.30906715525E+02  0.62500000000E+02  0.47000000000E+01 0.  1.
         -5    1    1    0    0  501  0.84498204391E+01  0.53455920814E+02 -0.30906715525E+02  0.62500000000E+02  0.47000000000E+01 0.  1.
</event>
<event>
 3    0  0.4580101E-005  0.9118800E+02  0.7546771E-02  0.1235069E+00
         25   -1    0    0    0    0  0.00000000000E+00  0.00000000000E+00  0.99999998245E-14  0.12500000000E+03  0.12500000000E+03 0.  0.
          5    1    1    0  501    0  0.51628536391E+02  0.11583279701E+02 -0.32931472204E+02  0.62500000000E+02  0.47000000000E+01 0. -1.
         -5    1    1    0    0  501 -0.51628536391E+02 -0.11583279701E+02  0.32931472204E+02  0.62500000000E+02  0.47000000000E+01 0. -1.
</event>
<event>
 3    0  0.4580101E-005  0.9118800E+02  0.7546771E-02  0.1235069E+00
         25   -1    0    0    0    0  0.00000000000E+00  0.00000000000E+00  0.99999998245E-14  0.12500000000E+03  0.12500000000E+03 0.  0.
          5    1    1    0  501    0 -0.36108578620E+02  0.20546024830E+02 -0.46456338789E+02  0.62500000000E+02  0.47000000000E+01 0.  1.
         -5    1    1    0    0  501  0.36108578620E+02 -0.20546024830E+02  0.46456338789E+02  0.62500000000E+02  0.47000000000E+01 0.  1.
</event>
<event>
 3    0  0.4580101E-005  0.9118800E+02  0.7546771E-02  0.1235069E+00
         25   -1    0    0    0    0  0.00000000000E+00  0.00000000000E+00  0.99999998245E-14  0.12500000000E+03  0.12500000000E+03 0.  0.
          5    1    1    0  501    0  0.53684685115E+02 -0.27524207254E+02  0.15637538141E+02  0.62500000000E+02  0.47000000000E+01 0.  1.
         -5    1    1    0    0  501 -0.53684685115E+02  0.27524207254E+02 -0.15637538141E+02  0.62500000000E+02  0.47000000000E+01 0.  1.
</event>
<event>
 3    0  0.4580101E-005  0.9118800E+02  0.7546771E-02  0.1235069E+00
         25   -1    0    0    0    0  0.00000000000E+00  0.00000000000E+00  0.99999998245E-14  0.12500000000E+03  0.12500000000E+03 0.  0.
          5    1    1    0  501    0  0.18068390779E+02  0.41378012653E+02 -0.42959903672E+02  0.62500000000E+02  0.47000000000E+01 0. -1.
         -5    1    1    0    0  501 -0.18068390779E+02 -0.41378012653E+02  0.42959903672E+02  0.62500000000E+02  0.47000000000E+01 0. -1.
</event>
<event>
 3    0  0.4580101E-005  0.9118800E+02  0.7546771E-02  0.1235069E+00
         25   -1    0    0    0    0  0.00000000000E+00  0.00000000000E+00  0.99999998245E-14  0.12500000000E+03  0.12500000000E+03 0.  0.
          5    1    1    0  501    0  0.25240651333E+02  0.56736468395E+02 -0.52955334403E+01  0.62500000000E+02  0.47000000000E+01 0. -1.
         -5    1    1    0    0  501 -0.25240651333E+02 -0.56736468395E+02  0.52955334403E+01  0.62500000000E+02  0.47000000000E+01 0. -1.
</event>
<event>
 3    0  0.4580101E-005  0.9118800E+02  0.7546771E-02  0.1235069E+00
         25   -1    0    0    0    0  0.00000000000E+00  0.00000000000E+00  0.99999998245E-14  0.12500000000E+03  0.12500000000E+03 0.  0.
          5    1    1    0  501    0 -0.41286379367E+02  0.40424912943E+02 -0.23354256407E+02  0.62500000000E+02  0.47000000000E+01 0.  1.
         -5    1    1    0    0  501  0.41286379367E+02 -0.40424912943E+02  0.23354256407E+02  0.62500000000E+02  0.47000000000E+01 0.  1.
</event>
<event>
 3    0  0.4580101E-005  0.9118800E+02  0.7546771E-02  0.1235069E+00
         25   -1    0    0    0    0  0.00000000000E+00  0.00000000000E+00  0.99999998245E-14  0.12500000000E+03  0.12500000000E+03 0.  0.
          5    1    1    0  501    0  0.30524344040E+02 -0.52278212384E+01  0.54084140984E+02  0.62500000000E+02  0.47000000000E+01 0. -1.
         -5    1    1    0    0  501 -0.30524344040E+02  0.52278212384E+01 -0.54084140984E+02  0.62500000000E+02  0.47000000000E+01 0. -1.
</event>
<event>
 3    0  0.4580101E-005  0.9118800E+02  0.7546771E-02  0.1235069E+00
         25   -1    0    0    0    0  0.00000000000E+00  0.00000000000E+00  0.99999998245E-14  0.12500000000E+03  0.12500000000E+03 0.  0.
          5    1    1    0  501    0  0.11515391021E+02  0.58651685127E+02 -0.17650371139E+02  0.62500000000E+02  0.47000000000E+01 0. -1.
         -5    1    1    0    0  501 -0.11515391021E+02 -0.58651685127E+02  0.17650371139E+02  0.62500000000E+02  0.47000000000E+01 0. -1.
</event>
<event>
 3    0  0.4580101E-005  0.9118800E+02  0.7546771E-02  0.1235069E+00
         25   -1    0    0    0    0  0.00000000000E+00  0.00000000000E+00  0.99999998245E-14  0.12500000000E+03  0.12500000000E+03 0.  0.
          5    1    1    0  501    0 -0.10034296145E+02  0.35417621689E+02  0.50289809850E+02  0.62500000000E+02  0.47000000000E+01 0. -1.
         -5    1    1    0    0  501  0.10034296145E+02 -0.35417621689E+02 -0.50289809850E+02  0.62500000000E+02  0.47000000000E+01 0. -1.
</event>
<event>
 3    0  0.4580101E-005  0.9118800E+02  0.7546771E-02  0.1235069E+00
         25   -1    0    0    0    0  0.00000000000E+00  0.00000000000E+00  0.99999998245E-14  0.12500000000E+03  0.12500000000E+03 0.  0.
          5    1    1    0  501    0  0.39986105792E+02 -0.42581454979E+02 -0.21727656004E+02  0.62500000000E+02  0.47000000000E+01 0. -1.
         -5    1    1    0    0  501 -0.39986105792E+02  0.42581454979E+02  0.21727656004E+02  0.62500000000E+02  0.47000000000E+01 0. -1.
</event>
<event>
 3    0  0.4580101E-005  0.9118800E+02  0.7546771E-02  0.1235069E+00
         25   -1    0    0    0    0  0.00000000000E+00  0.00000000000E+00  0.99999998245E-14  0.12500000000E+03  0.12500000000E+03 0.  0.
          5    1    1    0  501    0  0.49559932580E+02  0.37661497807E+02 -0.30959111118E+01  0.62500000000E+02  0.47000000000E+01 0.  1.
         -5    1    1    0    0  501 -0.49559932580E+02 -0.37661497807E+02  0.30959111118E+01  0.62500000000E+02  0.47000000000E+01 0.  1.
</event>
<event>
 3    0  0.4580101E-005  0.9118800E+02  0.7546771E-02  0.1235069E+00
         25   -1    0    0    0    0  0.00000000000E+00  0.00000000000E+00  0.99999998245E-14  0.12500000000E+03  0.12500000000E+03 0.  0.
          5    1    1    0  501    0 -0.36312008810E+02 -0.48917882867E+02 -0.13139206672E+02  0.62500000000E+02  0.47000000000E+01 0.  1.
         -5    1    1    0    0  501  0.36312008810E+02  0.48917882867E+02  0.13139206672E+02  0.62500000000E+02  0.47000000000E+01 0.  1.
</event>
<event>
 3    0  0.4580101E-005  0.9118800E+02  0.7546771E-02  0.1235069E+00
         25   -1    0    0    0    0  0.00000000000E+00  0.00000000000E+00  0.99999998245E-14  0.12500000000E+03  0.12500000000E+03 0.  0.
          5    1    1    0  501    0 -0.43119184267E+01 -0.49600918095E+02 -0.37487548381E+02  0.62500000000E+02  0.47000000000E+01 0.  1.
         -5    1    1    0    0  501  0.43119184267E+01  0.49600918095E+02  0.37487548381E+02  0.62500000000E+02  0.47000000000E+01 0.  1.
</event>
<event>
 3    0  0.4580101E-005  0.9118800E+02  0.7546771E-02  0.1235069E+00
         25   -1    0    0    0    0  0.00000000000E+00  0.00000000000E+00  0.99999998245E-14  0.12500000000E+03  0.12500000000E+03 0.  0.
          5    1    1    0  501    0  0.14141831733E+02  0.60666840056E+02  0.19243473880E+01  0.62500000000E+02  0.47000000000E+01 0. -1.
         -5    1    1    0    0  501 -0.14141831733E+02 -0.60666840056E+02 -0.19243473880E+01  0.62500000000E+02  0.47000000000E+01 0. -1.
</event>
<event>
 3    0  0.4580101E-005  0.9118800E+02  0.7546771E-02  0.1235069E+00
         25   -1    0    0    0    0  0.00000000000E+00  0.00000000000E+00  0.99999998245E-14  0.12500000000E+03  0.12500000000E+03 0.  0.
          5    1    1    0  501    0 -0.57968882679E+02  0.17573531058E+02 -0.14660820136E+02  0.62500000000E+02  0.47000000000E+01 0. -1.
         -5    1    1    0    0  501  0.57968882679E+02 -0.17573531058E+02  0.14660820136E+02  0.62500000000E+02  0.47000000000E+01 0. -1.
</event>
<event>
 3    0  0.4580101E-005  0.9118800E+02  0.7546771E-02  0.1235069E+00
         25   -1    0    0    0    0  0.00000000000E+00  0.00000000000E+00  0.99999998245E-14  0.12500000000E+03  0.12500000000E+03 0.  0.
          5    1    1    0  501    0  0.48093168329E+02  0.36762290706E+02  0.14823668308E+02  0.62500000000E+02  0.47000000000E+01 0. -1.
         -5    1    1    0    0  501 -0.48093168329E+02 -0.36762290706E+02 -0.14823668308E+02  0.62500000000E+02  0.47000000000E+01 0. -1.
</event>
<event>
 3    0  0.4580101E-005  0.9118800E+02  0.7546771E-02  0.1235069E+00
         25   -1    0    0    0    0  0.00000000000E+00  0.00000000000E+00  0.99999998245E-14  0.12500000000E+03  0.12500000000E+03 0.  0.
          5    1    1    0  501    0  0.35718083496E+02 -0.49433051004E+02 -0.12835574775E+02  0.62500000000E+02  0.47000000000E+01 0.  1.
         -5    1    1    0    0  501 -0.35718083496E+02  0.49433051004E+02  0.12835574775E+02  0.62500000000E+02  0.47000000000E+01 0.  1.
</event>
<event>
 3    0  0.4580101E-005  0.9118800E+02  0.7546771E-02  0.1235069E+00
         25   -1    0    0    0    0  0.00000000000E+00  0.00000000000E+00  0.99999998245E-14  0.12500000000E+03  0.12500000000E+03 0.  0.
          5    1    1    0  501    0 -0.25830113477E+02 -0.48885891862E+02 -0.28759951577E+02  0.62500000000E+02  0.47000000000E+01 0. -1.
         -5    1    1    0    0  501  0.25830113477E+02  0.48885891862E+02  0.28759951577E+02  0.62500000000E+02  0.47000000000E+01 0. -1.
</event>
<event>
 3    0  0.4580101E-005  0.9118800E+02  0.7546771E-02  0.1235069E+00
         25   -1    0    0    0    0  0.00000000000E+00  0.00000000000E+00  0.99999998245E-14  0.12500000000E+03  0.12500000000E+03 0.  0.
          5    1    1    0  501    0 -0.28334604899E+02 -0.30277351132E+02  0.46525177846E+02  0.62500000000E+02  0.47000000000E+01 0.  1.
         -5    1    1    0    0  501  0.28334604899E+02  0.30277351132E+02 -0.46525177846E+02  0.62500000000E+02  0.47000000000E+01 0.  1.
</event>
<event>
 3    0  0.4580101E-005  0.9118800E+02  0.7546771E-02  0.1235069E+00
         25   -1    0    0    0    0  0.00000000000E+00  0.00000000000E+00  0.99999998245E-14  0.12500000000E+03  0.12500000000E+03 0.  0.
          5    1    1    0  501    0 -0.39461750785E+02 -0.70992058289E+01 -0.47713011868E+02  0.62500000000E+02  0.47000000000E+01 0. -1.
         -5    1    1    0    0  501  0.39461750785E+02  0.70992058289E+01  0.47713011868E+02  0.62500000000E+02  0.47000000000E+01 0. -1.
</event>
<event>
 3    0  0.4580101E-005  0.9118800E+02  0.7546771E-02  0.1235069E+00
         25   -1    0    0    0    0  0.00000000000E+00  0.00000000000E+00  0.99999998245E-14  0.12500000000E+03  0.12500000000E+03 0.  0.
          5    1    1    0  501    0 -0.26278990111E+01  0.60252583407E+02 -0.15712426280E+02  0.62500000000E+02  0.47000000000E+01 0. -1.
         -5    1    1    0    0  501  0.26278990111E+01 -0.60252583407E+02  0.15712426280E+02  0.62500000000E+02  0.47000000000E+01 0. -1.
</event>
<event>
 3    0  0.4580101E-005  0.9118800E+02  0.7546771E-02  0.1235069E+00
         25   -1    0    0    0    0  0.00000000000E+00  0.00000000000E+00  0.99999998245E-14  0.12500000000E+03  0.12500000000E+03 0.  0.
          5    1    1    0  501    0 -0.27802264887E+01  0.61118805556E+02  0.11871055055E+02  0.62500000000E+02  0.47000000000E+01 0. -1.
         -5    1    1    0    0  501  0.27802264887E+01 -0.61118805556E+02 -0.11871055055E+02  0.62500000000E+02  0.47000000000E+01 0. -1.
</event>
<event>
 3    0  0.4580101E-005  0.9118800E+02  0.7546771E-02  0.1235069E+00
         25   -1    0    0    0    0  0.00000000000E+00  0.00000000000E+00  0.99999998245E-14  0.12500000000E+03  0.12500000000E+03 0.  0.
          5    1    1    0  501    0 -0.47178837491E+02 -0.40425290097E+02  0.49105207010E+01  0.62500000000E+02  0.47000000000E+01 0.  1.
         -5    1    1    0    0  501  0.47178837491E+02  0.40425290097E+02 -0.49105207010E+01  0.62500000000E+02  0.47000000000E+01 0.  1.
</event>
<event>
 3    0  0.4580101E-005  0.9118800E+02  0.7546771E-02  0.1235069E+00
         25   -1    0    0    0    0  0.00000000000E+00  0.00000000000E+00  0.99999998245E-14  0.12500000000E+03  0.12500000000E+03 0.  0.
          5    1    1    0  501    0 -0.27088204928E+02 -0.55045115040E+02 -0.10973808093E+02  0.62500000000E+02  0.47000000000E+01 0. -1.
         -5    1    1    0    0  501  0.27088204928E+02  0.55045115040E+02  0.10973808093E+02  0.62500000000E+02  0.47000000000E+01 0. -1.
</event>
<event>
 3    0  0.4580101E-005  0.9118800E+02  0.7546771E-02  0.1235069E+00
         25   -1    0    0    0    0  0.00000000000E+00  0.00000000000E+00  0.99999998245E-14  0.12500000000E+03  0.12500000000E+03 0.  0.
          5    1    1    0  501    0 -0.11155050280E+02 -0.16998265394E+02  0.58913358645E+02  0.62500000000E+02  0.47000000000E+01 0. -1.
         -5    1    1    0    0  501  0.11155050280E+02  0.16998265394E+02 -0.58913358645E+02  0.62500000000E+02  0.47000000000E+01 0. -1.
</event>
<event>
 3    0  0.4580101E-005  0.9118800E+02  0.7546771E-02  0.1235069E+00
         25   -1    0    0    0    0  0.00000000000E+00  0.00000000000E+00  0.99999998245E-14  0.12500000000E+03  0.12500000000E+03 0.  0.
          5    1    1    0  501    0  0.34324340623E+02 -0.46843089290E+02 -0.22621331229E+02  0.62500000000E+02  0.47000000000E+01 0. -1.
         -5    1    1    0    0  501 -0.34324340623E+02  0.46843089290E+02  0.22621331229E+02  0.62500000000E+02  0.47000000000E+01 0. -1.
</event>
<event>
 3    0  0.4580101E-005  0.9118800E+02  0.7546771E-02  0.1235069E+00
         25   -1    0    0    0    0  0.00000000000E+00  0.00000000000E+00  0.99999998245E-14  0.12500000000E+03  0.12500000000E+03 0.  0.
          5    1    1    0  501    0 -0.37372254702E+02 -0.44513241478E+02  0.22495464245E+02  0.62500000000E+02  0.47000000000E+01 0. -1.
         -5    1    1    0    0  501  0.37372254702E+02  0.44513241478E+02 -0.22495464245E+02  0.62500000000E+02  0.47000000000E+01 0. -1.
</event>
<event>
 3    0  0.4580101E-005  0.9118800E+02  0.7546771E-02  0.1235069E+00
         25   -1    0    0    0    0  0.00000000000E+00  0.00000000000E+00  0.99999998245E-14  0.12500000000E+03  0.12500000000E+03 0.  0.
          5    1    1    0  501    0 -0.15222394123E+02  0.19611858676E+02  0.57164794379E+02  0.62500000000E+02  0.47000000000E+01 0. -1.
         -5    1    1    0    0  501  0.15222394123E+02 -0.19611858676E+02 -0.57164794379E+02  0.62500000000E+02  0.47000000000E+01 0. -1.
</event>
<event>
 3    0  0.4580101E-005  0.9118800E+02  0.7546771E-02  0.1235069E+00
         25   -1    0    0    0    0  0.00000000000E+00  0.00000000000E+00  0.99999998245E-14  0.12500000000E+03  0.12500000000E+03 0.  0.
          5    1    1    0  501    0  0.59420670999E+02 -0.12781604793E+02 -0.13783121452E+02  0.62500000000E+02  0.47000000000E+01 0. -1.
         -5    1    1    0    0  501 -0.59420670999E+02  0.12781604793E+02  0.13783121452E+02  0.62500000000E+02  0.47000000000E+01 0. -1.
</event>
<event>
 3    0  0.4580101E-005  0.9118800E+02  0.7546771E-02  0.1235069E+00
         25   -1    0    0    0    0  0.00000000000E+00  0.00000000000E+00  0.99999998245E-14  0.12500000000E+03  0.12500000000E+03 0.  0.
          5    1    1    0  501    0  0.17382104881E+01 -0.10438387765E+02  0.61418064811E+02  0.62500000000E+02  0.47000000000E+01 0.  1.
         -5    1    1    0    0  501 -0.17382104881E+01  0.10438387765E+02 -0.61418064811E+02  0.62500000000E+02  0.47000000000E+01 0.  1.
</event>
<event>
 3    0  0.4580101E-005  0.9118800E+02  0.7546771E-02  0.1235069E+00
         25   -1    0    0    0    0  0.00000000000E+00  0.00000000000E+00  0.99999998245E-14  0.12500000000E+03  0.12500000000E+03 0.  0.
          5    1    1    0  501    0 -0.27300105553E+01  0.23256223365E+02 -0.57756862079E+02  0.62500000000E+02  0.47000000000E+01 0. -1.
         -5    1    1    0    0  501  0.27300105553E+01 -0.23256223365E+02  0.57756862079E+02  0.62500000000E+02  0.47000000000E+01 0. -1.
</event>
