<event>
 3    0  0.4603569E-005  0.9118800E+02  0.7546771E-02  0.1235069E+00
         25   -1    0    0    0    0  0.00000000000E+00  0.00000000000E+00  0.99999998245E-14  0.12500000000E+03  0.12500000000E+03 0.  0.
          5    1    1    0  501    0  0.30011829136E+02  0.21735616511E+02  0.50110009846E+02  0.62500000000E+02  0.47000000000E+01 0. -1.
         -5    1    1    0    0  501 -0.30011829136E+02 -0.21735616511E+02 -0.50110009846E+02  0.62500000000E+02  0.47000000000E+01 0. -1.
</event>
<event>
 3    0  0.4603569E-005  0.9118800E+02  0.7546771E-02  0.1235069E+00
         25   -1    0    0    0    0  0.00000000000E+00  0.00000000000E+00  0.99999998245E-14  0.12500000000E+03  0.12500000000E+03 0.  0.
          5    1    1    0  501    0  0.36067509452E+02 -0.13126893044E+02 -0.49101725437E+02  0.62500000000E+02  0.47000000000E+01 0. -1.
         -5    1    1    0    0  501 -0.36067509452E+02  0.13126893044E+02  0.49101725437E+02  0.62500000000E+02  0.47000000000E+01 0. -1.
</event>
<event>
 3    0  0.4603569E-005  0.9118800E+02  0.7546771E-02  0.1235069E+00
         25   -1    0    0    0    0  0.00000000000E+00  0.00000000000E+00  0.99999998245E-14  0.12500000000E+03  0.12500000000E+03 0.  0.
          5    1    1    0  501    0 -0.43796238745E+01 -0.58260410328E+02  0.21695701949E+02  0.62500000000E+02  0.47000000000E+01 0. -1.
         -5    1    1    0    0  501  0.43796238745E+01  0.58260410328E+02 -0.21695701949E+02  0.62500000000E+02  0.47000000000E+01 0. -1.
</event>
<event>
 3    0  0.4603569E-005  0.9118800E+02  0.7546771E-02  0.1235069E+00
         25   -1    0    0    0    0  0.00000000000E+00  0.00000000000E+00  0.99999998245E-14  0.12500000000E+03  0.12500000000E+03 0.  0.
          5    1    1    0  501    0 -0.57732425801E+02 -0.93134608105E+00 -0.23457612956E+02  0.62500000000E+02  0.47000000000E+01 0.  1.
         -5    1    1    0    0  501  0.57732425801E+02  0.93134608105E+00  0.23457612956E+02  0.62500000000E+02  0.47000000000E+01 0.  1.
</event>
<event>
 3    0  0.4603569E-005  0.9118800E+02  0.7546771E-02  0.1235069E+00
         25   -1    0    0    0    0  0.00000000000E+00  0.00000000000E+00  0.99999998245E-14  0.12500000000E+03  0.12500000000E+03 0.  0.
          5    1    1    0  501    0  0.34136996851E+02 -0.30946383618E+02 -0.41966019432E+02  0.62500000000E+02  0.47000000000E+01 0.  1.
         -5    1    1    0    0  501 -0.34136996851E+02  0.30946383618E+02  0.41966019432E+02  0.62500000000E+02  0.47000000000E+01 0.  1.
</event>
<event>
 3    0  0.4603569E-005  0.9118800E+02  0.7546771E-02  0.1235069E+00
         25   -1    0    0    0    0  0.00000000000E+00  0.00000000000E+00  0.99999998245E-14  0.12500000000E+03  0.12500000000E+03 0.  0.
          5    1    1    0  501    0 -0.54709554604E+02 -0.24918518525E+02 -0.16434478074E+02  0.62500000000E+02  0.47000000000E+01 0. -1.
         -5    1    1    0    0  501  0.54709554604E+02  0.24918518525E+02  0.16434478074E+02  0.62500000000E+02  0.47000000000E+01 0. -1.
</event>
<event>
 3    0  0.4603569E-005  0.9118800E+02  0.7546771E-02  0.1235069E+00
         25   -1    0    0    0    0  0.00000000000E+00  0.00000000000E+00  0.99999998245E-14  0.12500000000E+03  0.12500000000E+03 0.  0.
          5    1    1    0  501    0 -0.60951267415E+02 -0.47737300823E+01 -0.12096053144E+02  0.62500000000E+02  0.47000000000E+01 0.  1.
         -5    1    1    0    0  501  0.60951267415E+02  0.47737300823E+01  0.12096053144E+02  0.62500000000E+02  0.47000000000E+01 0.  1.
</event>
<event>
 3    0  0.4603569E-005  0.9118800E+02  0.7546771E-02  0.1235069E+00
         25   -1    0    0    0    0  0.00000000000E+00  0.00000000000E+00  0.99999998245E-14  0.12500000000E+03  0.12500000000E+03 0.  0.
          5    1    1    0  501    0 -0.29156945356E+02  0.41370802086E+02  0.36366045596E+02  0.62500000000E+02  0.47000000000E+01 0. -1.
         -5    1    1    0    0  501  0.29156945356E+02 -0.41370802086E+02 -0.36366045596E+02  0.62500000000E+02  0.47000000000E+01 0. -1.
</event>
<event>
 3    0  0.4603569E-005  0.9118800E+02  0.7546771E-02  0.1235069E+00
         25   -1    0    0    0    0  0.00000000000E+00  0.00000000000E+00  0.99999998245E-14  0.12500000000E+03  0.12500000000E+03 0.  0.
          5    1    1    0  501    0  0.46460702639E+01 -0.10534327454E+02  0.61250322254E+02  0.62500000000E+02  0.47000000000E+01 0. -1.
         -5    1    1    0    0  501 -0.46460702639E+01  0.10534327454E+02 -0.61250322254E+02  0.62500000000E+02  0.47000000000E+01 0. -1.
</event>
<event>
 3    0  0.4603569E-005  0.9118800E+02  0.7546771E-02  0.1235069E+00
         25   -1    0    0    0    0  0.00000000000E+00  0.00000000000E+00  0.99999998245E-14  0.12500000000E+03  0.12500000000E+03 0.  0.
          5    1    1    0  501    0  0.35057351836E+02 -0.12957055809E+01  0.51511777579E+02  0.62500000000E+02  0.47000000000E+01 0.  1.
         -5    1    1    0    0  501 -0.35057351836E+02  0.12957055809E+01 -0.51511777579E+02  0.62500000000E+02  0.47000000000E+01 0.  1.
</event>
<event>
 3    0  0.4603569E-005  0.9118800E+02  0.7546771E-02  0.1235069E+00
         25   -1    0    0    0    0  0.00000000000E+00  0.00000000000E+00  0.99999998245E-14  0.12500000000E+03  0.12500000000E+03 0.  0.
          5    1    1    0  501    0  0.40344234128E+02  0.12662001505E+02 -0.45784020035E+02  0.62500000000E+02  0.47000000000E+01 0. -1.
         -5    1    1    0    0  501 -0.40344234128E+02 -0.12662001505E+02  0.45784020035E+02  0.62500000000E+02  0.47000000000E+01 0. -1.
</event>
<event>
 3    0  0.4603569E-005  0.9118800E+02  0.7546771E-02  0.1235069E+00
         25   -1    0    0    0    0  0.00000000000E+00  0.00000000000E+00  0.99999998245E-14  0.12500000000E+03  0.12500000000E+03 0.  0.
          5    1    1    0  501    0  0.53327176211E+02 -0.95372555949E+01 -0.30812546683E+02  0.62500000000E+02  0.47000000000E+01 0. -1.
         -5    1    1    0    0  501 -0.53327176211E+02  0.95372555949E+01  0.30812546683E+02  0.62500000000E+02  0.47000000000E+01 0. -1.
</event>
<event>
 3    0  0.4603569E-005  0.9118800E+02  0.7546771E-02  0.1235069E+00
         25   -1    0    0    0    0  0.00000000000E+00  0.00000000000E+00  0.99999998245E-14  0.12500000000E+03  0.12500000000E+03 0.  0.
          5    1    1    0  501    0 -0.61598654045E+02 -0.73357838753E+01 -0.59960065726E+01  0.62500000000E+02  0.47000000000E+01 0. -1.
         -5    1    1    0    0  501  0.61598654045E+02  0.73357838753E+01  0.59960065726E+01  0.62500000000E+02  0.47000000000E+01 0. -1.
</event>
<event>
 3    0  0.4603569E-005  0.9118800E+02  0.7546771E-02  0.1235069E+00
         25   -1    0    0    0    0  0.00000000000E+00  0.00000000000E+00  0.99999998245E-14  0.12500000000E+03  0.12500000000E+03 0.  0.
          5    1    1    0  501    0 -0.56631873951E+02  0.67968598913E+01  0.25115603684E+02  0.62500000000E+02  0.47000000000E+01 0.  1.
         -5    1    1    0    0  501  0.56631873951E+02 -0.67968598913E+01 -0.25115603684E+02  0.62500000000E+02  0.47000000000E+01 0.  1.
</event>
<event>
 3    0  0.4603569E-005  0.9118800E+02  0.7546771E-02  0.1235069E+00
         25   -1    0    0    0    0  0.00000000000E+00  0.00000000000E+00  0.99999998245E-14  0.12500000000E+03  0.12500000000E+03 0.  0.
          5    1    1    0  501    0 -0.53030265054E+02 -0.49814071749E+01 -0.32359489658E+02  0.62500000000E+02  0.47000000000E+01 0.  1.
         -5    1    1    0    0  501  0.53030265054E+02  0.49814071749E+01  0.32359489658E+02  0.62500000000E+02  0.47000000000E+01 0.  1.
</event>
<event>
 3    0  0.4603569E-005  0.9118800E+02  0.7546771E-02  0.1235069E+00
         25   -1    0    0    0    0  0.00000000000E+00  0.00000000000E+00  0.99999998245E-14  0.12500000000E+03  0.12500000000E+03 0.  0.
          5    1    1    0  501    0  0.33999434021E+02 -0.43269188838E+02 -0.29257063823E+02  0.62500000000E+02  0.47000000000E+01 0.  1.
         -5    1    1    0    0  501 -0.33999434021E+02  0.43269188838E+02  0.29257063823E+02  0.62500000000E+02  0.47000000000E+01 0.  1.
</event>
<event>
 3    0  0.4603569E-005  0.9118800E+02  0.7546771E-02  0.1235069E+00
         25   -1    0    0    0    0  0.00000000000E+00  0.00000000000E+00  0.99999998245E-14  0.12500000000E+03  0.12500000000E+03 0.  0.
          5    1    1    0  501    0  0.54935871794E+02  0.27083840900E+02  0.11518487417E+02  0.62500000000E+02  0.47000000000E+01 0. -1.
         -5    1    1    0    0  501 -0.54935871794E+02 -0.27083840900E+02 -0.11518487417E+02  0.62500000000E+02  0.47000000000E+01 0. -1.
</event>
<event>
 3    0  0.4603569E-005  0.9118800E+02  0.7546771E-02  0.1235069E+00
         25   -1    0    0    0    0  0.00000000000E+00  0.00000000000E+00  0.99999998245E-14  0.12500000000E+03  0.12500000000E+03 0.  0.
          5    1    1    0  501    0  0.31325920619E+02 -0.32990574502E+02  0.42596580748E+02  0.62500000000E+02  0.47000000000E+01 0. -1.
         -5    1    1    0    0  501 -0.31325920619E+02  0.32990574502E+02 -0.42596580748E+02  0.62500000000E+02  0.47000000000E+01 0. -1.
</event>
<event>
 3    0  0.4603569E-005  0.9118800E+02  0.7546771E-02  0.1235069E+00
         25   -1    0    0    0    0  0.00000000000E+00  0.00000000000E+00  0.99999998245E-14  0.12500000000E+03  0.12500000000E+03 0.  0.
          5    1    1    0  501    0  0.61282122910E+02  0.10071847741E+02 -0.52172113982E+01  0.62500000000E+02  0.47000000000E+01 0. -1.
         -5    1    1    0    0  501 -0.61282122910E+02 -0.10071847741E+02  0.52172113982E+01  0.62500000000E+02  0.47000000000E+01 0. -1.
</event>
<event>
 3    0  0.4603569E-005  0.9118800E+02  0.7546771E-02  0.1235069E+00
         25   -1    0    0    0    0  0.00000000000E+00  0.00000000000E+00  0.99999998245E-14  0.12500000000E+03  0.12500000000E+03 0.  0.
          5    1    1    0  501    0 -0.57077678221E+02  0.22171230139E+02  0.11607549399E+02  0.62500000000E+02  0.47000000000E+01 0.  1.
         -5    1    1    0    0  501  0.57077678221E+02 -0.22171230139E+02 -0.11607549399E+02  0.62500000000E+02  0.47000000000E+01 0.  1.
</event>
<event>
 3    0  0.4603569E-005  0.9118800E+02  0.7546771E-02  0.1235069E+00
         25   -1    0    0    0    0  0.00000000000E+00  0.00000000000E+00  0.99999998245E-14  0.12500000000E+03  0.12500000000E+03 0.  0.
          5    1    1    0  501    0 -0.58128549043E+02 -0.14885759961E+02 -0.16841791369E+02  0.62500000000E+02  0.47000000000E+01 0.  1.
         -5    1    1    0    0  501  0.58128549043E+02  0.14885759961E+02  0.16841791369E+02  0.62500000000E+02  0.47000000000E+01 0.  1.
</event>
<event>
 3    0  0.4603569E-005  0.9118800E+02  0.7546771E-02  0.1235069E+00
         25   -1    0    0    0    0  0.00000000000E+00  0.00000000000E+00  0.99999998245E-14  0.12500000000E+03  0.12500000000E+03 0.  0.
          5    1    1    0  501    0 -0.49669474336E+02 -0.86606648184E+01  0.36634631213E+02  0.62500000000E+02  0.47000000000E+01 0. -1.
         -5    1    1    0    0  501  0.49669474336E+02  0.86606648184E+01 -0.36634631213E+02  0.62500000000E+02  0.47000000000E+01 0. -1.
</event>
<event>
 3    0  0.4603569E-005  0.9118800E+02  0.7546771E-02  0.1235069E+00
         25   -1    0    0    0    0  0.00000000000E+00  0.00000000000E+00  0.99999998245E-14  0.12500000000E+03  0.12500000000E+03 0.  0.
          5    1    1    0  501    0 -0.72831551376E+01 -0.44367879223E+02 -0.43157930262E+02  0.62500000000E+02  0.47000000000E+01 0. -1.
         -5    1    1    0    0  501  0.72831551376E+01  0.44367879223E+02  0.43157930262E+02  0.62500000000E+02  0.47000000000E+01 0. -1.
</event>
<event>
 3    0  0.4603569E-005  0.9118800E+02  0.7546771E-02  0.1235069E+00
         25   -1    0    0    0    0  0.00000000000E+00  0.00000000000E+00  0.99999998245E-14  0.12500000000E+03  0.12500000000E+03 0.  0.
          5    1    1    0  501    0 -0.59557987208E+02  0.17529870540E+02 -0.54506695499E+01  0.62500000000E+02  0.47000000000E+01 0. -1.
         -5    1    1    0    0  501  0.59557987208E+02 -0.17529870540E+02  0.54506695499E+01  0.62500000000E+02  0.47000000000E+01 0. -1.
</event>
<event>
 3    0  0.4603569E-005  0.9118800E+02  0.7546771E-02  0.1235069E+00
         25   -1    0    0    0    0  0.00000000000E+00  0.00000000000E+00  0.99999998245E-14  0.12500000000E+03  0.12500000000E+03 0.  0.
          5    1    1    0  501    0  0.29898317059E+02  0.41855646169E+02 -0.35190275941E+02  0.62500000000E+02  0.47000000000E+01 0.  1.
         -5    1    1    0    0  501 -0.29898317059E+02 -0.41855646169E+02  0.35190275941E+02  0.62500000000E+02  0.47000000000E+01 0.  1.
</event>
<event>
 3    0  0.4603569E-005  0.9118800E+02  0.7546771E-02  0.1235069E+00
         25   -1    0    0    0    0  0.00000000000E+00  0.00000000000E+00  0.99999998245E-14  0.12500000000E+03  0.12500000000E+03 0.  0.
          5    1    1    0  501    0  0.19907557456E+02 -0.42366222840E+02  0.41145501801E+02  0.62500000000E+02  0.47000000000E+01 0. -1.
         -5    1    1    0    0  501 -0.19907557456E+02  0.42366222840E+02 -0.41145501801E+02  0.62500000000E+02  0.47000000000E+01 0. -1.
</event>
<event>
 3    0  0.4603569E-005  0.9118800E+02  0.7546771E-02  0.1235069E+00
         25   -1    0    0    0    0  0.00000000000E+00  0.00000000000E+00  0.99999998245E-14  0.12500000000E+03  0.12500000000E+03 0.  0.
          5    1    1    0  501    0 -0.10314607634E+02 -0.48474419677E+02  0.37788880724E+02  0.62500000000E+02  0.47000000000E+01 0. -1.
         -5    1    1    0    0  501  0.10314607634E+02  0.48474419677E+02 -0.37788880724E+02  0.62500000000E+02  0.47000000000E+01 0. -1.
</event>
<event>
 3    0  0.4603569E-005  0.9118800E+02  0.7546771E-02  0.1235069E+00
         25   -1    0    0    0    0  0.00000000000E+00  0.00000000000E+00  0.99999998245E-14  0.12500000000E+03  0.12500000000E+03 0.  0.
          5    1    1    0  501    0  0.16632721845E+02  0.59879451818E+02  0.46865567289E+01  0.62500000000E+02  0.47000000000E+01 0. -1.
         -5    1    1    0    0  501 -0.16632721845E+02 -0.59879451818E+02 -0.46865567289E+01  0.62500000000E+02  0.47000000000E+01 0. -1.
</event>
<event>
 3    0  0.4603569E-005  0.9118800E+02  0.7546771E-02  0.1235069E+00
         25   -1    0    0    0    0  0.00000000000E+00  0.00000000000E+00  0.99999998245E-14  0.12500000000E+03  0.12500000000E+03 0.  0.
          5    1    1    0  501    0  0.17038859095E+02  0.59713052745E+02  0.53092949322E+01  0.62500000000E+02  0.47000000000E+01 0.  1.
         -5    1    1    0    0  501 -0.17038859095E+02 -0.59713052745E+02 -0.53092949322E+01  0.62500000000E+02  0.47000000000E+01 0.  1.
</event>
<event>
 3    0  0.4603569E-005  0.9118800E+02  0.7546771E-02  0.1235069E+00
         25   -1    0    0    0    0  0.00000000000E+00  0.00000000000E+00  0.99999998245E-14  0.12500000000E+03  0.12500000000E+03 0.  0.
          5    1    1    0  501    0  0.16419891883E+02 -0.92565756040E+01 -0.59404233508E+02  0.62500000000E+02  0.47000000000E+01 0. -1.
         -5    1    1    0    0  501 -0.16419891883E+02  0.92565756040E+01  0.59404233508E+02  0.62500000000E+02  0.47000000000E+01 0. -1.
</event>
<event>
 3    0  0.4603569E-005  0.9118800E+02  0.7546771E-02  0.1235069E+00
         25   -1    0    0    0    0  0.00000000000E+00  0.00000000000E+00  0.99999998245E-14  0.12500000000E+03  0.12500000000E+03 0.  0.
          5    1    1    0  501    0 -0.49606488237E+02 -0.37649016658E+01 -0.37539070849E+02  0.62500000000E+02  0.47000000000E+01 0.  1.
         -5    1    1    0    0  501  0.49606488237E+02  0.37649016658E+01  0.37539070849E+02  0.62500000000E+02  0.47000000000E+01 0.  1.
</event>
<event>
 3    0  0.4603569E-005  0.9118800E+02  0.7546771E-02  0.1235069E+00
         25   -1    0    0    0    0  0.00000000000E+00  0.00000000000E+00  0.99999998245E-14  0.12500000000E+03  0.12500000000E+03 0.  0.
          5    1    1    0  501    0 -0.32806678021E+02 -0.40989744211E+02 -0.33581583446E+02  0.62500000000E+02  0.47000000000E+01 0.  1.
         -5    1    1    0    0  501  0.32806678021E+02  0.40989744211E+02  0.33581583446E+02  0.62500000000E+02  0.47000000000E+01 0.  1.
</event>
<event>
 3    0  0.4603569E-005  0.9118800E+02  0.7546771E-02  0.1235069E+00
         25   -1    0    0    0    0  0.00000000000E+00  0.00000000000E+00  0.99999998245E-14  0.12500000000E+03  0.12500000000E+03 0.  0.
          5    1    1    0  501    0  0.17639080232E+02 -0.51803649857E+02 -0.29822889030E+02  0.62500000000E+02  0.47000000000E+01 0.  1.
         -5    1    1    0    0  501 -0.17639080232E+02  0.51803649857E+02  0.29822889030E+02  0.62500000000E+02  0.47000000000E+01 0.  1.
</event>
<event>
 3    0  0.4603569E-005  0.9118800E+02  0.7546771E-02  0.1235069E+00
         25   -1    0    0    0    0  0.00000000000E+00  0.00000000000E+00  0.99999998245E-14  0.12500000000E+03  0.12500000000E+03 0.  0.
          5    1    1    0  501    0  0.20828363570E+02  0.55898145275E+02  0.18048175138E+02  0.62500000000E+02  0.47000000000E+01 0.  1.
         -5    1    1    0    0  501 -0.20828363570E+02 -0.55898145275E+02 -0.18048175138E+02  0.62500000000E+02  0.47000000000E+01 0.  1.
</event>
<event>
 3    0  0.4603569E-005  0.9118800E+02  0.7546771E-02  0.1235069E+00
         25   -1    0    0    0    0  0.00000000000E+00  0.00000000000E+00  0.99999998245E-14  0.12500000000E+03  0.12500000000E+03 0.  0.
          5    1    1    0  501    0 -0.40851993524E+02 -0.45140766922E+02  0.13326131725E+02  0.62500000000E+02  0.47000000000E+01 0.  1.
         -5    1    1    0    0  501  0.40851993524E+02  0.45140766922E+02 -0.13326131725E+02  0.62500000000E+02  0.47000000000E+01 0.  1.
</event>
<event>
 3    0  0.4603569E-005  0.9118800E+02  0.7546771E-02  0.1235069E+00
         25   -1    0    0    0    0  0.00000000000E+00  0.00000000000E+00  0.99999998245E-14  0.12500000000E+03  0.12500000000E+03 0.  0.
          5    1    1    0  501    0  0.48979817197E+02 -0.22807574347E+02 -0.31063677500E+02  0.62500000000E+02  0.47000000000E+01 0. -1.
         -5    1    1    0    0  501 -0.48979817197E+02  0.22807574347E+02  0.31063677500E+02  0.62500000000E+02  0.47000000000E+01 0. -1.
</event>
<event>
 3    0  0.4603569E-005  0.9118800E+02  0.7546771E-02  0.1235069E+00
         25   -1    0    0    0    0  0.00000000000E+00  0.00000000000E+00  0.99999998245E-14  0.12500000000E+03  0.12500000000E+03 0.  0.
          5    1    1    0  501    0  0.30940069818E+02  0.53375201621E+02 -0.88294921440E+01  0.62500000000E+02  0.47000000000E+01 0. -1.
         -5    1    1    0    0  501 -0.30940069818E+02 -0.53375201621E+02  0.88294921440E+01  0.62500000000E+02  0.47000000000E+01 0. -1.
</event>
<event>
 3    0  0.4603569E-005  0.9118800E+02  0.7546771E-02  0.1235069E+00
         25   -1    0    0    0    0  0.00000000000E+00  0.00000000000E+00  0.99999998245E-14  0.12500000000E+03  0.12500000000E+03 0.  0.
          5    1    1    0  501    0  0.51962996704E+02  0.34395093516E+02  0.99222758053E+00  0.62500000000E+02  0.47000000000E+01 0. -1.
         -5    1    1    0    0  501 -0.51962996704E+02 -0.34395093516E+02 -0.99222758053E+00  0.62500000000E+02  0.47000000000E+01 0. -1.
</event>
<event>
 3    0  0.4603569E-005  0.9118800E+02  0.7546771E-02  0.1235069E+00
         25   -1    0    0    0    0  0.00000000000E+00  0.00000000000E+00  0.99999998245E-14  0.12500000000E+03  0.12500000000E+03 0.  0.
          5    1    1    0  501    0  0.52055901352E+02  0.34258458344E+02 -0.83735674288E+00  0.62500000000E+02  0.47000000000E+01 0. -1.
         -5    1    1    0    0  501 -0.52055901352E+02 -0.34258458344E+02  0.83735674288E+00  0.62500000000E+02  0.47000000000E+01 0. -1.
</event>
<event>
 3    0  0.4603569E-005  0.9118800E+02  0.7546771E-02  0.1235069E+00
         25   -1    0    0    0    0  0.00000000000E+00  0.00000000000E+00  0.99999998245E-14  0.12500000000E+03  0.12500000000E+03 0.  0.
          5    1    1    0  501    0  0.38296086483E+01  0.31937399070E+02 -0.53380676637E+02  0.62500000000E+02  0.47000000000E+01 0. -1.
         -5    1    1    0    0  501 -0.38296086483E+01 -0.31937399070E+02  0.53380676637E+02  0.62500000000E+02  0.47000000000E+01 0. -1.
</event>
<event>
 3    0  0.4603569E-005  0.9118800E+02  0.7546771E-02  0.1235069E+00
         25   -1    0    0    0    0  0.00000000000E+00  0.00000000000E+00  0.99999998245E-14  0.12500000000E+03  0.12500000000E+03 0.  0.
          5    1    1    0  501    0  0.54233467214E+02 -0.62020468327E+01  0.30073670363E+02  0.62500000000E+02  0.47000000000E+01 0.  1.
         -5    1    1    0    0  501 -0.54233467214E+02  0.62020468327E+01 -0.30073670363E+02  0.62500000000E+02  0.47000000000E+01 0.  1.
</event>
<event>
 3    0  0.4603569E-005  0.9118800E+02  0.7546771E-02  0.1235069E+00
         25   -1    0    0    0    0  0.00000000000E+00  0.00000000000E+00  0.99999998245E-14  0.12500000000E+03  0.12500000000E+03 0.  0.
          5    1    1    0  501    0  0.53538365534E+02  0.31437339551E+02  0.54311230754E+01  0.62500000000E+02  0.47000000000E+01 0. -1.
         -5    1    1    0    0  501 -0.53538365534E+02 -0.31437339551E+02 -0.54311230754E+01  0.62500000000E+02  0.47000000000E+01 0. -1.
</event>
<event>
 3    0  0.4603569E-005  0.9118800E+02  0.7546771E-02  0.1235069E+00
         25   -1    0    0    0    0  0.00000000000E+00  0.00000000000E+00  0.99999998245E-14  0.12500000000E+03  0.12500000000E+03 0.  0.
          5    1    1    0  501    0 -0.50735300176E+02 -0.25010089244E+02 -0.26164570550E+02  0.62500000000E+02  0.47000000000E+01 0.  1.
         -5    1    1    0    0  501  0.50735300176E+02  0.25010089244E+02  0.26164570550E+02  0.62500000000E+02  0.47000000000E+01 0.  1.
</event>
<event>
 3    0  0.4603569E-005  0.9118800E+02  0.7546771E-02  0.1235069E+00
         25   -1    0    0    0    0  0.00000000000E+00  0.00000000000E+00  0.99999998245E-14  0.12500000000E+03  0.12500000000E+03 0.  0.
          5    1    1    0  501    0  0.10390581961E+01 -0.54038215519E+02  0.31031461803E+02  0.62500000000E+02  0.47000000000E+01 0. -1.
         -5    1    1    0    0  501 -0.10390581961E+01  0.54038215519E+02 -0.31031461803E+02  0.62500000000E+02  0.47000000000E+01 0. -1.
</event>
<event>
 3    0  0.4603569E-005  0.9118800E+02  0.7546771E-02  0.1235069E+00
         25   -1    0    0    0    0  0.00000000000E+00  0.00000000000E+00  0.99999998245E-14  0.12500000000E+03  0.12500000000E+03 0.  0.
          5    1    1    0  501    0  0.48293458166E+02  0.56803478306E+01  0.38982503086E+02  0.62500000000E+02  0.47000000000E+01 0.  1.
         -5    1    1    0    0  501 -0.48293458166E+02 -0.56803478306E+01 -0.38982503086E+02  0.62500000000E+02  0.47000000000E+01 0.  1.
</event>
<event>
 3    0  0.4603569E-005  0.9118800E+02  0.7546771E-02  0.1235069E+00
         25   -1    0    0    0    0  0.00000000000E+00  0.00000000000E+00  0.99999998245E-14  0.12500000000E+03  0.12500000000E+03 0.  0.
          5    1    1    0  501    0  0.49920796930E+02  0.32757290647E+02  0.17861521306E+02  0.62500000000E+02  0.47000000000E+01 0. -1.
         -5    1    1    0    0  501 -0.49920796930E+02 -0.32757290647E+02 -0.17861521306E+02  0.62500000000E+02  0.47000000000E+01 0. -1.
</event>
<event>
 3    0  0.4603569E-005  0.9118800E+02  0.7546771E-02  0.1235069E+00
         25   -1    0    0    0    0  0.00000000000E+00  0.00000000000E+00  0.99999998245E-14  0.12500000000E+03  0.12500000000E+03 0.  0.
          5    1    1    0  501    0 -0.12582372806E+02  0.48847534505E+02  0.36602763110E+02  0.62500000000E+02  0.47000000000E+01 0.  1.
         -5    1    1    0    0  501  0.12582372806E+02 -0.48847534505E+02 -0.36602763110E+02  0.62500000000E+02  0.47000000000E+01 0.  1.
</event>
<event>
 3    0  0.4603569E-005  0.9118800E+02  0.7546771E-02  0.1235069E+00
         25   -1    0    0    0    0  0.00000000000E+00  0.00000000000E+00  0.99999998245E-14  0.12500000000E+03  0.12500000000E+03 0.  0.
          5    1    1    0  501    0  0.14380920226E+02  0.37013928620E+02  0.48034552372E+02  0.62500000000E+02  0.47000000000E+01 0.  1.
         -5    1    1    0    0  501 -0.14380920226E+02 -0.37013928620E+02 -0.48034552372E+02  0.62500000000E+02  0.47000000000E+01 0.  1.
</event>
<event>
 3    0  0.4603569E-005  0.9118800E+02  0.7546771E-02  0.1235069E+00
         25   -1    0    0    0    0  0.00000000000E+00  0.00000000000E+00  0.99999998245E-14  0.12500000000E+03  0.12500000000E+03 0.  0.
          5    1    1    0  501    0  0.30379060090E+02  0.40875866914E+02  0.35922642053E+02  0.62500000000E+02  0.47000000000E+01 0.  1.
         -5    1    1    0    0  501 -0.30379060090E+02 -0.40875866914E+02 -0.35922642053E+02  0.62500000000E+02  0.47000000000E+01 0.  1.
</event>
<event>
 3    0  0.4603569E-005  0.9118800E+02  0.7546771E-02  0.1235069E+00
         25   -1    0    0    0    0  0.00000000000E+00  0.00000000000E+00  0.99999998245E-14  0.12500000000E+03  0.12500000000E+03 0.  0.
          5    1    1    0  501    0  0.31935999130E+02  0.52989755332E+02 -0.75058503460E+01  0.62500000000E+02  0.47000000000E+01 0. -1.
         -5    1    1    0    0  501 -0.31935999130E+02 -0.52989755332E+02  0.75058503460E+01  0.62500000000E+02  0.47000000000E+01 0. -1.
</event>
<event>
 3    0  0.4603569E-005  0.9118800E+02  0.7546771E-02  0.1235069E+00
         25   -1    0    0    0    0  0.00000000000E+00  0.00000000000E+00  0.99999998245E-14  0.12500000000E+03  0.12500000000E+03 0.  0.
          5    1    1    0  501    0 -0.35334531456E+02  0.50911645251E+02 -0.66056994058E+01  0.62500000000E+02  0.47000000000E+01 0.  1.
         -5    1    1    0    0  501  0.35334531456E+02 -0.50911645251E+02  0.66056994058E+01  0.62500000000E+02  0.47000000000E+01 0.  1.
</event>
<event>
 3    0  0.4603569E-005  0.9118800E+02  0.7546771E-02  0.1235069E+00
         25   -1    0    0    0    0  0.00000000000E+00  0.00000000000E+00  0.99999998245E-14  0.12500000000E+03  0.12500000000E+03 0.  0.
          5    1    1    0  501    0  0.45108934554E+02 -0.43002994094E+02 -0.29414683687E+00  0.62500000000E+02  0.47000000000E+01 0.  1.
         -5    1    1    0    0  501 -0.45108934554E+02  0.43002994094E+02  0.29414683687E+00  0.62500000000E+02  0.47000000000E+01 0.  1.
</event>
<event>
 3    0  0.4603569E-005  0.9118800E+02  0.7546771E-02  0.1235069E+00
         25   -1    0    0    0    0  0.00000000000E+00  0.00000000000E+00  0.99999998245E-14  0.12500000000E+03  0.12500000000E+03 0.  0.
          5    1    1    0  501    0 -0.44533246329E+02  0.42344712198E+02  0.10386304458E+02  0.62500000000E+02  0.47000000000E+01 0.  1.
         -5    1    1    0    0  501  0.44533246329E+02 -0.42344712198E+02 -0.10386304458E+02  0.62500000000E+02  0.47000000000E+01 0.  1.
</event>
<event>
 3    0  0.4603569E-005  0.9118800E+02  0.7546771E-02  0.1235069E+00
         25   -1    0    0    0    0  0.00000000000E+00  0.00000000000E+00  0.99999998245E-14  0.12500000000E+03  0.12500000000E+03 0.  0.
          5    1    1    0  501    0  0.53949032432E+02 -0.88831662037E+01 -0.29912393047E+02  0.62500000000E+02  0.47000000000E+01 0. -1.
         -5    1    1    0    0  501 -0.53949032432E+02  0.88831662037E+01  0.29912393047E+02  0.62500000000E+02  0.47000000000E+01 0. -1.
</event>
<event>
 3    0  0.4603569E-005  0.9118800E+02  0.7546771E-02  0.1235069E+00
         25   -1    0    0    0    0  0.00000000000E+00  0.00000000000E+00  0.99999998245E-14  0.12500000000E+03  0.12500000000E+03 0.  0.
          5    1    1    0  501    0  0.45245846412E+02  0.22238341351E+02  0.36639180619E+02  0.62500000000E+02  0.47000000000E+01 0. -1.
         -5    1    1    0    0  501 -0.45245846412E+02 -0.22238341351E+02 -0.36639180619E+02  0.62500000000E+02  0.47000000000E+01 0. -1.
</event>
<event>
 3    0  0.4603569E-005  0.9118800E+02  0.7546771E-02  0.1235069E+00
         25   -1    0    0    0    0  0.00000000000E+00  0.00000000000E+00  0.99999998245E-14  0.12500000000E+03  0.12500000000E+03 0.  0.
          5    1    1    0  501    0 -0.72812586799E+01  0.52999004382E+02 -0.31972625893E+02  0.62500000000E+02  0.47000000000E+01 0. -1.
         -5    1    1    0    0  501  0.72812586799E+01 -0.52999004382E+02  0.31972625893E+02  0.62500000000E+02  0.47000000000E+01 0. -1.
</event>
<event>
 3    0  0.4603569E-005  0.9118800E+02  0.7546771E-02  0.1235069E+00
         25   -1    0    0    0    0  0.00000000000E+00  0.00000000000E+00  0.99999998245E-14  0.12500000000E+03  0.12500000000E+03 0.  0.
          5    1    1    0  501    0 -0.35113866986E+01 -0.14650678682E+02 -0.60474687082E+02  0.62500000000E+02  0.47000000000E+01 0.  1.
         -5    1    1    0    0  501  0.35113866986E+01  0.14650678682E+02  0.60474687082E+02  0.62500000000E+02  0.47000000000E+01 0.  1.
</event>
<event>
 3    0  0.4603569E-005  0.9118800E+02  0.7546771E-02  0.1235069E+00
         25   -1    0    0    0    0  0.00000000000E+00  0.00000000000E+00  0.99999998245E-14  0.12500000000E+03  0.12500000000E+03 0.  0.
          5    1    1    0  501    0 -0.30138785933E+01 -0.47780778586E+02  0.39900798658E+02  0.62500000000E+02  0.47000000000E+01 0.  1.
         -5    1    1    0    0  501  0.30138785933E+01  0.47780778586E+02 -0.39900798658E+02  0.62500000000E+02  0.47000000000E+01 0.  1.
</event>
<event>
 3    0  0.4603569E-005  0.9118800E+02  0.7546771E-02  0.1235069E+00
         25   -1    0    0    0    0  0.00000000000E+00  0.00000000000E+00  0.99999998245E-14  0.12500000000E+03  0.12500000000E+03 0.  0.
          5    1    1    0  501    0  0.25930689241E+02 -0.55084429825E+02 -0.13321596989E+02  0.62500000000E+02  0.47000000000E+01 0. -1.
         -5    1    1    0    0  501 -0.25930689241E+02  0.55084429825E+02  0.13321596989E+02  0.62500000000E+02  0.47000000000E+01 0. -1.
</event>
<event>
 3    0  0.4603569E-005  0.9118800E+02  0.7546771E-02  0.1235069E+00
         25   -1    0    0    0    0  0.00000000000E+00  0.00000000000E+00  0.99999998245E-14  0.12500000000E+03  0.12500000000E+03 0.  0.
          5    1    1    0  501    0 -0.24221325816E+02 -0.31133015338E+02 -0.48251660403E+02  0.62500000000E+02  0.47000000000E+01 0.  1.
         -5    1    1    0    0  501  0.24221325816E+02  0.31133015338E+02  0.48251660403E+02  0.62500000000E+02  0.47000000000E+01 0.  1.
</event>
<event>
 3    0  0.4603569E-005  0.9118800E+02  0.7546771E-02  0.1235069E+00
         25   -1    0    0    0    0  0.00000000000E+00  0.00000000000E+00  0.99999998245E-14  0.12500000000E+03  0.12500000000E+03 0.  0.
          5    1    1    0  501    0  0.59823740245E+02  0.16372306882E+02  0.61014482243E+01  0.62500000000E+02  0.47000000000E+01 0. -1.
         -5    1    1    0    0  501 -0.59823740245E+02 -0.16372306882E+02 -0.61014482243E+01  0.62500000000E+02  0.47000000000E+01 0. -1.
</event>
<event>
 3    0  0.4603569E-005  0.9118800E+02  0.7546771E-02  0.1235069E+00
         25   -1    0    0    0    0  0.00000000000E+00  0.00000000000E+00  0.99999998245E-14  0.12500000000E+03  0.12500000000E+03 0.  0.
          5    1    1    0  501    0 -0.48921113797E+02 -0.11272904392E+02 -0.36929747514E+02  0.62500000000E+02  0.47000000000E+01 0. -1.
         -5    1    1    0    0  501  0.48921113797E+02  0.11272904392E+02  0.36929747514E+02  0.62500000000E+02  0.47000000000E+01 0. -1.
</event>
<event>
 3    0  0.4603569E-005  0.9118800E+02  0.7546771E-02  0.1235069E+00
         25   -1    0    0    0    0  0.00000000000E+00  0.00000000000E+00  0.99999998245E-14  0.12500000000E+03  0.12500000000E+03 0.  0.
          5    1    1    0  501    0  0.88622358706E+01  0.48740807062E+02 -0.37814739220E+02  0.62500000000E+02  0.47000000000E+01 0.  1.
         -5    1    1    0    0  501 -0.88622358706E+01 -0.48740807062E+02  0.37814739220E+02  0.62500000000E+02  0.47000000000E+01 0.  1.
</event>
<event>
 3    0  0.4603569E-005  0.9118800E+02  0.7546771E-02  0.1235069E+00
         25   -1    0    0    0    0  0.00000000000E+00  0.00000000000E+00  0.99999998245E-14  0.12500000000E+03  0.12500000000E+03 0.  0.
          5    1    1    0  501    0  0.12368329913E+02 -0.59406174628E+02 -0.14215865474E+02  0.62500000000E+02  0.47000000000E+01 0. -1.
         -5    1    1    0    0  501 -0.12368329913E+02  0.59406174628E+02  0.14215865474E+02  0.62500000000E+02  0.47000000000E+01 0. -1.
</event>
<event>
 3    0  0.4603569E-005  0.9118800E+02  0.7546771E-02  0.1235069E+00
         25   -1    0    0    0    0  0.00000000000E+00  0.00000000000E+00  0.99999998245E-14  0.12500000000E+03  0.12500000000E+03 0.  0.
          5    1    1    0  501    0  0.18545618592E+01  0.54347026075E+02 -0.30448667576E+02  0.62500000000E+02  0.47000000000E+01 0.  1.
         -5    1    1    0    0  501 -0.18545618592E+01 -0.54347026075E+02  0.30448667576E+02  0.62500000000E+02  0.47000000000E+01 0.  1.
</event>
<event>
 3    0  0.4603569E-005  0.9118800E+02  0.7546771E-02  0.1235069E+00
         25   -1    0    0    0    0  0.00000000000E+00  0.00000000000E+00  0.99999998245E-14  0.12500000000E+03  0.12500000000E+03 0.  0.
          5    1    1    0  501    0 -0.14627398169E+02 -0.60566310632E+02 -0.13860877237E+01  0.62500000000E+02  0.47000000000E+01 0. -1.
         -5    1    1    0    0  501  0.14627398169E+02  0.60566310632E+02  0.13860877237E+01  0.62500000000E+02  0.47000000000E+01 0. -1.
</event>
<event>
 3    0  0.4603569E-005  0.9118800E+02  0.7546771E-02  0.1235069E+00
         25   -1    0    0    0    0  0.00000000000E+00  0.00000000000E+00  0.99999998245E-14  0.12500000000E+03  0.12500000000E+03 0.  0.
          5    1    1    0  501    0  0.54961161120E+01  0.44280866818E+02  0.43510430261E+02  0.62500000000E+02  0.47000000000E+01 0.  1.
         -5    1    1    0    0  501 -0.54961161120E+01 -0.44280866818E+02 -0.43510430261E+02  0.62500000000E+02  0.47000000000E+01 0.  1.
</event>
<event>
 3    0  0.4603569E-005  0.9118800E+02  0.7546771E-02  0.1235069E+00
         25   -1    0    0    0    0  0.00000000000E+00  0.00000000000E+00  0.99999998245E-14  0.12500000000E+03  0.12500000000E+03 0.  0.
          5    1    1    0  501    0  0.27611397413E+02 -0.52347556247E+02 -0.19532129630E+02  0.62500000000E+02  0.47000000000E+01 0.  1.
         -5    1    1    0    0  501 -0.27611397413E+02  0.52347556247E+02  0.19532129630E+02  0.62500000000E+02  0.47000000000E+01 0.  1.
</event>
<event>
 3    0  0.4603569E-005  0.9118800E+02  0.7546771E-02  0.1235069E+00
         25   -1    0    0    0    0  0.00000000000E+00  0.00000000000E+00  0.99999998245E-14  0.12500000000E+03  0.12500000000E+03 0.  0.
          5    1    1    0  501    0  0.48015897460E+02 -0.29543637596E+02 -0.26567029730E+02  0.62500000000E+02  0.47000000000E+01 0. -1.
         -5    1    1    0    0  501 -0.48015897460E+02  0.29543637596E+02  0.26567029730E+02  0.62500000000E+02  0.47000000000E+01 0. -1.
</event>
<event>
 3    0  0.4603569E-005  0.9118800E+02  0.7546771E-02  0.1235069E+00
         25   -1    0    0    0    0  0.00000000000E+00  0.00000000000E+00  0.99999998245E-14  0.12500000000E+03  0.12500000000E+03 0.  0.
          5    1    1    0  501    0  0.17599091623E+01  0.29111738647E+02 -0.55077848475E+02  0.62500000000E+02  0.47000000000E+01 0.  1.
         -5    1    1    0    0  501 -0.17599091623E+01 -0.29111738647E+02  0.55077848475E+02  0.62500000000E+02  0.47000000000E+01 0.  1.
</event>
<event>
 3    0  0.4603569E-005  0.9118800E+02  0.7546771E-02  0.1235069E+00
         25   -1    0    0    0    0  0.00000000000E+00  0.00000000000E+00  0.99999998245E-14  0.12500000000E+03  0.12500000000E+03 0.  0.
          5    1    1    0  501    0  0.27410167617E+02 -0.49518267495E+02 -0.26091835802E+02  0.62500000000E+02  0.47000000000E+01 0. -1.
         -5    1    1    0    0  501 -0.27410167617E+02  0.49518267495E+02  0.26091835802E+02  0.62500000000E+02  0.47000000000E+01 0. -1.
</event>
<event>
 3    0  0.4603569E-005  0.9118800E+02  0.7546771E-02  0.1235069E+00
         25   -1    0    0    0    0  0.00000000000E+00  0.00000000000E+00  0.99999998245E-14  0.12500000000E+03  0.12500000000E+03 0.  0.
          5    1    1    0  501    0  0.51241003457E+02  0.34471255582E+02 -0.83816527778E+01  0.62500000000E+02  0.47000000000E+01 0.  1.
         -5    1    1    0    0  501 -0.51241003457E+02 -0.34471255582E+02  0.83816527778E+01  0.62500000000E+02  0.47000000000E+01 0.  1.
</event>
<event>
 3    0  0.4603569E-005  0.9118800E+02  0.7546771E-02  0.1235069E+00
         25   -1    0    0    0    0  0.00000000000E+00  0.00000000000E+00  0.99999998245E-14  0.12500000000E+03  0.12500000000E+03 0.  0.
          5    1    1    0  501    0  0.43377915151E+02  0.54391462788E+01 -0.44417701031E+02  0.62500000000E+02  0.47000000000E+01 0.  1.
         -5    1    1    0    0  501 -0.43377915151E+02 -0.54391462788E+01  0.44417701031E+02  0.62500000000E+02  0.47000000000E+01 0.  1.
</event>
<event>
 3    0  0.4603569E-005  0.9118800E+02  0.7546771E-02  0.1235069E+00
         25   -1    0    0    0    0  0.00000000000E+00  0.00000000000E+00  0.99999998245E-14  0.12500000000E+03  0.12500000000E+03 0.  0.
          5    1    1    0  501    0  0.41890437882E+02 -0.23315355724E+02  0.39821418880E+02  0.62500000000E+02  0.47000000000E+01 0. -1.
         -5    1    1    0    0  501 -0.41890437882E+02  0.23315355724E+02 -0.39821418880E+02  0.62500000000E+02  0.47000000000E+01 0. -1.
</event>
<event>
 3    0  0.4603569E-005  0.9118800E+02  0.7546771E-02  0.1235069E+00
         25   -1    0    0    0    0  0.00000000000E+00  0.00000000000E+00  0.99999998245E-14  0.12500000000E+03  0.12500000000E+03 0.  0.
          5    1    1    0  501    0 -0.60279563292E+02  0.57626757496E+01  0.14741974683E+02  0.62500000000E+02  0.47000000000E+01 0. -1.
         -5    1    1    0    0  501  0.60279563292E+02 -0.57626757496E+01 -0.14741974683E+02  0.62500000000E+02  0.47000000000E+01 0. -1.
</event>
<event>
 3    0  0.4603569E-005  0.9118800E+02  0.7546771E-02  0.1235069E+00
         25   -1    0    0    0    0  0.00000000000E+00  0.00000000000E+00  0.99999998245E-14  0.12500000000E+03  0.12500000000E+03 0.  0.
          5    1    1    0  501    0 -0.37012470734E+02 -0.40305092848E+02  0.29828451194E+02  0.62500000000E+02  0.47000000000E+01 0.  1.
         -5    1    1    0    0  501  0.37012470734E+02  0.40305092848E+02 -0.29828451194E+02  0.62500000000E+02  0.47000000000E+01 0.  1.
</event>
<event>
 3    0  0.4603569E-005  0.9118800E+02  0.7546771E-02  0.1235069E+00
         25   -1    0    0    0    0  0.00000000000E+00  0.00000000000E+00  0.99999998245E-14  0.12500000000E+03  0.12500000000E+03 0.  0.
          5    1    1    0  501    0 -0.53436211440E+02  0.29698043625E+02  0.12114351480E+02  0.62500000000E+02  0.47000000000E+01 0. -1.
         -5    1    1    0    0  501  0.53436211440E+02 -0.29698043625E+02 -0.12114351480E+02  0.62500000000E+02  0.47000000000E+01 0. -1.
</event>
<event>
 3    0  0.4603569E-005  0.9118800E+02  0.7546771E-02  0.1235069E+00
         25   -1    0    0    0    0  0.00000000000E+00  0.00000000000E+00  0.99999998245E-14  0.12500000000E+03  0.12500000000E+03 0.  0.
          5    1    1    0  501    0 -0.15670144268E+02 -0.60707696474E+01  0.60014601011E+02  0.62500000000E+02  0.47000000000E+01 0. -1.
         -5    1    1    0    0  501  0.15670144268E+02  0.60707696474E+01 -0.60014601011E+02  0.62500000000E+02  0.47000000000E+01 0. -1.
</event>
<event>
 3    0  0.4603569E-005  0.9118800E+02  0.7546771E-02  0.1235069E+00
         25   -1    0    0    0    0  0.00000000000E+00  0.00000000000E+00  0.99999998245E-14  0.12500000000E+03  0.12500000000E+03 0.  0.
          5    1    1    0  501    0 -0.17410722715E+02  0.56631497773E+02 -0.19336499025E+02  0.62500000000E+02  0.47000000000E+01 0.  1.
         -5    1    1    0    0  501  0.17410722715E+02 -0.56631497773E+02  0.19336499025E+02  0.62500000000E+02  0.47000000000E+01 0.  1.
</event>
<event>
 3    0  0.4603569E-005  0.9118800E+02  0.7546771E-02  0.1235069E+00
         25   -1    0    0    0    0  0.00000000000E+00  0.00000000000E+00  0.99999998245E-14  0.12500000000E+03  0.12500000000E+03 0.  0.
          5    1    1    0  501    0 -0.58816809443E+02 -0.11682512926E+02 -0.16978274903E+02  0.62500000000E+02  0.47000000000E+01 0.  1.
         -5    1    1    0    0  501  0.58816809443E+02  0.11682512926E+02  0.16978274903E+02  0.62500000000E+02  0.47000000000E+01 0.  1.
</event>
<event>
 3    0  0.4603569E-005  0.9118800E+02  0.7546771E-02  0.1235069E+00
         25   -1    0    0    0    0  0.00000000000E+00  0.00000000000E+00  0.99999998245E-14  0.12500000000E+03  0.12500000000E+03 0.  0.
          5    1    1    0  501    0  0.47183044635E+02  0.38957258521E+02  0.11842816705E+02  0.62500000000E+02  0.47000000000E+01 0. -1.
         -5    1    1    0    0  501 -0.47183044635E+02 -0.38957258521E+02 -0.11842816705E+02  0.62500000000E+02  0.47000000000E+01 0. -1.
</event>
<event>
 3    0  0.4603569E-005  0.9118800E+02  0.7546771E-02  0.1235069E+00
         25   -1    0    0    0    0  0.00000000000E+00  0.00000000000E+00  0.99999998245E-14  0.12500000000E+03  0.12500000000E+03 0.  0.
          5    1    1    0  501    0 -0.34948083110E+02 -0.51288869040E+02  0.56783271778E+01  0.62500000000E+02  0.47000000000E+01 0.  1.
         -5    1    1    0    0  501  0.34948083110E+02  0.51288869040E+02 -0.56783271778E+01  0.62500000000E+02  0.47000000000E+01 0.  1.
</event>
<event>
 3    0  0.4603569E-005  0.9118800E+02  0.7546771E-02  0.1235069E+00
         25   -1    0    0    0    0  0.00000000000E+00  0.00000000000E+00  0.99999998245E-14  0.12500000000E+03  0.12500000000E+03 0.  0.
          5    1    1    0  501    0 -0.78336857543E+01  0.60856240899E+02  0.10922971716E+02  0.62500000000E+02  0.47000000000E+01 0. -1.
         -5    1    1    0    0  501  0.78336857543E+01 -0.60856240899E+02 -0.10922971716E+02  0.62500000000E+02  0.47000000000E+01 0. -1.
</event>
<event>
 3    0  0.4603569E-005  0.9118800E+02  0.7546771E-02  0.1235069E+00
         25   -1    0    0    0    0  0.00000000000E+00  0.00000000000E+00  0.99999998245E-14  0.12500000000E+03  0.12500000000E+03 0.  0.
          5    1    1    0  501    0 -0.41781079466E+01  0.30089266398E+02  0.54418190540E+02  0.62500000000E+02  0.47000000000E+01 0. -1.
         -5    1    1    0    0  501  0.41781079466E+01 -0.30089266398E+02 -0.54418190540E+02  0.62500000000E+02  0.47000000000E+01 0. -1.
</event>
<event>
 3    0  0.4603569E-005  0.9118800E+02  0.7546771E-02  0.1235069E+00
         25   -1    0    0    0    0  0.00000000000E+00  0.00000000000E+00  0.99999998245E-14  0.12500000000E+03  0.12500000000E+03 0.  0.
          5    1    1    0  501    0  0.10286678443E+02 -0.58159786721E+02 -0.19894307104E+02  0.62500000000E+02  0.47000000000E+01 0. -1.
         -5    1    1    0    0  501 -0.10286678443E+02  0.58159786721E+02  0.19894307104E+02  0.62500000000E+02  0.47000000000E+01 0. -1.
</event>
<event>
 3    0  0.4603569E-005  0.9118800E+02  0.7546771E-02  0.1235069E+00
         25   -1    0    0    0    0  0.00000000000E+00  0.00000000000E+00  0.99999998245E-14  0.12500000000E+03  0.12500000000E+03 0.  0.
          5    1    1    0  501    0 -0.61709848961E+01  0.70050685536E+01  0.61619866601E+02  0.62500000000E+02  0.47000000000E+01 0. -1.
         -5    1    1    0    0  501  0.61709848961E+01 -0.70050685536E+01 -0.61619866601E+02  0.62500000000E+02  0.47000000000E+01 0. -1.
</event>
<event>
 3    0  0.4603569E-005  0.9118800E+02  0.7546771E-02  0.1235069E+00
         25   -1    0    0    0    0  0.00000000000E+00  0.00000000000E+00  0.99999998245E-14  0.12500000000E+03  0.12500000000E+03 0.  0.
          5    1    1    0  501    0 -0.54726148942E+02 -0.10880322554E+02  0.27763775015E+02  0.62500000000E+02  0.47000000000E+01 0. -1.
         -5    1    1    0    0  501  0.54726148942E+02  0.10880322554E+02 -0.27763775015E+02  0.62500000000E+02  0.47000000000E+01 0. -1.
</event>
<event>
 3    0  0.4603569E-005  0.9118800E+02  0.7546771E-02  0.1235069E+00
         25   -1    0    0    0    0  0.00000000000E+00  0.00000000000E+00  0.99999998245E-14  0.12500000000E+03  0.12500000000E+03 0.  0.
          5    1    1    0  501    0  0.36678139277E+01 -0.62199453798E+02 -0.13910745006E+01  0.62500000000E+02  0.47000000000E+01 0.  1.
         -5    1    1    0    0  501 -0.36678139277E+01  0.62199453798E+02  0.13910745006E+01  0.62500000000E+02  0.47000000000E+01 0.  1.
</event>
<event>
 3    0  0.4603569E-005  0.9118800E+02  0.7546771E-02  0.1235069E+00
         25   -1    0    0    0    0  0.00000000000E+00  0.00000000000E+00  0.99999998245E-14  0.12500000000E+03  0.12500000000E+03 0.  0.
          5    1    1    0  501    0  0.62221041058E+01 -0.36763014407E+02  0.49939224986E+02  0.62500000000E+02  0.47000000000E+01 0.  1.
         -5    1    1    0    0  501 -0.62221041058E+01  0.36763014407E+02 -0.49939224986E+02  0.62500000000E+02  0.47000000000E+01 0.  1.
</event>
<event>
 3    0  0.4603569E-005  0.9118800E+02  0.7546771E-02  0.1235069E+00
         25   -1    0    0    0    0  0.00000000000E+00  0.00000000000E+00  0.99999998245E-14  0.12500000000E+03  0.12500000000E+03 0.  0.
          5    1    1    0  501    0 -0.11827940297E+02  0.76667335344E+01 -0.60708162756E+02  0.62500000000E+02  0.47000000000E+01 0. -1.
         -5    1    1    0    0  501  0.11827940297E+02 -0.76667335344E+01  0.60708162756E+02  0.62500000000E+02  0.47000000000E+01 0. -1.
</event>
<event>
 3    0  0.4603569E-005  0.9118800E+02  0.7546771E-02  0.1235069E+00
         25   -1    0    0    0    0  0.00000000000E+00  0.00000000000E+00  0.99999998245E-14  0.12500000000E+03  0.12500000000E+03 0.  0.
          5    1    1    0  501    0 -0.69751788311E+00 -0.57693594167E+02  0.23561041168E+02  0.62500000000E+02  0.47000000000E+01 0. -1.
         -5    1    1    0    0  501  0.69751788311E+00  0.57693594167E+02 -0.23561041168E+02  0.62500000000E+02  0.47000000000E+01 0. -1.
</event>
<event>
 3    0  0.4603569E-005  0.9118800E+02  0.7546771E-02  0.1235069E+00
         25   -1    0    0    0    0  0.00000000000E+00  0.00000000000E+00  0.99999998245E-14  0.12500000000E+03  0.12500000000E+03 0.  0.
          5    1    1    0  501    0  0.43662723343E+02  0.44400014302E+02  0.25229586229E+01  0.62500000000E+02  0.47000000000E+01 0. -1.
         -5    1    1    0    0  501 -0.43662723343E+02 -0.44400014302E+02 -0.25229586229E+01  0.62500000000E+02  0.47000000000E+01 0. -1.
</event>
<event>
 3    0  0.4603569E-005  0.9118800E+02  0.7546771E-02  0.1235069E+00
         25   -1    0    0    0    0  0.00000000000E+00  0.00000000000E+00  0.99999998245E-14  0.12500000000E+03  0.12500000000E+03 0.  0.
          5    1    1    0  501    0 -0.52118412401E+02 -0.60275085929E+01 -0.33637779786E+02  0.62500000000E+02  0.47000000000E+01 0. -1.
         -5    1    1    0    0  501  0.52118412401E+02  0.60275085929E+01  0.33637779786E+02  0.62500000000E+02  0.47000000000E+01 0. -1.
</event>
<event>
 3    0  0.4603569E-005  0.9118800E+02  0.7546771E-02  0.1235069E+00
         25   -1    0    0    0    0  0.00000000000E+00  0.00000000000E+00  0.99999998245E-14  0.12500000000E+03  0.12500000000E+03 0.  0.
          5    1    1    0  501    0  0.50547882202E+02 -0.35455397170E+02  0.84844809202E+01  0.62500000000E+02  0.47000000000E+01 0.  1.
         -5    1    1    0    0  501 -0.50547882202E+02  0.35455397170E+02 -0.84844809202E+01  0.62500000000E+02  0.47000000000E+01 0.  1.
</event>
<event>
 3    0  0.4603569E-005  0.9118800E+02  0.7546771E-02  0.1235069E+00
         25   -1    0    0    0    0  0.00000000000E+00  0.00000000000E+00  0.99999998245E-14  0.12500000000E+03  0.12500000000E+03 0.  0.
          5    1    1    0  501    0 -0.35534498927E+02 -0.18050333418E+02  0.47912888136E+02  0.62500000000E+02  0.47000000000E+01 0.  1.
         -5    1    1    0    0  501  0.35534498927E+02  0.18050333418E+02 -0.47912888136E+02  0.62500000000E+02  0.47000000000E+01 0.  1.
</event>
<event>
 3    0  0.4603569E-005  0.9118800E+02  0.7546771E-02  0.1235069E+00
         25   -1    0    0    0    0  0.00000000000E+00  0.00000000000E+00  0.99999998245E-14  0.12500000000E+03  0.12500000000E+03 0.  0.
          5    1    1    0  501    0  0.26742531446E+02  0.52503994588E+02 -0.20305850490E+02  0.62500000000E+02  0.47000000000E+01 0.  1.
         -5    1    1    0    0  501 -0.26742531446E+02 -0.52503994588E+02  0.20305850490E+02  0.62500000000E+02  0.47000000000E+01 0.  1.
</event>
<event>
 3    0  0.4603569E-005  0.9118800E+02  0.7546771E-02  0.1235069E+00
         25   -1    0    0    0    0  0.00000000000E+00  0.00000000000E+00  0.99999998245E-14  0.12500000000E+03  0.12500000000E+03 0.  0.
          5    1    1    0  501    0 -0.35827682096E+02  0.48529975440E+02 -0.15664567642E+02  0.62500000000E+02  0.47000000000E+01 0.  1.
         -5    1    1    0    0  501  0.35827682096E+02 -0.48529975440E+02  0.15664567642E+02  0.62500000000E+02  0.47000000000E+01 0.  1.
</event>
<event>
 3    0  0.4603569E-005  0.9118800E+02  0.7546771E-02  0.1235069E+00
         25   -1    0    0    0    0  0.00000000000E+00  0.00000000000E+00  0.99999998245E-14  0.12500000000E+03  0.12500000000E+03 0.  0.
          5    1    1    0  501    0 -0.92511949752E+01 -0.45781649679E+02  0.41262767045E+02  0.62500000000E+02  0.47000000000E+01 0.  1.
         -5    1    1    0    0  501  0.92511949752E+01  0.45781649679E+02 -0.41262767045E+02  0.62500000000E+02  0.47000000000E+01 0.  1.
</event>
<event>
 3    0  0.4603569E-005  0.9118800E+02  0.7546771E-02  0.1235069E+00
         25   -1    0    0    0    0  0.00000000000E+00  0.00000000000E+00  0.99999998245E-14  0.12500000000E+03  0.12500000000E+03 0.  0.
          5    1    1    0  501    0 -0.99850962026E+01 -0.29317646678E+02  0.54082653846E+02  0.62500000000E+02  0.47000000000E+01 0. -1.
         -5    1    1    0    0  501  0.99850962026E+01  0.29317646678E+02 -0.54082653846E+02  0.62500000000E+02  0.47000000000E+01 0. -1.
</event>
<event>
 3    0  0.4603569E-005  0.9118800E+02  0.7546771E-02  0.1235069E+00
         25   -1    0    0    0    0  0.00000000000E+00  0.00000000000E+00  0.99999998245E-14  0.12500000000E+03  0.12500000000E+03 0.  0.
          5    1    1    0  501    0 -0.41067756716E+02  0.46549929881E+02 -0.55410636562E+01  0.62500000000E+02  0.47000000000E+01 0. -1.
         -5    1    1    0    0  501  0.41067756716E+02 -0.46549929881E+02  0.55410636562E+01  0.62500000000E+02  0.47000000000E+01 0. -1.
</event>
<event>
 3    0  0.4603569E-005  0.9118800E+02  0.7546771E-02  0.1235069E+00
         25   -1    0    0    0    0  0.00000000000E+00  0.00000000000E+00  0.99999998245E-14  0.12500000000E+03  0.12500000000E+03 0.  0.
          5    1    1    0  501    0 -0.44939711487E+00  0.25061082382E+02  0.57060495898E+02  0.62500000000E+02  0.47000000000E+01 0.  1.
         -5    1    1    0    0  501  0.44939711487E+00 -0.25061082382E+02 -0.57060495898E+02  0.62500000000E+02  0.47000000000E+01 0.  1.
</event>
<event>
 3    0  0.4603569E-005  0.9118800E+02  0.7546771E-02  0.1235069E+00
         25   -1    0    0    0    0  0.00000000000E+00  0.00000000000E+00  0.99999998245E-14  0.12500000000E+03  0.12500000000E+03 0.  0.
          5    1    1    0  501    0  0.10148927671E+02 -0.74080463651E+00  0.61486669089E+02  0.62500000000E+02  0.47000000000E+01 0.  1.
         -5    1    1    0    0  501 -0.10148927671E+02  0.74080463651E+00 -0.61486669089E+02  0.62500000000E+02  0.47000000000E+01 0.  1.
</event>
<event>
 3    0  0.4603569E-005  0.9118800E+02  0.7546771E-02  0.1235069E+00
         25   -1    0    0    0    0  0.00000000000E+00  0.00000000000E+00  0.99999998245E-14  0.12500000000E+03  0.12500000000E+03 0.  0.
          5    1    1    0  501    0  0.47347800088E+02 -0.38479829496E+02 -0.12714108257E+02  0.62500000000E+02  0.47000000000E+01 0.  1.
         -5    1    1    0    0  501 -0.47347800088E+02  0.38479829496E+02  0.12714108257E+02  0.62500000000E+02  0.47000000000E+01 0.  1.
</event>
<event>
 3    0  0.4603569E-005  0.9118800E+02  0.7546771E-02  0.1235069E+00
         25   -1    0    0    0    0  0.00000000000E+00  0.00000000000E+00  0.99999998245E-14  0.12500000000E+03  0.12500000000E+03 0.  0.
          5    1    1    0  501    0 -0.34920385315E+02  0.32464926624E+01  0.51518802149E+02  0.62500000000E+02  0.47000000000E+01 0.  1.
         -5    1    1    0    0  501  0.34920385315E+02 -0.32464926624E+01 -0.51518802149E+02  0.62500000000E+02  0.47000000000E+01 0.  1.
</event>
<event>
 3    0  0.4603569E-005  0.9118800E+02  0.7546771E-02  0.1235069E+00
         25   -1    0    0    0    0  0.00000000000E+00  0.00000000000E+00  0.99999998245E-14  0.12500000000E+03  0.12500000000E+03 0.  0.
          5    1    1    0  501    0 -0.59721133577E+02  0.46836836111E+00  0.17813669903E+02  0.62500000000E+02  0.47000000000E+01 0.  1.
         -5    1    1    0    0  501  0.59721133577E+02 -0.46836836111E+00 -0.17813669903E+02  0.62500000000E+02  0.47000000000E+01 0.  1.
</event>
<event>
 3    0  0.4603569E-005  0.9118800E+02  0.7546771E-02  0.1235069E+00
         25   -1    0    0    0    0  0.00000000000E+00  0.00000000000E+00  0.99999998245E-14  0.12500000000E+03  0.12500000000E+03 0.  0.
          5    1    1    0  501    0  0.55982676200E+02 -0.27387683052E+02 -0.12158357753E+00  0.62500000000E+02  0.47000000000E+01 0.  1.
         -5    1    1    0    0  501 -0.55982676200E+02  0.27387683052E+02  0.12158357753E+00  0.62500000000E+02  0.47000000000E+01 0.  1.
</event>
<event>
 3    0  0.4603569E-005  0.9118800E+02  0.7546771E-02  0.1235069E+00
         25   -1    0    0    0    0  0.00000000000E+00  0.00000000000E+00  0.99999998245E-14  0.12500000000E+03  0.12500000000E+03 0.  0.
          5    1    1    0  501    0  0.79682606017E+01 -0.51532274065E+01  0.61596355982E+02  0.62500000000E+02  0.47000000000E+01 0.  1.
         -5    1    1    0    0  501 -0.79682606017E+01  0.51532274065E+01 -0.61596355982E+02  0.62500000000E+02  0.47000000000E+01 0.  1.
</event>
<event>
 3    0  0.4603569E-005  0.9118800E+02  0.7546771E-02  0.1235069E+00
         25   -1    0    0    0    0  0.00000000000E+00  0.00000000000E+00  0.99999998245E-14  0.12500000000E+03  0.12500000000E+03 0.  0.
          5    1    1    0  501    0  0.56545367906E+02 -0.49429044156E+01 -0.25736143152E+02  0.62500000000E+02  0.47000000000E+01 0. -1.
         -5    1    1    0    0  501 -0.56545367906E+02  0.49429044156E+01  0.25736143152E+02  0.62500000000E+02  0.47000000000E+01 0. -1.
</event>
<event>
 3    0  0.4603569E-005  0.9118800E+02  0.7546771E-02  0.1235069E+00
         25   -1    0    0    0    0  0.00000000000E+00  0.00000000000E+00  0.99999998245E-14  0.12500000000E+03  0.12500000000E+03 0.  0.
          5    1    1    0  501    0 -0.40325717915E+02 -0.39025517290E+02 -0.27110984395E+02  0.62500000000E+02  0.47000000000E+01 0.  1.
         -5    1    1    0    0  501  0.40325717915E+02  0.39025517290E+02  0.27110984395E+02  0.62500000000E+02  0.47000000000E+01 0.  1.
</event>
<event>
 3    0  0.4603569E-005  0.9118800E+02  0.7546771E-02  0.1235069E+00
         25   -1    0    0    0    0  0.00000000000E+00  0.00000000000E+00  0.99999998245E-14  0.12500000000E+03  0.12500000000E+03 0.  0.
          5    1    1    0  501    0  0.85816272722E+01  0.45499893281E+02 -0.41716608021E+02  0.62500000000E+02  0.47000000000E+01 0.  1.
         -5    1    1    0    0  501 -0.85816272722E+01 -0.45499893281E+02  0.41716608021E+02  0.62500000000E+02  0.47000000000E+01 0.  1.
</event>
<event>
 3    0  0.4603569E-005  0.9118800E+02  0.7546771E-02  0.1235069E+00
         25   -1    0    0    0    0  0.00000000000E+00  0.00000000000E+00  0.99999998245E-14  0.12500000000E+03  0.12500000000E+03 0.  0.
          5    1    1    0  501    0  0.45614740995E+02  0.39153768382E+02 -0.16444993933E+02  0.62500000000E+02  0.47000000000E+01 0.  1.
         -5    1    1    0    0  501 -0.45614740995E+02 -0.39153768382E+02  0.16444993933E+02  0.62500000000E+02  0.47000000000E+01 0.  1.
</event>
<event>
 3    0  0.4603569E-005  0.9118800E+02  0.7546771E-02  0.1235069E+00
         25   -1    0    0    0    0  0.00000000000E+00  0.00000000000E+00  0.99999998245E-14  0.12500000000E+03  0.12500000000E+03 0.  0.
          5    1    1    0  501    0  0.85339014402E+01 -0.53985158399E+02  0.29948876421E+02  0.62500000000E+02  0.47000000000E+01 0. -1.
         -5    1    1    0    0  501 -0.85339014402E+01  0.53985158399E+02 -0.29948876421E+02  0.62500000000E+02  0.47000000000E+01 0. -1.
</event>
<event>
 3    0  0.4603569E-005  0.9118800E+02  0.7546771E-02  0.1235069E+00
         25   -1    0    0    0    0  0.00000000000E+00  0.00000000000E+00  0.99999998245E-14  0.12500000000E+03  0.12500000000E+03 0.  0.
          5    1    1    0  501    0 -0.14410791588E+02 -0.33597723651E+02 -0.50474568361E+02  0.62500000000E+02  0.47000000000E+01 0. -1.
         -5    1    1    0    0  501  0.14410791588E+02  0.33597723651E+02  0.50474568361E+02  0.62500000000E+02  0.47000000000E+01 0. -1.
</event>
<event>
 3    0  0.4603569E-005  0.9118800E+02  0.7546771E-02  0.1235069E+00
         25   -1    0    0    0    0  0.00000000000E+00  0.00000000000E+00  0.99999998245E-14  0.12500000000E+03  0.12500000000E+03 0.  0.
          5    1    1    0  501    0 -0.44748319965E+02 -0.36884851694E+02 -0.22831022225E+02  0.62500000000E+02  0.47000000000E+01 0. -1.
         -5    1    1    0    0  501  0.44748319965E+02  0.36884851694E+02  0.22831022225E+02  0.62500000000E+02  0.47000000000E+01 0. -1.
</event>
<event>
 3    0  0.4603569E-005  0.9118800E+02  0.7546771E-02  0.1235069E+00
         25   -1    0    0    0    0  0.00000000000E+00  0.00000000000E+00  0.99999998245E-14  0.12500000000E+03  0.12500000000E+03 0.  0.
          5    1    1    0  501    0 -0.18792561934E+02 -0.29996153420E+02 -0.51295520233E+02  0.62500000000E+02  0.47000000000E+01 0.  1.
         -5    1    1    0    0  501  0.18792561934E+02  0.29996153420E+02  0.51295520233E+02  0.62500000000E+02  0.47000000000E+01 0.  1.
</event>
<event>
 3    0  0.4603569E-005  0.9118800E+02  0.7546771E-02  0.1235069E+00
         25   -1    0    0    0    0  0.00000000000E+00  0.00000000000E+00  0.99999998245E-14  0.12500000000E+03  0.12500000000E+03 0.  0.
          5    1    1    0  501    0  0.30014698406E+02  0.22977919045E+02  0.49550914381E+02  0.62500000000E+02  0.47000000000E+01 0. -1.
         -5    1    1    0    0  501 -0.30014698406E+02 -0.22977919045E+02 -0.49550914381E+02  0.62500000000E+02  0.47000000000E+01 0. -1.
</event>
<event>
 3    0  0.4603569E-005  0.9118800E+02  0.7546771E-02  0.1235069E+00
         25   -1    0    0    0    0  0.00000000000E+00  0.00000000000E+00  0.99999998245E-14  0.12500000000E+03  0.12500000000E+03 0.  0.
          5    1    1    0  501    0  0.44589077591E+02 -0.11762045345E+02 -0.41924079583E+02  0.62500000000E+02  0.47000000000E+01 0.  1.
         -5    1    1    0    0  501 -0.44589077591E+02  0.11762045345E+02  0.41924079583E+02  0.62500000000E+02  0.47000000000E+01 0.  1.
</event>
<event>
 3    0  0.4603569E-005  0.9118800E+02  0.7546771E-02  0.1235069E+00
         25   -1    0    0    0    0  0.00000000000E+00  0.00000000000E+00  0.99999998245E-14  0.12500000000E+03  0.12500000000E+03 0.  0.
          5    1    1    0  501    0  0.53213583617E+02 -0.30123493235E+02  0.12043657002E+02  0.62500000000E+02  0.47000000000E+01 0. -1.
         -5    1    1    0    0  501 -0.53213583617E+02  0.30123493235E+02 -0.12043657002E+02  0.62500000000E+02  0.47000000000E+01 0. -1.
</event>
<event>
 3    0  0.4603569E-005  0.9118800E+02  0.7546771E-02  0.1235069E+00
         25   -1    0    0    0    0  0.00000000000E+00  0.00000000000E+00  0.99999998245E-14  0.12500000000E+03  0.12500000000E+03 0.  0.
          5    1    1    0  501    0  0.58299078623E+02  0.16322358561E+02 -0.14797230912E+02  0.62500000000E+02  0.47000000000E+01 0. -1.
         -5    1    1    0    0  501 -0.58299078623E+02 -0.16322358561E+02  0.14797230912E+02  0.62500000000E+02  0.47000000000E+01 0. -1.
</event>
<event>
 3    0  0.4603569E-005  0.9118800E+02  0.7546771E-02  0.1235069E+00
         25   -1    0    0    0    0  0.00000000000E+00  0.00000000000E+00  0.99999998245E-14  0.12500000000E+03  0.12500000000E+03 0.  0.
          5    1    1    0  501    0 -0.27318175934E+02  0.46028452662E+02 -0.31925832944E+02  0.62500000000E+02  0.47000000000E+01 0. -1.
         -5    1    1    0    0  501  0.27318175934E+02 -0.46028452662E+02  0.31925832944E+02  0.62500000000E+02  0.47000000000E+01 0. -1.
</event>
<event>
 3    0  0.4603569E-005  0.9118800E+02  0.7546771E-02  0.1235069E+00
         25   -1    0    0    0    0  0.00000000000E+00  0.00000000000E+00  0.99999998245E-14  0.12500000000E+03  0.12500000000E+03 0.  0.
          5    1    1    0  501    0 -0.14081284668E+01  0.55963196698E+02  0.27391564205E+02  0.62500000000E+02  0.47000000000E+01 0.  1.
         -5    1    1    0    0  501  0.14081284668E+01 -0.55963196698E+02 -0.27391564205E+02  0.62500000000E+02  0.47000000000E+01 0.  1.
</event>
<event>
 3    0  0.4603569E-005  0.9118800E+02  0.7546771E-02  0.1235069E+00
         25   -1    0    0    0    0  0.00000000000E+00  0.00000000000E+00  0.99999998245E-14  0.12500000000E+03  0.12500000000E+03 0.  0.
          5    1    1    0  501    0 -0.37681657177E+02  0.41272353546E+02  0.27583428814E+02  0.62500000000E+02  0.47000000000E+01 0. -1.
         -5    1    1    0    0  501  0.37681657177E+02 -0.41272353546E+02 -0.27583428814E+02  0.62500000000E+02  0.47000000000E+01 0. -1.
</event>
<event>
 3    0  0.4603569E-005  0.9118800E+02  0.7546771E-02  0.1235069E+00
         25   -1    0    0    0    0  0.00000000000E+00  0.00000000000E+00  0.99999998245E-14  0.12500000000E+03  0.12500000000E+03 0.  0.
          5    1    1    0  501    0  0.10768717907E+02 -0.56546124769E+02 -0.23889966268E+02  0.62500000000E+02  0.47000000000E+01 0. -1.
         -5    1    1    0    0  501 -0.10768717907E+02  0.56546124769E+02  0.23889966268E+02  0.62500000000E+02  0.47000000000E+01 0. -1.
</event>
<event>
 3    0  0.4603569E-005  0.9118800E+02  0.7546771E-02  0.1235069E+00
         25   -1    0    0    0    0  0.00000000000E+00  0.00000000000E+00  0.99999998245E-14  0.12500000000E+03  0.12500000000E+03 0.  0.
          5    1    1    0  501    0  0.46911442495E+02  0.24411590311E+02  0.32978035440E+02  0.62500000000E+02  0.47000000000E+01 0.  1.
         -5    1    1    0    0  501 -0.46911442495E+02 -0.24411590311E+02 -0.32978035440E+02  0.62500000000E+02  0.47000000000E+01 0.  1.
</event>
<event>
 3    0  0.4603569E-005  0.9118800E+02  0.7546771E-02  0.1235069E+00
         25   -1    0    0    0    0  0.00000000000E+00  0.00000000000E+00  0.99999998245E-14  0.12500000000E+03  0.12500000000E+03 0.  0.
          5    1    1    0  501    0  0.49117099369E+02  0.37659103444E+02 -0.73118039758E+01  0.62500000000E+02  0.47000000000E+01 0.  1.
         -5    1    1    0    0  501 -0.49117099369E+02 -0.37659103444E+02  0.73118039758E+01  0.62500000000E+02  0.47000000000E+01 0.  1.
</event>
<event>
 3    0  0.4603569E-005  0.9118800E+02  0.7546771E-02  0.1235069E+00
         25   -1    0    0    0    0  0.00000000000E+00  0.00000000000E+00  0.99999998245E-14  0.12500000000E+03  0.12500000000E+03 0.  0.
          5    1    1    0  501    0  0.27944867850E+02  0.55036512160E+02 -0.86154912870E+01  0.62500000000E+02  0.47000000000E+01 0.  1.
         -5    1    1    0    0  501 -0.27944867850E+02 -0.55036512160E+02  0.86154912870E+01  0.62500000000E+02  0.47000000000E+01 0.  1.
</event>
<event>
 3    0  0.4603569E-005  0.9118800E+02  0.7546771E-02  0.1235069E+00
         25   -1    0    0    0    0  0.00000000000E+00  0.00000000000E+00  0.99999998245E-14  0.12500000000E+03  0.12500000000E+03 0.  0.
          5    1    1    0  501    0 -0.21374221819E+02 -0.43966837308E+02 -0.38655140134E+02  0.62500000000E+02  0.47000000000E+01 0.  1.
         -5    1    1    0    0  501  0.21374221819E+02  0.43966837308E+02  0.38655140134E+02  0.62500000000E+02  0.47000000000E+01 0.  1.
</event>
<event>
 3    0  0.4603569E-005  0.9118800E+02  0.7546771E-02  0.1235069E+00
         25   -1    0    0    0    0  0.00000000000E+00  0.00000000000E+00  0.99999998245E-14  0.12500000000E+03  0.12500000000E+03 0.  0.
          5    1    1    0  501    0  0.16792168779E+02  0.32669944377E+02  0.50347371352E+02  0.62500000000E+02  0.47000000000E+01 0.  1.
         -5    1    1    0    0  501 -0.16792168779E+02 -0.32669944377E+02 -0.50347371352E+02  0.62500000000E+02  0.47000000000E+01 0.  1.
</event>
<event>
 3    0  0.4603569E-005  0.9118800E+02  0.7546771E-02  0.1235069E+00
         25   -1    0    0    0    0  0.00000000000E+00  0.00000000000E+00  0.99999998245E-14  0.12500000000E+03  0.12500000000E+03 0.  0.
          5    1    1    0  501    0  0.20334244737E+02  0.40799317865E+02  0.42498166463E+02  0.62500000000E+02  0.47000000000E+01 0. -1.
         -5    1    1    0    0  501 -0.20334244737E+02 -0.40799317865E+02 -0.42498166463E+02  0.62500000000E+02  0.47000000000E+01 0. -1.
</event>
<event>
 3    0  0.4603569E-005  0.9118800E+02  0.7546771E-02  0.1235069E+00
         25   -1    0    0    0    0  0.00000000000E+00  0.00000000000E+00  0.99999998245E-14  0.12500000000E+03  0.12500000000E+03 0.  0.
          5    1    1    0  501    0 -0.16000162914E+02 -0.37936664383E+02  0.46786368551E+02  0.62500000000E+02  0.47000000000E+01 0. -1.
         -5    1    1    0    0  501  0.16000162914E+02  0.37936664383E+02 -0.46786368551E+02  0.62500000000E+02  0.47000000000E+01 0. -1.
</event>
<event>
 3    0  0.4603569E-005  0.9118800E+02  0.7546771E-02  0.1235069E+00
         25   -1    0    0    0    0  0.00000000000E+00  0.00000000000E+00  0.99999998245E-14  0.12500000000E+03  0.12500000000E+03 0.  0.
          5    1    1    0  501    0 -0.23042793932E+02  0.44297154080E+01 -0.57737052827E+02  0.62500000000E+02  0.47000000000E+01 0.  1.
         -5    1    1    0    0  501  0.23042793932E+02 -0.44297154080E+01  0.57737052827E+02  0.62500000000E+02  0.47000000000E+01 0.  1.
</event>
<event>
 3    0  0.4603569E-005  0.9118800E+02  0.7546771E-02  0.1235069E+00
         25   -1    0    0    0    0  0.00000000000E+00  0.00000000000E+00  0.99999998245E-14  0.12500000000E+03  0.12500000000E+03 0.  0.
          5    1    1    0  501    0  0.21655853143E+02 -0.53556531209E+02  0.23385508108E+02  0.62500000000E+02  0.47000000000E+01 0.  1.
         -5    1    1    0    0  501 -0.21655853143E+02  0.53556531209E+02 -0.23385508108E+02  0.62500000000E+02  0.47000000000E+01 0.  1.
</event>
<event>
 3    0  0.4603569E-005  0.9118800E+02  0.7546771E-02  0.1235069E+00
         25   -1    0    0    0    0  0.00000000000E+00  0.00000000000E+00  0.99999998245E-14  0.12500000000E+03  0.12500000000E+03 0.  0.
          5    1    1    0  501    0  0.17707441093E+02 -0.58623762706E+02 -0.11569830427E+02  0.62500000000E+02  0.47000000000E+01 0. -1.
         -5    1    1    0    0  501 -0.17707441093E+02  0.58623762706E+02  0.11569830427E+02  0.62500000000E+02  0.47000000000E+01 0. -1.
</event>
<event>
 3    0  0.4603569E-005  0.9118800E+02  0.7546771E-02  0.1235069E+00
         25   -1    0    0    0    0  0.00000000000E+00  0.00000000000E+00  0.99999998245E-14  0.12500000000E+03  0.12500000000E+03 0.  0.
          5    1    1    0  501    0 -0.38287992815E+02  0.17045692007E+02 -0.46126283074E+02  0.62500000000E+02  0.47000000000E+01 0. -1.
         -5    1    1    0    0  501  0.38287992815E+02 -0.17045692007E+02  0.46126283074E+02  0.62500000000E+02  0.47000000000E+01 0. -1.
</event>
<event>
 3    0  0.4603569E-005  0.9118800E+02  0.7546771E-02  0.1235069E+00
         25   -1    0    0    0    0  0.00000000000E+00  0.00000000000E+00  0.99999998245E-14  0.12500000000E+03  0.12500000000E+03 0.  0.
          5    1    1    0  501    0  0.46871352031E+02 -0.61869249003E+01  0.40607367793E+02  0.62500000000E+02  0.47000000000E+01 0.  1.
         -5    1    1    0    0  501 -0.46871352031E+02  0.61869249003E+01 -0.40607367793E+02  0.62500000000E+02  0.47000000000E+01 0.  1.
</event>
<event>
 3    0  0.4603569E-005  0.9118800E+02  0.7546771E-02  0.1235069E+00
         25   -1    0    0    0    0  0.00000000000E+00  0.00000000000E+00  0.99999998245E-14  0.12500000000E+03  0.12500000000E+03 0.  0.
          5    1    1    0  501    0 -0.35742188038E+02  0.39241311241E+02  0.32661529148E+02  0.62500000000E+02  0.47000000000E+01 0.  1.
         -5    1    1    0    0  501  0.35742188038E+02 -0.39241311241E+02 -0.32661529148E+02  0.62500000000E+02  0.47000000000E+01 0.  1.
</event>
<event>
 3    0  0.4603569E-005  0.9118800E+02  0.7546771E-02  0.1235069E+00
         25   -1    0    0    0    0  0.00000000000E+00  0.00000000000E+00  0.99999998245E-14  0.12500000000E+03  0.12500000000E+03 0.  0.
          5    1    1    0  501    0  0.41635003401E+00  0.49372229645E+02 -0.38031166069E+02  0.62500000000E+02  0.47000000000E+01 0. -1.
         -5    1    1    0    0  501 -0.41635003401E+00 -0.49372229645E+02  0.38031166069E+02  0.62500000000E+02  0.47000000000E+01 0. -1.
</event>
<event>
 3    0  0.4603569E-005  0.9118800E+02  0.7546771E-02  0.1235069E+00
         25   -1    0    0    0    0  0.00000000000E+00  0.00000000000E+00  0.99999998245E-14  0.12500000000E+03  0.12500000000E+03 0.  0.
          5    1    1    0  501    0  0.31412456406E+02 -0.44249629132E+02 -0.30649435627E+02  0.62500000000E+02  0.47000000000E+01 0. -1.
         -5    1    1    0    0  501 -0.31412456406E+02  0.44249629132E+02  0.30649435627E+02  0.62500000000E+02  0.47000000000E+01 0. -1.
</event>
<event>
 3    0  0.4603569E-005  0.9118800E+02  0.7546771E-02  0.1235069E+00
         25   -1    0    0    0    0  0.00000000000E+00  0.00000000000E+00  0.99999998245E-14  0.12500000000E+03  0.12500000000E+03 0.  0.
          5    1    1    0  501    0  0.56193117469E+02  0.26922952476E+02 -0.12838142721E+01  0.62500000000E+02  0.47000000000E+01 0.  1.
         -5    1    1    0    0  501 -0.56193117469E+02 -0.26922952476E+02  0.12838142721E+01  0.62500000000E+02  0.47000000000E+01 0.  1.
</event>
<event>
 3    0  0.4603569E-005  0.9118800E+02  0.7546771E-02  0.1235069E+00
         25   -1    0    0    0    0  0.00000000000E+00  0.00000000000E+00  0.99999998245E-14  0.12500000000E+03  0.12500000000E+03 0.  0.
          5    1    1    0  501    0 -0.54053071300E+02 -0.29806152864E+02 -0.86034141210E+01  0.62500000000E+02  0.47000000000E+01 0.  1.
         -5    1    1    0    0  501  0.54053071300E+02  0.29806152864E+02  0.86034141210E+01  0.62500000000E+02  0.47000000000E+01 0.  1.
</event>
<event>
 3    0  0.4603569E-005  0.9118800E+02  0.7546771E-02  0.1235069E+00
         25   -1    0    0    0    0  0.00000000000E+00  0.00000000000E+00  0.99999998245E-14  0.12500000000E+03  0.12500000000E+03 0.  0.
          5    1    1    0  501    0  0.48224790391E+02  0.42334323354E+01  0.39250575058E+02  0.62500000000E+02  0.47000000000E+01 0.  1.
         -5    1    1    0    0  501 -0.48224790391E+02 -0.42334323354E+01 -0.39250575058E+02  0.62500000000E+02  0.47000000000E+01 0.  1.
</event>
<event>
 3    0  0.4603569E-005  0.9118800E+02  0.7546771E-02  0.1235069E+00
         25   -1    0    0    0    0  0.00000000000E+00  0.00000000000E+00  0.99999998245E-14  0.12500000000E+03  0.12500000000E+03 0.  0.
          5    1    1    0  501    0  0.26926253898E+01  0.61240136503E+02 -0.11249686646E+02  0.62500000000E+02  0.47000000000E+01 0. -1.
         -5    1    1    0    0  501 -0.26926253898E+01 -0.61240136503E+02  0.11249686646E+02  0.62500000000E+02  0.47000000000E+01 0. -1.
</event>
<event>
 3    0  0.4603569E-005  0.9118800E+02  0.7546771E-02  0.1235069E+00
         25   -1    0    0    0    0  0.00000000000E+00  0.00000000000E+00  0.99999998245E-14  0.12500000000E+03  0.12500000000E+03 0.  0.
          5    1    1    0  501    0 -0.48612659868E+02  0.70143133791E+01  0.38363637841E+02  0.62500000000E+02  0.47000000000E+01 0. -1.
         -5    1    1    0    0  501  0.48612659868E+02 -0.70143133791E+01 -0.38363637841E+02  0.62500000000E+02  0.47000000000E+01 0. -1.
</event>
<event>
 3    0  0.4603569E-005  0.9118800E+02  0.7546771E-02  0.1235069E+00
         25   -1    0    0    0    0  0.00000000000E+00  0.00000000000E+00  0.99999998245E-14  0.12500000000E+03  0.12500000000E+03 0.  0.
          5    1    1    0  501    0  0.35008086413E+02  0.48346638944E+02  0.17921952699E+02  0.62500000000E+02  0.47000000000E+01 0. -1.
         -5    1    1    0    0  501 -0.35008086413E+02 -0.48346638944E+02 -0.17921952699E+02  0.62500000000E+02  0.47000000000E+01 0. -1.
</event>
<event>
 3    0  0.4603569E-005  0.9118800E+02  0.7546771E-02  0.1235069E+00
         25   -1    0    0    0    0  0.00000000000E+00  0.00000000000E+00  0.99999998245E-14  0.12500000000E+03  0.12500000000E+03 0.  0.
          5    1    1    0  501    0 -0.12287497647E+01 -0.36966987684E+02 -0.50160661833E+02  0.62500000000E+02  0.47000000000E+01 0.  1.
         -5    1    1    0    0  501  0.12287497647E+01  0.36966987684E+02  0.50160661833E+02  0.62500000000E+02  0.47000000000E+01 0.  1.
</event>
<event>
 3    0  0.4603569E-005  0.9118800E+02  0.7546771E-02  0.1235069E+00
         25   -1    0    0    0    0  0.00000000000E+00  0.00000000000E+00  0.99999998245E-14  0.12500000000E+03  0.12500000000E+03 0.  0.
          5    1    1    0  501    0 -0.11682191599E+02 -0.57184838869E+02  0.21853617617E+02  0.62500000000E+02  0.47000000000E+01 0. -1.
         -5    1    1    0    0  501  0.11682191599E+02  0.57184838869E+02 -0.21853617617E+02  0.62500000000E+02  0.47000000000E+01 0. -1.
</event>
<event>
 3    0  0.4603569E-005  0.9118800E+02  0.7546771E-02  0.1235069E+00
         25   -1    0    0    0    0  0.00000000000E+00  0.00000000000E+00  0.99999998245E-14  0.12500000000E+03  0.12500000000E+03 0.  0.
          5    1    1    0  501    0 -0.58459816075E+02 -0.10535371931E+02  0.18857779369E+02  0.62500000000E+02  0.47000000000E+01 0. -1.
         -5    1    1    0    0  501  0.58459816075E+02  0.10535371931E+02 -0.18857779369E+02  0.62500000000E+02  0.47000000000E+01 0. -1.
</event>
<event>
 3    0  0.4603569E-005  0.9118800E+02  0.7546771E-02  0.1235069E+00
         25   -1    0    0    0    0  0.00000000000E+00  0.00000000000E+00  0.99999998245E-14  0.12500000000E+03  0.12500000000E+03 0.  0.
          5    1    1    0  501    0  0.21781492629E+02 -0.52769147355E+02 -0.25002873160E+02  0.62500000000E+02  0.47000000000E+01 0. -1.
         -5    1    1    0    0  501 -0.21781492629E+02  0.52769147355E+02  0.25002873160E+02  0.62500000000E+02  0.47000000000E+01 0. -1.
</event>
<event>
 3    0  0.4603569E-005  0.9118800E+02  0.7546771E-02  0.1235069E+00
         25   -1    0    0    0    0  0.00000000000E+00  0.00000000000E+00  0.99999998245E-14  0.12500000000E+03  0.12500000000E+03 0.  0.
          5    1    1    0  501    0  0.54728495012E+02 -0.23325604341E+02 -0.18570622387E+02  0.62500000000E+02  0.47000000000E+01 0. -1.
         -5    1    1    0    0  501 -0.54728495012E+02  0.23325604341E+02  0.18570622387E+02  0.62500000000E+02  0.47000000000E+01 0. -1.
</event>
<event>
 3    0  0.4603569E-005  0.9118800E+02  0.7546771E-02  0.1235069E+00
         25   -1    0    0    0    0  0.00000000000E+00  0.00000000000E+00  0.99999998245E-14  0.12500000000E+03  0.12500000000E+03 0.  0.
          5    1    1    0  501    0  0.49032064910E+02  0.93243005122E+01  0.37323906959E+02  0.62500000000E+02  0.47000000000E+01 0. -1.
         -5    1    1    0    0  501 -0.49032064910E+02 -0.93243005122E+01 -0.37323906959E+02  0.62500000000E+02  0.47000000000E+01 0. -1.
</event>
<event>
 3    0  0.4603569E-005  0.9118800E+02  0.7546771E-02  0.1235069E+00
         25   -1    0    0    0    0  0.00000000000E+00  0.00000000000E+00  0.99999998245E-14  0.12500000000E+03  0.12500000000E+03 0.  0.
          5    1    1    0  501    0 -0.29172849300E+02  0.18441158815E+02  0.51894397821E+02  0.62500000000E+02  0.47000000000E+01 0. -1.
         -5    1    1    0    0  501  0.29172849300E+02 -0.18441158815E+02 -0.51894397821E+02  0.62500000000E+02  0.47000000000E+01 0. -1.
</event>
<event>
 3    0  0.4603569E-005  0.9118800E+02  0.7546771E-02  0.1235069E+00
         25   -1    0    0    0    0  0.00000000000E+00  0.00000000000E+00  0.99999998245E-14  0.12500000000E+03  0.12500000000E+03 0.  0.
          5    1    1    0  501    0 -0.54560466776E+02 -0.25952083800E+02 -0.15290677280E+02  0.62500000000E+02  0.47000000000E+01 0. -1.
         -5    1    1    0    0  501  0.54560466776E+02  0.25952083800E+02  0.15290677280E+02  0.62500000000E+02  0.47000000000E+01 0. -1.
</event>
<event>
 3    0  0.4603569E-005  0.9118800E+02  0.7546771E-02  0.1235069E+00
         25   -1    0    0    0    0  0.00000000000E+00  0.00000000000E+00  0.99999998245E-14  0.12500000000E+03  0.12500000000E+03 0.  0.
          5    1    1    0  501    0  0.10714141973E+02  0.31709087072E+02  0.52572815778E+02  0.62500000000E+02  0.47000000000E+01 0. -1.
         -5    1    1    0    0  501 -0.10714141973E+02 -0.31709087072E+02 -0.52572815778E+02  0.62500000000E+02  0.47000000000E+01 0. -1.
</event>
<event>
 3    0  0.4603569E-005  0.9118800E+02  0.7546771E-02  0.1235069E+00
         25   -1    0    0    0    0  0.00000000000E+00  0.00000000000E+00  0.99999998245E-14  0.12500000000E+03  0.12500000000E+03 0.  0.
          5    1    1    0  501    0  0.26697132739E+02  0.42001393313E+01 -0.56158542833E+02  0.62500000000E+02  0.47000000000E+01 0.  1.
         -5    1    1    0    0  501 -0.26697132739E+02 -0.42001393313E+01  0.56158542833E+02  0.62500000000E+02  0.47000000000E+01 0.  1.
</event>
<event>
 3    0  0.4603569E-005  0.9118800E+02  0.7546771E-02  0.1235069E+00
         25   -1    0    0    0    0  0.00000000000E+00  0.00000000000E+00  0.99999998245E-14  0.12500000000E+03  0.12500000000E+03 0.  0.
          5    1    1    0  501    0  0.11033089683E+02 -0.33627996639E+02 -0.51299013383E+02  0.62500000000E+02  0.47000000000E+01 0. -1.
         -5    1    1    0    0  501 -0.11033089683E+02  0.33627996639E+02  0.51299013383E+02  0.62500000000E+02  0.47000000000E+01 0. -1.
</event>
<event>
 3    0  0.4603569E-005  0.9118800E+02  0.7546771E-02  0.1235069E+00
         25   -1    0    0    0    0  0.00000000000E+00  0.00000000000E+00  0.99999998245E-14  0.12500000000E+03  0.12500000000E+03 0.  0.
          5    1    1    0  501    0 -0.46163896189E+02 -0.26929416722E+02 -0.32060274541E+02  0.62500000000E+02  0.47000000000E+01 0.  1.
         -5    1    1    0    0  501  0.46163896189E+02  0.26929416722E+02  0.32060274541E+02  0.62500000000E+02  0.47000000000E+01 0.  1.
</event>
<event>
 3    0  0.4603569E-005  0.9118800E+02  0.7546771E-02  0.1235069E+00
         25   -1    0    0    0    0  0.00000000000E+00  0.00000000000E+00  0.99999998245E-14  0.12500000000E+03  0.12500000000E+03 0.  0.
          5    1    1    0  501    0 -0.94027629464E+01 -0.46697205626E+02 -0.40188543588E+02  0.62500000000E+02  0.47000000000E+01 0. -1.
         -5    1    1    0    0  501  0.94027629464E+01  0.46697205626E+02  0.40188543588E+02  0.62500000000E+02  0.47000000000E+01 0. -1.
</event>
<event>
 3    0  0.4603569E-005  0.9118800E+02  0.7546771E-02  0.1235069E+00
         25   -1    0    0    0    0  0.00000000000E+00  0.00000000000E+00  0.99999998245E-14  0.12500000000E+03  0.12500000000E+03 0.  0.
          5    1    1    0  501    0  0.55269226092E+02  0.28780063563E+02  0.10865488951E+01  0.62500000000E+02  0.47000000000E+01 0.  1.
         -5    1    1    0    0  501 -0.55269226092E+02 -0.28780063563E+02 -0.10865488951E+01  0.62500000000E+02  0.47000000000E+01 0.  1.
</event>
<event>
 3    0  0.4603569E-005  0.9118800E+02  0.7546771E-02  0.1235069E+00
         25   -1    0    0    0    0  0.00000000000E+00  0.00000000000E+00  0.99999998245E-14  0.12500000000E+03  0.12500000000E+03 0.  0.
          5    1    1    0  501    0 -0.57329744213E+02 -0.16265950630E+02 -0.18244979546E+02  0.62500000000E+02  0.47000000000E+01 0. -1.
         -5    1    1    0    0  501  0.57329744213E+02  0.16265950630E+02  0.18244979546E+02  0.62500000000E+02  0.47000000000E+01 0. -1.
</event>
<event>
 3    0  0.4603569E-005  0.9118800E+02  0.7546771E-02  0.1235069E+00
         25   -1    0    0    0    0  0.00000000000E+00  0.00000000000E+00  0.99999998245E-14  0.12500000000E+03  0.12500000000E+03 0.  0.
          5    1    1    0  501    0 -0.36811363998E+02  0.11059239442E+02 -0.49058910542E+02  0.62500000000E+02  0.47000000000E+01 0. -1.
         -5    1    1    0    0  501  0.36811363998E+02 -0.11059239442E+02  0.49058910542E+02  0.62500000000E+02  0.47000000000E+01 0. -1.
</event>
<event>
 3    0  0.4603569E-005  0.9118800E+02  0.7546771E-02  0.1235069E+00
         25   -1    0    0    0    0  0.00000000000E+00  0.00000000000E+00  0.99999998245E-14  0.12500000000E+03  0.12500000000E+03 0.  0.
          5    1    1    0  501    0  0.56894483314E+02 -0.16965405036E+02  0.18956603081E+02  0.62500000000E+02  0.47000000000E+01 0. -1.
         -5    1    1    0    0  501 -0.56894483314E+02  0.16965405036E+02 -0.18956603081E+02  0.62500000000E+02  0.47000000000E+01 0. -1.
</event>
<event>
 3    0  0.4603569E-005  0.9118800E+02  0.7546771E-02  0.1235069E+00
         25   -1    0    0    0    0  0.00000000000E+00  0.00000000000E+00  0.99999998245E-14  0.12500000000E+03  0.12500000000E+03 0.  0.
          5    1    1    0  501    0  0.50619654737E+02  0.34551372394E+02  0.11314292732E+02  0.62500000000E+02  0.47000000000E+01 0.  1.
         -5    1    1    0    0  501 -0.50619654737E+02 -0.34551372394E+02 -0.11314292732E+02  0.62500000000E+02  0.47000000000E+01 0.  1.
</event>
<event>
 3    0  0.4603569E-005  0.9118800E+02  0.7546771E-02  0.1235069E+00
         25   -1    0    0    0    0  0.00000000000E+00  0.00000000000E+00  0.99999998245E-14  0.12500000000E+03  0.12500000000E+03 0.  0.
          5    1    1    0  501    0 -0.13716995100E+02 -0.25768262909E+02 -0.55063605694E+02  0.62500000000E+02  0.47000000000E+01 0.  1.
         -5    1    1    0    0  501  0.13716995100E+02  0.25768262909E+02  0.55063605694E+02  0.62500000000E+02  0.47000000000E+01 0.  1.
</event>
<event>
 3    0  0.4603569E-005  0.9118800E+02  0.7546771E-02  0.1235069E+00
         25   -1    0    0    0    0  0.00000000000E+00  0.00000000000E+00  0.99999998245E-14  0.12500000000E+03  0.12500000000E+03 0.  0.
          5    1    1    0  501    0  0.25164458104E+02  0.55453539199E+02  0.13259526335E+02  0.62500000000E+02  0.47000000000E+01 0. -1.
         -5    1    1    0    0  501 -0.25164458104E+02 -0.55453539199E+02 -0.13259526335E+02  0.62500000000E+02  0.47000000000E+01 0. -1.
</event>
<event>
 3    0  0.4603569E-005  0.9118800E+02  0.7546771E-02  0.1235069E+00
         25   -1    0    0    0    0  0.00000000000E+00  0.00000000000E+00  0.99999998245E-14  0.12500000000E+03  0.12500000000E+03 0.  0.
          5    1    1    0  501    0  0.16912099045E+02 -0.31394637051E+02 -0.51112793607E+02  0.62500000000E+02  0.47000000000E+01 0. -1.
         -5    1    1    0    0  501 -0.16912099045E+02  0.31394637051E+02  0.51112793607E+02  0.62500000000E+02  0.47000000000E+01 0. -1.
</event>
<event>
 3    0  0.4603569E-005  0.9118800E+02  0.7546771E-02  0.1235069E+00
         25   -1    0    0    0    0  0.00000000000E+00  0.00000000000E+00  0.99999998245E-14  0.12500000000E+03  0.12500000000E+03 0.  0.
          5    1    1    0  501    0  0.22040874296E+02  0.19195561940E+02  0.55044438975E+02  0.62500000000E+02  0.47000000000E+01 0.  1.
         -5    1    1    0    0  501 -0.22040874296E+02 -0.19195561940E+02 -0.55044438975E+02  0.62500000000E+02  0.47000000000E+01 0.  1.
</event>
<event>
 3    0  0.4603569E-005  0.9118800E+02  0.7546771E-02  0.1235069E+00
         25   -1    0    0    0    0  0.00000000000E+00  0.00000000000E+00  0.99999998245E-14  0.12500000000E+03  0.12500000000E+03 0.  0.
          5    1    1    0  501    0 -0.42180311821E+02 -0.45345614227E+02  0.69825901374E+01  0.62500000000E+02  0.47000000000E+01 0.  1.
         -5    1    1    0    0  501  0.42180311821E+02  0.45345614227E+02 -0.69825901374E+01  0.62500000000E+02  0.47000000000E+01 0.  1.
</event>
<event>
 3    0  0.4603569E-005  0.9118800E+02  0.7546771E-02  0.1235069E+00
         25   -1    0    0    0    0  0.00000000000E+00  0.00000000000E+00  0.99999998245E-14  0.12500000000E+03  0.12500000000E+03 0.  0.
          5    1    1    0  501    0 -0.42485515969E+02  0.23096661494E+02 -0.39315202667E+02  0.62500000000E+02  0.47000000000E+01 0. -1.
         -5    1    1    0    0  501  0.42485515969E+02 -0.23096661494E+02  0.39315202667E+02  0.62500000000E+02  0.47000000000E+01 0. -1.
</event>
<event>
 3    0  0.4603569E-005  0.9118800E+02  0.7546771E-02  0.1235069E+00
         25   -1    0    0    0    0  0.00000000000E+00  0.00000000000E+00  0.99999998245E-14  0.12500000000E+03  0.12500000000E+03 0.  0.
          5    1    1    0  501    0 -0.93629830337E+00 -0.38508498478E+02 -0.48993661738E+02  0.62500000000E+02  0.47000000000E+01 0. -1.
         -5    1    1    0    0  501  0.93629830337E+00  0.38508498478E+02  0.48993661738E+02  0.62500000000E+02  0.47000000000E+01 0. -1.
</event>
<event>
 3    0  0.4603569E-005  0.9118800E+02  0.7546771E-02  0.1235069E+00
         25   -1    0    0    0    0  0.00000000000E+00  0.00000000000E+00  0.99999998245E-14  0.12500000000E+03  0.12500000000E+03 0.  0.
          5    1    1    0  501    0 -0.58600736217E+02 -0.15292704322E+02  0.14705336086E+02  0.62500000000E+02  0.47000000000E+01 0.  1.
         -5    1    1    0    0  501  0.58600736217E+02  0.15292704322E+02 -0.14705336086E+02  0.62500000000E+02  0.47000000000E+01 0.  1.
</event>
<event>
 3    0  0.4603569E-005  0.9118800E+02  0.7546771E-02  0.1235069E+00
         25   -1    0    0    0    0  0.00000000000E+00  0.00000000000E+00  0.99999998245E-14  0.12500000000E+03  0.12500000000E+03 0.  0.
          5    1    1    0  501    0  0.40286696597E+02 -0.32726646304E+02 -0.34497952099E+02  0.62500000000E+02  0.47000000000E+01 0. -1.
         -5    1    1    0    0  501 -0.40286696597E+02  0.32726646304E+02  0.34497952099E+02  0.62500000000E+02  0.47000000000E+01 0. -1.
</event>
<event>
 3    0  0.4603569E-005  0.9118800E+02  0.7546771E-02  0.1235069E+00
         25   -1    0    0    0    0  0.00000000000E+00  0.00000000000E+00  0.99999998245E-14  0.12500000000E+03  0.12500000000E+03 0.  0.
          5    1    1    0  501    0 -0.54073771576E+02  0.26194773895E+02 -0.16553581127E+02  0.62500000000E+02  0.47000000000E+01 0. -1.
         -5    1    1    0    0  501  0.54073771576E+02 -0.26194773895E+02  0.16553581127E+02  0.62500000000E+02  0.47000000000E+01 0. -1.
</event>
<event>
 3    0  0.4603569E-005  0.9118800E+02  0.7546771E-02  0.1235069E+00
         25   -1    0    0    0    0  0.00000000000E+00  0.00000000000E+00  0.99999998245E-14  0.12500000000E+03  0.12500000000E+03 0.  0.
          5    1    1    0  501    0 -0.87235760345E+01 -0.55046909728E+02  0.27890804051E+02  0.62500000000E+02  0.47000000000E+01 0. -1.
         -5    1    1    0    0  501  0.87235760345E+01  0.55046909728E+02 -0.27890804051E+02  0.62500000000E+02  0.47000000000E+01 0. -1.
</event>
<event>
 3    0  0.4603569E-005  0.9118800E+02  0.7546771E-02  0.1235069E+00
         25   -1    0    0    0    0  0.00000000000E+00  0.00000000000E+00  0.99999998245E-14  0.12500000000E+03  0.12500000000E+03 0.  0.
          5    1    1    0  501    0 -0.21095862138E+02 -0.79535027308E+01 -0.58102206455E+02  0.62500000000E+02  0.47000000000E+01 0. -1.
         -5    1    1    0    0  501  0.21095862138E+02  0.79535027308E+01  0.58102206455E+02  0.62500000000E+02  0.47000000000E+01 0. -1.
</event>
<event>
 3    0  0.4603569E-005  0.9118800E+02  0.7546771E-02  0.1235069E+00
         25   -1    0    0    0    0  0.00000000000E+00  0.00000000000E+00  0.99999998245E-14  0.12500000000E+03  0.12500000000E+03 0.  0.
          5    1    1    0  501    0 -0.49269739237E+02 -0.35309408342E+02 -0.14487873482E+02  0.62500000000E+02  0.47000000000E+01 0. -1.
         -5    1    1    0    0  501  0.49269739237E+02  0.35309408342E+02  0.14487873482E+02  0.62500000000E+02  0.47000000000E+01 0. -1.
</event>
<event>
 3    0  0.4603569E-005  0.9118800E+02  0.7546771E-02  0.1235069E+00
         25   -1    0    0    0    0  0.00000000000E+00  0.00000000000E+00  0.99999998245E-14  0.12500000000E+03  0.12500000000E+03 0.  0.
          5    1    1    0  501    0  0.53195184804E+02  0.30669289989E+02 -0.10668972080E+02  0.62500000000E+02  0.47000000000E+01 0. -1.
         -5    1    1    0    0  501 -0.53195184804E+02 -0.30669289989E+02  0.10668972080E+02  0.62500000000E+02  0.47000000000E+01 0. -1.
</event>
<event>
 3    0  0.4603569E-005  0.9118800E+02  0.7546771E-02  0.1235069E+00
         25   -1    0    0    0    0  0.00000000000E+00  0.00000000000E+00  0.99999998245E-14  0.12500000000E+03  0.12500000000E+03 0.  0.
          5    1    1    0  501    0 -0.15547502605E+02 -0.28510708515E+02  0.53193746463E+02  0.62500000000E+02  0.47000000000E+01 0.  1.
         -5    1    1    0    0  501  0.15547502605E+02  0.28510708515E+02 -0.53193746463E+02  0.62500000000E+02  0.47000000000E+01 0.  1.
</event>
<event>
 3    0  0.4603569E-005  0.9118800E+02  0.7546771E-02  0.1235069E+00
         25   -1    0    0    0    0  0.00000000000E+00  0.00000000000E+00  0.99999998245E-14  0.12500000000E+03  0.12500000000E+03 0.  0.
          5    1    1    0  501    0  0.43916068774E+02  0.44193712496E+02  0.15667416019E+01  0.62500000000E+02  0.47000000000E+01 0. -1.
         -5    1    1    0    0  501 -0.43916068774E+02 -0.44193712496E+02 -0.15667416019E+01  0.62500000000E+02  0.47000000000E+01 0. -1.
</event>
<event>
 3    0  0.4603569E-005  0.9118800E+02  0.7546771E-02  0.1235069E+00
         25   -1    0    0    0    0  0.00000000000E+00  0.00000000000E+00  0.99999998245E-14  0.12500000000E+03  0.12500000000E+03 0.  0.
          5    1    1    0  501    0  0.55985918744E+02  0.27372048820E+02  0.71263295994E+00  0.62500000000E+02  0.47000000000E+01 0. -1.
         -5    1    1    0    0  501 -0.55985918744E+02 -0.27372048820E+02 -0.71263295994E+00  0.62500000000E+02  0.47000000000E+01 0. -1.
</event>
<event>
 3    0  0.4603569E-005  0.9118800E+02  0.7546771E-02  0.1235069E+00
         25   -1    0    0    0    0  0.00000000000E+00  0.00000000000E+00  0.99999998245E-14  0.12500000000E+03  0.12500000000E+03 0.  0.
          5    1    1    0  501    0  0.19177605343E+02  0.42375536427E+02  0.41481241132E+02  0.62500000000E+02  0.47000000000E+01 0.  1.
         -5    1    1    0    0  501 -0.19177605343E+02 -0.42375536427E+02 -0.41481241132E+02  0.62500000000E+02  0.47000000000E+01 0.  1.
</event>
<event>
 3    0  0.4603569E-005  0.9118800E+02  0.7546771E-02  0.1235069E+00
         25   -1    0    0    0    0  0.00000000000E+00  0.00000000000E+00  0.99999998245E-14  0.12500000000E+03  0.12500000000E+03 0.  0.
          5    1    1    0  501    0  0.34703347817E+02 -0.26461980210E+02  0.44492710118E+02  0.62500000000E+02  0.47000000000E+01 0.  1.
         -5    1    1    0    0  501 -0.34703347817E+02  0.26461980210E+02 -0.44492710118E+02  0.62500000000E+02  0.47000000000E+01 0.  1.
</event>
<event>
 3    0  0.4603569E-005  0.9118800E+02  0.7546771E-02  0.1235069E+00
         25   -1    0    0    0    0  0.00000000000E+00  0.00000000000E+00  0.99999998245E-14  0.12500000000E+03  0.12500000000E+03 0.  0.
          5    1    1    0  501    0  0.59283259392E+02 -0.40969333024E+01  0.18784842118E+02  0.62500000000E+02  0.47000000000E+01 0. -1.
         -5    1    1    0    0  501 -0.59283259392E+02  0.40969333024E+01 -0.18784842118E+02  0.62500000000E+02  0.47000000000E+01 0. -1.
</event>
<event>
 3    0  0.4603569E-005  0.9118800E+02  0.7546771E-02  0.1235069E+00
         25   -1    0    0    0    0  0.00000000000E+00  0.00000000000E+00  0.99999998245E-14  0.12500000000E+03  0.12500000000E+03 0.  0.
          5    1    1    0  501    0  0.96569236531E+01 -0.36264597056E+02  0.49757238930E+02  0.62500000000E+02  0.47000000000E+01 0. -1.
         -5    1    1    0    0  501 -0.96569236531E+01  0.36264597056E+02 -0.49757238930E+02  0.62500000000E+02  0.47000000000E+01 0. -1.
</event>
<event>
 3    0  0.4603569E-005  0.9118800E+02  0.7546771E-02  0.1235069E+00
         25   -1    0    0    0    0  0.00000000000E+00  0.00000000000E+00  0.99999998245E-14  0.12500000000E+03  0.12500000000E+03 0.  0.
          5    1    1    0  501    0  0.58398246290E+02 -0.18888989449E+01  0.21684946185E+02  0.62500000000E+02  0.47000000000E+01 0.  1.
         -5    1    1    0    0  501 -0.58398246290E+02  0.18888989449E+01 -0.21684946185E+02  0.62500000000E+02  0.47000000000E+01 0.  1.
</event>
<event>
 3    0  0.4603569E-005  0.9118800E+02  0.7546771E-02  0.1235069E+00
         25   -1    0    0    0    0  0.00000000000E+00  0.00000000000E+00  0.99999998245E-14  0.12500000000E+03  0.12500000000E+03 0.  0.
          5    1    1    0  501    0  0.40213221360E+02 -0.46688219896E+02 -0.93416781552E+01  0.62500000000E+02  0.47000000000E+01 0. -1.
         -5    1    1    0    0  501 -0.40213221360E+02  0.46688219896E+02  0.93416781552E+01  0.62500000000E+02  0.47000000000E+01 0. -1.
</event>
<event>
 3    0  0.4603569E-005  0.9118800E+02  0.7546771E-02  0.1235069E+00
         25   -1    0    0    0    0  0.00000000000E+00  0.00000000000E+00  0.99999998245E-14  0.12500000000E+03  0.12500000000E+03 0.  0.
          5    1    1    0  501    0 -0.26246675090E+02  0.10871947079E+02 -0.55471369313E+02  0.62500000000E+02  0.47000000000E+01 0.  1.
         -5    1    1    0    0  501  0.26246675090E+02 -0.10871947079E+02  0.55471369313E+02  0.62500000000E+02  0.47000000000E+01 0.  1.
</event>
<event>
 3    0  0.4603569E-005  0.9118800E+02  0.7546771E-02  0.1235069E+00
         25   -1    0    0    0    0  0.00000000000E+00  0.00000000000E+00  0.99999998245E-14  0.12500000000E+03  0.12500000000E+03 0.  0.
          5    1    1    0  501    0  0.51278909596E+01  0.58833114371E+02 -0.19913045668E+02  0.62500000000E+02  0.47000000000E+01 0.  1.
         -5    1    1    0    0  501 -0.51278909596E+01 -0.58833114371E+02  0.19913045668E+02  0.62500000000E+02  0.47000000000E+01 0.  1.
</event>
<event>
 3    0  0.4603569E-005  0.9118800E+02  0.7546771E-02  0.1235069E+00
         25   -1    0    0    0    0  0.00000000000E+00  0.00000000000E+00  0.99999998245E-14  0.12500000000E+03  0.12500000000E+03 0.  0.
          5    1    1    0  501    0  0.26648760941E+01  0.59454796056E+01  0.61981527149E+02  0.62500000000E+02  0.47000000000E+01 0. -1.
         -5    1    1    0    0  501 -0.26648760941E+01 -0.59454796056E+01 -0.61981527149E+02  0.62500000000E+02  0.47000000000E+01 0. -1.
</event>
<event>
 3    0  0.4603569E-005  0.9118800E+02  0.7546771E-02  0.1235069E+00
         25   -1    0    0    0    0  0.00000000000E+00  0.00000000000E+00  0.99999998245E-14  0.12500000000E+03  0.12500000000E+03 0.  0.
          5    1    1    0  501    0 -0.12728283961E+02  0.45141077913E+02  0.41041855127E+02  0.62500000000E+02  0.47000000000E+01 0. -1.
         -5    1    1    0    0  501  0.12728283961E+02 -0.45141077913E+02 -0.41041855127E+02  0.62500000000E+02  0.47000000000E+01 0. -1.
</event>
<event>
 3    0  0.4603569E-005  0.9118800E+02  0.7546771E-02  0.1235069E+00
         25   -1    0    0    0    0  0.00000000000E+00  0.00000000000E+00  0.99999998245E-14  0.12500000000E+03  0.12500000000E+03 0.  0.
          5    1    1    0  501    0 -0.48889576612E+01 -0.33039094945E+02 -0.52618212609E+02  0.62500000000E+02  0.47000000000E+01 0. -1.
         -5    1    1    0    0  501  0.48889576612E+01  0.33039094945E+02  0.52618212609E+02  0.62500000000E+02  0.47000000000E+01 0. -1.
</event>
<event>
 3    0  0.4603569E-005  0.9118800E+02  0.7546771E-02  0.1235069E+00
         25   -1    0    0    0    0  0.00000000000E+00  0.00000000000E+00  0.99999998245E-14  0.12500000000E+03  0.12500000000E+03 0.  0.
          5    1    1    0  501    0  0.23378289410E+02 -0.55765299496E+02 -0.15094600241E+02  0.62500000000E+02  0.47000000000E+01 0.  1.
         -5    1    1    0    0  501 -0.23378289410E+02  0.55765299496E+02  0.15094600241E+02  0.62500000000E+02  0.47000000000E+01 0.  1.
</event>
<event>
 3    0  0.4603569E-005  0.9118800E+02  0.7546771E-02  0.1235069E+00
         25   -1    0    0    0    0  0.00000000000E+00  0.00000000000E+00  0.99999998245E-14  0.12500000000E+03  0.12500000000E+03 0.  0.
          5    1    1    0  501    0  0.11376286939E+02  0.46407055245E+02 -0.40014064015E+02  0.62500000000E+02  0.47000000000E+01 0. -1.
         -5    1    1    0    0  501 -0.11376286939E+02 -0.46407055245E+02  0.40014064015E+02  0.62500000000E+02  0.47000000000E+01 0. -1.
</event>
<event>
 3    0  0.4603569E-005  0.9118800E+02  0.7546771E-02  0.1235069E+00
         25   -1    0    0    0    0  0.00000000000E+00  0.00000000000E+00  0.99999998245E-14  0.12500000000E+03  0.12500000000E+03 0.  0.
          5    1    1    0  501    0  0.16415098342E+02  0.10655229670E+02 -0.59170690609E+02  0.62500000000E+02  0.47000000000E+01 0.  1.
         -5    1    1    0    0  501 -0.16415098342E+02 -0.10655229670E+02  0.59170690609E+02  0.62500000000E+02  0.47000000000E+01 0.  1.
</event>
<event>
 3    0  0.4603569E-005  0.9118800E+02  0.7546771E-02  0.1235069E+00
         25   -1    0    0    0    0  0.00000000000E+00  0.00000000000E+00  0.99999998245E-14  0.12500000000E+03  0.12500000000E+03 0.  0.
          5    1    1    0  501    0 -0.58388049084E+02 -0.89978690655E+00 -0.21775814742E+02  0.62500000000E+02  0.47000000000E+01 0.  1.
         -5    1    1    0    0  501  0.58388049084E+02  0.89978690655E+00  0.21775814742E+02  0.62500000000E+02  0.47000000000E+01 0.  1.
</event>
<event>
 3    0  0.4603569E-005  0.9118800E+02  0.7546771E-02  0.1235069E+00
         25   -1    0    0    0    0  0.00000000000E+00  0.00000000000E+00  0.99999998245E-14  0.12500000000E+03  0.12500000000E+03 0.  0.
          5    1    1    0  501    0  0.53719536092E+02 -0.20808288021E+02 -0.23777859276E+02  0.62500000000E+02  0.47000000000E+01 0. -1.
         -5    1    1    0    0  501 -0.53719536092E+02  0.20808288021E+02  0.23777859276E+02  0.62500000000E+02  0.47000000000E+01 0. -1.
</event>
<event>
 3    0  0.4603569E-005  0.9118800E+02  0.7546771E-02  0.1235069E+00
         25   -1    0    0    0    0  0.00000000000E+00  0.00000000000E+00  0.99999998245E-14  0.12500000000E+03  0.12500000000E+03 0.  0.
          5    1    1    0  501    0 -0.11439708315E+02  0.99885253333E+01 -0.60444374720E+02  0.62500000000E+02  0.47000000000E+01 0.  1.
         -5    1    1    0    0  501  0.11439708315E+02 -0.99885253333E+01  0.60444374720E+02  0.62500000000E+02  0.47000000000E+01 0.  1.
</event>
<event>
 3    0  0.4603569E-005  0.9118800E+02  0.7546771E-02  0.1235069E+00
         25   -1    0    0    0    0  0.00000000000E+00  0.00000000000E+00  0.99999998245E-14  0.12500000000E+03  0.12500000000E+03 0.  0.
          5    1    1    0  501    0 -0.39569380493E+01 -0.52068495120E+02  0.34020206601E+02  0.62500000000E+02  0.47000000000E+01 0. -1.
         -5    1    1    0    0  501  0.39569380493E+01  0.52068495120E+02 -0.34020206601E+02  0.62500000000E+02  0.47000000000E+01 0. -1.
</event>
<event>
 3    0  0.4603569E-005  0.9118800E+02  0.7546771E-02  0.1235069E+00
         25   -1    0    0    0    0  0.00000000000E+00  0.00000000000E+00  0.99999998245E-14  0.12500000000E+03  0.12500000000E+03 0.  0.
          5    1    1    0  501    0  0.51285823866E+02  0.32302911399E+02 -0.14506763442E+02  0.62500000000E+02  0.47000000000E+01 0. -1.
         -5    1    1    0    0  501 -0.51285823866E+02 -0.32302911399E+02  0.14506763442E+02  0.62500000000E+02  0.47000000000E+01 0. -1.
</event>
<event>
 3    0  0.4603569E-005  0.9118800E+02  0.7546771E-02  0.1235069E+00
         25   -1    0    0    0    0  0.00000000000E+00  0.00000000000E+00  0.99999998245E-14  0.12500000000E+03  0.12500000000E+03 0.  0.
          5    1    1    0  501    0  0.21247624810E+02  0.58022085977E+02  0.81324030136E+01  0.62500000000E+02  0.47000000000E+01 0. -1.
         -5    1    1    0    0  501 -0.21247624810E+02 -0.58022085977E+02 -0.81324030136E+01  0.62500000000E+02  0.47000000000E+01 0. -1.
</event>
<event>
 3    0  0.4603569E-005  0.9118800E+02  0.7546771E-02  0.1235069E+00
         25   -1    0    0    0    0  0.00000000000E+00  0.00000000000E+00  0.99999998245E-14  0.12500000000E+03  0.12500000000E+03 0.  0.
          5    1    1    0  501    0 -0.18814214481E+02 -0.36670292658E+02 -0.46749063839E+02  0.62500000000E+02  0.47000000000E+01 0. -1.
         -5    1    1    0    0  501  0.18814214481E+02  0.36670292658E+02  0.46749063839E+02  0.62500000000E+02  0.47000000000E+01 0. -1.
</event>
<event>
 3    0  0.4603569E-005  0.9118800E+02  0.7546771E-02  0.1235069E+00
         25   -1    0    0    0    0  0.00000000000E+00  0.00000000000E+00  0.99999998245E-14  0.12500000000E+03  0.12500000000E+03 0.  0.
          5    1    1    0  501    0  0.28574675031E+02  0.45784007609E+02 -0.31168455113E+02  0.62500000000E+02  0.47000000000E+01 0. -1.
         -5    1    1    0    0  501 -0.28574675031E+02 -0.45784007609E+02  0.31168455113E+02  0.62500000000E+02  0.47000000000E+01 0. -1.
</event>
<event>
 3    0  0.4603569E-005  0.9118800E+02  0.7546771E-02  0.1235069E+00
         25   -1    0    0    0    0  0.00000000000E+00  0.00000000000E+00  0.99999998245E-14  0.12500000000E+03  0.12500000000E+03 0.  0.
          5    1    1    0  501    0 -0.32075094795E+02  0.50729929100E+02  0.16787572409E+02  0.62500000000E+02  0.47000000000E+01 0.  1.
         -5    1    1    0    0  501  0.32075094795E+02 -0.50729929100E+02 -0.16787572409E+02  0.62500000000E+02  0.47000000000E+01 0.  1.
</event>
<event>
 3    0  0.4603569E-005  0.9118800E+02  0.7546771E-02  0.1235069E+00
         25   -1    0    0    0    0  0.00000000000E+00  0.00000000000E+00  0.99999998245E-14  0.12500000000E+03  0.12500000000E+03 0.  0.
          5    1    1    0  501    0  0.34970535757E+02  0.50299294219E+02 -0.11454371653E+02  0.62500000000E+02  0.47000000000E+01 0. -1.
         -5    1    1    0    0  501 -0.34970535757E+02 -0.50299294219E+02  0.11454371653E+02  0.62500000000E+02  0.47000000000E+01 0. -1.
</event>
<event>
 3    0  0.4603569E-005  0.9118800E+02  0.7546771E-02  0.1235069E+00
         25   -1    0    0    0    0  0.00000000000E+00  0.00000000000E+00  0.99999998245E-14  0.12500000000E+03  0.12500000000E+03 0.  0.
          5    1    1    0  501    0 -0.15954647076E+02  0.91668826561E+01  0.59544752070E+02  0.62500000000E+02  0.47000000000E+01 0. -1.
         -5    1    1    0    0  501  0.15954647076E+02 -0.91668826561E+01 -0.59544752070E+02  0.62500000000E+02  0.47000000000E+01 0. -1.
</event>
<event>
 3    0  0.4603569E-005  0.9118800E+02  0.7546771E-02  0.1235069E+00
         25   -1    0    0    0    0  0.00000000000E+00  0.00000000000E+00  0.99999998245E-14  0.12500000000E+03  0.12500000000E+03 0.  0.
          5    1    1    0  501    0 -0.27891982148E+01  0.52693860166E+02  0.33162289941E+02  0.62500000000E+02  0.47000000000E+01 0.  1.
         -5    1    1    0    0  501  0.27891982148E+01 -0.52693860166E+02 -0.33162289941E+02  0.62500000000E+02  0.47000000000E+01 0.  1.
</event>
<event>
 3    0  0.4603569E-005  0.9118800E+02  0.7546771E-02  0.1235069E+00
         25   -1    0    0    0    0  0.00000000000E+00  0.00000000000E+00  0.99999998245E-14  0.12500000000E+03  0.12500000000E+03 0.  0.
          5    1    1    0  501    0  0.57626263626E+02  0.84442080040E+00 -0.23720469936E+02  0.62500000000E+02  0.47000000000E+01 0.  1.
         -5    1    1    0    0  501 -0.57626263626E+02 -0.84442080040E+00  0.23720469936E+02  0.62500000000E+02  0.47000000000E+01 0.  1.
</event>
<event>
 3    0  0.4603569E-005  0.9118800E+02  0.7546771E-02  0.1235069E+00
         25   -1    0    0    0    0  0.00000000000E+00  0.00000000000E+00  0.99999998245E-14  0.12500000000E+03  0.12500000000E+03 0.  0.
          5    1    1    0  501    0 -0.50311117893E+02  0.23268155143E+02 -0.28487617883E+02  0.62500000000E+02  0.47000000000E+01 0. -1.
         -5    1    1    0    0  501  0.50311117893E+02 -0.23268155143E+02  0.28487617883E+02  0.62500000000E+02  0.47000000000E+01 0. -1.
</event>
<event>
 3    0  0.4603569E-005  0.9118800E+02  0.7546771E-02  0.1235069E+00
         25   -1    0    0    0    0  0.00000000000E+00  0.00000000000E+00  0.99999998245E-14  0.12500000000E+03  0.12500000000E+03 0.  0.
          5    1    1    0  501    0 -0.54538918876E+02  0.27701146390E+02 -0.11929493555E+02  0.62500000000E+02  0.47000000000E+01 0.  1.
         -5    1    1    0    0  501  0.54538918876E+02 -0.27701146390E+02  0.11929493555E+02  0.62500000000E+02  0.47000000000E+01 0.  1.
</event>
<event>
 3    0  0.4603569E-005  0.9118800E+02  0.7546771E-02  0.1235069E+00
         25   -1    0    0    0    0  0.00000000000E+00  0.00000000000E+00  0.99999998245E-14  0.12500000000E+03  0.12500000000E+03 0.  0.
          5    1    1    0  501    0 -0.28505933717E+02  0.54462942890E+02 -0.10264482195E+02  0.62500000000E+02  0.47000000000E+01 0.  1.
         -5    1    1    0    0  501  0.28505933717E+02 -0.54462942890E+02  0.10264482195E+02  0.62500000000E+02  0.47000000000E+01 0.  1.
</event>
<event>
 3    0  0.4603569E-005  0.9118800E+02  0.7546771E-02  0.1235069E+00
         25   -1    0    0    0    0  0.00000000000E+00  0.00000000000E+00  0.99999998245E-14  0.12500000000E+03  0.12500000000E+03 0.  0.
          5    1    1    0  501    0  0.32074879844E+01  0.46031719635E+02 -0.41892156883E+02  0.62500000000E+02  0.47000000000E+01 0. -1.
         -5    1    1    0    0  501 -0.32074879844E+01 -0.46031719635E+02  0.41892156883E+02  0.62500000000E+02  0.47000000000E+01 0. -1.
</event>
<event>
 3    0  0.4603569E-005  0.9118800E+02  0.7546771E-02  0.1235069E+00
         25   -1    0    0    0    0  0.00000000000E+00  0.00000000000E+00  0.99999998245E-14  0.12500000000E+03  0.12500000000E+03 0.  0.
          5    1    1    0  501    0  0.37568205890E+01  0.57403121865E+02  0.23977654163E+02  0.62500000000E+02  0.47000000000E+01 0. -1.
         -5    1    1    0    0  501 -0.37568205890E+01 -0.57403121865E+02 -0.23977654163E+02  0.62500000000E+02  0.47000000000E+01 0. -1.
</event>
<event>
 3    0  0.4603569E-005  0.9118800E+02  0.7546771E-02  0.1235069E+00
         25   -1    0    0    0    0  0.00000000000E+00  0.00000000000E+00  0.99999998245E-14  0.12500000000E+03  0.12500000000E+03 0.  0.
          5    1    1    0  501    0 -0.99286719121E+00  0.34707567607E+02  0.51754796546E+02  0.62500000000E+02  0.47000000000E+01 0.  1.
         -5    1    1    0    0  501  0.99286719121E+00 -0.34707567607E+02 -0.51754796546E+02  0.62500000000E+02  0.47000000000E+01 0.  1.
</event>
<event>
 3    0  0.4603569E-005  0.9118800E+02  0.7546771E-02  0.1235069E+00
         25   -1    0    0    0    0  0.00000000000E+00  0.00000000000E+00  0.99999998245E-14  0.12500000000E+03  0.12500000000E+03 0.  0.
          5    1    1    0  501    0  0.58084403304E+02 -0.67864369942E+01  0.21547769392E+02  0.62500000000E+02  0.47000000000E+01 0.  1.
         -5    1    1    0    0  501 -0.58084403304E+02  0.67864369942E+01 -0.21547769392E+02  0.62500000000E+02  0.47000000000E+01 0.  1.
</event>
<event>
 3    0  0.4603569E-005  0.9118800E+02  0.7546771E-02  0.1235069E+00
         25   -1    0    0    0    0  0.00000000000E+00  0.00000000000E+00  0.99999998245E-14  0.12500000000E+03  0.12500000000E+03 0.  0.
          5    1    1    0  501    0 -0.42969391877E+02 -0.45119931805E+02 -0.14082313879E+01  0.62500000000E+02  0.47000000000E+01 0. -1.
         -5    1    1    0    0  501  0.42969391877E+02  0.45119931805E+02  0.14082313879E+01  0.62500000000E+02  0.47000000000E+01 0. -1.
</event>
<event>
 3    0  0.4603569E-005  0.9118800E+02  0.7546771E-02  0.1235069E+00
         25   -1    0    0    0    0  0.00000000000E+00  0.00000000000E+00  0.99999998245E-14  0.12500000000E+03  0.12500000000E+03 0.  0.
          5    1    1    0  501    0 -0.20774434298E+02  0.88276763163E+01 -0.58091780920E+02  0.62500000000E+02  0.47000000000E+01 0.  1.
         -5    1    1    0    0  501  0.20774434298E+02 -0.88276763163E+01  0.58091780920E+02  0.62500000000E+02  0.47000000000E+01 0.  1.
</event>
<event>
 3    0  0.4603569E-005  0.9118800E+02  0.7546771E-02  0.1235069E+00
         25   -1    0    0    0    0  0.00000000000E+00  0.00000000000E+00  0.99999998245E-14  0.12500000000E+03  0.12500000000E+03 0.  0.
          5    1    1    0  501    0  0.37815812901E+02 -0.46973917533E+02 -0.15734527835E+02  0.62500000000E+02  0.47000000000E+01 0.  1.
         -5    1    1    0    0  501 -0.37815812901E+02  0.46973917533E+02  0.15734527835E+02  0.62500000000E+02  0.47000000000E+01 0.  1.
</event>
<event>
 3    0  0.4603569E-005  0.9118800E+02  0.7546771E-02  0.1235069E+00
         25   -1    0    0    0    0  0.00000000000E+00  0.00000000000E+00  0.99999998245E-14  0.12500000000E+03  0.12500000000E+03 0.  0.
          5    1    1    0  501    0  0.33617167454E+02 -0.42984167579E+02 -0.30106600438E+02  0.62500000000E+02  0.47000000000E+01 0.  1.
         -5    1    1    0    0  501 -0.33617167454E+02  0.42984167579E+02  0.30106600438E+02  0.62500000000E+02  0.47000000000E+01 0.  1.
</event>
<event>
 3    0  0.4603569E-005  0.9118800E+02  0.7546771E-02  0.1235069E+00
         25   -1    0    0    0    0  0.00000000000E+00  0.00000000000E+00  0.99999998245E-14  0.12500000000E+03  0.12500000000E+03 0.  0.
          5    1    1    0  501    0  0.19328274026E+01 -0.40961500362E+02 -0.46931648878E+02  0.62500000000E+02  0.47000000000E+01 0. -1.
         -5    1    1    0    0  501 -0.19328274026E+01  0.40961500362E+02  0.46931648878E+02  0.62500000000E+02  0.47000000000E+01 0. -1.
</event>
<event>
 3    0  0.4603569E-005  0.9118800E+02  0.7546771E-02  0.1235069E+00
         25   -1    0    0    0    0  0.00000000000E+00  0.00000000000E+00  0.99999998245E-14  0.12500000000E+03  0.12500000000E+03 0.  0.
          5    1    1    0  501    0  0.33375568660E+02 -0.15623468734E+02  0.50260706734E+02  0.62500000000E+02  0.47000000000E+01 0. -1.
         -5    1    1    0    0  501 -0.33375568660E+02  0.15623468734E+02 -0.50260706734E+02  0.62500000000E+02  0.47000000000E+01 0. -1.
</event>
<event>
 3    0  0.4603569E-005  0.9118800E+02  0.7546771E-02  0.1235069E+00
         25   -1    0    0    0    0  0.00000000000E+00  0.00000000000E+00  0.99999998245E-14  0.12500000000E+03  0.12500000000E+03 0.  0.
          5    1    1    0  501    0  0.67831679717E+01 -0.44451264463E+02  0.43153606105E+02  0.62500000000E+02  0.47000000000E+01 0.  1.
         -5    1    1    0    0  501 -0.67831679717E+01  0.44451264463E+02 -0.43153606105E+02  0.62500000000E+02  0.47000000000E+01 0.  1.
</event>
<event>
 3    0  0.4603569E-005  0.9118800E+02  0.7546771E-02  0.1235069E+00
         25   -1    0    0    0    0  0.00000000000E+00  0.00000000000E+00  0.99999998245E-14  0.12500000000E+03  0.12500000000E+03 0.  0.
          5    1    1    0  501    0 -0.58374406978E+01  0.37534264827E+02  0.49409141360E+02  0.62500000000E+02  0.47000000000E+01 0.  1.
         -5    1    1    0    0  501  0.58374406978E+01 -0.37534264827E+02 -0.49409141360E+02  0.62500000000E+02  0.47000000000E+01 0.  1.
</event>
<event>
 3    0  0.4603569E-005  0.9118800E+02  0.7546771E-02  0.1235069E+00
         25   -1    0    0    0    0  0.00000000000E+00  0.00000000000E+00  0.99999998245E-14  0.12500000000E+03  0.12500000000E+03 0.  0.
          5    1    1    0  501    0 -0.15802072827E+02  0.56631962060E+02 -0.20670640231E+02  0.62500000000E+02  0.47000000000E+01 0. -1.
         -5    1    1    0    0  501  0.15802072827E+02 -0.56631962060E+02  0.20670640231E+02  0.62500000000E+02  0.47000000000E+01 0. -1.
</event>
<event>
 3    0  0.4603569E-005  0.9118800E+02  0.7546771E-02  0.1235069E+00
         25   -1    0    0    0    0  0.00000000000E+00  0.00000000000E+00  0.99999998245E-14  0.12500000000E+03  0.12500000000E+03 0.  0.
          5    1    1    0  501    0  0.71135064361E+01 -0.59443402320E+01 -0.61629723717E+02  0.62500000000E+02  0.47000000000E+01 0.  1.
         -5    1    1    0    0  501 -0.71135064361E+01  0.59443402320E+01  0.61629723717E+02  0.62500000000E+02  0.47000000000E+01 0.  1.
</event>
<event>
 3    0  0.4603569E-005  0.9118800E+02  0.7546771E-02  0.1235069E+00
         25   -1    0    0    0    0  0.00000000000E+00  0.00000000000E+00  0.99999998245E-14  0.12500000000E+03  0.12500000000E+03 0.  0.
          5    1    1    0  501    0  0.16242839089E+01  0.58310258567E+02  0.21941637305E+02  0.62500000000E+02  0.47000000000E+01 0.  1.
         -5    1    1    0    0  501 -0.16242839089E+01 -0.58310258567E+02 -0.21941637305E+02  0.62500000000E+02  0.47000000000E+01 0.  1.
</event>
<event>
 3    0  0.4603569E-005  0.9118800E+02  0.7546771E-02  0.1235069E+00
         25   -1    0    0    0    0  0.00000000000E+00  0.00000000000E+00  0.99999998245E-14  0.12500000000E+03  0.12500000000E+03 0.  0.
          5    1    1    0  501    0 -0.17412245342E+02 -0.97346248214E+01  0.59044142739E+02  0.62500000000E+02  0.47000000000E+01 0.  1.
         -5    1    1    0    0  501  0.17412245342E+02  0.97346248214E+01 -0.59044142739E+02  0.62500000000E+02  0.47000000000E+01 0.  1.
</event>
<event>
 3    0  0.4603569E-005  0.9118800E+02  0.7546771E-02  0.1235069E+00
         25   -1    0    0    0    0  0.00000000000E+00  0.00000000000E+00  0.99999998245E-14  0.12500000000E+03  0.12500000000E+03 0.  0.
          5    1    1    0  501    0 -0.49154827110E+02  0.35398701218E+02  0.14659294794E+02  0.62500000000E+02  0.47000000000E+01 0. -1.
         -5    1    1    0    0  501  0.49154827110E+02 -0.35398701218E+02 -0.14659294794E+02  0.62500000000E+02  0.47000000000E+01 0. -1.
</event>
<event>
 3    0  0.4603569E-005  0.9118800E+02  0.7546771E-02  0.1235069E+00
         25   -1    0    0    0    0  0.00000000000E+00  0.00000000000E+00  0.99999998245E-14  0.12500000000E+03  0.12500000000E+03 0.  0.
          5    1    1    0  501    0  0.51746129200E+02  0.34370344134E+02 -0.50177242818E+01  0.62500000000E+02  0.47000000000E+01 0. -1.
         -5    1    1    0    0  501 -0.51746129200E+02 -0.34370344134E+02  0.50177242818E+01  0.62500000000E+02  0.47000000000E+01 0. -1.
</event>
<event>
 3    0  0.4603569E-005  0.9118800E+02  0.7546771E-02  0.1235069E+00
         25   -1    0    0    0    0  0.00000000000E+00  0.00000000000E+00  0.99999998245E-14  0.12500000000E+03  0.12500000000E+03 0.  0.
          5    1    1    0  501    0  0.42812899045E+02 -0.33050495386E+02 -0.30965794518E+02  0.62500000000E+02  0.47000000000E+01 0.  1.
         -5    1    1    0    0  501 -0.42812899045E+02  0.33050495386E+02  0.30965794518E+02  0.62500000000E+02  0.47000000000E+01 0.  1.
</event>
<event>
 3    0  0.4603569E-005  0.9118800E+02  0.7546771E-02  0.1235069E+00
         25   -1    0    0    0    0  0.00000000000E+00  0.00000000000E+00  0.99999998245E-14  0.12500000000E+03  0.12500000000E+03 0.  0.
          5    1    1    0  501    0 -0.56808917342E+02 -0.15765921285E+02  0.20207489614E+02  0.62500000000E+02  0.47000000000E+01 0.  1.
         -5    1    1    0    0  501  0.56808917342E+02  0.15765921285E+02 -0.20207489614E+02  0.62500000000E+02  0.47000000000E+01 0.  1.
</event>
<event>
 3    0  0.4603569E-005  0.9118800E+02  0.7546771E-02  0.1235069E+00
         25   -1    0    0    0    0  0.00000000000E+00  0.00000000000E+00  0.99999998245E-14  0.12500000000E+03  0.12500000000E+03 0.  0.
          5    1    1    0  501    0  0.57063008204E+02 -0.16540100759E+02  0.18825465773E+02  0.62500000000E+02  0.47000000000E+01 0. -1.
         -5    1    1    0    0  501 -0.57063008204E+02  0.16540100759E+02 -0.18825465773E+02  0.62500000000E+02  0.47000000000E+01 0. -1.
</event>
<event>
 3    0  0.4603569E-005  0.9118800E+02  0.7546771E-02  0.1235069E+00
         25   -1    0    0    0    0  0.00000000000E+00  0.00000000000E+00  0.99999998245E-14  0.12500000000E+03  0.12500000000E+03 0.  0.
          5    1    1    0  501    0 -0.41001387668E+02 -0.17232309825E+02 -0.43658833097E+02  0.62500000000E+02  0.47000000000E+01 0. -1.
         -5    1    1    0    0  501  0.41001387668E+02  0.17232309825E+02  0.43658833097E+02  0.62500000000E+02  0.47000000000E+01 0. -1.
</event>
<event>
 3    0  0.4603569E-005  0.9118800E+02  0.7546771E-02  0.1235069E+00
         25   -1    0    0    0    0  0.00000000000E+00  0.00000000000E+00  0.99999998245E-14  0.12500000000E+03  0.12500000000E+03 0.  0.
          5    1    1    0  501    0  0.93376558486E+01  0.61517605978E+02  0.35429278855E+01  0.62500000000E+02  0.47000000000E+01 0.  1.
         -5    1    1    0    0  501 -0.93376558486E+01 -0.61517605978E+02 -0.35429278855E+01  0.62500000000E+02  0.47000000000E+01 0.  1.
</event>
<event>
 3    0  0.4603569E-005  0.9118800E+02  0.7546771E-02  0.1235069E+00
         25   -1    0    0    0    0  0.00000000000E+00  0.00000000000E+00  0.99999998245E-14  0.12500000000E+03  0.12500000000E+03 0.  0.
          5    1    1    0  501    0 -0.12219159919E+02 -0.60452532924E+02  0.89634476603E+01  0.62500000000E+02  0.47000000000E+01 0.  1.
         -5    1    1    0    0  501  0.12219159919E+02  0.60452532924E+02 -0.89634476603E+01  0.62500000000E+02  0.47000000000E+01 0.  1.
</event>
<event>
 3    0  0.4603569E-005  0.9118800E+02  0.7546771E-02  0.1235069E+00
         25   -1    0    0    0    0  0.00000000000E+00  0.00000000000E+00  0.99999998245E-14  0.12500000000E+03  0.12500000000E+03 0.  0.
          5    1    1    0  501    0 -0.23111635095E+02 -0.40588674535E+02  0.41262232401E+02  0.62500000000E+02  0.47000000000E+01 0.  1.
         -5    1    1    0    0  501  0.23111635095E+02  0.40588674535E+02 -0.41262232401E+02  0.62500000000E+02  0.47000000000E+01 0.  1.
</event>
<event>
 3    0  0.4603569E-005  0.9118800E+02  0.7546771E-02  0.1235069E+00
         25   -1    0    0    0    0  0.00000000000E+00  0.00000000000E+00  0.99999998245E-14  0.12500000000E+03  0.12500000000E+03 0.  0.
          5    1    1    0  501    0  0.10958722935E+02 -0.55071808101E+02 -0.27040013760E+02  0.62500000000E+02  0.47000000000E+01 0.  1.
         -5    1    1    0    0  501 -0.10958722935E+02  0.55071808101E+02  0.27040013760E+02  0.62500000000E+02  0.47000000000E+01 0.  1.
</event>
<event>
 3    0  0.4603569E-005  0.9118800E+02  0.7546771E-02  0.1235069E+00
         25   -1    0    0    0    0  0.00000000000E+00  0.00000000000E+00  0.99999998245E-14  0.12500000000E+03  0.12500000000E+03 0.  0.
          5    1    1    0  501    0 -0.35615905060E+02  0.18821755606E+02  0.47554272392E+02  0.62500000000E+02  0.47000000000E+01 0.  1.
         -5    1    1    0    0  501  0.35615905060E+02 -0.18821755606E+02 -0.47554272392E+02  0.62500000000E+02  0.47000000000E+01 0.  1.
</event>
<event>
 3    0  0.4603569E-005  0.9118800E+02  0.7546771E-02  0.1235069E+00
         25   -1    0    0    0    0  0.00000000000E+00  0.00000000000E+00  0.99999998245E-14  0.12500000000E+03  0.12500000000E+03 0.  0.
          5    1    1    0  501    0  0.54518446729E+02  0.27359287477E+02  0.12781563088E+02  0.62500000000E+02  0.47000000000E+01 0.  1.
         -5    1    1    0    0  501 -0.54518446729E+02 -0.27359287477E+02 -0.12781563088E+02  0.62500000000E+02  0.47000000000E+01 0.  1.
</event>
<event>
 3    0  0.4603569E-005  0.9118800E+02  0.7546771E-02  0.1235069E+00
         25   -1    0    0    0    0  0.00000000000E+00  0.00000000000E+00  0.99999998245E-14  0.12500000000E+03  0.12500000000E+03 0.  0.
          5    1    1    0  501    0 -0.58400153602E+02 -0.20328825255E+02  0.77666545577E+01  0.62500000000E+02  0.47000000000E+01 0.  1.
         -5    1    1    0    0  501  0.58400153602E+02  0.20328825255E+02 -0.77666545577E+01  0.62500000000E+02  0.47000000000E+01 0.  1.
</event>
<event>
 3    0  0.4603569E-005  0.9118800E+02  0.7546771E-02  0.1235069E+00
         25   -1    0    0    0    0  0.00000000000E+00  0.00000000000E+00  0.99999998245E-14  0.12500000000E+03  0.12500000000E+03 0.  0.
          5    1    1    0  501    0 -0.42604106858E+02 -0.94069206842E+01 -0.44503482134E+02  0.62500000000E+02  0.47000000000E+01 0.  1.
         -5    1    1    0    0  501  0.42604106858E+02  0.94069206842E+01  0.44503482134E+02  0.62500000000E+02  0.47000000000E+01 0.  1.
</event>
<event>
 3    0  0.4603569E-005  0.9118800E+02  0.7546771E-02  0.1235069E+00
         25   -1    0    0    0    0  0.00000000000E+00  0.00000000000E+00  0.99999998245E-14  0.12500000000E+03  0.12500000000E+03 0.  0.
          5    1    1    0  501    0 -0.37591248230E+02  0.46093137883E+02 -0.18613991958E+02  0.62500000000E+02  0.47000000000E+01 0.  1.
         -5    1    1    0    0  501  0.37591248230E+02 -0.46093137883E+02  0.18613991958E+02  0.62500000000E+02  0.47000000000E+01 0.  1.
</event>
<event>
 3    0  0.4603569E-005  0.9118800E+02  0.7546771E-02  0.1235069E+00
         25   -1    0    0    0    0  0.00000000000E+00  0.00000000000E+00  0.99999998245E-14  0.12500000000E+03  0.12500000000E+03 0.  0.
          5    1    1    0  501    0 -0.41223778465E+02 -0.24472295525E+02 -0.39822943648E+02  0.62500000000E+02  0.47000000000E+01 0.  1.
         -5    1    1    0    0  501  0.41223778465E+02  0.24472295525E+02  0.39822943648E+02  0.62500000000E+02  0.47000000000E+01 0.  1.
</event>
<event>
 3    0  0.4603569E-005  0.9118800E+02  0.7546771E-02  0.1235069E+00
         25   -1    0    0    0    0  0.00000000000E+00  0.00000000000E+00  0.99999998245E-14  0.12500000000E+03  0.12500000000E+03 0.  0.
          5    1    1    0  501    0  0.46443619375E+02 -0.13433288103E+02  0.39328068731E+02  0.62500000000E+02  0.47000000000E+01 0.  1.
         -5    1    1    0    0  501 -0.46443619375E+02  0.13433288103E+02 -0.39328068731E+02  0.62500000000E+02  0.47000000000E+01 0.  1.
</event>
<event>
 3    0  0.4603569E-005  0.9118800E+02  0.7546771E-02  0.1235069E+00
         25   -1    0    0    0    0  0.00000000000E+00  0.00000000000E+00  0.99999998245E-14  0.12500000000E+03  0.12500000000E+03 0.  0.
          5    1    1    0  501    0  0.55923652803E+02  0.15767950945E+02  0.22540558559E+02  0.62500000000E+02  0.47000000000E+01 0. -1.
         -5    1    1    0    0  501 -0.55923652803E+02 -0.15767950945E+02 -0.22540558559E+02  0.62500000000E+02  0.47000000000E+01 0. -1.
</event>
<event>
 3    0  0.4603569E-005  0.9118800E+02  0.7546771E-02  0.1235069E+00
         25   -1    0    0    0    0  0.00000000000E+00  0.00000000000E+00  0.99999998245E-14  0.12500000000E+03  0.12500000000E+03 0.  0.
          5    1    1    0  501    0  0.28070871738E+02  0.64837982753E+01 -0.55264333162E+02  0.62500000000E+02  0.47000000000E+01 0.  1.
         -5    1    1    0    0  501 -0.28070871738E+02 -0.64837982753E+01  0.55264333162E+02  0.62500000000E+02  0.47000000000E+01 0.  1.
</event>
<event>
 3    0  0.4603569E-005  0.9118800E+02  0.7546771E-02  0.1235069E+00
         25   -1    0    0    0    0  0.00000000000E+00  0.00000000000E+00  0.99999998245E-14  0.12500000000E+03  0.12500000000E+03 0.  0.
          5    1    1    0  501    0  0.56418272991E+02  0.18138296852E+02 -0.19290947617E+02  0.62500000000E+02  0.47000000000E+01 0.  1.
         -5    1    1    0    0  501 -0.56418272991E+02 -0.18138296852E+02  0.19290947617E+02  0.62500000000E+02  0.47000000000E+01 0.  1.
</event>
<event>
 3    0  0.4603569E-005  0.9118800E+02  0.7546771E-02  0.1235069E+00
         25   -1    0    0    0    0  0.00000000000E+00  0.00000000000E+00  0.99999998245E-14  0.12500000000E+03  0.12500000000E+03 0.  0.
          5    1    1    0  501    0 -0.59807474722E+02 -0.49162141079E+01 -0.16824292147E+02  0.62500000000E+02  0.47000000000E+01 0. -1.
         -5    1    1    0    0  501  0.59807474722E+02  0.49162141079E+01  0.16824292147E+02  0.62500000000E+02  0.47000000000E+01 0. -1.
</event>
<event>
 3    0  0.4603569E-005  0.9118800E+02  0.7546771E-02  0.1235069E+00
         25   -1    0    0    0    0  0.00000000000E+00  0.00000000000E+00  0.99999998245E-14  0.12500000000E+03  0.12500000000E+03 0.  0.
          5    1    1    0  501    0  0.19607945682E+02  0.40473926280E+02  0.43145680637E+02  0.62500000000E+02  0.47000000000E+01 0.  1.
         -5    1    1    0    0  501 -0.19607945682E+02 -0.40473926280E+02 -0.43145680637E+02  0.62500000000E+02  0.47000000000E+01 0.  1.
</event>
<event>
 3    0  0.4603569E-005  0.9118800E+02  0.7546771E-02  0.1235069E+00
         25   -1    0    0    0    0  0.00000000000E+00  0.00000000000E+00  0.99999998245E-14  0.12500000000E+03  0.12500000000E+03 0.  0.
          5    1    1    0  501    0  0.20955917937E+02 -0.38882674326E+00  0.58692915392E+02  0.62500000000E+02  0.47000000000E+01 0.  1.
         -5    1    1    0    0  501 -0.20955917937E+02  0.38882674326E+00 -0.58692915392E+02  0.62500000000E+02  0.47000000000E+01 0.  1.
</event>
<event>
 3    0  0.4603569E-005  0.9118800E+02  0.7546771E-02  0.1235069E+00
         25   -1    0    0    0    0  0.00000000000E+00  0.00000000000E+00  0.99999998245E-14  0.12500000000E+03  0.12500000000E+03 0.  0.
          5    1    1    0  501    0 -0.52360569757E+01 -0.17517122621E+02 -0.59580987928E+02  0.62500000000E+02  0.47000000000E+01 0. -1.
         -5    1    1    0    0  501  0.52360569757E+01  0.17517122621E+02  0.59580987928E+02  0.62500000000E+02  0.47000000000E+01 0. -1.
</event>
<event>
 3    0  0.4603569E-005  0.9118800E+02  0.7546771E-02  0.1235069E+00
         25   -1    0    0    0    0  0.00000000000E+00  0.00000000000E+00  0.99999998245E-14  0.12500000000E+03  0.12500000000E+03 0.  0.
          5    1    1    0  501    0 -0.32019218366E+02  0.93690901497E+01  0.52641711646E+02  0.62500000000E+02  0.47000000000E+01 0. -1.
         -5    1    1    0    0  501  0.32019218366E+02 -0.93690901497E+01 -0.52641711646E+02  0.62500000000E+02  0.47000000000E+01 0. -1.
</event>
<event>
 3    0  0.4603569E-005  0.9118800E+02  0.7546771E-02  0.1235069E+00
         25   -1    0    0    0    0  0.00000000000E+00  0.00000000000E+00  0.99999998245E-14  0.12500000000E+03  0.12500000000E+03 0.  0.
          5    1    1    0  501    0  0.33887466257E+02 -0.47912797652E+02  0.20980072732E+02  0.62500000000E+02  0.47000000000E+01 0. -1.
         -5    1    1    0    0  501 -0.33887466257E+02  0.47912797652E+02 -0.20980072732E+02  0.62500000000E+02  0.47000000000E+01 0. -1.
</event>
<event>
 3    0  0.4603569E-005  0.9118800E+02  0.7546771E-02  0.1235069E+00
         25   -1    0    0    0    0  0.00000000000E+00  0.00000000000E+00  0.99999998245E-14  0.12500000000E+03  0.12500000000E+03 0.  0.
          5    1    1    0  501    0  0.39399080006E+02 -0.46041417748E+02  0.14562291938E+02  0.62500000000E+02  0.47000000000E+01 0.  1.
         -5    1    1    0    0  501 -0.39399080006E+02  0.46041417748E+02 -0.14562291938E+02  0.62500000000E+02  0.47000000000E+01 0.  1.
</event>
<event>
 3    0  0.4603569E-005  0.9118800E+02  0.7546771E-02  0.1235069E+00
         25   -1    0    0    0    0  0.00000000000E+00  0.00000000000E+00  0.99999998245E-14  0.12500000000E+03  0.12500000000E+03 0.  0.
          5    1    1    0  501    0 -0.74852192096E+01 -0.53439274958E+02  0.31182934200E+02  0.62500000000E+02  0.47000000000E+01 0.  1.
         -5    1    1    0    0  501  0.74852192096E+01  0.53439274958E+02 -0.31182934200E+02  0.62500000000E+02  0.47000000000E+01 0.  1.
</event>
<event>
 3    0  0.4603569E-005  0.9118800E+02  0.7546771E-02  0.1235069E+00
         25   -1    0    0    0    0  0.00000000000E+00  0.00000000000E+00  0.99999998245E-14  0.12500000000E+03  0.12500000000E+03 0.  0.
          5    1    1    0  501    0  0.62028340551E+02  0.59694511252E+01 -0.10052968447E+01  0.62500000000E+02  0.47000000000E+01 0. -1.
         -5    1    1    0    0  501 -0.62028340551E+02 -0.59694511252E+01  0.10052968447E+01  0.62500000000E+02  0.47000000000E+01 0. -1.
</event>
<event>
 3    0  0.4603569E-005  0.9118800E+02  0.7546771E-02  0.1235069E+00
         25   -1    0    0    0    0  0.00000000000E+00  0.00000000000E+00  0.99999998245E-14  0.12500000000E+03  0.12500000000E+03 0.  0.
          5    1    1    0  501    0  0.12797576410E+02  0.51533515689E+02  0.32629416157E+02  0.62500000000E+02  0.47000000000E+01 0.  1.
         -5    1    1    0    0  501 -0.12797576410E+02 -0.51533515689E+02 -0.32629416157E+02  0.62500000000E+02  0.47000000000E+01 0.  1.
</event>
<event>
 3    0  0.4603569E-005  0.9118800E+02  0.7546771E-02  0.1235069E+00
         25   -1    0    0    0    0  0.00000000000E+00  0.00000000000E+00  0.99999998245E-14  0.12500000000E+03  0.12500000000E+03 0.  0.
          5    1    1    0  501    0  0.22240534981E+02  0.63668235245E+01  0.57870391064E+02  0.62500000000E+02  0.47000000000E+01 0.  1.
         -5    1    1    0    0  501 -0.22240534981E+02 -0.63668235245E+01 -0.57870391064E+02  0.62500000000E+02  0.47000000000E+01 0.  1.
</event>
<event>
 3    0  0.4603569E-005  0.9118800E+02  0.7546771E-02  0.1235069E+00
         25   -1    0    0    0    0  0.00000000000E+00  0.00000000000E+00  0.99999998245E-14  0.12500000000E+03  0.12500000000E+03 0.  0.
          5    1    1    0  501    0  0.56828933848E+02 -0.50038883058E+01 -0.25091699414E+02  0.62500000000E+02  0.47000000000E+01 0.  1.
         -5    1    1    0    0  501 -0.56828933848E+02  0.50038883058E+01  0.25091699414E+02  0.62500000000E+02  0.47000000000E+01 0.  1.
</event>
<event>
 3    0  0.4603569E-005  0.9118800E+02  0.7546771E-02  0.1235069E+00
         25   -1    0    0    0    0  0.00000000000E+00  0.00000000000E+00  0.99999998245E-14  0.12500000000E+03  0.12500000000E+03 0.  0.
          5    1    1    0  501    0  0.54209326884E+02  0.22707805814E+02  0.20733172307E+02  0.62500000000E+02  0.47000000000E+01 0. -1.
         -5    1    1    0    0  501 -0.54209326884E+02 -0.22707805814E+02 -0.20733172307E+02  0.62500000000E+02  0.47000000000E+01 0. -1.
</event>
<event>
 3    0  0.4603569E-005  0.9118800E+02  0.7546771E-02  0.1235069E+00
         25   -1    0    0    0    0  0.00000000000E+00  0.00000000000E+00  0.99999998245E-14  0.12500000000E+03  0.12500000000E+03 0.  0.
          5    1    1    0  501    0  0.37165119363E+02 -0.29933611268E+02  0.40086067645E+02  0.62500000000E+02  0.47000000000E+01 0.  1.
         -5    1    1    0    0  501 -0.37165119363E+02  0.29933611268E+02 -0.40086067645E+02  0.62500000000E+02  0.47000000000E+01 0.  1.
</event>
<event>
 3    0  0.4603569E-005  0.9118800E+02  0.7546771E-02  0.1235069E+00
         25   -1    0    0    0    0  0.00000000000E+00  0.00000000000E+00  0.99999998245E-14  0.12500000000E+03  0.12500000000E+03 0.  0.
          5    1    1    0  501    0 -0.15102001719E+02  0.51282874019E+02 -0.32033675663E+02  0.62500000000E+02  0.47000000000E+01 0. -1.
         -5    1    1    0    0  501  0.15102001719E+02 -0.51282874019E+02  0.32033675663E+02  0.62500000000E+02  0.47000000000E+01 0. -1.
</event>
<event>
 3    0  0.4603569E-005  0.9118800E+02  0.7546771E-02  0.1235069E+00
         25   -1    0    0    0    0  0.00000000000E+00  0.00000000000E+00  0.99999998245E-14  0.12500000000E+03  0.12500000000E+03 0.  0.
          5    1    1    0  501    0  0.43812326098E+02  0.18953443309E+01  0.44283718811E+02  0.62500000000E+02  0.47000000000E+01 0.  1.
         -5    1    1    0    0  501 -0.43812326098E+02 -0.18953443309E+01 -0.44283718811E+02  0.62500000000E+02  0.47000000000E+01 0.  1.
</event>
<event>
 3    0  0.4603569E-005  0.9118800E+02  0.7546771E-02  0.1235069E+00
         25   -1    0    0    0    0  0.00000000000E+00  0.00000000000E+00  0.99999998245E-14  0.12500000000E+03  0.12500000000E+03 0.  0.
          5    1    1    0  501    0 -0.22174081043E+02 -0.36431511135E+02  0.45444638037E+02  0.62500000000E+02  0.47000000000E+01 0. -1.
         -5    1    1    0    0  501  0.22174081043E+02  0.36431511135E+02 -0.45444638037E+02  0.62500000000E+02  0.47000000000E+01 0. -1.
</event>
<event>
 3    0  0.4603569E-005  0.9118800E+02  0.7546771E-02  0.1235069E+00
         25   -1    0    0    0    0  0.00000000000E+00  0.00000000000E+00  0.99999998245E-14  0.12500000000E+03  0.12500000000E+03 0.  0.
          5    1    1    0  501    0 -0.59338147705E+02  0.43663683538E+01 -0.18549368032E+02  0.62500000000E+02  0.47000000000E+01 0. -1.
         -5    1    1    0    0  501  0.59338147705E+02 -0.43663683538E+01  0.18549368032E+02  0.62500000000E+02  0.47000000000E+01 0. -1.
</event>
<event>
 3    0  0.4603569E-005  0.9118800E+02  0.7546771E-02  0.1235069E+00
         25   -1    0    0    0    0  0.00000000000E+00  0.00000000000E+00  0.99999998245E-14  0.12500000000E+03  0.12500000000E+03 0.  0.
          5    1    1    0  501    0 -0.56392676994E+01 -0.58819453405E+02 -0.19814907543E+02  0.62500000000E+02  0.47000000000E+01 0. -1.
         -5    1    1    0    0  501  0.56392676994E+01  0.58819453405E+02  0.19814907543E+02  0.62500000000E+02  0.47000000000E+01 0. -1.
</event>
<event>
 3    0  0.4603569E-005  0.9118800E+02  0.7546771E-02  0.1235069E+00
         25   -1    0    0    0    0  0.00000000000E+00  0.00000000000E+00  0.99999998245E-14  0.12500000000E+03  0.12500000000E+03 0.  0.
          5    1    1    0  501    0  0.54459178224E+01 -0.24065249483E+02  0.57230811163E+02  0.62500000000E+02  0.47000000000E+01 0. -1.
         -5    1    1    0    0  501 -0.54459178224E+01  0.24065249483E+02 -0.57230811163E+02  0.62500000000E+02  0.47000000000E+01 0. -1.
</event>
<event>
 3    0  0.4603569E-005  0.9118800E+02  0.7546771E-02  0.1235069E+00
         25   -1    0    0    0    0  0.00000000000E+00  0.00000000000E+00  0.99999998245E-14  0.12500000000E+03  0.12500000000E+03 0.  0.
          5    1    1    0  501    0 -0.13153879289E+02 -0.56927099620E+02 -0.21689647034E+02  0.62500000000E+02  0.47000000000E+01 0. -1.
         -5    1    1    0    0  501  0.13153879289E+02  0.56927099620E+02  0.21689647034E+02  0.62500000000E+02  0.47000000000E+01 0. -1.
</event>
<event>
 3    0  0.4603569E-005  0.9118800E+02  0.7546771E-02  0.1235069E+00
         25   -1    0    0    0    0  0.00000000000E+00  0.00000000000E+00  0.99999998245E-14  0.12500000000E+03  0.12500000000E+03 0.  0.
          5    1    1    0  501    0 -0.30573973718E+02  0.38068230394E+02 -0.38732440741E+02  0.62500000000E+02  0.47000000000E+01 0. -1.
         -5    1    1    0    0  501  0.30573973718E+02 -0.38068230394E+02  0.38732440741E+02  0.62500000000E+02  0.47000000000E+01 0. -1.
</event>
<event>
 3    0  0.4603569E-005  0.9118800E+02  0.7546771E-02  0.1235069E+00
         25   -1    0    0    0    0  0.00000000000E+00  0.00000000000E+00  0.99999998245E-14  0.12500000000E+03  0.12500000000E+03 0.  0.
          5    1    1    0  501    0  0.72544686779E+01  0.36519944628E+02  0.49978258559E+02  0.62500000000E+02  0.47000000000E+01 0. -1.
         -5    1    1    0    0  501 -0.72544686779E+01 -0.36519944628E+02 -0.49978258559E+02  0.62500000000E+02  0.47000000000E+01 0. -1.
</event>
<event>
 3    0  0.4603569E-005  0.9118800E+02  0.7546771E-02  0.1235069E+00
         25   -1    0    0    0    0  0.00000000000E+00  0.00000000000E+00  0.99999998245E-14  0.12500000000E+03  0.12500000000E+03 0.  0.
          5    1    1    0  501    0  0.27808036753E+02  0.49006200900E+02  0.26632036447E+02  0.62500000000E+02  0.47000000000E+01 0. -1.
         -5    1    1    0    0  501 -0.27808036753E+02 -0.49006200900E+02 -0.26632036447E+02  0.62500000000E+02  0.47000000000E+01 0. -1.
</event>
<event>
 3    0  0.4603569E-005  0.9118800E+02  0.7546771E-02  0.1235069E+00
         25   -1    0    0    0    0  0.00000000000E+00  0.00000000000E+00  0.99999998245E-14  0.12500000000E+03  0.12500000000E+03 0.  0.
          5    1    1    0  501    0  0.27342694966E+02 -0.49559727383E+02  0.26083911780E+02  0.62500000000E+02  0.47000000000E+01 0. -1.
         -5    1    1    0    0  501 -0.27342694966E+02  0.49559727383E+02 -0.26083911780E+02  0.62500000000E+02  0.47000000000E+01 0. -1.
</event>
<event>
 3    0  0.4603569E-005  0.9118800E+02  0.7546771E-02  0.1235069E+00
         25   -1    0    0    0    0  0.00000000000E+00  0.00000000000E+00  0.99999998245E-14  0.12500000000E+03  0.12500000000E+03 0.  0.
          5    1    1    0  501    0  0.99743707585E+01  0.31378771169E+02  0.52915448103E+02  0.62500000000E+02  0.47000000000E+01 0.  1.
         -5    1    1    0    0  501 -0.99743707585E+01 -0.31378771169E+02 -0.52915448103E+02  0.62500000000E+02  0.47000000000E+01 0.  1.
</event>
<event>
 3    0  0.4603569E-005  0.9118800E+02  0.7546771E-02  0.1235069E+00
         25   -1    0    0    0    0  0.00000000000E+00  0.00000000000E+00  0.99999998245E-14  0.12500000000E+03  0.12500000000E+03 0.  0.
          5    1    1    0  501    0 -0.19751286011E+02 -0.38819634373E+02  0.44576705666E+02  0.62500000000E+02  0.47000000000E+01 0.  1.
         -5    1    1    0    0  501  0.19751286011E+02  0.38819634373E+02 -0.44576705666E+02  0.62500000000E+02  0.47000000000E+01 0.  1.
</event>
<event>
 3    0  0.4603569E-005  0.9118800E+02  0.7546771E-02  0.1235069E+00
         25   -1    0    0    0    0  0.00000000000E+00  0.00000000000E+00  0.99999998245E-14  0.12500000000E+03  0.12500000000E+03 0.  0.
          5    1    1    0  501    0  0.41443659578E+02  0.35880789110E+02  0.29650498370E+02  0.62500000000E+02  0.47000000000E+01 0. -1.
         -5    1    1    0    0  501 -0.41443659578E+02 -0.35880789110E+02 -0.29650498370E+02  0.62500000000E+02  0.47000000000E+01 0. -1.
</event>
<event>
 3    0  0.4603569E-005  0.9118800E+02  0.7546771E-02  0.1235069E+00
         25   -1    0    0    0    0  0.00000000000E+00  0.00000000000E+00  0.99999998245E-14  0.12500000000E+03  0.12500000000E+03 0.  0.
          5    1    1    0  501    0  0.94135369610E+01 -0.57295269069E+02 -0.22645031776E+02  0.62500000000E+02  0.47000000000E+01 0.  1.
         -5    1    1    0    0  501 -0.94135369610E+01  0.57295269069E+02  0.22645031776E+02  0.62500000000E+02  0.47000000000E+01 0.  1.
</event>
<event>
 3    0  0.4603569E-005  0.9118800E+02  0.7546771E-02  0.1235069E+00
         25   -1    0    0    0    0  0.00000000000E+00  0.00000000000E+00  0.99999998245E-14  0.12500000000E+03  0.12500000000E+03 0.  0.
          5    1    1    0  501    0 -0.54894154410E+02 -0.96361463682E+01 -0.27891512953E+02  0.62500000000E+02  0.47000000000E+01 0.  1.
         -5    1    1    0    0  501  0.54894154410E+02  0.96361463682E+01  0.27891512953E+02  0.62500000000E+02  0.47000000000E+01 0.  1.
</event>
<event>
 3    0  0.4603569E-005  0.9118800E+02  0.7546771E-02  0.1235069E+00
         25   -1    0    0    0    0  0.00000000000E+00  0.00000000000E+00  0.99999998245E-14  0.12500000000E+03  0.12500000000E+03 0.  0.
          5    1    1    0  501    0  0.43662189307E+02 -0.34995027103E+02  0.27443055643E+02  0.62500000000E+02  0.47000000000E+01 0.  1.
         -5    1    1    0    0  501 -0.43662189307E+02  0.34995027103E+02 -0.27443055643E+02  0.62500000000E+02  0.47000000000E+01 0.  1.
</event>
<event>
 3    0  0.4603569E-005  0.9118800E+02  0.7546771E-02  0.1235069E+00
         25   -1    0    0    0    0  0.00000000000E+00  0.00000000000E+00  0.99999998245E-14  0.12500000000E+03  0.12500000000E+03 0.  0.
          5    1    1    0  501    0 -0.18986490141E+02  0.12228940106E+02  0.58087229371E+02  0.62500000000E+02  0.47000000000E+01 0.  1.
         -5    1    1    0    0  501  0.18986490141E+02 -0.12228940106E+02 -0.58087229371E+02  0.62500000000E+02  0.47000000000E+01 0.  1.
</event>
<event>
 3    0  0.4603569E-005  0.9118800E+02  0.7546771E-02  0.1235069E+00
         25   -1    0    0    0    0  0.00000000000E+00  0.00000000000E+00  0.99999998245E-14  0.12500000000E+03  0.12500000000E+03 0.  0.
          5    1    1    0  501    0 -0.32372000990E+02  0.43023412361E+02 -0.31387888439E+02  0.62500000000E+02  0.47000000000E+01 0.  1.
         -5    1    1    0    0  501  0.32372000990E+02 -0.43023412361E+02  0.31387888439E+02  0.62500000000E+02  0.47000000000E+01 0.  1.
</event>
<event>
 3    0  0.4603569E-005  0.9118800E+02  0.7546771E-02  0.1235069E+00
         25   -1    0    0    0    0  0.00000000000E+00  0.00000000000E+00  0.99999998245E-14  0.12500000000E+03  0.12500000000E+03 0.  0.
          5    1    1    0  501    0  0.54643849951E+02  0.20285935746E+02  0.22061062383E+02  0.62500000000E+02  0.47000000000E+01 0. -1.
         -5    1    1    0    0  501 -0.54643849951E+02 -0.20285935746E+02 -0.22061062383E+02  0.62500000000E+02  0.47000000000E+01 0. -1.
</event>
<event>
 3    0  0.4603569E-005  0.9118800E+02  0.7546771E-02  0.1235069E+00
         25   -1    0    0    0    0  0.00000000000E+00  0.00000000000E+00  0.99999998245E-14  0.12500000000E+03  0.12500000000E+03 0.  0.
          5    1    1    0  501    0  0.10255747780E+02  0.29393563928E+02 -0.53990721768E+02  0.62500000000E+02  0.47000000000E+01 0. -1.
         -5    1    1    0    0  501 -0.10255747780E+02 -0.29393563928E+02  0.53990721768E+02  0.62500000000E+02  0.47000000000E+01 0. -1.
</event>
<event>
 3    0  0.4603569E-005  0.9118800E+02  0.7546771E-02  0.1235069E+00
         25   -1    0    0    0    0  0.00000000000E+00  0.00000000000E+00  0.99999998245E-14  0.12500000000E+03  0.12500000000E+03 0.  0.
          5    1    1    0  501    0 -0.23720927928E+02 -0.13758832877E+02  0.55965811851E+02  0.62500000000E+02  0.47000000000E+01 0. -1.
         -5    1    1    0    0  501  0.23720927928E+02  0.13758832877E+02 -0.55965811851E+02  0.62500000000E+02  0.47000000000E+01 0. -1.
</event>
<event>
 3    0  0.4603569E-005  0.9118800E+02  0.7546771E-02  0.1235069E+00
         25   -1    0    0    0    0  0.00000000000E+00  0.00000000000E+00  0.99999998245E-14  0.12500000000E+03  0.12500000000E+03 0.  0.
          5    1    1    0  501    0  0.42575131425E+01  0.33952834533E+02  0.52088757031E+02  0.62500000000E+02  0.47000000000E+01 0. -1.
         -5    1    1    0    0  501 -0.42575131425E+01 -0.33952834533E+02 -0.52088757031E+02  0.62500000000E+02  0.47000000000E+01 0. -1.
</event>
<event>
 3    0  0.4603569E-005  0.9118800E+02  0.7546771E-02  0.1235069E+00
         25   -1    0    0    0    0  0.00000000000E+00  0.00000000000E+00  0.99999998245E-14  0.12500000000E+03  0.12500000000E+03 0.  0.
          5    1    1    0  501    0 -0.49414137585E+02  0.37971010287E+02 -0.77806455900E+00  0.62500000000E+02  0.47000000000E+01 0. -1.
         -5    1    1    0    0  501  0.49414137585E+02 -0.37971010287E+02  0.77806455900E+00  0.62500000000E+02  0.47000000000E+01 0. -1.
</event>
<event>
 3    0  0.4603569E-005  0.9118800E+02  0.7546771E-02  0.1235069E+00
         25   -1    0    0    0    0  0.00000000000E+00  0.00000000000E+00  0.99999998245E-14  0.12500000000E+03  0.12500000000E+03 0.  0.
          5    1    1    0  501    0 -0.57918608210E+02  0.19398632460E+02 -0.12380948337E+02  0.62500000000E+02  0.47000000000E+01 0.  1.
         -5    1    1    0    0  501  0.57918608210E+02 -0.19398632460E+02  0.12380948337E+02  0.62500000000E+02  0.47000000000E+01 0.  1.
</event>
<event>
 3    0  0.4603569E-005  0.9118800E+02  0.7546771E-02  0.1235069E+00
         25   -1    0    0    0    0  0.00000000000E+00  0.00000000000E+00  0.99999998245E-14  0.12500000000E+03  0.12500000000E+03 0.  0.
          5    1    1    0  501    0 -0.30089822962E+01  0.11595325236E+01 -0.62239549403E+02  0.62500000000E+02  0.47000000000E+01 0.  1.
         -5    1    1    0    0  501  0.30089822962E+01 -0.11595325236E+01  0.62239549403E+02  0.62500000000E+02  0.47000000000E+01 0.  1.
</event>
<event>
 3    0  0.4603569E-005  0.9118800E+02  0.7546771E-02  0.1235069E+00
         25   -1    0    0    0    0  0.00000000000E+00  0.00000000000E+00  0.99999998245E-14  0.12500000000E+03  0.12500000000E+03 0.  0.
          5    1    1    0  501    0  0.58075636090E+01 -0.58350299158E+02  0.21111011182E+02  0.62500000000E+02  0.47000000000E+01 0.  1.
         -5    1    1    0    0  501 -0.58075636090E+01  0.58350299158E+02 -0.21111011182E+02  0.62500000000E+02  0.47000000000E+01 0.  1.
</event>
<event>
 3    0  0.4603569E-005  0.9118800E+02  0.7546771E-02  0.1235069E+00
         25   -1    0    0    0    0  0.00000000000E+00  0.00000000000E+00  0.99999998245E-14  0.12500000000E+03  0.12500000000E+03 0.  0.
          5    1    1    0  501    0  0.31758987540E+02  0.79996264969E+01  0.53023887884E+02  0.62500000000E+02  0.47000000000E+01 0. -1.
         -5    1    1    0    0  501 -0.31758987540E+02 -0.79996264969E+01 -0.53023887884E+02  0.62500000000E+02  0.47000000000E+01 0. -1.
</event>
<event>
 3    0  0.4603569E-005  0.9118800E+02  0.7546771E-02  0.1235069E+00
         25   -1    0    0    0    0  0.00000000000E+00  0.00000000000E+00  0.99999998245E-14  0.12500000000E+03  0.12500000000E+03 0.  0.
          5    1    1    0  501    0  0.53154413495E+01 -0.34676204074E+02 -0.51511813735E+02  0.62500000000E+02  0.47000000000E+01 0. -1.
         -5    1    1    0    0  501 -0.53154413495E+01  0.34676204074E+02  0.51511813735E+02  0.62500000000E+02  0.47000000000E+01 0. -1.
</event>
<event>
 3    0  0.4603569E-005  0.9118800E+02  0.7546771E-02  0.1235069E+00
         25   -1    0    0    0    0  0.00000000000E+00  0.00000000000E+00  0.99999998245E-14  0.12500000000E+03  0.12500000000E+03 0.  0.
          5    1    1    0  501    0  0.56581901422E+02  0.26018752367E+02 -0.23817969531E+01  0.62500000000E+02  0.47000000000E+01 0. -1.
         -5    1    1    0    0  501 -0.56581901422E+02 -0.26018752367E+02  0.23817969531E+01  0.62500000000E+02  0.47000000000E+01 0. -1.
</event>
<event>
 3    0  0.4603569E-005  0.9118800E+02  0.7546771E-02  0.1235069E+00
         25   -1    0    0    0    0  0.00000000000E+00  0.00000000000E+00  0.99999998245E-14  0.12500000000E+03  0.12500000000E+03 0.  0.
          5    1    1    0  501    0 -0.39210442219E+02  0.43149937701E+02  0.22017813184E+02  0.62500000000E+02  0.47000000000E+01 0.  1.
         -5    1    1    0    0  501  0.39210442219E+02 -0.43149937701E+02 -0.22017813184E+02  0.62500000000E+02  0.47000000000E+01 0.  1.
</event>
<event>
 3    0  0.4603569E-005  0.9118800E+02  0.7546771E-02  0.1235069E+00
         25   -1    0    0    0    0  0.00000000000E+00  0.00000000000E+00  0.99999998245E-14  0.12500000000E+03  0.12500000000E+03 0.  0.
          5    1    1    0  501    0 -0.27310390610E+02  0.47208107868E+02  0.30161185591E+02  0.62500000000E+02  0.47000000000E+01 0.  1.
         -5    1    1    0    0  501  0.27310390610E+02 -0.47208107868E+02 -0.30161185591E+02  0.62500000000E+02  0.47000000000E+01 0.  1.
</event>
<event>
 3    0  0.4603569E-005  0.9118800E+02  0.7546771E-02  0.1235069E+00
         25   -1    0    0    0    0  0.00000000000E+00  0.00000000000E+00  0.99999998245E-14  0.12500000000E+03  0.12500000000E+03 0.  0.
          5    1    1    0  501    0 -0.34797791551E+02  0.51692563668E+02 -0.10735756161E+01  0.62500000000E+02  0.47000000000E+01 0. -1.
         -5    1    1    0    0  501  0.34797791551E+02 -0.51692563668E+02  0.10735756161E+01  0.62500000000E+02  0.47000000000E+01 0. -1.
</event>
<event>
 3    0  0.4603569E-005  0.9118800E+02  0.7546771E-02  0.1235069E+00
         25   -1    0    0    0    0  0.00000000000E+00  0.00000000000E+00  0.99999998245E-14  0.12500000000E+03  0.12500000000E+03 0.  0.
          5    1    1    0  501    0  0.31134686090E+02 -0.61343834500E+01  0.53639170964E+02  0.62500000000E+02  0.47000000000E+01 0. -1.
         -5    1    1    0    0  501 -0.31134686090E+02  0.61343834500E+01 -0.53639170964E+02  0.62500000000E+02  0.47000000000E+01 0. -1.
</event>
<event>
 3    0  0.4603569E-005  0.9118800E+02  0.7546771E-02  0.1235069E+00
         25   -1    0    0    0    0  0.00000000000E+00  0.00000000000E+00  0.99999998245E-14  0.12500000000E+03  0.12500000000E+03 0.  0.
          5    1    1    0  501    0 -0.36949307835E+02  0.49809773915E+02 -0.61558974142E+01  0.62500000000E+02  0.47000000000E+01 0. -1.
         -5    1    1    0    0  501  0.36949307835E+02 -0.49809773915E+02  0.61558974142E+01  0.62500000000E+02  0.47000000000E+01 0. -1.
</event>
<event>
 3    0  0.4603569E-005  0.9118800E+02  0.7546771E-02  0.1235069E+00
         25   -1    0    0    0    0  0.00000000000E+00  0.00000000000E+00  0.99999998245E-14  0.12500000000E+03  0.12500000000E+03 0.  0.
          5    1    1    0  501    0  0.38886718243E+02 -0.12777545214E+02 -0.46996994400E+02  0.62500000000E+02  0.47000000000E+01 0.  1.
         -5    1    1    0    0  501 -0.38886718243E+02  0.12777545214E+02  0.46996994400E+02  0.62500000000E+02  0.47000000000E+01 0.  1.
</event>
<event>
 3    0  0.4603569E-005  0.9118800E+02  0.7546771E-02  0.1235069E+00
         25   -1    0    0    0    0  0.00000000000E+00  0.00000000000E+00  0.99999998245E-14  0.12500000000E+03  0.12500000000E+03 0.  0.
          5    1    1    0  501    0  0.29901472482E+02  0.34464718901E+02 -0.42452857319E+02  0.62500000000E+02  0.47000000000E+01 0.  1.
         -5    1    1    0    0  501 -0.29901472482E+02 -0.34464718901E+02  0.42452857319E+02  0.62500000000E+02  0.47000000000E+01 0.  1.
</event>
<event>
 3    0  0.4603569E-005  0.9118800E+02  0.7546771E-02  0.1235069E+00
         25   -1    0    0    0    0  0.00000000000E+00  0.00000000000E+00  0.99999998245E-14  0.12500000000E+03  0.12500000000E+03 0.  0.
          5    1    1    0  501    0 -0.55668088087E+02 -0.27842021537E+02 -0.31695118635E+01  0.62500000000E+02  0.47000000000E+01 0.  1.
         -5    1    1    0    0  501  0.55668088087E+02  0.27842021537E+02  0.31695118635E+01  0.62500000000E+02  0.47000000000E+01 0.  1.
</event>
<event>
 3    0  0.4603569E-005  0.9118800E+02  0.7546771E-02  0.1235069E+00
         25   -1    0    0    0    0  0.00000000000E+00  0.00000000000E+00  0.99999998245E-14  0.12500000000E+03  0.12500000000E+03 0.  0.
          5    1    1    0  501    0  0.45600729931E+02  0.23879592999E+02 -0.35135430381E+02  0.62500000000E+02  0.47000000000E+01 0. -1.
         -5    1    1    0    0  501 -0.45600729931E+02 -0.23879592999E+02  0.35135430381E+02  0.62500000000E+02  0.47000000000E+01 0. -1.
</event>
<event>
 3    0  0.4603569E-005  0.9118800E+02  0.7546771E-02  0.1235069E+00
         25   -1    0    0    0    0  0.00000000000E+00  0.00000000000E+00  0.99999998245E-14  0.12500000000E+03  0.12500000000E+03 0.  0.
          5    1    1    0  501    0 -0.26755166970E+02  0.16530279778E+02 -0.53805862979E+02  0.62500000000E+02  0.47000000000E+01 0. -1.
         -5    1    1    0    0  501  0.26755166970E+02 -0.16530279778E+02  0.53805862979E+02  0.62500000000E+02  0.47000000000E+01 0. -1.
</event>
<event>
 3    0  0.4603569E-005  0.9118800E+02  0.7546771E-02  0.1235069E+00
         25   -1    0    0    0    0  0.00000000000E+00  0.00000000000E+00  0.99999998245E-14  0.12500000000E+03  0.12500000000E+03 0.  0.
          5    1    1    0  501    0 -0.21616637953E+02  0.47139039703E+02 -0.34565761954E+02  0.62500000000E+02  0.47000000000E+01 0. -1.
         -5    1    1    0    0  501  0.21616637953E+02 -0.47139039703E+02  0.34565761954E+02  0.62500000000E+02  0.47000000000E+01 0. -1.
</event>
<event>
 3    0  0.4603569E-005  0.9118800E+02  0.7546771E-02  0.1235069E+00
         25   -1    0    0    0    0  0.00000000000E+00  0.00000000000E+00  0.99999998245E-14  0.12500000000E+03  0.12500000000E+03 0.  0.
          5    1    1    0  501    0 -0.37251407235E+01 -0.61361351046E+02  0.10250264599E+02  0.62500000000E+02  0.47000000000E+01 0.  1.
         -5    1    1    0    0  501  0.37251407235E+01  0.61361351046E+02 -0.10250264599E+02  0.62500000000E+02  0.47000000000E+01 0.  1.
</event>
<event>
 3    0  0.4603569E-005  0.9118800E+02  0.7546771E-02  0.1235069E+00
         25   -1    0    0    0    0  0.00000000000E+00  0.00000000000E+00  0.99999998245E-14  0.12500000000E+03  0.12500000000E+03 0.  0.
          5    1    1    0  501    0 -0.54378172570E+02 -0.22246486200E+02  0.20791060572E+02  0.62500000000E+02  0.47000000000E+01 0. -1.
         -5    1    1    0    0  501  0.54378172570E+02  0.22246486200E+02 -0.20791060572E+02  0.62500000000E+02  0.47000000000E+01 0. -1.
</event>
<event>
 3    0  0.4603569E-005  0.9118800E+02  0.7546771E-02  0.1235069E+00
         25   -1    0    0    0    0  0.00000000000E+00  0.00000000000E+00  0.99999998245E-14  0.12500000000E+03  0.12500000000E+03 0.  0.
          5    1    1    0  501    0  0.20497104556E+02 -0.15047824166E+02 -0.56899839127E+02  0.62500000000E+02  0.47000000000E+01 0.  1.
         -5    1    1    0    0  501 -0.20497104556E+02  0.15047824166E+02  0.56899839127E+02  0.62500000000E+02  0.47000000000E+01 0.  1.
</event>
<event>
 3    0  0.4603569E-005  0.9118800E+02  0.7546771E-02  0.1235069E+00
         25   -1    0    0    0    0  0.00000000000E+00  0.00000000000E+00  0.99999998245E-14  0.12500000000E+03  0.12500000000E+03 0.  0.
          5    1    1    0  501    0 -0.24160474575E+02  0.56538110400E+02 -0.10191836965E+02  0.62500000000E+02  0.47000000000E+01 0.  1.
         -5    1    1    0    0  501  0.24160474575E+02 -0.56538110400E+02  0.10191836965E+02  0.62500000000E+02  0.47000000000E+01 0.  1.
</event>
<event>
 3    0  0.4603569E-005  0.9118800E+02  0.7546771E-02  0.1235069E+00
         25   -1    0    0    0    0  0.00000000000E+00  0.00000000000E+00  0.99999998245E-14  0.12500000000E+03  0.12500000000E+03 0.  0.
          5    1    1    0  501    0  0.45687097132E+02 -0.37653716745E+02 -0.19469123529E+02  0.62500000000E+02  0.47000000000E+01 0. -1.
         -5    1    1    0    0  501 -0.45687097132E+02  0.37653716745E+02  0.19469123529E+02  0.62500000000E+02  0.47000000000E+01 0. -1.
</event>
<event>
 3    0  0.4603569E-005  0.9118800E+02  0.7546771E-02  0.1235069E+00
         25   -1    0    0    0    0  0.00000000000E+00  0.00000000000E+00  0.99999998245E-14  0.12500000000E+03  0.12500000000E+03 0.  0.
          5    1    1    0  501    0 -0.43594016912E+02 -0.31579703668E+02  0.31407706152E+02  0.62500000000E+02  0.47000000000E+01 0.  1.
         -5    1    1    0    0  501  0.43594016912E+02  0.31579703668E+02 -0.31407706152E+02  0.62500000000E+02  0.47000000000E+01 0.  1.
</event>
<event>
 3    0  0.4603569E-005  0.9118800E+02  0.7546771E-02  0.1235069E+00
         25   -1    0    0    0    0  0.00000000000E+00  0.00000000000E+00  0.99999998245E-14  0.12500000000E+03  0.12500000000E+03 0.  0.
          5    1    1    0  501    0  0.32347040027E+02 -0.18870283244E+01  0.53237844862E+02  0.62500000000E+02  0.47000000000E+01 0.  1.
         -5    1    1    0    0  501 -0.32347040027E+02  0.18870283244E+01 -0.53237844862E+02  0.62500000000E+02  0.47000000000E+01 0.  1.
</event>
<event>
 3    0  0.4603569E-005  0.9118800E+02  0.7546771E-02  0.1235069E+00
         25   -1    0    0    0    0  0.00000000000E+00  0.00000000000E+00  0.99999998245E-14  0.12500000000E+03  0.12500000000E+03 0.  0.
          5    1    1    0  501    0  0.40539755377E+02  0.35426995582E+02  0.31394525287E+02  0.62500000000E+02  0.47000000000E+01 0. -1.
         -5    1    1    0    0  501 -0.40539755377E+02 -0.35426995582E+02 -0.31394525287E+02  0.62500000000E+02  0.47000000000E+01 0. -1.
</event>
<event>
 3    0  0.4603569E-005  0.9118800E+02  0.7546771E-02  0.1235069E+00
         25   -1    0    0    0    0  0.00000000000E+00  0.00000000000E+00  0.99999998245E-14  0.12500000000E+03  0.12500000000E+03 0.  0.
          5    1    1    0  501    0  0.19179326907E+02  0.20909533728E+02  0.55489682092E+02  0.62500000000E+02  0.47000000000E+01 0. -1.
         -5    1    1    0    0  501 -0.19179326907E+02 -0.20909533728E+02 -0.55489682092E+02  0.62500000000E+02  0.47000000000E+01 0. -1.
</event>
<event>
 3    0  0.4603569E-005  0.9118800E+02  0.7546771E-02  0.1235069E+00
         25   -1    0    0    0    0  0.00000000000E+00  0.00000000000E+00  0.99999998245E-14  0.12500000000E+03  0.12500000000E+03 0.  0.
          5    1    1    0  501    0  0.73301725507E+00  0.44657871141E+02 -0.43466046874E+02  0.62500000000E+02  0.47000000000E+01 0.  1.
         -5    1    1    0    0  501 -0.73301725507E+00 -0.44657871141E+02  0.43466046874E+02  0.62500000000E+02  0.47000000000E+01 0.  1.
</event>
<event>
 3    0  0.4603569E-005  0.9118800E+02  0.7546771E-02  0.1235069E+00
         25   -1    0    0    0    0  0.00000000000E+00  0.00000000000E+00  0.99999998245E-14  0.12500000000E+03  0.12500000000E+03 0.  0.
          5    1    1    0  501    0 -0.26644561915E+02 -0.10977285685E+02 -0.55260533108E+02  0.62500000000E+02  0.47000000000E+01 0.  1.
         -5    1    1    0    0  501  0.26644561915E+02  0.10977285685E+02  0.55260533108E+02  0.62500000000E+02  0.47000000000E+01 0.  1.
</event>
<event>
 3    0  0.4603569E-005  0.9118800E+02  0.7546771E-02  0.1235069E+00
         25   -1    0    0    0    0  0.00000000000E+00  0.00000000000E+00  0.99999998245E-14  0.12500000000E+03  0.12500000000E+03 0.  0.
          5    1    1    0  501    0 -0.87731584901E+01  0.61048824773E+02 -0.89572698947E+01  0.62500000000E+02  0.47000000000E+01 0. -1.
         -5    1    1    0    0  501  0.87731584901E+01 -0.61048824773E+02  0.89572698947E+01  0.62500000000E+02  0.47000000000E+01 0. -1.
</event>
<event>
 3    0  0.4603569E-005  0.9118800E+02  0.7546771E-02  0.1235069E+00
         25   -1    0    0    0    0  0.00000000000E+00  0.00000000000E+00  0.99999998245E-14  0.12500000000E+03  0.12500000000E+03 0.  0.
          5    1    1    0  501    0 -0.16883277334E+02 -0.52888661073E+02 -0.28317917938E+02  0.62500000000E+02  0.47000000000E+01 0. -1.
         -5    1    1    0    0  501  0.16883277334E+02  0.52888661073E+02  0.28317917938E+02  0.62500000000E+02  0.47000000000E+01 0. -1.
</event>
<event>
 3    0  0.4603569E-005  0.9118800E+02  0.7546771E-02  0.1235069E+00
         25   -1    0    0    0    0  0.00000000000E+00  0.00000000000E+00  0.99999998245E-14  0.12500000000E+03  0.12500000000E+03 0.  0.
          5    1    1    0  501    0  0.33553587051E+02 -0.68141519818E+01  0.52075753752E+02  0.62500000000E+02  0.47000000000E+01 0. -1.
         -5    1    1    0    0  501 -0.33553587051E+02  0.68141519818E+01 -0.52075753752E+02  0.62500000000E+02  0.47000000000E+01 0. -1.
</event>
<event>
 3    0  0.4603569E-005  0.9118800E+02  0.7546771E-02  0.1235069E+00
         25   -1    0    0    0    0  0.00000000000E+00  0.00000000000E+00  0.99999998245E-14  0.12500000000E+03  0.12500000000E+03 0.  0.
          5    1    1    0  501    0 -0.24433724679E+02 -0.41971912667E+02  0.39057798779E+02  0.62500000000E+02  0.47000000000E+01 0. -1.
         -5    1    1    0    0  501  0.24433724679E+02  0.41971912667E+02 -0.39057798779E+02  0.62500000000E+02  0.47000000000E+01 0. -1.
</event>
<event>
 3    0  0.4603569E-005  0.9118800E+02  0.7546771E-02  0.1235069E+00
         25   -1    0    0    0    0  0.00000000000E+00  0.00000000000E+00  0.99999998245E-14  0.12500000000E+03  0.12500000000E+03 0.  0.
          5    1    1    0  501    0 -0.37321406981E+02 -0.29925613389E+02  0.39946592399E+02  0.62500000000E+02  0.47000000000E+01 0. -1.
         -5    1    1    0    0  501  0.37321406981E+02  0.29925613389E+02 -0.39946592399E+02  0.62500000000E+02  0.47000000000E+01 0. -1.
</event>
<event>
 3    0  0.4603569E-005  0.9118800E+02  0.7546771E-02  0.1235069E+00
         25   -1    0    0    0    0  0.00000000000E+00  0.00000000000E+00  0.99999998245E-14  0.12500000000E+03  0.12500000000E+03 0.  0.
          5    1    1    0  501    0 -0.36471208885E+02 -0.29120955525E+02 -0.41303521300E+02  0.62500000000E+02  0.47000000000E+01 0.  1.
         -5    1    1    0    0  501  0.36471208885E+02  0.29120955525E+02  0.41303521300E+02  0.62500000000E+02  0.47000000000E+01 0.  1.
</event>
<event>
 3    0  0.4603569E-005  0.9118800E+02  0.7546771E-02  0.1235069E+00
         25   -1    0    0    0    0  0.00000000000E+00  0.00000000000E+00  0.99999998245E-14  0.12500000000E+03  0.12500000000E+03 0.  0.
          5    1    1    0  501    0  0.61412147623E+02  0.10088827020E+02 -0.33051011708E+01  0.62500000000E+02  0.47000000000E+01 0. -1.
         -5    1    1    0    0  501 -0.61412147623E+02 -0.10088827020E+02  0.33051011708E+01  0.62500000000E+02  0.47000000000E+01 0. -1.
</event>
<event>
 3    0  0.4603569E-005  0.9118800E+02  0.7546771E-02  0.1235069E+00
         25   -1    0    0    0    0  0.00000000000E+00  0.00000000000E+00  0.99999998245E-14  0.12500000000E+03  0.12500000000E+03 0.  0.
          5    1    1    0  501    0  0.51759417711E+02 -0.33941792512E+02  0.72854237548E+01  0.62500000000E+02  0.47000000000E+01 0.  1.
         -5    1    1    0    0  501 -0.51759417711E+02  0.33941792512E+02 -0.72854237548E+01  0.62500000000E+02  0.47000000000E+01 0.  1.
</event>
<event>
 3    0  0.4603569E-005  0.9118800E+02  0.7546771E-02  0.1235069E+00
         25   -1    0    0    0    0  0.00000000000E+00  0.00000000000E+00  0.99999998245E-14  0.12500000000E+03  0.12500000000E+03 0.  0.
          5    1    1    0  501    0 -0.51703890813E+02 -0.29081703570E+02  0.19108170826E+02  0.62500000000E+02  0.47000000000E+01 0. -1.
         -5    1    1    0    0  501  0.51703890813E+02  0.29081703570E+02 -0.19108170826E+02  0.62500000000E+02  0.47000000000E+01 0. -1.
</event>
<event>
 3    0  0.4603569E-005  0.9118800E+02  0.7546771E-02  0.1235069E+00
         25   -1    0    0    0    0  0.00000000000E+00  0.00000000000E+00  0.99999998245E-14  0.12500000000E+03  0.12500000000E+03 0.  0.
          5    1    1    0  501    0 -0.86541214753E+00  0.21863385388E+02  0.58355834680E+02  0.62500000000E+02  0.47000000000E+01 0. -1.
         -5    1    1    0    0  501  0.86541214753E+00 -0.21863385388E+02 -0.58355834680E+02  0.62500000000E+02  0.47000000000E+01 0. -1.
</event>
<event>
 3    0  0.4603569E-005  0.9118800E+02  0.7546771E-02  0.1235069E+00
         25   -1    0    0    0    0  0.00000000000E+00  0.00000000000E+00  0.99999998245E-14  0.12500000000E+03  0.12500000000E+03 0.  0.
          5    1    1    0  501    0 -0.44407828856E+02  0.30828851076E+02 -0.31011073468E+02  0.62500000000E+02  0.47000000000E+01 0. -1.
         -5    1    1    0    0  501  0.44407828856E+02 -0.30828851076E+02  0.31011073468E+02  0.62500000000E+02  0.47000000000E+01 0. -1.
</event>
<event>
 3    0  0.4603569E-005  0.9118800E+02  0.7546771E-02  0.1235069E+00
         25   -1    0    0    0    0  0.00000000000E+00  0.00000000000E+00  0.99999998245E-14  0.12500000000E+03  0.12500000000E+03 0.  0.
          5    1    1    0  501    0 -0.11454860984E+02  0.19699055689E+02 -0.58007700909E+02  0.62500000000E+02  0.47000000000E+01 0.  1.
         -5    1    1    0    0  501  0.11454860984E+02 -0.19699055689E+02  0.58007700909E+02  0.62500000000E+02  0.47000000000E+01 0.  1.
</event>
<event>
 3    0  0.4603569E-005  0.9118800E+02  0.7546771E-02  0.1235069E+00
         25   -1    0    0    0    0  0.00000000000E+00  0.00000000000E+00  0.99999998245E-14  0.12500000000E+03  0.12500000000E+03 0.  0.
          5    1    1    0  501    0 -0.44636343281E+01  0.28288356390E+00  0.62162335425E+02  0.62500000000E+02  0.47000000000E+01 0. -1.
         -5    1    1    0    0  501  0.44636343281E+01 -0.28288356390E+00 -0.62162335425E+02  0.62500000000E+02  0.47000000000E+01 0. -1.
</event>
<event>
 3    0  0.4603569E-005  0.9118800E+02  0.7546771E-02  0.1235069E+00
         25   -1    0    0    0    0  0.00000000000E+00  0.00000000000E+00  0.99999998245E-14  0.12500000000E+03  0.12500000000E+03 0.  0.
          5    1    1    0  501    0 -0.10452492811E+02 -0.59343105700E+02  0.15915439044E+02  0.62500000000E+02  0.47000000000E+01 0.  1.
         -5    1    1    0    0  501  0.10452492811E+02  0.59343105700E+02 -0.15915439044E+02  0.62500000000E+02  0.47000000000E+01 0.  1.
</event>
<event>
 3    0  0.4603569E-005  0.9118800E+02  0.7546771E-02  0.1235069E+00
         25   -1    0    0    0    0  0.00000000000E+00  0.00000000000E+00  0.99999998245E-14  0.12500000000E+03  0.12500000000E+03 0.  0.
          5    1    1    0  501    0  0.31068499644E+01 -0.16351669538E+02  0.60059390495E+02  0.62500000000E+02  0.47000000000E+01 0.  1.
         -5    1    1    0    0  501 -0.31068499644E+01  0.16351669538E+02 -0.60059390495E+02  0.62500000000E+02  0.47000000000E+01 0.  1.
</event>
<event>
 3    0  0.4603569E-005  0.9118800E+02  0.7546771E-02  0.1235069E+00
         25   -1    0    0    0    0  0.00000000000E+00  0.00000000000E+00  0.99999998245E-14  0.12500000000E+03  0.12500000000E+03 0.  0.
          5    1    1    0  501    0  0.81504133471E+01  0.52522741136E+02 -0.32543700249E+02  0.62500000000E+02  0.47000000000E+01 0.  1.
         -5    1    1    0    0  501 -0.81504133471E+01 -0.52522741136E+02  0.32543700249E+02  0.62500000000E+02  0.47000000000E+01 0.  1.
</event>
<event>
 3    0  0.4603569E-005  0.9118800E+02  0.7546771E-02  0.1235069E+00
         25   -1    0    0    0    0  0.00000000000E+00  0.00000000000E+00  0.99999998245E-14  0.12500000000E+03  0.12500000000E+03 0.  0.
          5    1    1    0  501    0 -0.55681699014E+02 -0.24225835567E+02  0.14029158423E+02  0.62500000000E+02  0.47000000000E+01 0. -1.
         -5    1    1    0    0  501  0.55681699014E+02  0.24225835567E+02 -0.14029158423E+02  0.62500000000E+02  0.47000000000E+01 0. -1.
</event>
<event>
 3    0  0.4603569E-005  0.9118800E+02  0.7546771E-02  0.1235069E+00
         25   -1    0    0    0    0  0.00000000000E+00  0.00000000000E+00  0.99999998245E-14  0.12500000000E+03  0.12500000000E+03 0.  0.
          5    1    1    0  501    0 -0.33803111433E+01  0.49598278256E+02 -0.37586490799E+02  0.62500000000E+02  0.47000000000E+01 0. -1.
         -5    1    1    0    0  501  0.33803111433E+01 -0.49598278256E+02  0.37586490799E+02  0.62500000000E+02  0.47000000000E+01 0. -1.
</event>
<event>
 3    0  0.4603569E-005  0.9118800E+02  0.7546771E-02  0.1235069E+00
         25   -1    0    0    0    0  0.00000000000E+00  0.00000000000E+00  0.99999998245E-14  0.12500000000E+03  0.12500000000E+03 0.  0.
          5    1    1    0  501    0 -0.44123911379E+02  0.32155991379E+02  0.30053829424E+02  0.62500000000E+02  0.47000000000E+01 0.  1.
         -5    1    1    0    0  501  0.44123911379E+02 -0.32155991379E+02 -0.30053829424E+02  0.62500000000E+02  0.47000000000E+01 0.  1.
</event>
<event>
 3    0  0.4603569E-005  0.9118800E+02  0.7546771E-02  0.1235069E+00
         25   -1    0    0    0    0  0.00000000000E+00  0.00000000000E+00  0.99999998245E-14  0.12500000000E+03  0.12500000000E+03 0.  0.
          5    1    1    0  501    0 -0.41535829425E+02  0.31624631962E+02  0.34041409008E+02  0.62500000000E+02  0.47000000000E+01 0.  1.
         -5    1    1    0    0  501  0.41535829425E+02 -0.31624631962E+02 -0.34041409008E+02  0.62500000000E+02  0.47000000000E+01 0.  1.
</event>
<event>
 3    0  0.4603569E-005  0.9118800E+02  0.7546771E-02  0.1235069E+00
         25   -1    0    0    0    0  0.00000000000E+00  0.00000000000E+00  0.99999998245E-14  0.12500000000E+03  0.12500000000E+03 0.  0.
          5    1    1    0  501    0 -0.48981170353E+02  0.27409299723E+02 -0.27087547684E+02  0.62500000000E+02  0.47000000000E+01 0. -1.
         -5    1    1    0    0  501  0.48981170353E+02 -0.27409299723E+02  0.27087547684E+02  0.62500000000E+02  0.47000000000E+01 0. -1.
</event>
<event>
 3    0  0.4603569E-005  0.9118800E+02  0.7546771E-02  0.1235069E+00
         25   -1    0    0    0    0  0.00000000000E+00  0.00000000000E+00  0.99999998245E-14  0.12500000000E+03  0.12500000000E+03 0.  0.
          5    1    1    0  501    0  0.23413579521E+02 -0.53408658713E+02  0.21988166556E+02  0.62500000000E+02  0.47000000000E+01 0.  1.
         -5    1    1    0    0  501 -0.23413579521E+02  0.53408658713E+02 -0.21988166556E+02  0.62500000000E+02  0.47000000000E+01 0.  1.
</event>
<event>
 3    0  0.4603569E-005  0.9118800E+02  0.7546771E-02  0.1235069E+00
         25   -1    0    0    0    0  0.00000000000E+00  0.00000000000E+00  0.99999998245E-14  0.12500000000E+03  0.12500000000E+03 0.  0.
          5    1    1    0  501    0 -0.55809873469E+02  0.22404919216E+02 -0.16353520057E+02  0.62500000000E+02  0.47000000000E+01 0. -1.
         -5    1    1    0    0  501  0.55809873469E+02 -0.22404919216E+02  0.16353520057E+02  0.62500000000E+02  0.47000000000E+01 0. -1.
</event>
<event>
 3    0  0.4603569E-005  0.9118800E+02  0.7546771E-02  0.1235069E+00
         25   -1    0    0    0    0  0.00000000000E+00  0.00000000000E+00  0.99999998245E-14  0.12500000000E+03  0.12500000000E+03 0.  0.
          5    1    1    0  501    0 -0.38157881944E+02  0.48712167908E+02  0.74337570036E+01  0.62500000000E+02  0.47000000000E+01 0. -1.
         -5    1    1    0    0  501  0.38157881944E+02 -0.48712167908E+02 -0.74337570036E+01  0.62500000000E+02  0.47000000000E+01 0. -1.
</event>
<event>
 3    0  0.4603569E-005  0.9118800E+02  0.7546771E-02  0.1235069E+00
         25   -1    0    0    0    0  0.00000000000E+00  0.00000000000E+00  0.99999998245E-14  0.12500000000E+03  0.12500000000E+03 0.  0.
          5    1    1    0  501    0 -0.51599625636E+02 -0.33904249684E+02 -0.84935556522E+01  0.62500000000E+02  0.47000000000E+01 0.  1.
         -5    1    1    0    0  501  0.51599625636E+02  0.33904249684E+02  0.84935556522E+01  0.62500000000E+02  0.47000000000E+01 0.  1.
</event>
<event>
 3    0  0.4603569E-005  0.9118800E+02  0.7546771E-02  0.1235069E+00
         25   -1    0    0    0    0  0.00000000000E+00  0.00000000000E+00  0.99999998245E-14  0.12500000000E+03  0.12500000000E+03 0.  0.
          5    1    1    0  501    0 -0.28625530558E+02 -0.27285822961E+02  0.48168691757E+02  0.62500000000E+02  0.47000000000E+01 0.  1.
         -5    1    1    0    0  501  0.28625530558E+02  0.27285822961E+02 -0.48168691757E+02  0.62500000000E+02  0.47000000000E+01 0.  1.
</event>
<event>
 3    0  0.4603569E-005  0.9118800E+02  0.7546771E-02  0.1235069E+00
         25   -1    0    0    0    0  0.00000000000E+00  0.00000000000E+00  0.99999998245E-14  0.12500000000E+03  0.12500000000E+03 0.  0.
          5    1    1    0  501    0 -0.38181028931E+02 -0.42920945644E+02 -0.24169432241E+02  0.62500000000E+02  0.47000000000E+01 0.  1.
         -5    1    1    0    0  501  0.38181028931E+02  0.42920945644E+02  0.24169432241E+02  0.62500000000E+02  0.47000000000E+01 0.  1.
</event>
<event>
 3    0  0.4603569E-005  0.9118800E+02  0.7546771E-02  0.1235069E+00
         25   -1    0    0    0    0  0.00000000000E+00  0.00000000000E+00  0.99999998245E-14  0.12500000000E+03  0.12500000000E+03 0.  0.
          5    1    1    0  501    0  0.49598722520E+02  0.37543045186E+02  0.38270723216E+01  0.62500000000E+02  0.47000000000E+01 0. -1.
         -5    1    1    0    0  501 -0.49598722520E+02 -0.37543045186E+02 -0.38270723216E+01  0.62500000000E+02  0.47000000000E+01 0. -1.
</event>
<event>
 3    0  0.4603569E-005  0.9118800E+02  0.7546771E-02  0.1235069E+00
         25   -1    0    0    0    0  0.00000000000E+00  0.00000000000E+00  0.99999998245E-14  0.12500000000E+03  0.12500000000E+03 0.  0.
          5    1    1    0  501    0 -0.18235178746E+02  0.42685663828E+02  0.41588127628E+02  0.62500000000E+02  0.47000000000E+01 0. -1.
         -5    1    1    0    0  501  0.18235178746E+02 -0.42685663828E+02 -0.41588127628E+02  0.62500000000E+02  0.47000000000E+01 0. -1.
</event>
<event>
 3    0  0.4603569E-005  0.9118800E+02  0.7546771E-02  0.1235069E+00
         25   -1    0    0    0    0  0.00000000000E+00  0.00000000000E+00  0.99999998245E-14  0.12500000000E+03  0.12500000000E+03 0.  0.
          5    1    1    0  501    0 -0.21221667961E+02  0.31396205200E+01  0.58514473354E+02  0.62500000000E+02  0.47000000000E+01 0. -1.
         -5    1    1    0    0  501  0.21221667961E+02 -0.31396205200E+01 -0.58514473354E+02  0.62500000000E+02  0.47000000000E+01 0. -1.
</event>
<event>
 3    0  0.4603569E-005  0.9118800E+02  0.7546771E-02  0.1235069E+00
         25   -1    0    0    0    0  0.00000000000E+00  0.00000000000E+00  0.99999998245E-14  0.12500000000E+03  0.12500000000E+03 0.  0.
          5    1    1    0  501    0 -0.50063189463E+02 -0.27352165217E+02  0.25093746607E+02  0.62500000000E+02  0.47000000000E+01 0.  1.
         -5    1    1    0    0  501  0.50063189463E+02  0.27352165217E+02 -0.25093746607E+02  0.62500000000E+02  0.47000000000E+01 0.  1.
</event>
<event>
 3    0  0.4603569E-005  0.9118800E+02  0.7546771E-02  0.1235069E+00
         25   -1    0    0    0    0  0.00000000000E+00  0.00000000000E+00  0.99999998245E-14  0.12500000000E+03  0.12500000000E+03 0.  0.
          5    1    1    0  501    0  0.45930833138E+02  0.37303349039E+02  0.19569842045E+02  0.62500000000E+02  0.47000000000E+01 0. -1.
         -5    1    1    0    0  501 -0.45930833138E+02 -0.37303349039E+02 -0.19569842045E+02  0.62500000000E+02  0.47000000000E+01 0. -1.
</event>
<event>
 3    0  0.4603569E-005  0.9118800E+02  0.7546771E-02  0.1235069E+00
         25   -1    0    0    0    0  0.00000000000E+00  0.00000000000E+00  0.99999998245E-14  0.12500000000E+03  0.12500000000E+03 0.  0.
          5    1    1    0  501    0 -0.35105117090E+02  0.51384669708E+02 -0.33773470405E+01  0.62500000000E+02  0.47000000000E+01 0. -1.
         -5    1    1    0    0  501  0.35105117090E+02 -0.51384669708E+02  0.33773470405E+01  0.62500000000E+02  0.47000000000E+01 0. -1.
</event>
<event>
 3    0  0.4603569E-005  0.9118800E+02  0.7546771E-02  0.1235069E+00
         25   -1    0    0    0    0  0.00000000000E+00  0.00000000000E+00  0.99999998245E-14  0.12500000000E+03  0.12500000000E+03 0.  0.
          5    1    1    0  501    0  0.12212237441E+02  0.23371346299E+02 -0.56469473425E+02  0.62500000000E+02  0.47000000000E+01 0. -1.
         -5    1    1    0    0  501 -0.12212237441E+02 -0.23371346299E+02  0.56469473425E+02  0.62500000000E+02  0.47000000000E+01 0. -1.
</event>
<event>
 3    0  0.4603569E-005  0.9118800E+02  0.7546771E-02  0.1235069E+00
         25   -1    0    0    0    0  0.00000000000E+00  0.00000000000E+00  0.99999998245E-14  0.12500000000E+03  0.12500000000E+03 0.  0.
          5    1    1    0  501    0 -0.51314416912E+02 -0.11131555191E+01  0.35351824590E+02  0.62500000000E+02  0.47000000000E+01 0. -1.
         -5    1    1    0    0  501  0.51314416912E+02  0.11131555191E+01 -0.35351824590E+02  0.62500000000E+02  0.47000000000E+01 0. -1.
</event>
<event>
 3    0  0.4603569E-005  0.9118800E+02  0.7546771E-02  0.1235069E+00
         25   -1    0    0    0    0  0.00000000000E+00  0.00000000000E+00  0.99999998245E-14  0.12500000000E+03  0.12500000000E+03 0.  0.
          5    1    1    0  501    0 -0.56552194879E+02  0.77906142375E+01  0.25006310886E+02  0.62500000000E+02  0.47000000000E+01 0.  1.
         -5    1    1    0    0  501  0.56552194879E+02 -0.77906142375E+01 -0.25006310886E+02  0.62500000000E+02  0.47000000000E+01 0.  1.
</event>
<event>
 3    0  0.4603569E-005  0.9118800E+02  0.7546771E-02  0.1235069E+00
         25   -1    0    0    0    0  0.00000000000E+00  0.00000000000E+00  0.99999998245E-14  0.12500000000E+03  0.12500000000E+03 0.  0.
          5    1    1    0  501    0 -0.31103142040E+02 -0.52630645221E+02  0.12114856123E+02  0.62500000000E+02  0.47000000000E+01 0.  1.
         -5    1    1    0    0  501  0.31103142040E+02  0.52630645221E+02 -0.12114856123E+02  0.62500000000E+02  0.47000000000E+01 0.  1.
</event>
<event>
 3    0  0.4603569E-005  0.9118800E+02  0.7546771E-02  0.1235069E+00
         25   -1    0    0    0    0  0.00000000000E+00  0.00000000000E+00  0.99999998245E-14  0.12500000000E+03  0.12500000000E+03 0.  0.
          5    1    1    0  501    0  0.48993331018E+02 -0.29297539622E+02 -0.25009352007E+02  0.62500000000E+02  0.47000000000E+01 0.  1.
         -5    1    1    0    0  501 -0.48993331018E+02  0.29297539622E+02  0.25009352007E+02  0.62500000000E+02  0.47000000000E+01 0.  1.
</event>
<event>
 3    0  0.4603569E-005  0.9118800E+02  0.7546771E-02  0.1235069E+00
         25   -1    0    0    0    0  0.00000000000E+00  0.00000000000E+00  0.99999998245E-14  0.12500000000E+03  0.12500000000E+03 0.  0.
          5    1    1    0  501    0 -0.81608162774E+01 -0.39695182104E+02 -0.47348216391E+02  0.62500000000E+02  0.47000000000E+01 0.  1.
         -5    1    1    0    0  501  0.81608162774E+01  0.39695182104E+02  0.47348216391E+02  0.62500000000E+02  0.47000000000E+01 0.  1.
</event>
<event>
 3    0  0.4603569E-005  0.9118800E+02  0.7546771E-02  0.1235069E+00
         25   -1    0    0    0    0  0.00000000000E+00  0.00000000000E+00  0.99999998245E-14  0.12500000000E+03  0.12500000000E+03 0.  0.
          5    1    1    0  501    0  0.14076108616E+02 -0.57644141763E+02 -0.19057179397E+02  0.62500000000E+02  0.47000000000E+01 0.  1.
         -5    1    1    0    0  501 -0.14076108616E+02  0.57644141763E+02  0.19057179397E+02  0.62500000000E+02  0.47000000000E+01 0.  1.
</event>
<event>
 3    0  0.4603569E-005  0.9118800E+02  0.7546771E-02  0.1235069E+00
         25   -1    0    0    0    0  0.00000000000E+00  0.00000000000E+00  0.99999998245E-14  0.12500000000E+03  0.12500000000E+03 0.  0.
          5    1    1    0  501    0 -0.15446598588E+02 -0.52828311711E+02 -0.29235801235E+02  0.62500000000E+02  0.47000000000E+01 0. -1.
         -5    1    1    0    0  501  0.15446598588E+02  0.52828311711E+02  0.29235801235E+02  0.62500000000E+02  0.47000000000E+01 0. -1.
</event>
<event>
 3    0  0.4603569E-005  0.9118800E+02  0.7546771E-02  0.1235069E+00
         25   -1    0    0    0    0  0.00000000000E+00  0.00000000000E+00  0.99999998245E-14  0.12500000000E+03  0.12500000000E+03 0.  0.
          5    1    1    0  501    0 -0.49436569720E+02 -0.37421447831E+02  0.63103737308E+01  0.62500000000E+02  0.47000000000E+01 0. -1.
         -5    1    1    0    0  501  0.49436569720E+02  0.37421447831E+02 -0.63103737308E+01  0.62500000000E+02  0.47000000000E+01 0. -1.
</event>
<event>
 3    0  0.4603569E-005  0.9118800E+02  0.7546771E-02  0.1235069E+00
         25   -1    0    0    0    0  0.00000000000E+00  0.00000000000E+00  0.99999998245E-14  0.12500000000E+03  0.12500000000E+03 0.  0.
          5    1    1    0  501    0  0.22765781364E+02  0.56506907157E+02  0.13147191429E+02  0.62500000000E+02  0.47000000000E+01 0. -1.
         -5    1    1    0    0  501 -0.22765781364E+02 -0.56506907157E+02 -0.13147191429E+02  0.62500000000E+02  0.47000000000E+01 0. -1.
</event>
<event>
 3    0  0.4603569E-005  0.9118800E+02  0.7546771E-02  0.1235069E+00
         25   -1    0    0    0    0  0.00000000000E+00  0.00000000000E+00  0.99999998245E-14  0.12500000000E+03  0.12500000000E+03 0.  0.
          5    1    1    0  501    0 -0.10215096961E+02  0.53374634819E+02  0.30511639616E+02  0.62500000000E+02  0.47000000000E+01 0. -1.
         -5    1    1    0    0  501  0.10215096961E+02 -0.53374634819E+02 -0.30511639616E+02  0.62500000000E+02  0.47000000000E+01 0. -1.
</event>
<event>
 3    0  0.4603569E-005  0.9118800E+02  0.7546771E-02  0.1235069E+00
         25   -1    0    0    0    0  0.00000000000E+00  0.00000000000E+00  0.99999998245E-14  0.12500000000E+03  0.12500000000E+03 0.  0.
          5    1    1    0  501    0  0.39610226884E+02 -0.84505203422E+01  0.47368540532E+02  0.62500000000E+02  0.47000000000E+01 0. -1.
         -5    1    1    0    0  501 -0.39610226884E+02  0.84505203422E+01 -0.47368540532E+02  0.62500000000E+02  0.47000000000E+01 0. -1.
</event>
<event>
 3    0  0.4603569E-005  0.9118800E+02  0.7546771E-02  0.1235069E+00
         25   -1    0    0    0    0  0.00000000000E+00  0.00000000000E+00  0.99999998245E-14  0.12500000000E+03  0.12500000000E+03 0.  0.
          5    1    1    0  501    0  0.27186638618E+02 -0.17872351606E+01 -0.56052229850E+02  0.62500000000E+02  0.47000000000E+01 0. -1.
         -5    1    1    0    0  501 -0.27186638618E+02  0.17872351606E+01  0.56052229850E+02  0.62500000000E+02  0.47000000000E+01 0. -1.
</event>
<event>
 3    0  0.4603569E-005  0.9118800E+02  0.7546771E-02  0.1235069E+00
         25   -1    0    0    0    0  0.00000000000E+00  0.00000000000E+00  0.99999998245E-14  0.12500000000E+03  0.12500000000E+03 0.  0.
          5    1    1    0  501    0  0.33354961835E+02 -0.52454233567E+02 -0.44899779374E+01  0.62500000000E+02  0.47000000000E+01 0. -1.
         -5    1    1    0    0  501 -0.33354961835E+02  0.52454233567E+02  0.44899779374E+01  0.62500000000E+02  0.47000000000E+01 0. -1.
</event>
<event>
 3    0  0.4603569E-005  0.9118800E+02  0.7546771E-02  0.1235069E+00
         25   -1    0    0    0    0  0.00000000000E+00  0.00000000000E+00  0.99999998245E-14  0.12500000000E+03  0.12500000000E+03 0.  0.
          5    1    1    0  501    0 -0.16074833033E+02  0.57676125877E+02 -0.17298099514E+02  0.62500000000E+02  0.47000000000E+01 0. -1.
         -5    1    1    0    0  501  0.16074833033E+02 -0.57676125877E+02  0.17298099514E+02  0.62500000000E+02  0.47000000000E+01 0. -1.
</event>
<event>
 3    0  0.4603569E-005  0.9118800E+02  0.7546771E-02  0.1235069E+00
         25   -1    0    0    0    0  0.00000000000E+00  0.00000000000E+00  0.99999998245E-14  0.12500000000E+03  0.12500000000E+03 0.  0.
          5    1    1    0  501    0  0.20319296324E+02  0.54134912484E+02  0.23252901911E+02  0.62500000000E+02  0.47000000000E+01 0.  1.
         -5    1    1    0    0  501 -0.20319296324E+02 -0.54134912484E+02 -0.23252901911E+02  0.62500000000E+02  0.47000000000E+01 0.  1.
</event>
<event>
 3    0  0.4603569E-005  0.9118800E+02  0.7546771E-02  0.1235069E+00
         25   -1    0    0    0    0  0.00000000000E+00  0.00000000000E+00  0.99999998245E-14  0.12500000000E+03  0.12500000000E+03 0.  0.
          5    1    1    0  501    0  0.41946582877E+02  0.41820016358E+01  0.45903758531E+02  0.62500000000E+02  0.47000000000E+01 0. -1.
         -5    1    1    0    0  501 -0.41946582877E+02 -0.41820016358E+01 -0.45903758531E+02  0.62500000000E+02  0.47000000000E+01 0. -1.
</event>
<event>
 3    0  0.4603569E-005  0.9118800E+02  0.7546771E-02  0.1235069E+00
         25   -1    0    0    0    0  0.00000000000E+00  0.00000000000E+00  0.99999998245E-14  0.12500000000E+03  0.12500000000E+03 0.  0.
          5    1    1    0  501    0  0.52558759982E+02 -0.41537921314E+01  0.33233759344E+02  0.62500000000E+02  0.47000000000E+01 0. -1.
         -5    1    1    0    0  501 -0.52558759982E+02  0.41537921314E+01 -0.33233759344E+02  0.62500000000E+02  0.47000000000E+01 0. -1.
</event>
<event>
 3    0  0.4603569E-005  0.9118800E+02  0.7546771E-02  0.1235069E+00
         25   -1    0    0    0    0  0.00000000000E+00  0.00000000000E+00  0.99999998245E-14  0.12500000000E+03  0.12500000000E+03 0.  0.
          5    1    1    0  501    0  0.55688876102E+02  0.27973431564E+02 -0.62944821776E+00  0.62500000000E+02  0.47000000000E+01 0. -1.
         -5    1    1    0    0  501 -0.55688876102E+02 -0.27973431564E+02  0.62944821776E+00  0.62500000000E+02  0.47000000000E+01 0. -1.
</event>
<event>
 3    0  0.4603569E-005  0.9118800E+02  0.7546771E-02  0.1235069E+00
         25   -1    0    0    0    0  0.00000000000E+00  0.00000000000E+00  0.99999998245E-14  0.12500000000E+03  0.12500000000E+03 0.  0.
          5    1    1    0  501    0  0.95856081491E+01  0.57084981039E+02  0.23099373502E+02  0.62500000000E+02  0.47000000000E+01 0.  1.
         -5    1    1    0    0  501 -0.95856081491E+01 -0.57084981039E+02 -0.23099373502E+02  0.62500000000E+02  0.47000000000E+01 0.  1.
</event>
<event>
 3    0  0.4603569E-005  0.9118800E+02  0.7546771E-02  0.1235069E+00
         25   -1    0    0    0    0  0.00000000000E+00  0.00000000000E+00  0.99999998245E-14  0.12500000000E+03  0.12500000000E+03 0.  0.
          5    1    1    0  501    0  0.47661555602E+02  0.11447847012E+02  0.38490036586E+02  0.62500000000E+02  0.47000000000E+01 0.  1.
         -5    1    1    0    0  501 -0.47661555602E+02 -0.11447847012E+02 -0.38490036586E+02  0.62500000000E+02  0.47000000000E+01 0.  1.
</event>
<event>
 3    0  0.4603569E-005  0.9118800E+02  0.7546771E-02  0.1235069E+00
         25   -1    0    0    0    0  0.00000000000E+00  0.00000000000E+00  0.99999998245E-14  0.12500000000E+03  0.12500000000E+03 0.  0.
          5    1    1    0  501    0  0.22662929615E+02  0.56790189281E+02  0.12059271234E+02  0.62500000000E+02  0.47000000000E+01 0. -1.
         -5    1    1    0    0  501 -0.22662929615E+02 -0.56790189281E+02 -0.12059271234E+02  0.62500000000E+02  0.47000000000E+01 0. -1.
</event>
<event>
 3    0  0.4603569E-005  0.9118800E+02  0.7546771E-02  0.1235069E+00
         25   -1    0    0    0    0  0.00000000000E+00  0.00000000000E+00  0.99999998245E-14  0.12500000000E+03  0.12500000000E+03 0.  0.
          5    1    1    0  501    0 -0.20943539683E+02  0.46891325540E+00 -0.58696748342E+02  0.62500000000E+02  0.47000000000E+01 0. -1.
         -5    1    1    0    0  501  0.20943539683E+02 -0.46891325540E+00  0.58696748342E+02  0.62500000000E+02  0.47000000000E+01 0. -1.
</event>
<event>
 3    0  0.4603569E-005  0.9118800E+02  0.7546771E-02  0.1235069E+00
         25   -1    0    0    0    0  0.00000000000E+00  0.00000000000E+00  0.99999998245E-14  0.12500000000E+03  0.12500000000E+03 0.  0.
          5    1    1    0  501    0  0.21175252139E+02 -0.22836361194E+02 -0.53983972661E+02  0.62500000000E+02  0.47000000000E+01 0. -1.
         -5    1    1    0    0  501 -0.21175252139E+02  0.22836361194E+02  0.53983972661E+02  0.62500000000E+02  0.47000000000E+01 0. -1.
</event>
<event>
 3    0  0.4603569E-005  0.9118800E+02  0.7546771E-02  0.1235069E+00
         25   -1    0    0    0    0  0.00000000000E+00  0.00000000000E+00  0.99999998245E-14  0.12500000000E+03  0.12500000000E+03 0.  0.
          5    1    1    0  501    0 -0.12492862826E+02  0.15904745996E+02  0.58950211477E+02  0.62500000000E+02  0.47000000000E+01 0.  1.
         -5    1    1    0    0  501  0.12492862826E+02 -0.15904745996E+02 -0.58950211477E+02  0.62500000000E+02  0.47000000000E+01 0.  1.
</event>
<event>
 3    0  0.4603569E-005  0.9118800E+02  0.7546771E-02  0.1235069E+00
         25   -1    0    0    0    0  0.00000000000E+00  0.00000000000E+00  0.99999998245E-14  0.12500000000E+03  0.12500000000E+03 0.  0.
          5    1    1    0  501    0  0.54927370797E+02  0.19737579457E+02 -0.21853418370E+02  0.62500000000E+02  0.47000000000E+01 0.  1.
         -5    1    1    0    0  501 -0.54927370797E+02 -0.19737579457E+02  0.21853418370E+02  0.62500000000E+02  0.47000000000E+01 0.  1.
</event>
<event>
 3    0  0.4603569E-005  0.9118800E+02  0.7546771E-02  0.1235069E+00
         25   -1    0    0    0    0  0.00000000000E+00  0.00000000000E+00  0.99999998245E-14  0.12500000000E+03  0.12500000000E+03 0.  0.
          5    1    1    0  501    0 -0.54388546829E+02  0.24858375217E+02  0.17552981382E+02  0.62500000000E+02  0.47000000000E+01 0.  1.
         -5    1    1    0    0  501  0.54388546829E+02 -0.24858375217E+02 -0.17552981382E+02  0.62500000000E+02  0.47000000000E+01 0.  1.
</event>
<event>
 3    0  0.4603569E-005  0.9118800E+02  0.7546771E-02  0.1235069E+00
         25   -1    0    0    0    0  0.00000000000E+00  0.00000000000E+00  0.99999998245E-14  0.12500000000E+03  0.12500000000E+03 0.  0.
          5    1    1    0  501    0  0.23772638067E+02  0.47200458993E+02  0.33032383356E+02  0.62500000000E+02  0.47000000000E+01 0.  1.
         -5    1    1    0    0  501 -0.23772638067E+02 -0.47200458993E+02 -0.33032383356E+02  0.62500000000E+02  0.47000000000E+01 0.  1.
</event>
<event>
 3    0  0.4603569E-005  0.9118800E+02  0.7546771E-02  0.1235069E+00
         25   -1    0    0    0    0  0.00000000000E+00  0.00000000000E+00  0.99999998245E-14  0.12500000000E+03  0.12500000000E+03 0.  0.
          5    1    1    0  501    0 -0.61735681617E+01  0.29120723546E+02  0.54754273955E+02  0.62500000000E+02  0.47000000000E+01 0.  1.
         -5    1    1    0    0  501  0.61735681617E+01 -0.29120723546E+02 -0.54754273955E+02  0.62500000000E+02  0.47000000000E+01 0.  1.
</event>
<event>
 3    0  0.4603569E-005  0.9118800E+02  0.7546771E-02  0.1235069E+00
         25   -1    0    0    0    0  0.00000000000E+00  0.00000000000E+00  0.99999998245E-14  0.12500000000E+03  0.12500000000E+03 0.  0.
          5    1    1    0  501    0  0.99594785085E+01 -0.56159495301E+02 -0.25121303218E+02  0.62500000000E+02  0.47000000000E+01 0. -1.
         -5    1    1    0    0  501 -0.99594785085E+01  0.56159495301E+02  0.25121303218E+02  0.62500000000E+02  0.47000000000E+01 0. -1.
</event>
<event>
 3    0  0.4603569E-005  0.9118800E+02  0.7546771E-02  0.1235069E+00
         25   -1    0    0    0    0  0.00000000000E+00  0.00000000000E+00  0.99999998245E-14  0.12500000000E+03  0.12500000000E+03 0.  0.
          5    1    1    0  501    0  0.58160897060E+02  0.91084160058E+01  0.20457439016E+02  0.62500000000E+02  0.47000000000E+01 0.  1.
         -5    1    1    0    0  501 -0.58160897060E+02 -0.91084160058E+01 -0.20457439016E+02  0.62500000000E+02  0.47000000000E+01 0.  1.
</event>
<event>
 3    0  0.4603569E-005  0.9118800E+02  0.7546771E-02  0.1235069E+00
         25   -1    0    0    0    0  0.00000000000E+00  0.00000000000E+00  0.99999998245E-14  0.12500000000E+03  0.12500000000E+03 0.  0.
          5    1    1    0  501    0 -0.17274588983E+02  0.26498916277E+02 -0.53698752421E+02  0.62500000000E+02  0.47000000000E+01 0. -1.
         -5    1    1    0    0  501  0.17274588983E+02 -0.26498916277E+02  0.53698752421E+02  0.62500000000E+02  0.47000000000E+01 0. -1.
</event>
<event>
 3    0  0.4603569E-005  0.9118800E+02  0.7546771E-02  0.1235069E+00
         25   -1    0    0    0    0  0.00000000000E+00  0.00000000000E+00  0.99999998245E-14  0.12500000000E+03  0.12500000000E+03 0.  0.
          5    1    1    0  501    0 -0.53649526093E+00  0.37805979545E+02  0.49543718910E+02  0.62500000000E+02  0.47000000000E+01 0. -1.
         -5    1    1    0    0  501  0.53649526093E+00 -0.37805979545E+02 -0.49543718910E+02  0.62500000000E+02  0.47000000000E+01 0. -1.
</event>
<event>
 3    0  0.4603569E-005  0.9118800E+02  0.7546771E-02  0.1235069E+00
         25   -1    0    0    0    0  0.00000000000E+00  0.00000000000E+00  0.99999998245E-14  0.12500000000E+03  0.12500000000E+03 0.  0.
          5    1    1    0  501    0 -0.29354664761E+02 -0.50305255556E+02 -0.22177576969E+02  0.62500000000E+02  0.47000000000E+01 0. -1.
         -5    1    1    0    0  501  0.29354664761E+02  0.50305255556E+02  0.22177576969E+02  0.62500000000E+02  0.47000000000E+01 0. -1.
</event>
<event>
 3    0  0.4603569E-005  0.9118800E+02  0.7546771E-02  0.1235069E+00
         25   -1    0    0    0    0  0.00000000000E+00  0.00000000000E+00  0.99999998245E-14  0.12500000000E+03  0.12500000000E+03 0.  0.
          5    1    1    0  501    0  0.23110548362E+02  0.22312561393E+02  0.53406106004E+02  0.62500000000E+02  0.47000000000E+01 0.  1.
         -5    1    1    0    0  501 -0.23110548362E+02 -0.22312561393E+02 -0.53406106004E+02  0.62500000000E+02  0.47000000000E+01 0.  1.
</event>
<event>
 3    0  0.4603569E-005  0.9118800E+02  0.7546771E-02  0.1235069E+00
         25   -1    0    0    0    0  0.00000000000E+00  0.00000000000E+00  0.99999998245E-14  0.12500000000E+03  0.12500000000E+03 0.  0.
          5    1    1    0  501    0 -0.20963936015E+02  0.47644559886E+02 -0.34273448908E+02  0.62500000000E+02  0.47000000000E+01 0. -1.
         -5    1    1    0    0  501  0.20963936015E+02 -0.47644559886E+02  0.34273448908E+02  0.62500000000E+02  0.47000000000E+01 0. -1.
</event>
<event>
 3    0  0.4603569E-005  0.9118800E+02  0.7546771E-02  0.1235069E+00
         25   -1    0    0    0    0  0.00000000000E+00  0.00000000000E+00  0.99999998245E-14  0.12500000000E+03  0.12500000000E+03 0.  0.
          5    1    1    0  501    0 -0.60663823077E+02 -0.13578859453E+02 -0.44356674386E+01  0.62500000000E+02  0.47000000000E+01 0. -1.
         -5    1    1    0    0  501  0.60663823077E+02  0.13578859453E+02  0.44356674386E+01  0.62500000000E+02  0.47000000000E+01 0. -1.
</event>
<event>
 3    0  0.4603569E-005  0.9118800E+02  0.7546771E-02  0.1235069E+00
         25   -1    0    0    0    0  0.00000000000E+00  0.00000000000E+00  0.99999998245E-14  0.12500000000E+03  0.12500000000E+03 0.  0.
          5    1    1    0  501    0 -0.48289550704E+02  0.19933829409E+02  0.33984139504E+02  0.62500000000E+02  0.47000000000E+01 0.  1.
         -5    1    1    0    0  501  0.48289550704E+02 -0.19933829409E+02 -0.33984139504E+02  0.62500000000E+02  0.47000000000E+01 0.  1.
</event>
<event>
 3    0  0.4603569E-005  0.9118800E+02  0.7546771E-02  0.1235069E+00
         25   -1    0    0    0    0  0.00000000000E+00  0.00000000000E+00  0.99999998245E-14  0.12500000000E+03  0.12500000000E+03 0.  0.
          5    1    1    0  501    0 -0.36120662945E+02  0.37449500617E+02  0.34307325923E+02  0.62500000000E+02  0.47000000000E+01 0.  1.
         -5    1    1    0    0  501  0.36120662945E+02 -0.37449500617E+02 -0.34307325923E+02  0.62500000000E+02  0.47000000000E+01 0.  1.
</event>
<event>
 3    0  0.4603569E-005  0.9118800E+02  0.7546771E-02  0.1235069E+00
         25   -1    0    0    0    0  0.00000000000E+00  0.00000000000E+00  0.99999998245E-14  0.12500000000E+03  0.12500000000E+03 0.  0.
          5    1    1    0  501    0 -0.22133409345E+02  0.53148033749E+02  0.23865428959E+02  0.62500000000E+02  0.47000000000E+01 0. -1.
         -5    1    1    0    0  501  0.22133409345E+02 -0.53148033749E+02 -0.23865428959E+02  0.62500000000E+02  0.47000000000E+01 0. -1.
</event>
<event>
 3    0  0.4603569E-005  0.9118800E+02  0.7546771E-02  0.1235069E+00
         25   -1    0    0    0    0  0.00000000000E+00  0.00000000000E+00  0.99999998245E-14  0.12500000000E+03  0.12500000000E+03 0.  0.
          5    1    1    0  501    0 -0.49328619245E+02  0.37346389468E+02  0.74896272986E+01  0.62500000000E+02  0.47000000000E+01 0.  1.
         -5    1    1    0    0  501  0.49328619245E+02 -0.37346389468E+02 -0.74896272986E+01  0.62500000000E+02  0.47000000000E+01 0.  1.
</event>
<event>
 3    0  0.4603569E-005  0.9118800E+02  0.7546771E-02  0.1235069E+00
         25   -1    0    0    0    0  0.00000000000E+00  0.00000000000E+00  0.99999998245E-14  0.12500000000E+03  0.12500000000E+03 0.  0.
          5    1    1    0  501    0  0.47042759306E+02  0.39168389757E+02  0.11703676375E+02  0.62500000000E+02  0.47000000000E+01 0.  1.
         -5    1    1    0    0  501 -0.47042759306E+02 -0.39168389757E+02 -0.11703676375E+02  0.62500000000E+02  0.47000000000E+01 0.  1.
</event>
<event>
 3    0  0.4603569E-005  0.9118800E+02  0.7546771E-02  0.1235069E+00
         25   -1    0    0    0    0  0.00000000000E+00  0.00000000000E+00  0.99999998245E-14  0.12500000000E+03  0.12500000000E+03 0.  0.
          5    1    1    0  501    0 -0.25103716512E+02 -0.10071583295E+02 -0.56147365274E+02  0.62500000000E+02  0.47000000000E+01 0. -1.
         -5    1    1    0    0  501  0.25103716512E+02  0.10071583295E+02  0.56147365274E+02  0.62500000000E+02  0.47000000000E+01 0. -1.
</event>
<event>
 3    0  0.4603569E-005  0.9118800E+02  0.7546771E-02  0.1235069E+00
         25   -1    0    0    0    0  0.00000000000E+00  0.00000000000E+00  0.99999998245E-14  0.12500000000E+03  0.12500000000E+03 0.  0.
          5    1    1    0  501    0 -0.11980151376E+01 -0.16391021046E+02 -0.60117045742E+02  0.62500000000E+02  0.47000000000E+01 0.  1.
         -5    1    1    0    0  501  0.11980151376E+01  0.16391021046E+02  0.60117045742E+02  0.62500000000E+02  0.47000000000E+01 0.  1.
</event>
<event>
 3    0  0.4603569E-005  0.9118800E+02  0.7546771E-02  0.1235069E+00
         25   -1    0    0    0    0  0.00000000000E+00  0.00000000000E+00  0.99999998245E-14  0.12500000000E+03  0.12500000000E+03 0.  0.
          5    1    1    0  501    0  0.27222746812E+02  0.19262967794E+02 -0.52649977472E+02  0.62500000000E+02  0.47000000000E+01 0.  1.
         -5    1    1    0    0  501 -0.27222746812E+02 -0.19262967794E+02  0.52649977472E+02  0.62500000000E+02  0.47000000000E+01 0.  1.
</event>
<event>
 3    0  0.4603569E-005  0.9118800E+02  0.7546771E-02  0.1235069E+00
         25   -1    0    0    0    0  0.00000000000E+00  0.00000000000E+00  0.99999998245E-14  0.12500000000E+03  0.12500000000E+03 0.  0.
          5    1    1    0  501    0 -0.57832469790E+02  0.23207844893E+02 -0.98049653447E+00  0.62500000000E+02  0.47000000000E+01 0.  1.
         -5    1    1    0    0  501  0.57832469790E+02 -0.23207844893E+02  0.98049653447E+00  0.62500000000E+02  0.47000000000E+01 0.  1.
</event>
<event>
 3    0  0.4603569E-005  0.9118800E+02  0.7546771E-02  0.1235069E+00
         25   -1    0    0    0    0  0.00000000000E+00  0.00000000000E+00  0.99999998245E-14  0.12500000000E+03  0.12500000000E+03 0.  0.
          5    1    1    0  501    0  0.19304846304E+02 -0.59248918974E+02 -0.10239675749E+01  0.62500000000E+02  0.47000000000E+01 0. -1.
         -5    1    1    0    0  501 -0.19304846304E+02  0.59248918974E+02  0.10239675749E+01  0.62500000000E+02  0.47000000000E+01 0. -1.
</event>
<event>
 3    0  0.4603569E-005  0.9118800E+02  0.7546771E-02  0.1235069E+00
         25   -1    0    0    0    0  0.00000000000E+00  0.00000000000E+00  0.99999998245E-14  0.12500000000E+03  0.12500000000E+03 0.  0.
          5    1    1    0  501    0 -0.61204229253E+02 -0.11662783959E+02 -0.14770889816E+01  0.62500000000E+02  0.47000000000E+01 0. -1.
         -5    1    1    0    0  501  0.61204229253E+02  0.11662783959E+02  0.14770889816E+01  0.62500000000E+02  0.47000000000E+01 0. -1.
</event>
<event>
 3    0  0.4603569E-005  0.9118800E+02  0.7546771E-02  0.1235069E+00
         25   -1    0    0    0    0  0.00000000000E+00  0.00000000000E+00  0.99999998245E-14  0.12500000000E+03  0.12500000000E+03 0.  0.
          5    1    1    0  501    0  0.38037723664E+02 -0.14093745231E+02 -0.47314457873E+02  0.62500000000E+02  0.47000000000E+01 0. -1.
         -5    1    1    0    0  501 -0.38037723664E+02  0.14093745231E+02  0.47314457873E+02  0.62500000000E+02  0.47000000000E+01 0. -1.
</event>
<event>
 3    0  0.4603569E-005  0.9118800E+02  0.7546771E-02  0.1235069E+00
         25   -1    0    0    0    0  0.00000000000E+00  0.00000000000E+00  0.99999998245E-14  0.12500000000E+03  0.12500000000E+03 0.  0.
          5    1    1    0  501    0 -0.30219172185E+02 -0.20133283790E+02 -0.50651875743E+02  0.62500000000E+02  0.47000000000E+01 0. -1.
         -5    1    1    0    0  501  0.30219172185E+02  0.20133283790E+02  0.50651875743E+02  0.62500000000E+02  0.47000000000E+01 0. -1.
</event>
<event>
 3    0  0.4603569E-005  0.9118800E+02  0.7546771E-02  0.1235069E+00
         25   -1    0    0    0    0  0.00000000000E+00  0.00000000000E+00  0.99999998245E-14  0.12500000000E+03  0.12500000000E+03 0.  0.
          5    1    1    0  501    0 -0.55004473030E+02  0.14946421647E+02  0.25204611217E+02  0.62500000000E+02  0.47000000000E+01 0. -1.
         -5    1    1    0    0  501  0.55004473030E+02 -0.14946421647E+02 -0.25204611217E+02  0.62500000000E+02  0.47000000000E+01 0. -1.
</event>
<event>
 3    0  0.4603569E-005  0.9118800E+02  0.7546771E-02  0.1235069E+00
         25   -1    0    0    0    0  0.00000000000E+00  0.00000000000E+00  0.99999998245E-14  0.12500000000E+03  0.12500000000E+03 0.  0.
          5    1    1    0  501    0 -0.51630004129E+02  0.15837712539E+02  0.31107387147E+02  0.62500000000E+02  0.47000000000E+01 0. -1.
         -5    1    1    0    0  501  0.51630004129E+02 -0.15837712539E+02 -0.31107387147E+02  0.62500000000E+02  0.47000000000E+01 0. -1.
</event>
<event>
 3    0  0.4603569E-005  0.9118800E+02  0.7546771E-02  0.1235069E+00
         25   -1    0    0    0    0  0.00000000000E+00  0.00000000000E+00  0.99999998245E-14  0.12500000000E+03  0.12500000000E+03 0.  0.
          5    1    1    0  501    0 -0.85612773402E+01  0.55563834329E+02  0.26898417145E+02  0.62500000000E+02  0.47000000000E+01 0. -1.
         -5    1    1    0    0  501  0.85612773402E+01 -0.55563834329E+02 -0.26898417145E+02  0.62500000000E+02  0.47000000000E+01 0. -1.
</event>
<event>
 3    0  0.4603569E-005  0.9118800E+02  0.7546771E-02  0.1235069E+00
         25   -1    0    0    0    0  0.00000000000E+00  0.00000000000E+00  0.99999998245E-14  0.12500000000E+03  0.12500000000E+03 0.  0.
          5    1    1    0  501    0 -0.33355767631E+02 -0.40639250868E+02  0.33466461639E+02  0.62500000000E+02  0.47000000000E+01 0. -1.
         -5    1    1    0    0  501  0.33355767631E+02  0.40639250868E+02 -0.33466461639E+02  0.62500000000E+02  0.47000000000E+01 0. -1.
</event>
<event>
 3    0  0.4603569E-005  0.9118800E+02  0.7546771E-02  0.1235069E+00
         25   -1    0    0    0    0  0.00000000000E+00  0.00000000000E+00  0.99999998245E-14  0.12500000000E+03  0.12500000000E+03 0.  0.
          5    1    1    0  501    0  0.22970492984E+02 -0.54221548870E+02  0.20409313810E+02  0.62500000000E+02  0.47000000000E+01 0. -1.
         -5    1    1    0    0  501 -0.22970492984E+02  0.54221548870E+02 -0.20409313810E+02  0.62500000000E+02  0.47000000000E+01 0. -1.
</event>
<event>
 3    0  0.4603569E-005  0.9118800E+02  0.7546771E-02  0.1235069E+00
         25   -1    0    0    0    0  0.00000000000E+00  0.00000000000E+00  0.99999998245E-14  0.12500000000E+03  0.12500000000E+03 0.  0.
          5    1    1    0  501    0  0.35734146957E+02  0.47182672197E+02 -0.19519892049E+02  0.62500000000E+02  0.47000000000E+01 0.  1.
         -5    1    1    0    0  501 -0.35734146957E+02 -0.47182672197E+02  0.19519892049E+02  0.62500000000E+02  0.47000000000E+01 0.  1.
</event>
<event>
 3    0  0.4603569E-005  0.9118800E+02  0.7546771E-02  0.1235069E+00
         25   -1    0    0    0    0  0.00000000000E+00  0.00000000000E+00  0.99999998245E-14  0.12500000000E+03  0.12500000000E+03 0.  0.
          5    1    1    0  501    0 -0.58922365210E+02 -0.19157534217E+02 -0.67308068464E+01  0.62500000000E+02  0.47000000000E+01 0. -1.
         -5    1    1    0    0  501  0.58922365210E+02  0.19157534217E+02  0.67308068464E+01  0.62500000000E+02  0.47000000000E+01 0. -1.
</event>
<event>
 3    0  0.4603569E-005  0.9118800E+02  0.7546771E-02  0.1235069E+00
         25   -1    0    0    0    0  0.00000000000E+00  0.00000000000E+00  0.99999998245E-14  0.12500000000E+03  0.12500000000E+03 0.  0.
          5    1    1    0  501    0  0.55121192580E+02  0.17970918173E+02  0.22866137160E+02  0.62500000000E+02  0.47000000000E+01 0. -1.
         -5    1    1    0    0  501 -0.55121192580E+02 -0.17970918173E+02 -0.22866137160E+02  0.62500000000E+02  0.47000000000E+01 0. -1.
</event>
<event>
 3    0  0.4603569E-005  0.9118800E+02  0.7546771E-02  0.1235069E+00
         25   -1    0    0    0    0  0.00000000000E+00  0.00000000000E+00  0.99999998245E-14  0.12500000000E+03  0.12500000000E+03 0.  0.
          5    1    1    0  501    0  0.91008431307E+01 -0.50591860471E+02 -0.35239158735E+02  0.62500000000E+02  0.47000000000E+01 0.  1.
         -5    1    1    0    0  501 -0.91008431307E+01  0.50591860471E+02  0.35239158735E+02  0.62500000000E+02  0.47000000000E+01 0.  1.
</event>
<event>
 3    0  0.4603569E-005  0.9118800E+02  0.7546771E-02  0.1235069E+00
         25   -1    0    0    0    0  0.00000000000E+00  0.00000000000E+00  0.99999998245E-14  0.12500000000E+03  0.12500000000E+03 0.  0.
          5    1    1    0  501    0 -0.30743277058E+01 -0.62240210683E+02  0.92988349211E+00  0.62500000000E+02  0.47000000000E+01 0.  1.
         -5    1    1    0    0  501  0.30743277058E+01  0.62240210683E+02 -0.92988349211E+00  0.62500000000E+02  0.47000000000E+01 0.  1.
</event>
<event>
 3    0  0.4603569E-005  0.9118800E+02  0.7546771E-02  0.1235069E+00
         25   -1    0    0    0    0  0.00000000000E+00  0.00000000000E+00  0.99999998245E-14  0.12500000000E+03  0.12500000000E+03 0.  0.
          5    1    1    0  501    0  0.17964702386E+02  0.59308603053E+02  0.66271466014E+01  0.62500000000E+02  0.47000000000E+01 0.  1.
         -5    1    1    0    0  501 -0.17964702386E+02 -0.59308603053E+02 -0.66271466014E+01  0.62500000000E+02  0.47000000000E+01 0.  1.
</event>
<event>
 3    0  0.4603569E-005  0.9118800E+02  0.7546771E-02  0.1235069E+00
         25   -1    0    0    0    0  0.00000000000E+00  0.00000000000E+00  0.99999998245E-14  0.12500000000E+03  0.12500000000E+03 0.  0.
          5    1    1    0  501    0  0.52248384396E+02  0.21294600948E+02  0.26472746335E+02  0.62500000000E+02  0.47000000000E+01 0. -1.
         -5    1    1    0    0  501 -0.52248384396E+02 -0.21294600948E+02 -0.26472746335E+02  0.62500000000E+02  0.47000000000E+01 0. -1.
</event>
<event>
 3    0  0.4603569E-005  0.9118800E+02  0.7546771E-02  0.1235069E+00
         25   -1    0    0    0    0  0.00000000000E+00  0.00000000000E+00  0.99999998245E-14  0.12500000000E+03  0.12500000000E+03 0.  0.
          5    1    1    0  501    0  0.85904691348E+01  0.19365633836E+02 -0.58611740003E+02  0.62500000000E+02  0.47000000000E+01 0. -1.
         -5    1    1    0    0  501 -0.85904691348E+01 -0.19365633836E+02  0.58611740003E+02  0.62500000000E+02  0.47000000000E+01 0. -1.
</event>
<event>
 3    0  0.4603569E-005  0.9118800E+02  0.7546771E-02  0.1235069E+00
         25   -1    0    0    0    0  0.00000000000E+00  0.00000000000E+00  0.99999998245E-14  0.12500000000E+03  0.12500000000E+03 0.  0.
          5    1    1    0  501    0  0.18578990862E+02 -0.55764573569E+02  0.20719397511E+02  0.62500000000E+02  0.47000000000E+01 0.  1.
         -5    1    1    0    0  501 -0.18578990862E+02  0.55764573569E+02 -0.20719397511E+02  0.62500000000E+02  0.47000000000E+01 0.  1.
</event>
<event>
 3    0  0.4603569E-005  0.9118800E+02  0.7546771E-02  0.1235069E+00
         25   -1    0    0    0    0  0.00000000000E+00  0.00000000000E+00  0.99999998245E-14  0.12500000000E+03  0.12500000000E+03 0.  0.
          5    1    1    0  501    0  0.47862810482E+02 -0.29480079233E+02 -0.26911638768E+02  0.62500000000E+02  0.47000000000E+01 0.  1.
         -5    1    1    0    0  501 -0.47862810482E+02  0.29480079233E+02  0.26911638768E+02  0.62500000000E+02  0.47000000000E+01 0.  1.
</event>
<event>
 3    0  0.4603569E-005  0.9118800E+02  0.7546771E-02  0.1235069E+00
         25   -1    0    0    0    0  0.00000000000E+00  0.00000000000E+00  0.99999998245E-14  0.12500000000E+03  0.12500000000E+03 0.  0.
          5    1    1    0  501    0  0.37116648842E+02  0.39335809462E+02  0.30971090918E+02  0.62500000000E+02  0.47000000000E+01 0.  1.
         -5    1    1    0    0  501 -0.37116648842E+02 -0.39335809462E+02 -0.30971090918E+02  0.62500000000E+02  0.47000000000E+01 0.  1.
</event>
<event>
 3    0  0.4603569E-005  0.9118800E+02  0.7546771E-02  0.1235069E+00
         25   -1    0    0    0    0  0.00000000000E+00  0.00000000000E+00  0.99999998245E-14  0.12500000000E+03  0.12500000000E+03 0.  0.
          5    1    1    0  501    0 -0.25260198048E+02  0.16162348319E+02 -0.54633880435E+02  0.62500000000E+02  0.47000000000E+01 0.  1.
         -5    1    1    0    0  501  0.25260198048E+02 -0.16162348319E+02  0.54633880435E+02  0.62500000000E+02  0.47000000000E+01 0.  1.
</event>
<event>
 3    0  0.4603569E-005  0.9118800E+02  0.7546771E-02  0.1235069E+00
         25   -1    0    0    0    0  0.00000000000E+00  0.00000000000E+00  0.99999998245E-14  0.12500000000E+03  0.12500000000E+03 0.  0.
          5    1    1    0  501    0  0.46256529668E+02  0.33949523214E+01  0.41628929386E+02  0.62500000000E+02  0.47000000000E+01 0. -1.
         -5    1    1    0    0  501 -0.46256529668E+02 -0.33949523214E+01 -0.41628929386E+02  0.62500000000E+02  0.47000000000E+01 0. -1.
</event>
<event>
 3    0  0.4603569E-005  0.9118800E+02  0.7546771E-02  0.1235069E+00
         25   -1    0    0    0    0  0.00000000000E+00  0.00000000000E+00  0.99999998245E-14  0.12500000000E+03  0.12500000000E+03 0.  0.
          5    1    1    0  501    0  0.34237998129E+02 -0.27707110098E+01  0.52002333069E+02  0.62500000000E+02  0.47000000000E+01 0. -1.
         -5    1    1    0    0  501 -0.34237998129E+02  0.27707110098E+01 -0.52002333069E+02  0.62500000000E+02  0.47000000000E+01 0. -1.
</event>
<event>
 3    0  0.4603569E-005  0.9118800E+02  0.7546771E-02  0.1235069E+00
         25   -1    0    0    0    0  0.00000000000E+00  0.00000000000E+00  0.99999998245E-14  0.12500000000E+03  0.12500000000E+03 0.  0.
          5    1    1    0  501    0  0.32692519970E+01 -0.47345580098E+02 -0.40396386429E+02  0.62500000000E+02  0.47000000000E+01 0. -1.
         -5    1    1    0    0  501 -0.32692519970E+01  0.47345580098E+02  0.40396386429E+02  0.62500000000E+02  0.47000000000E+01 0. -1.
</event>
<event>
 3    0  0.4603569E-005  0.9118800E+02  0.7546771E-02  0.1235069E+00
         25   -1    0    0    0    0  0.00000000000E+00  0.00000000000E+00  0.99999998245E-14  0.12500000000E+03  0.12500000000E+03 0.  0.
          5    1    1    0  501    0  0.56094771939E+02 -0.18169984882E+01 -0.27096772457E+02  0.62500000000E+02  0.47000000000E+01 0. -1.
         -5    1    1    0    0  501 -0.56094771939E+02  0.18169984882E+01  0.27096772457E+02  0.62500000000E+02  0.47000000000E+01 0. -1.
</event>
<event>
 3    0  0.4603569E-005  0.9118800E+02  0.7546771E-02  0.1235069E+00
         25   -1    0    0    0    0  0.00000000000E+00  0.00000000000E+00  0.99999998245E-14  0.12500000000E+03  0.12500000000E+03 0.  0.
          5    1    1    0  501    0  0.32824074349E+02  0.52924333317E+02  0.23989760485E+01  0.62500000000E+02  0.47000000000E+01 0.  1.
         -5    1    1    0    0  501 -0.32824074349E+02 -0.52924333317E+02 -0.23989760485E+01  0.62500000000E+02  0.47000000000E+01 0.  1.
</event>
<event>
 3    0  0.4603569E-005  0.9118800E+02  0.7546771E-02  0.1235069E+00
         25   -1    0    0    0    0  0.00000000000E+00  0.00000000000E+00  0.99999998245E-14  0.12500000000E+03  0.12500000000E+03 0.  0.
          5    1    1    0  501    0  0.14067405851E+02  0.23097721969E+02 -0.56149473127E+02  0.62500000000E+02  0.47000000000E+01 0. -1.
         -5    1    1    0    0  501 -0.14067405851E+02 -0.23097721969E+02  0.56149473127E+02  0.62500000000E+02  0.47000000000E+01 0. -1.
</event>
<event>
 3    0  0.4603569E-005  0.9118800E+02  0.7546771E-02  0.1235069E+00
         25   -1    0    0    0    0  0.00000000000E+00  0.00000000000E+00  0.99999998245E-14  0.12500000000E+03  0.12500000000E+03 0.  0.
          5    1    1    0  501    0 -0.51873254530E+02 -0.34526145229E+02 -0.11272799384E+01  0.62500000000E+02  0.47000000000E+01 0.  1.
         -5    1    1    0    0  501  0.51873254530E+02  0.34526145229E+02  0.11272799384E+01  0.62500000000E+02  0.47000000000E+01 0.  1.
</event>
<event>
 3    0  0.4603569E-005  0.9118800E+02  0.7546771E-02  0.1235069E+00
         25   -1    0    0    0    0  0.00000000000E+00  0.00000000000E+00  0.99999998245E-14  0.12500000000E+03  0.12500000000E+03 0.  0.
          5    1    1    0  501    0  0.18305258066E+02  0.41965153556E+01  0.59426145643E+02  0.62500000000E+02  0.47000000000E+01 0.  1.
         -5    1    1    0    0  501 -0.18305258066E+02 -0.41965153556E+01 -0.59426145643E+02  0.62500000000E+02  0.47000000000E+01 0.  1.
</event>
<event>
 3    0  0.4603569E-005  0.9118800E+02  0.7546771E-02  0.1235069E+00
         25   -1    0    0    0    0  0.00000000000E+00  0.00000000000E+00  0.99999998245E-14  0.12500000000E+03  0.12500000000E+03 0.  0.
          5    1    1    0  501    0  0.22060507541E+02  0.20985624277E+02  0.54379201729E+02  0.62500000000E+02  0.47000000000E+01 0.  1.
         -5    1    1    0    0  501 -0.22060507541E+02 -0.20985624277E+02 -0.54379201729E+02  0.62500000000E+02  0.47000000000E+01 0.  1.
</event>
<event>
 3    0  0.4603569E-005  0.9118800E+02  0.7546771E-02  0.1235069E+00
         25   -1    0    0    0    0  0.00000000000E+00  0.00000000000E+00  0.99999998245E-14  0.12500000000E+03  0.12500000000E+03 0.  0.
          5    1    1    0  501    0 -0.56256603003E+02  0.20588399000E+02 -0.17189311948E+02  0.62500000000E+02  0.47000000000E+01 0.  1.
         -5    1    1    0    0  501  0.56256603003E+02 -0.20588399000E+02  0.17189311948E+02  0.62500000000E+02  0.47000000000E+01 0.  1.
</event>
<event>
 3    0  0.4603569E-005  0.9118800E+02  0.7546771E-02  0.1235069E+00
         25   -1    0    0    0    0  0.00000000000E+00  0.00000000000E+00  0.99999998245E-14  0.12500000000E+03  0.12500000000E+03 0.  0.
          5    1    1    0  501    0  0.55998840312E+02 -0.37886435050E+01  0.27091254383E+02  0.62500000000E+02  0.47000000000E+01 0. -1.
         -5    1    1    0    0  501 -0.55998840312E+02  0.37886435050E+01 -0.27091254383E+02  0.62500000000E+02  0.47000000000E+01 0. -1.
</event>
<event>
 3    0  0.4603569E-005  0.9118800E+02  0.7546771E-02  0.1235069E+00
         25   -1    0    0    0    0  0.00000000000E+00  0.00000000000E+00  0.99999998245E-14  0.12500000000E+03  0.12500000000E+03 0.  0.
          5    1    1    0  501    0 -0.30485510231E+02 -0.53684764845E+02 -0.85287566247E+01  0.62500000000E+02  0.47000000000E+01 0. -1.
         -5    1    1    0    0  501  0.30485510231E+02  0.53684764845E+02  0.85287566247E+01  0.62500000000E+02  0.47000000000E+01 0. -1.
</event>
<event>
 3    0  0.4603569E-005  0.9118800E+02  0.7546771E-02  0.1235069E+00
         25   -1    0    0    0    0  0.00000000000E+00  0.00000000000E+00  0.99999998245E-14  0.12500000000E+03  0.12500000000E+03 0.  0.
          5    1    1    0  501    0 -0.42923212626E+02 -0.40758740879E+02 -0.19505969853E+02  0.62500000000E+02  0.47000000000E+01 0. -1.
         -5    1    1    0    0  501  0.42923212626E+02  0.40758740879E+02  0.19505969853E+02  0.62500000000E+02  0.47000000000E+01 0. -1.
</event>
<event>
 3    0  0.4603569E-005  0.9118800E+02  0.7546771E-02  0.1235069E+00
         25   -1    0    0    0    0  0.00000000000E+00  0.00000000000E+00  0.99999998245E-14  0.12500000000E+03  0.12500000000E+03 0.  0.
          5    1    1    0  501    0 -0.38370870481E+02 -0.43499583916E+02 -0.22795229713E+02  0.62500000000E+02  0.47000000000E+01 0.  1.
         -5    1    1    0    0  501  0.38370870481E+02  0.43499583916E+02  0.22795229713E+02  0.62500000000E+02  0.47000000000E+01 0.  1.
</event>
<event>
 3    0  0.4603569E-005  0.9118800E+02  0.7546771E-02  0.1235069E+00
         25   -1    0    0    0    0  0.00000000000E+00  0.00000000000E+00  0.99999998245E-14  0.12500000000E+03  0.12500000000E+03 0.  0.
          5    1    1    0  501    0  0.71223385417E+01  0.61359119570E+02 -0.82759132023E+01  0.62500000000E+02  0.47000000000E+01 0. -1.
         -5    1    1    0    0  501 -0.71223385417E+01 -0.61359119570E+02  0.82759132023E+01  0.62500000000E+02  0.47000000000E+01 0. -1.
</event>
<event>
 3    0  0.4603569E-005  0.9118800E+02  0.7546771E-02  0.1235069E+00
         25   -1    0    0    0    0  0.00000000000E+00  0.00000000000E+00  0.99999998245E-14  0.12500000000E+03  0.12500000000E+03 0.  0.
          5    1    1    0  501    0 -0.22032727855E+02 -0.41376554799E+02  0.41069448696E+02  0.62500000000E+02  0.47000000000E+01 0. -1.
         -5    1    1    0    0  501  0.22032727855E+02  0.41376554799E+02 -0.41069448696E+02  0.62500000000E+02  0.47000000000E+01 0. -1.
</event>
<event>
 3    0  0.4603569E-005  0.9118800E+02  0.7546771E-02  0.1235069E+00
         25   -1    0    0    0    0  0.00000000000E+00  0.00000000000E+00  0.99999998245E-14  0.12500000000E+03  0.12500000000E+03 0.  0.
          5    1    1    0  501    0 -0.26800710832E+02 -0.53474720928E+02  0.17502460414E+02  0.62500000000E+02  0.47000000000E+01 0. -1.
         -5    1    1    0    0  501  0.26800710832E+02  0.53474720928E+02 -0.17502460414E+02  0.62500000000E+02  0.47000000000E+01 0. -1.
</event>
<event>
 3    0  0.4603569E-005  0.9118800E+02  0.7546771E-02  0.1235069E+00
         25   -1    0    0    0    0  0.00000000000E+00  0.00000000000E+00  0.99999998245E-14  0.12500000000E+03  0.12500000000E+03 0.  0.
          5    1    1    0  501    0 -0.36353570962E+02 -0.47381737484E+02 -0.17819899867E+02  0.62500000000E+02  0.47000000000E+01 0.  1.
         -5    1    1    0    0  501  0.36353570962E+02  0.47381737484E+02  0.17819899867E+02  0.62500000000E+02  0.47000000000E+01 0.  1.
</event>
<event>
 3    0  0.4603569E-005  0.9118800E+02  0.7546771E-02  0.1235069E+00
         25   -1    0    0    0    0  0.00000000000E+00  0.00000000000E+00  0.99999998245E-14  0.12500000000E+03  0.12500000000E+03 0.  0.
          5    1    1    0  501    0  0.33139301774E+02  0.26089079560E+02 -0.45883620233E+02  0.62500000000E+02  0.47000000000E+01 0.  1.
         -5    1    1    0    0  501 -0.33139301774E+02 -0.26089079560E+02  0.45883620233E+02  0.62500000000E+02  0.47000000000E+01 0.  1.
</event>
<event>
 3    0  0.4603569E-005  0.9118800E+02  0.7546771E-02  0.1235069E+00
         25   -1    0    0    0    0  0.00000000000E+00  0.00000000000E+00  0.99999998245E-14  0.12500000000E+03  0.12500000000E+03 0.  0.
          5    1    1    0  501    0 -0.22666482403E+02  0.20265635116E+01  0.58019683003E+02  0.62500000000E+02  0.47000000000E+01 0. -1.
         -5    1    1    0    0  501  0.22666482403E+02 -0.20265635116E+01 -0.58019683003E+02  0.62500000000E+02  0.47000000000E+01 0. -1.
</event>
<event>
 3    0  0.4603569E-005  0.9118800E+02  0.7546771E-02  0.1235069E+00
         25   -1    0    0    0    0  0.00000000000E+00  0.00000000000E+00  0.99999998245E-14  0.12500000000E+03  0.12500000000E+03 0.  0.
          5    1    1    0  501    0 -0.32028641370E+02  0.34539029357E+02 -0.40809087016E+02  0.62500000000E+02  0.47000000000E+01 0. -1.
         -5    1    1    0    0  501  0.32028641370E+02 -0.34539029357E+02  0.40809087016E+02  0.62500000000E+02  0.47000000000E+01 0. -1.
</event>
<event>
 3    0  0.4603569E-005  0.9118800E+02  0.7546771E-02  0.1235069E+00
         25   -1    0    0    0    0  0.00000000000E+00  0.00000000000E+00  0.99999998245E-14  0.12500000000E+03  0.12500000000E+03 0.  0.
          5    1    1    0  501    0 -0.32340667191E+02 -0.15852962960E+02 -0.50861820760E+02  0.62500000000E+02  0.47000000000E+01 0.  1.
         -5    1    1    0    0  501  0.32340667191E+02  0.15852962960E+02  0.50861820760E+02  0.62500000000E+02  0.47000000000E+01 0.  1.
</event>
<event>
 3    0  0.4603569E-005  0.9118800E+02  0.7546771E-02  0.1235069E+00
         25   -1    0    0    0    0  0.00000000000E+00  0.00000000000E+00  0.99999998245E-14  0.12500000000E+03  0.12500000000E+03 0.  0.
          5    1    1    0  501    0  0.34703247664E+02  0.17585909001E+02 -0.48688606533E+02  0.62500000000E+02  0.47000000000E+01 0.  1.
         -5    1    1    0    0  501 -0.34703247664E+02 -0.17585909001E+02  0.48688606533E+02  0.62500000000E+02  0.47000000000E+01 0.  1.
</event>
<event>
 3    0  0.4603569E-005  0.9118800E+02  0.7546771E-02  0.1235069E+00
         25   -1    0    0    0    0  0.00000000000E+00  0.00000000000E+00  0.99999998245E-14  0.12500000000E+03  0.12500000000E+03 0.  0.
          5    1    1    0  501    0  0.75622638386E+01  0.51276582511E+02 -0.34607575061E+02  0.62500000000E+02  0.47000000000E+01 0.  1.
         -5    1    1    0    0  501 -0.75622638386E+01 -0.51276582511E+02  0.34607575061E+02  0.62500000000E+02  0.47000000000E+01 0.  1.
</event>
<event>
 3    0  0.4603569E-005  0.9118800E+02  0.7546771E-02  0.1235069E+00
         25   -1    0    0    0    0  0.00000000000E+00  0.00000000000E+00  0.99999998245E-14  0.12500000000E+03  0.12500000000E+03 0.  0.
          5    1    1    0  501    0 -0.27133897832E+02  0.35645877931E+02 -0.43327623694E+02  0.62500000000E+02  0.47000000000E+01 0. -1.
         -5    1    1    0    0  501  0.27133897832E+02 -0.35645877931E+02  0.43327623694E+02  0.62500000000E+02  0.47000000000E+01 0. -1.
</event>
<event>
 3    0  0.4603569E-005  0.9118800E+02  0.7546771E-02  0.1235069E+00
         25   -1    0    0    0    0  0.00000000000E+00  0.00000000000E+00  0.99999998245E-14  0.12500000000E+03  0.12500000000E+03 0.  0.
          5    1    1    0  501    0  0.60659241352E+02  0.31600461856E+01 -0.13951005220E+02  0.62500000000E+02  0.47000000000E+01 0. -1.
         -5    1    1    0    0  501 -0.60659241352E+02 -0.31600461856E+01  0.13951005220E+02  0.62500000000E+02  0.47000000000E+01 0. -1.
</event>
<event>
 3    0  0.4603569E-005  0.9118800E+02  0.7546771E-02  0.1235069E+00
         25   -1    0    0    0    0  0.00000000000E+00  0.00000000000E+00  0.99999998245E-14  0.12500000000E+03  0.12500000000E+03 0.  0.
          5    1    1    0  501    0 -0.50566298258E+02  0.14305843754E+02  0.33504511860E+02  0.62500000000E+02  0.47000000000E+01 0.  1.
         -5    1    1    0    0  501  0.50566298258E+02 -0.14305843754E+02 -0.33504511860E+02  0.62500000000E+02  0.47000000000E+01 0.  1.
</event>
<event>
 3    0  0.4603569E-005  0.9118800E+02  0.7546771E-02  0.1235069E+00
         25   -1    0    0    0    0  0.00000000000E+00  0.00000000000E+00  0.99999998245E-14  0.12500000000E+03  0.12500000000E+03 0.  0.
          5    1    1    0  501    0 -0.50560760009E+01  0.51379383766E+02 -0.34910671998E+02  0.62500000000E+02  0.47000000000E+01 0.  1.
         -5    1    1    0    0  501  0.50560760009E+01 -0.51379383766E+02  0.34910671998E+02  0.62500000000E+02  0.47000000000E+01 0.  1.
</event>
<event>
 3    0  0.4603569E-005  0.9118800E+02  0.7546771E-02  0.1235069E+00
         25   -1    0    0    0    0  0.00000000000E+00  0.00000000000E+00  0.99999998245E-14  0.12500000000E+03  0.12500000000E+03 0.  0.
          5    1    1    0  501    0 -0.12912286029E+02  0.38460350044E+02 -0.47309981441E+02  0.62500000000E+02  0.47000000000E+01 0. -1.
         -5    1    1    0    0  501  0.12912286029E+02 -0.38460350044E+02  0.47309981441E+02  0.62500000000E+02  0.47000000000E+01 0. -1.
</event>
<event>
 3    0  0.4603569E-005  0.9118800E+02  0.7546771E-02  0.1235069E+00
         25   -1    0    0    0    0  0.00000000000E+00  0.00000000000E+00  0.99999998245E-14  0.12500000000E+03  0.12500000000E+03 0.  0.
          5    1    1    0  501    0 -0.54763198099E+02  0.13918052563E+02  0.26295245707E+02  0.62500000000E+02  0.47000000000E+01 0.  1.
         -5    1    1    0    0  501  0.54763198099E+02 -0.13918052563E+02 -0.26295245707E+02  0.62500000000E+02  0.47000000000E+01 0.  1.
</event>
<event>
 3    0  0.4603569E-005  0.9118800E+02  0.7546771E-02  0.1235069E+00
         25   -1    0    0    0    0  0.00000000000E+00  0.00000000000E+00  0.99999998245E-14  0.12500000000E+03  0.12500000000E+03 0.  0.
          5    1    1    0  501    0 -0.39106619983E+02 -0.45970816132E+02 -0.15540795913E+02  0.62500000000E+02  0.47000000000E+01 0.  1.
         -5    1    1    0    0  501  0.39106619983E+02  0.45970816132E+02  0.15540795913E+02  0.62500000000E+02  0.47000000000E+01 0.  1.
</event>
<event>
 3    0  0.4603569E-005  0.9118800E+02  0.7546771E-02  0.1235069E+00
         25   -1    0    0    0    0  0.00000000000E+00  0.00000000000E+00  0.99999998245E-14  0.12500000000E+03  0.12500000000E+03 0.  0.
          5    1    1    0  501    0  0.58687882565E+02 -0.14934883600E+02 -0.14725545554E+02  0.62500000000E+02  0.47000000000E+01 0. -1.
         -5    1    1    0    0  501 -0.58687882565E+02  0.14934883600E+02  0.14725545554E+02  0.62500000000E+02  0.47000000000E+01 0. -1.
</event>
<event>
 3    0  0.4603569E-005  0.9118800E+02  0.7546771E-02  0.1235069E+00
         25   -1    0    0    0    0  0.00000000000E+00  0.00000000000E+00  0.99999998245E-14  0.12500000000E+03  0.12500000000E+03 0.  0.
          5    1    1    0  501    0  0.27553464371E+02  0.55893722434E+02 -0.92649538026E+00  0.62500000000E+02  0.47000000000E+01 0. -1.
         -5    1    1    0    0  501 -0.27553464371E+02 -0.55893722434E+02  0.92649538026E+00  0.62500000000E+02  0.47000000000E+01 0. -1.
</event>
<event>
 3    0  0.4603569E-005  0.9118800E+02  0.7546771E-02  0.1235069E+00
         25   -1    0    0    0    0  0.00000000000E+00  0.00000000000E+00  0.99999998245E-14  0.12500000000E+03  0.12500000000E+03 0.  0.
          5    1    1    0  501    0  0.31774757481E+01  0.77908730861E+01  0.61752456991E+02  0.62500000000E+02  0.47000000000E+01 0.  1.
         -5    1    1    0    0  501 -0.31774757481E+01 -0.77908730861E+01 -0.61752456991E+02  0.62500000000E+02  0.47000000000E+01 0.  1.
</event>
<event>
 3    0  0.4603569E-005  0.9118800E+02  0.7546771E-02  0.1235069E+00
         25   -1    0    0    0    0  0.00000000000E+00  0.00000000000E+00  0.99999998245E-14  0.12500000000E+03  0.12500000000E+03 0.  0.
          5    1    1    0  501    0  0.20571470472E+02  0.34245300702E+02  0.47835488734E+02  0.62500000000E+02  0.47000000000E+01 0. -1.
         -5    1    1    0    0  501 -0.20571470472E+02 -0.34245300702E+02 -0.47835488734E+02  0.62500000000E+02  0.47000000000E+01 0. -1.
</event>
<event>
 3    0  0.4603569E-005  0.9118800E+02  0.7546771E-02  0.1235069E+00
         25   -1    0    0    0    0  0.00000000000E+00  0.00000000000E+00  0.99999998245E-14  0.12500000000E+03  0.12500000000E+03 0.  0.
          5    1    1    0  501    0 -0.32015521179E+02 -0.21692542240E+02  0.48873305749E+02  0.62500000000E+02  0.47000000000E+01 0. -1.
         -5    1    1    0    0  501  0.32015521179E+02  0.21692542240E+02 -0.48873305749E+02  0.62500000000E+02  0.47000000000E+01 0. -1.
</event>
<event>
 3    0  0.4603569E-005  0.9118800E+02  0.7546771E-02  0.1235069E+00
         25   -1    0    0    0    0  0.00000000000E+00  0.00000000000E+00  0.99999998245E-14  0.12500000000E+03  0.12500000000E+03 0.  0.
          5    1    1    0  501    0 -0.60440975226E+02  0.41251603953E+01  0.14629817681E+02  0.62500000000E+02  0.47000000000E+01 0.  1.
         -5    1    1    0    0  501  0.60440975226E+02 -0.41251603953E+01 -0.14629817681E+02  0.62500000000E+02  0.47000000000E+01 0.  1.
</event>
<event>
 3    0  0.4603569E-005  0.9118800E+02  0.7546771E-02  0.1235069E+00
         25   -1    0    0    0    0  0.00000000000E+00  0.00000000000E+00  0.99999998245E-14  0.12500000000E+03  0.12500000000E+03 0.  0.
          5    1    1    0  501    0  0.62089323276E+02  0.51877827495E+01  0.14706615028E+01  0.62500000000E+02  0.47000000000E+01 0.  1.
         -5    1    1    0    0  501 -0.62089323276E+02 -0.51877827495E+01 -0.14706615028E+01  0.62500000000E+02  0.47000000000E+01 0.  1.
</event>
<event>
 3    0  0.4603569E-005  0.9118800E+02  0.7546771E-02  0.1235069E+00
         25   -1    0    0    0    0  0.00000000000E+00  0.00000000000E+00  0.99999998245E-14  0.12500000000E+03  0.12500000000E+03 0.  0.
          5    1    1    0  501    0 -0.32179806609E+02 -0.69665981161E+01 -0.52915844105E+02  0.62500000000E+02  0.47000000000E+01 0.  1.
         -5    1    1    0    0  501  0.32179806609E+02  0.69665981161E+01  0.52915844105E+02  0.62500000000E+02  0.47000000000E+01 0.  1.
</event>
<event>
 3    0  0.4603569E-005  0.9118800E+02  0.7546771E-02  0.1235069E+00
         25   -1    0    0    0    0  0.00000000000E+00  0.00000000000E+00  0.99999998245E-14  0.12500000000E+03  0.12500000000E+03 0.  0.
          5    1    1    0  501    0  0.49872033002E+02 -0.12289655485E+02  0.35297375148E+02  0.62500000000E+02  0.47000000000E+01 0. -1.
         -5    1    1    0    0  501 -0.49872033002E+02  0.12289655485E+02 -0.35297375148E+02  0.62500000000E+02  0.47000000000E+01 0. -1.
</event>
<event>
 3    0  0.4603569E-005  0.9118800E+02  0.7546771E-02  0.1235069E+00
         25   -1    0    0    0    0  0.00000000000E+00  0.00000000000E+00  0.99999998245E-14  0.12500000000E+03  0.12500000000E+03 0.  0.
          5    1    1    0  501    0 -0.25035151220E+02 -0.44812734497E+02  0.35344306901E+02  0.62500000000E+02  0.47000000000E+01 0.  1.
         -5    1    1    0    0  501  0.25035151220E+02  0.44812734497E+02 -0.35344306901E+02  0.62500000000E+02  0.47000000000E+01 0.  1.
</event>
<event>
 3    0  0.4603569E-005  0.9118800E+02  0.7546771E-02  0.1235069E+00
         25   -1    0    0    0    0  0.00000000000E+00  0.00000000000E+00  0.99999998245E-14  0.12500000000E+03  0.12500000000E+03 0.  0.
          5    1    1    0  501    0 -0.17212423886E+02  0.10441097906E+02 -0.58981996732E+02  0.62500000000E+02  0.47000000000E+01 0. -1.
         -5    1    1    0    0  501  0.17212423886E+02 -0.10441097906E+02  0.58981996732E+02  0.62500000000E+02  0.47000000000E+01 0. -1.
</event>
<event>
 3    0  0.4603569E-005  0.9118800E+02  0.7546771E-02  0.1235069E+00
         25   -1    0    0    0    0  0.00000000000E+00  0.00000000000E+00  0.99999998245E-14  0.12500000000E+03  0.12500000000E+03 0.  0.
          5    1    1    0  501    0 -0.58234910472E+02 -0.20551018086E+02 -0.83970743695E+01  0.62500000000E+02  0.47000000000E+01 0. -1.
         -5    1    1    0    0  501  0.58234910472E+02  0.20551018086E+02  0.83970743695E+01  0.62500000000E+02  0.47000000000E+01 0. -1.
</event>
<event>
 3    0  0.4603569E-005  0.9118800E+02  0.7546771E-02  0.1235069E+00
         25   -1    0    0    0    0  0.00000000000E+00  0.00000000000E+00  0.99999998245E-14  0.12500000000E+03  0.12500000000E+03 0.  0.
          5    1    1    0  501    0 -0.22827933884E+02 -0.39391250810E+02  0.42560248992E+02  0.62500000000E+02  0.47000000000E+01 0. -1.
         -5    1    1    0    0  501  0.22827933884E+02  0.39391250810E+02 -0.42560248992E+02  0.62500000000E+02  0.47000000000E+01 0. -1.
</event>
<event>
 3    0  0.4603569E-005  0.9118800E+02  0.7546771E-02  0.1235069E+00
         25   -1    0    0    0    0  0.00000000000E+00  0.00000000000E+00  0.99999998245E-14  0.12500000000E+03  0.12500000000E+03 0.  0.
          5    1    1    0  501    0  0.47875011247E+02  0.30407812100E+02 -0.25836181246E+02  0.62500000000E+02  0.47000000000E+01 0.  1.
         -5    1    1    0    0  501 -0.47875011247E+02 -0.30407812100E+02  0.25836181246E+02  0.62500000000E+02  0.47000000000E+01 0.  1.
</event>
<event>
 3    0  0.4603569E-005  0.9118800E+02  0.7546771E-02  0.1235069E+00
         25   -1    0    0    0    0  0.00000000000E+00  0.00000000000E+00  0.99999998245E-14  0.12500000000E+03  0.12500000000E+03 0.  0.
          5    1    1    0  501    0  0.14617436423E+02  0.23176096525E+02  0.55976415590E+02  0.62500000000E+02  0.47000000000E+01 0. -1.
         -5    1    1    0    0  501 -0.14617436423E+02 -0.23176096525E+02 -0.55976415590E+02  0.62500000000E+02  0.47000000000E+01 0. -1.
</event>
<event>
 3    0  0.4603569E-005  0.9118800E+02  0.7546771E-02  0.1235069E+00
         25   -1    0    0    0    0  0.00000000000E+00  0.00000000000E+00  0.99999998245E-14  0.12500000000E+03  0.12500000000E+03 0.  0.
          5    1    1    0  501    0  0.10556355444E+02  0.41859572871E+02 -0.44949966839E+02  0.62500000000E+02  0.47000000000E+01 0.  1.
         -5    1    1    0    0  501 -0.10556355444E+02 -0.41859572871E+02  0.44949966839E+02  0.62500000000E+02  0.47000000000E+01 0.  1.
</event>
<event>
 3    0  0.4603569E-005  0.9118800E+02  0.7546771E-02  0.1235069E+00
         25   -1    0    0    0    0  0.00000000000E+00  0.00000000000E+00  0.99999998245E-14  0.12500000000E+03  0.12500000000E+03 0.  0.
          5    1    1    0  501    0  0.12887277714E+02 -0.59971711948E+02 -0.11021426363E+02  0.62500000000E+02  0.47000000000E+01 0. -1.
         -5    1    1    0    0  501 -0.12887277714E+02  0.59971711948E+02  0.11021426363E+02  0.62500000000E+02  0.47000000000E+01 0. -1.
</event>
<event>
 3    0  0.4603569E-005  0.9118800E+02  0.7546771E-02  0.1235069E+00
         25   -1    0    0    0    0  0.00000000000E+00  0.00000000000E+00  0.99999998245E-14  0.12500000000E+03  0.12500000000E+03 0.  0.
          5    1    1    0  501    0 -0.12464554156E+02 -0.37104045466E+02  0.48498295844E+02  0.62500000000E+02  0.47000000000E+01 0. -1.
         -5    1    1    0    0  501  0.12464554156E+02  0.37104045466E+02 -0.48498295844E+02  0.62500000000E+02  0.47000000000E+01 0. -1.
</event>
<event>
 3    0  0.4603569E-005  0.9118800E+02  0.7546771E-02  0.1235069E+00
         25   -1    0    0    0    0  0.00000000000E+00  0.00000000000E+00  0.99999998245E-14  0.12500000000E+03  0.12500000000E+03 0.  0.
          5    1    1    0  501    0  0.37923087544E+02  0.70917115549E+00 -0.49451961613E+02  0.62500000000E+02  0.47000000000E+01 0.  1.
         -5    1    1    0    0  501 -0.37923087544E+02 -0.70917115549E+00  0.49451961613E+02  0.62500000000E+02  0.47000000000E+01 0.  1.
</event>
<event>
 3    0  0.4603569E-005  0.9118800E+02  0.7546771E-02  0.1235069E+00
         25   -1    0    0    0    0  0.00000000000E+00  0.00000000000E+00  0.99999998245E-14  0.12500000000E+03  0.12500000000E+03 0.  0.
          5    1    1    0  501    0 -0.44448334088E+02  0.41813193996E+02  0.12655528622E+02  0.62500000000E+02  0.47000000000E+01 0.  1.
         -5    1    1    0    0  501  0.44448334088E+02 -0.41813193996E+02 -0.12655528622E+02  0.62500000000E+02  0.47000000000E+01 0.  1.
</event>
<event>
 3    0  0.4603569E-005  0.9118800E+02  0.7546771E-02  0.1235069E+00
         25   -1    0    0    0    0  0.00000000000E+00  0.00000000000E+00  0.99999998245E-14  0.12500000000E+03  0.12500000000E+03 0.  0.
          5    1    1    0  501    0  0.55794106696E+02 -0.89488104409E+01  0.26288713352E+02  0.62500000000E+02  0.47000000000E+01 0.  1.
         -5    1    1    0    0  501 -0.55794106696E+02  0.89488104409E+01 -0.26288713352E+02  0.62500000000E+02  0.47000000000E+01 0.  1.
</event>
<event>
 3    0  0.4603569E-005  0.9118800E+02  0.7546771E-02  0.1235069E+00
         25   -1    0    0    0    0  0.00000000000E+00  0.00000000000E+00  0.99999998245E-14  0.12500000000E+03  0.12500000000E+03 0.  0.
          5    1    1    0  501    0  0.23471000885E+02  0.42495400178E+02  0.39082132505E+02  0.62500000000E+02  0.47000000000E+01 0. -1.
         -5    1    1    0    0  501 -0.23471000885E+02 -0.42495400178E+02 -0.39082132505E+02  0.62500000000E+02  0.47000000000E+01 0. -1.
</event>
<event>
 3    0  0.4603569E-005  0.9118800E+02  0.7546771E-02  0.1235069E+00
         25   -1    0    0    0    0  0.00000000000E+00  0.00000000000E+00  0.99999998245E-14  0.12500000000E+03  0.12500000000E+03 0.  0.
          5    1    1    0  501    0 -0.45263985370E+02 -0.19856246085E+02  0.37961310829E+02  0.62500000000E+02  0.47000000000E+01 0. -1.
         -5    1    1    0    0  501  0.45263985370E+02  0.19856246085E+02 -0.37961310829E+02  0.62500000000E+02  0.47000000000E+01 0. -1.
</event>
<event>
 3    0  0.4603569E-005  0.9118800E+02  0.7546771E-02  0.1235069E+00
         25   -1    0    0    0    0  0.00000000000E+00  0.00000000000E+00  0.99999998245E-14  0.12500000000E+03  0.12500000000E+03 0.  0.
          5    1    1    0  501    0  0.15666788313E+02  0.47513853991E+02  0.37163764918E+02  0.62500000000E+02  0.47000000000E+01 0.  1.
         -5    1    1    0    0  501 -0.15666788313E+02 -0.47513853991E+02 -0.37163764918E+02  0.62500000000E+02  0.47000000000E+01 0.  1.
</event>
<event>
 3    0  0.4603569E-005  0.9118800E+02  0.7546771E-02  0.1235069E+00
         25   -1    0    0    0    0  0.00000000000E+00  0.00000000000E+00  0.99999998245E-14  0.12500000000E+03  0.12500000000E+03 0.  0.
          5    1    1    0  501    0  0.52577961104E+02 -0.20574132945E+02 -0.26389828716E+02  0.62500000000E+02  0.47000000000E+01 0.  1.
         -5    1    1    0    0  501 -0.52577961104E+02  0.20574132945E+02  0.26389828716E+02  0.62500000000E+02  0.47000000000E+01 0.  1.
</event>
<event>
 3    0  0.4603569E-005  0.9118800E+02  0.7546771E-02  0.1235069E+00
         25   -1    0    0    0    0  0.00000000000E+00  0.00000000000E+00  0.99999998245E-14  0.12500000000E+03  0.12500000000E+03 0.  0.
          5    1    1    0  501    0  0.44342453238E+02 -0.12160801258E+02 -0.42071626467E+02  0.62500000000E+02  0.47000000000E+01 0.  1.
         -5    1    1    0    0  501 -0.44342453238E+02  0.12160801258E+02  0.42071626467E+02  0.62500000000E+02  0.47000000000E+01 0.  1.
</event>
<event>
 3    0  0.4603569E-005  0.9118800E+02  0.7546771E-02  0.1235069E+00
         25   -1    0    0    0    0  0.00000000000E+00  0.00000000000E+00  0.99999998245E-14  0.12500000000E+03  0.12500000000E+03 0.  0.
          5    1    1    0  501    0  0.59319994768E+01 -0.51384905357E+02  0.34764391030E+02  0.62500000000E+02  0.47000000000E+01 0.  1.
         -5    1    1    0    0  501 -0.59319994768E+01  0.51384905357E+02 -0.34764391030E+02  0.62500000000E+02  0.47000000000E+01 0.  1.
</event>
<event>
 3    0  0.4603569E-005  0.9118800E+02  0.7546771E-02  0.1235069E+00
         25   -1    0    0    0    0  0.00000000000E+00  0.00000000000E+00  0.99999998245E-14  0.12500000000E+03  0.12500000000E+03 0.  0.
          5    1    1    0  501    0  0.59435725149E+02  0.46483611143E+01 -0.18164451960E+02  0.62500000000E+02  0.47000000000E+01 0. -1.
         -5    1    1    0    0  501 -0.59435725149E+02 -0.46483611143E+01  0.18164451960E+02  0.62500000000E+02  0.47000000000E+01 0. -1.
</event>
<event>
 3    0  0.4603569E-005  0.9118800E+02  0.7546771E-02  0.1235069E+00
         25   -1    0    0    0    0  0.00000000000E+00  0.00000000000E+00  0.99999998245E-14  0.12500000000E+03  0.12500000000E+03 0.  0.
          5    1    1    0  501    0  0.52773292312E+02  0.28155042820E+02 -0.17505233000E+02  0.62500000000E+02  0.47000000000E+01 0.  1.
         -5    1    1    0    0  501 -0.52773292312E+02 -0.28155042820E+02  0.17505233000E+02  0.62500000000E+02  0.47000000000E+01 0.  1.
</event>
<event>
 3    0  0.4603569E-005  0.9118800E+02  0.7546771E-02  0.1235069E+00
         25   -1    0    0    0    0  0.00000000000E+00  0.00000000000E+00  0.99999998245E-14  0.12500000000E+03  0.12500000000E+03 0.  0.
          5    1    1    0  501    0  0.31387293974E+02 -0.53765762764E+02  0.28706325823E+01  0.62500000000E+02  0.47000000000E+01 0.  1.
         -5    1    1    0    0  501 -0.31387293974E+02  0.53765762764E+02 -0.28706325823E+01  0.62500000000E+02  0.47000000000E+01 0.  1.
</event>
<event>
 3    0  0.4603569E-005  0.9118800E+02  0.7546771E-02  0.1235069E+00
         25   -1    0    0    0    0  0.00000000000E+00  0.00000000000E+00  0.99999998245E-14  0.12500000000E+03  0.12500000000E+03 0.  0.
          5    1    1    0  501    0  0.37658666747E+02 -0.41659508358E+02 -0.27027211883E+02  0.62500000000E+02  0.47000000000E+01 0. -1.
         -5    1    1    0    0  501 -0.37658666747E+02  0.41659508358E+02  0.27027211883E+02  0.62500000000E+02  0.47000000000E+01 0. -1.
</event>
<event>
 3    0  0.4603569E-005  0.9118800E+02  0.7546771E-02  0.1235069E+00
         25   -1    0    0    0    0  0.00000000000E+00  0.00000000000E+00  0.99999998245E-14  0.12500000000E+03  0.12500000000E+03 0.  0.
          5    1    1    0  501    0  0.54720465284E+02  0.24369839107E+02  0.17202953845E+02  0.62500000000E+02  0.47000000000E+01 0. -1.
         -5    1    1    0    0  501 -0.54720465284E+02 -0.24369839107E+02 -0.17202953845E+02  0.62500000000E+02  0.47000000000E+01 0. -1.
</event>
<event>
 3    0  0.4603569E-005  0.9118800E+02  0.7546771E-02  0.1235069E+00
         25   -1    0    0    0    0  0.00000000000E+00  0.00000000000E+00  0.99999998245E-14  0.12500000000E+03  0.12500000000E+03 0.  0.
          5    1    1    0  501    0  0.33645284476E+02  0.97382377122E+01 -0.51549214919E+02  0.62500000000E+02  0.47000000000E+01 0.  1.
         -5    1    1    0    0  501 -0.33645284476E+02 -0.97382377122E+01  0.51549214919E+02  0.62500000000E+02  0.47000000000E+01 0.  1.
</event>
<event>
 3    0  0.4603569E-005  0.9118800E+02  0.7546771E-02  0.1235069E+00
         25   -1    0    0    0    0  0.00000000000E+00  0.00000000000E+00  0.99999998245E-14  0.12500000000E+03  0.12500000000E+03 0.  0.
          5    1    1    0  501    0 -0.36733715741E+02 -0.40479429371E+02 -0.29936765451E+02  0.62500000000E+02  0.47000000000E+01 0. -1.
         -5    1    1    0    0  501  0.36733715741E+02  0.40479429371E+02  0.29936765451E+02  0.62500000000E+02  0.47000000000E+01 0. -1.
</event>
<event>
 3    0  0.4603569E-005  0.9118800E+02  0.7546771E-02  0.1235069E+00
         25   -1    0    0    0    0  0.00000000000E+00  0.00000000000E+00  0.99999998245E-14  0.12500000000E+03  0.12500000000E+03 0.  0.
          5    1    1    0  501    0 -0.62047485147E+01  0.41861091259E+02 -0.45752706308E+02  0.62500000000E+02  0.47000000000E+01 0. -1.
         -5    1    1    0    0  501  0.62047485147E+01 -0.41861091259E+02  0.45752706308E+02  0.62500000000E+02  0.47000000000E+01 0. -1.
</event>
<event>
 3    0  0.4603569E-005  0.9118800E+02  0.7546771E-02  0.1235069E+00
         25   -1    0    0    0    0  0.00000000000E+00  0.00000000000E+00  0.99999998245E-14  0.12500000000E+03  0.12500000000E+03 0.  0.
          5    1    1    0  501    0  0.17430569527E+02 -0.59220464675E+02  0.85598954226E+01  0.62500000000E+02  0.47000000000E+01 0. -1.
         -5    1    1    0    0  501 -0.17430569527E+02  0.59220464675E+02 -0.85598954226E+01  0.62500000000E+02  0.47000000000E+01 0. -1.
</event>
<event>
 3    0  0.4603569E-005  0.9118800E+02  0.7546771E-02  0.1235069E+00
         25   -1    0    0    0    0  0.00000000000E+00  0.00000000000E+00  0.99999998245E-14  0.12500000000E+03  0.12500000000E+03 0.  0.
          5    1    1    0  501    0 -0.46557719397E+02  0.40583159995E+02 -0.83394178028E+01  0.62500000000E+02  0.47000000000E+01 0.  1.
         -5    1    1    0    0  501  0.46557719397E+02 -0.40583159995E+02  0.83394178028E+01  0.62500000000E+02  0.47000000000E+01 0.  1.
</event>
<event>
 3    0  0.4603569E-005  0.9118800E+02  0.7546771E-02  0.1235069E+00
         25   -1    0    0    0    0  0.00000000000E+00  0.00000000000E+00  0.99999998245E-14  0.12500000000E+03  0.12500000000E+03 0.  0.
          5    1    1    0  501    0 -0.26256724506E+02 -0.14140527777E+02 -0.54724673525E+02  0.62500000000E+02  0.47000000000E+01 0.  1.
         -5    1    1    0    0  501  0.26256724506E+02  0.14140527777E+02  0.54724673525E+02  0.62500000000E+02  0.47000000000E+01 0.  1.
</event>
<event>
 3    0  0.4603569E-005  0.9118800E+02  0.7546771E-02  0.1235069E+00
         25   -1    0    0    0    0  0.00000000000E+00  0.00000000000E+00  0.99999998245E-14  0.12500000000E+03  0.12500000000E+03 0.  0.
          5    1    1    0  501    0  0.59130131703E+02 -0.63989860433E+01 -0.18623654378E+02  0.62500000000E+02  0.47000000000E+01 0. -1.
         -5    1    1    0    0  501 -0.59130131703E+02  0.63989860433E+01  0.18623654378E+02  0.62500000000E+02  0.47000000000E+01 0. -1.
</event>
<event>
 3    0  0.4603569E-005  0.9118800E+02  0.7546771E-02  0.1235069E+00
         25   -1    0    0    0    0  0.00000000000E+00  0.00000000000E+00  0.99999998245E-14  0.12500000000E+03  0.12500000000E+03 0.  0.
          5    1    1    0  501    0  0.96340437189E+01 -0.38510524249E+02 -0.48044611807E+02  0.62500000000E+02  0.47000000000E+01 0. -1.
         -5    1    1    0    0  501 -0.96340437189E+01  0.38510524249E+02  0.48044611807E+02  0.62500000000E+02  0.47000000000E+01 0. -1.
</event>
<event>
 3    0  0.4603569E-005  0.9118800E+02  0.7546771E-02  0.1235069E+00
         25   -1    0    0    0    0  0.00000000000E+00  0.00000000000E+00  0.99999998245E-14  0.12500000000E+03  0.12500000000E+03 0.  0.
          5    1    1    0  501    0  0.49631965027E+02  0.29684165323E+02  0.23230978813E+02  0.62500000000E+02  0.47000000000E+01 0. -1.
         -5    1    1    0    0  501 -0.49631965027E+02 -0.29684165323E+02 -0.23230978813E+02  0.62500000000E+02  0.47000000000E+01 0. -1.
</event>
<event>
 3    0  0.4603569E-005  0.9118800E+02  0.7546771E-02  0.1235069E+00
         25   -1    0    0    0    0  0.00000000000E+00  0.00000000000E+00  0.99999998245E-14  0.12500000000E+03  0.12500000000E+03 0.  0.
          5    1    1    0  501    0  0.11425612249E+02 -0.53194174520E+02  0.30397289054E+02  0.62500000000E+02  0.47000000000E+01 0.  1.
         -5    1    1    0    0  501 -0.11425612249E+02  0.53194174520E+02 -0.30397289054E+02  0.62500000000E+02  0.47000000000E+01 0.  1.
</event>
<event>
 3    0  0.4603569E-005  0.9118800E+02  0.7546771E-02  0.1235069E+00
         25   -1    0    0    0    0  0.00000000000E+00  0.00000000000E+00  0.99999998245E-14  0.12500000000E+03  0.12500000000E+03 0.  0.
          5    1    1    0  501    0  0.54234418933E+02  0.30155412288E+02  0.57826389071E+01  0.62500000000E+02  0.47000000000E+01 0.  1.
         -5    1    1    0    0  501 -0.54234418933E+02 -0.30155412288E+02 -0.57826389071E+01  0.62500000000E+02  0.47000000000E+01 0.  1.
</event>
<event>
 3    0  0.4603569E-005  0.9118800E+02  0.7546771E-02  0.1235069E+00
         25   -1    0    0    0    0  0.00000000000E+00  0.00000000000E+00  0.99999998245E-14  0.12500000000E+03  0.12500000000E+03 0.  0.
          5    1    1    0  501    0 -0.81884314266E+01 -0.45859438383E+01  0.61612325957E+02  0.62500000000E+02  0.47000000000E+01 0.  1.
         -5    1    1    0    0  501  0.81884314266E+01  0.45859438383E+01 -0.61612325957E+02  0.62500000000E+02  0.47000000000E+01 0.  1.
</event>
<event>
 3    0  0.4603569E-005  0.9118800E+02  0.7546771E-02  0.1235069E+00
         25   -1    0    0    0    0  0.00000000000E+00  0.00000000000E+00  0.99999998245E-14  0.12500000000E+03  0.12500000000E+03 0.  0.
          5    1    1    0  501    0 -0.61921143151E+02  0.70260266536E+01  0.75298093529E+00  0.62500000000E+02  0.47000000000E+01 0. -1.
         -5    1    1    0    0  501  0.61921143151E+02 -0.70260266536E+01 -0.75298093529E+00  0.62500000000E+02  0.47000000000E+01 0. -1.
</event>
<event>
 3    0  0.4603569E-005  0.9118800E+02  0.7546771E-02  0.1235069E+00
         25   -1    0    0    0    0  0.00000000000E+00  0.00000000000E+00  0.99999998245E-14  0.12500000000E+03  0.12500000000E+03 0.  0.
          5    1    1    0  501    0  0.51256852806E+02  0.78770036529E+01 -0.34566571336E+02  0.62500000000E+02  0.47000000000E+01 0. -1.
         -5    1    1    0    0  501 -0.51256852806E+02 -0.78770036529E+01  0.34566571336E+02  0.62500000000E+02  0.47000000000E+01 0. -1.
</event>
<event>
 3    0  0.4603569E-005  0.9118800E+02  0.7546771E-02  0.1235069E+00
         25   -1    0    0    0    0  0.00000000000E+00  0.00000000000E+00  0.99999998245E-14  0.12500000000E+03  0.12500000000E+03 0.  0.
          5    1    1    0  501    0  0.40142484524E+02  0.45633331244E+02  0.13796376911E+02  0.62500000000E+02  0.47000000000E+01 0. -1.
         -5    1    1    0    0  501 -0.40142484524E+02 -0.45633331244E+02 -0.13796376911E+02  0.62500000000E+02  0.47000000000E+01 0. -1.
</event>
<event>
 3    0  0.4603569E-005  0.9118800E+02  0.7546771E-02  0.1235069E+00
         25   -1    0    0    0    0  0.00000000000E+00  0.00000000000E+00  0.99999998245E-14  0.12500000000E+03  0.12500000000E+03 0.  0.
          5    1    1    0  501    0  0.43442533601E+02  0.43096353592E+02  0.11815692170E+02  0.62500000000E+02  0.47000000000E+01 0.  1.
         -5    1    1    0    0  501 -0.43442533601E+02 -0.43096353592E+02 -0.11815692170E+02  0.62500000000E+02  0.47000000000E+01 0.  1.
</event>
<event>
 3    0  0.4603569E-005  0.9118800E+02  0.7546771E-02  0.1235069E+00
         25   -1    0    0    0    0  0.00000000000E+00  0.00000000000E+00  0.99999998245E-14  0.12500000000E+03  0.12500000000E+03 0.  0.
          5    1    1    0  501    0 -0.40027628271E+02 -0.22801876841E+01 -0.47715298586E+02  0.62500000000E+02  0.47000000000E+01 0.  1.
         -5    1    1    0    0  501  0.40027628271E+02  0.22801876841E+01  0.47715298586E+02  0.62500000000E+02  0.47000000000E+01 0.  1.
</event>
<event>
 3    0  0.4603569E-005  0.9118800E+02  0.7546771E-02  0.1235069E+00
         25   -1    0    0    0    0  0.00000000000E+00  0.00000000000E+00  0.99999998245E-14  0.12500000000E+03  0.12500000000E+03 0.  0.
          5    1    1    0  501    0 -0.89205910607E+01 -0.59281989828E+02 -0.17036100998E+02  0.62500000000E+02  0.47000000000E+01 0. -1.
         -5    1    1    0    0  501  0.89205910607E+01  0.59281989828E+02  0.17036100998E+02  0.62500000000E+02  0.47000000000E+01 0. -1.
</event>
<event>
 3    0  0.4603569E-005  0.9118800E+02  0.7546771E-02  0.1235069E+00
         25   -1    0    0    0    0  0.00000000000E+00  0.00000000000E+00  0.99999998245E-14  0.12500000000E+03  0.12500000000E+03 0.  0.
          5    1    1    0  501    0  0.47247789472E+02 -0.32717375458E+02  0.24111817293E+02  0.62500000000E+02  0.47000000000E+01 0.  1.
         -5    1    1    0    0  501 -0.47247789472E+02  0.32717375458E+02 -0.24111817293E+02  0.62500000000E+02  0.47000000000E+01 0.  1.
</event>
<event>
 3    0  0.4603569E-005  0.9118800E+02  0.7546771E-02  0.1235069E+00
         25   -1    0    0    0    0  0.00000000000E+00  0.00000000000E+00  0.99999998245E-14  0.12500000000E+03  0.12500000000E+03 0.  0.
          5    1    1    0  501    0  0.65727814124E+01 -0.60421580322E+02  0.13790981688E+02  0.62500000000E+02  0.47000000000E+01 0.  1.
         -5    1    1    0    0  501 -0.65727814124E+01  0.60421580322E+02 -0.13790981688E+02  0.62500000000E+02  0.47000000000E+01 0.  1.
</event>
<event>
 3    0  0.4603569E-005  0.9118800E+02  0.7546771E-02  0.1235069E+00
         25   -1    0    0    0    0  0.00000000000E+00  0.00000000000E+00  0.99999998245E-14  0.12500000000E+03  0.12500000000E+03 0.  0.
          5    1    1    0  501    0 -0.24474096614E+02 -0.48917231801E+02 -0.29871106907E+02  0.62500000000E+02  0.47000000000E+01 0.  1.
         -5    1    1    0    0  501  0.24474096614E+02  0.48917231801E+02  0.29871106907E+02  0.62500000000E+02  0.47000000000E+01 0.  1.
</event>
<event>
 3    0  0.4603569E-005  0.9118800E+02  0.7546771E-02  0.1235069E+00
         25   -1    0    0    0    0  0.00000000000E+00  0.00000000000E+00  0.99999998245E-14  0.12500000000E+03  0.12500000000E+03 0.  0.
          5    1    1    0  501    0 -0.51910447030E+02 -0.31519115975E+02  0.14000386326E+02  0.62500000000E+02  0.47000000000E+01 0. -1.
         -5    1    1    0    0  501  0.51910447030E+02  0.31519115975E+02 -0.14000386326E+02  0.62500000000E+02  0.47000000000E+01 0. -1.
</event>
<event>
 3    0  0.4603569E-005  0.9118800E+02  0.7546771E-02  0.1235069E+00
         25   -1    0    0    0    0  0.00000000000E+00  0.00000000000E+00  0.99999998245E-14  0.12500000000E+03  0.12500000000E+03 0.  0.
          5    1    1    0  501    0  0.87223272557E+01 -0.61329470533E+02  0.68393750725E+01  0.62500000000E+02  0.47000000000E+01 0. -1.
         -5    1    1    0    0  501 -0.87223272557E+01  0.61329470533E+02 -0.68393750725E+01  0.62500000000E+02  0.47000000000E+01 0. -1.
</event>
<event>
 3    0  0.4603569E-005  0.9118800E+02  0.7546771E-02  0.1235069E+00
         25   -1    0    0    0    0  0.00000000000E+00  0.00000000000E+00  0.99999998245E-14  0.12500000000E+03  0.12500000000E+03 0.  0.
          5    1    1    0  501    0  0.60832999961E+02 -0.10428572271E+02 -0.86458658413E+01  0.62500000000E+02  0.47000000000E+01 0. -1.
         -5    1    1    0    0  501 -0.60832999961E+02  0.10428572271E+02  0.86458658413E+01  0.62500000000E+02  0.47000000000E+01 0. -1.
</event>
<event>
 3    0  0.4603569E-005  0.9118800E+02  0.7546771E-02  0.1235069E+00
         25   -1    0    0    0    0  0.00000000000E+00  0.00000000000E+00  0.99999998245E-14  0.12500000000E+03  0.12500000000E+03 0.  0.
          5    1    1    0  501    0  0.10745894475E+02  0.42698573506E+02  0.44108021634E+02  0.62500000000E+02  0.47000000000E+01 0.  1.
         -5    1    1    0    0  501 -0.10745894475E+02 -0.42698573506E+02 -0.44108021634E+02  0.62500000000E+02  0.47000000000E+01 0.  1.
</event>
<event>
 3    0  0.4603569E-005  0.9118800E+02  0.7546771E-02  0.1235069E+00
         25   -1    0    0    0    0  0.00000000000E+00  0.00000000000E+00  0.99999998245E-14  0.12500000000E+03  0.12500000000E+03 0.  0.
          5    1    1    0  501    0  0.24169348397E+02  0.23901304978E+02 -0.52237249338E+02  0.62500000000E+02  0.47000000000E+01 0. -1.
         -5    1    1    0    0  501 -0.24169348397E+02 -0.23901304978E+02  0.52237249338E+02  0.62500000000E+02  0.47000000000E+01 0. -1.
</event>
<event>
 3    0  0.4603569E-005  0.9118800E+02  0.7546771E-02  0.1235069E+00
         25   -1    0    0    0    0  0.00000000000E+00  0.00000000000E+00  0.99999998245E-14  0.12500000000E+03  0.12500000000E+03 0.  0.
          5    1    1    0  501    0 -0.52516586101E+02 -0.22915983223E+01  0.33480095003E+02  0.62500000000E+02  0.47000000000E+01 0.  1.
         -5    1    1    0    0  501  0.52516586101E+02  0.22915983223E+01 -0.33480095003E+02  0.62500000000E+02  0.47000000000E+01 0.  1.
</event>
<event>
 3    0  0.4603569E-005  0.9118800E+02  0.7546771E-02  0.1235069E+00
         25   -1    0    0    0    0  0.00000000000E+00  0.00000000000E+00  0.99999998245E-14  0.12500000000E+03  0.12500000000E+03 0.  0.
          5    1    1    0  501    0  0.18701669730E+02  0.58746505598E+02 -0.91244522722E+01  0.62500000000E+02  0.47000000000E+01 0.  1.
         -5    1    1    0    0  501 -0.18701669730E+02 -0.58746505598E+02  0.91244522722E+01  0.62500000000E+02  0.47000000000E+01 0.  1.
</event>
<event>
 3    0  0.4603569E-005  0.9118800E+02  0.7546771E-02  0.1235069E+00
         25   -1    0    0    0    0  0.00000000000E+00  0.00000000000E+00  0.99999998245E-14  0.12500000000E+03  0.12500000000E+03 0.  0.
          5    1    1    0  501    0 -0.15802237160E+02  0.18017987266E+02 -0.57530873760E+02  0.62500000000E+02  0.47000000000E+01 0. -1.
         -5    1    1    0    0  501  0.15802237160E+02 -0.18017987266E+02  0.57530873760E+02  0.62500000000E+02  0.47000000000E+01 0. -1.
</event>
<event>
 3    0  0.4603569E-005  0.9118800E+02  0.7546771E-02  0.1235069E+00
         25   -1    0    0    0    0  0.00000000000E+00  0.00000000000E+00  0.99999998245E-14  0.12500000000E+03  0.12500000000E+03 0.  0.
          5    1    1    0  501    0  0.93481286222E+01 -0.63279931595E+01  0.61292160949E+02  0.62500000000E+02  0.47000000000E+01 0.  1.
         -5    1    1    0    0  501 -0.93481286222E+01  0.63279931595E+01 -0.61292160949E+02  0.62500000000E+02  0.47000000000E+01 0.  1.
</event>
<event>
 3    0  0.4603569E-005  0.9118800E+02  0.7546771E-02  0.1235069E+00
         25   -1    0    0    0    0  0.00000000000E+00  0.00000000000E+00  0.99999998245E-14  0.12500000000E+03  0.12500000000E+03 0.  0.
          5    1    1    0  501    0 -0.46848210135E+02  0.37646237300E+02  0.16497455086E+02  0.62500000000E+02  0.47000000000E+01 0. -1.
         -5    1    1    0    0  501  0.46848210135E+02 -0.37646237300E+02 -0.16497455086E+02  0.62500000000E+02  0.47000000000E+01 0. -1.
</event>
<event>
 3    0  0.4603569E-005  0.9118800E+02  0.7546771E-02  0.1235069E+00
         25   -1    0    0    0    0  0.00000000000E+00  0.00000000000E+00  0.99999998245E-14  0.12500000000E+03  0.12500000000E+03 0.  0.
          5    1    1    0  501    0  0.31107775608E+02  0.39858706246E+02  0.36438301732E+02  0.62500000000E+02  0.47000000000E+01 0.  1.
         -5    1    1    0    0  501 -0.31107775608E+02 -0.39858706246E+02 -0.36438301732E+02  0.62500000000E+02  0.47000000000E+01 0.  1.
</event>
<event>
 3    0  0.4603569E-005  0.9118800E+02  0.7546771E-02  0.1235069E+00
         25   -1    0    0    0    0  0.00000000000E+00  0.00000000000E+00  0.99999998245E-14  0.12500000000E+03  0.12500000000E+03 0.  0.
          5    1    1    0  501    0 -0.15018725524E+02 -0.23859145565E+01 -0.60439269481E+02  0.62500000000E+02  0.47000000000E+01 0. -1.
         -5    1    1    0    0  501  0.15018725524E+02  0.23859145565E+01  0.60439269481E+02  0.62500000000E+02  0.47000000000E+01 0. -1.
</event>
<event>
 3    0  0.4603569E-005  0.9118800E+02  0.7546771E-02  0.1235069E+00
         25   -1    0    0    0    0  0.00000000000E+00  0.00000000000E+00  0.99999998245E-14  0.12500000000E+03  0.12500000000E+03 0.  0.
          5    1    1    0  501    0 -0.48857692466E+02 -0.31392028267E+02  0.22619161083E+02  0.62500000000E+02  0.47000000000E+01 0. -1.
         -5    1    1    0    0  501  0.48857692466E+02  0.31392028267E+02 -0.22619161083E+02  0.62500000000E+02  0.47000000000E+01 0. -1.
</event>
<event>
 3    0  0.4603569E-005  0.9118800E+02  0.7546771E-02  0.1235069E+00
         25   -1    0    0    0    0  0.00000000000E+00  0.00000000000E+00  0.99999998245E-14  0.12500000000E+03  0.12500000000E+03 0.  0.
          5    1    1    0  501    0 -0.16961420997E+02 -0.59967373246E+02  0.61995460155E+00  0.62500000000E+02  0.47000000000E+01 0.  1.
         -5    1    1    0    0  501  0.16961420997E+02  0.59967373246E+02 -0.61995460155E+00  0.62500000000E+02  0.47000000000E+01 0.  1.
</event>
<event>
 3    0  0.4603569E-005  0.9118800E+02  0.7546771E-02  0.1235069E+00
         25   -1    0    0    0    0  0.00000000000E+00  0.00000000000E+00  0.99999998245E-14  0.12500000000E+03  0.12500000000E+03 0.  0.
          5    1    1    0  501    0 -0.30720150806E+02 -0.49557942702E+02 -0.22010057920E+02  0.62500000000E+02  0.47000000000E+01 0. -1.
         -5    1    1    0    0  501  0.30720150806E+02  0.49557942702E+02  0.22010057920E+02  0.62500000000E+02  0.47000000000E+01 0. -1.
</event>
<event>
 3    0  0.4603569E-005  0.9118800E+02  0.7546771E-02  0.1235069E+00
         25   -1    0    0    0    0  0.00000000000E+00  0.00000000000E+00  0.99999998245E-14  0.12500000000E+03  0.12500000000E+03 0.  0.
          5    1    1    0  501    0  0.25830823197E+02  0.56641022480E+02 -0.29534971482E+01  0.62500000000E+02  0.47000000000E+01 0.  1.
         -5    1    1    0    0  501 -0.25830823197E+02 -0.56641022480E+02  0.29534971482E+01  0.62500000000E+02  0.47000000000E+01 0.  1.
</event>
<event>
 3    0  0.4603569E-005  0.9118800E+02  0.7546771E-02  0.1235069E+00
         25   -1    0    0    0    0  0.00000000000E+00  0.00000000000E+00  0.99999998245E-14  0.12500000000E+03  0.12500000000E+03 0.  0.
          5    1    1    0  501    0  0.57386421067E+02  0.47639159753E+01 -0.23838283950E+02  0.62500000000E+02  0.47000000000E+01 0. -1.
         -5    1    1    0    0  501 -0.57386421067E+02 -0.47639159753E+01  0.23838283950E+02  0.62500000000E+02  0.47000000000E+01 0. -1.
</event>
<event>
 3    0  0.4603569E-005  0.9118800E+02  0.7546771E-02  0.1235069E+00
         25   -1    0    0    0    0  0.00000000000E+00  0.00000000000E+00  0.99999998245E-14  0.12500000000E+03  0.12500000000E+03 0.  0.
          5    1    1    0  501    0  0.41064124417E+02  0.46643479134E+02 -0.47205444786E+01  0.62500000000E+02  0.47000000000E+01 0.  1.
         -5    1    1    0    0  501 -0.41064124417E+02 -0.46643479134E+02  0.47205444786E+01  0.62500000000E+02  0.47000000000E+01 0.  1.
</event>
<event>
 3    0  0.4603569E-005  0.9118800E+02  0.7546771E-02  0.1235069E+00
         25   -1    0    0    0    0  0.00000000000E+00  0.00000000000E+00  0.99999998245E-14  0.12500000000E+03  0.12500000000E+03 0.  0.
          5    1    1    0  501    0  0.28642688994E+02  0.53288515286E+02 -0.14969652830E+02  0.62500000000E+02  0.47000000000E+01 0.  1.
         -5    1    1    0    0  501 -0.28642688994E+02 -0.53288515286E+02  0.14969652830E+02  0.62500000000E+02  0.47000000000E+01 0.  1.
</event>
<event>
 3    0  0.4603569E-005  0.9118800E+02  0.7546771E-02  0.1235069E+00
         25   -1    0    0    0    0  0.00000000000E+00  0.00000000000E+00  0.99999998245E-14  0.12500000000E+03  0.12500000000E+03 0.  0.
          5    1    1    0  501    0  0.55582284049E+02  0.18591871223E+01 -0.28130288359E+02  0.62500000000E+02  0.47000000000E+01 0. -1.
         -5    1    1    0    0  501 -0.55582284049E+02 -0.18591871223E+01  0.28130288359E+02  0.62500000000E+02  0.47000000000E+01 0. -1.
</event>
<event>
 3    0  0.4603569E-005  0.9118800E+02  0.7546771E-02  0.1235069E+00
         25   -1    0    0    0    0  0.00000000000E+00  0.00000000000E+00  0.99999998245E-14  0.12500000000E+03  0.12500000000E+03 0.  0.
          5    1    1    0  501    0  0.29115694016E+02  0.13927701248E+02 -0.53314683718E+02  0.62500000000E+02  0.47000000000E+01 0. -1.
         -5    1    1    0    0  501 -0.29115694016E+02 -0.13927701248E+02  0.53314683718E+02  0.62500000000E+02  0.47000000000E+01 0. -1.
</event>
<event>
 3    0  0.4603569E-005  0.9118800E+02  0.7546771E-02  0.1235069E+00
         25   -1    0    0    0    0  0.00000000000E+00  0.00000000000E+00  0.99999998245E-14  0.12500000000E+03  0.12500000000E+03 0.  0.
          5    1    1    0  501    0 -0.95325195778E+01 -0.61552024531E+02  0.21539142468E+01  0.62500000000E+02  0.47000000000E+01 0. -1.
         -5    1    1    0    0  501  0.95325195778E+01  0.61552024531E+02 -0.21539142468E+01  0.62500000000E+02  0.47000000000E+01 0. -1.
</event>
<event>
 3    0  0.4603569E-005  0.9118800E+02  0.7546771E-02  0.1235069E+00
         25   -1    0    0    0    0  0.00000000000E+00  0.00000000000E+00  0.99999998245E-14  0.12500000000E+03  0.12500000000E+03 0.  0.
          5    1    1    0  501    0 -0.10228076757E+02 -0.45635326101E+02 -0.41194216311E+02  0.62500000000E+02  0.47000000000E+01 0.  1.
         -5    1    1    0    0  501  0.10228076757E+02  0.45635326101E+02  0.41194216311E+02  0.62500000000E+02  0.47000000000E+01 0.  1.
</event>
<event>
 3    0  0.4603569E-005  0.9118800E+02  0.7546771E-02  0.1235069E+00
         25   -1    0    0    0    0  0.00000000000E+00  0.00000000000E+00  0.99999998245E-14  0.12500000000E+03  0.12500000000E+03 0.  0.
          5    1    1    0  501    0 -0.46894703560E+01  0.60943436251E+02 -0.12168255658E+02  0.62500000000E+02  0.47000000000E+01 0.  1.
         -5    1    1    0    0  501  0.46894703560E+01 -0.60943436251E+02  0.12168255658E+02  0.62500000000E+02  0.47000000000E+01 0.  1.
</event>
<event>
 3    0  0.4603569E-005  0.9118800E+02  0.7546771E-02  0.1235069E+00
         25   -1    0    0    0    0  0.00000000000E+00  0.00000000000E+00  0.99999998245E-14  0.12500000000E+03  0.12500000000E+03 0.  0.
          5    1    1    0  501    0 -0.18467714325E+02 -0.34974927315E+02 -0.48164904099E+02  0.62500000000E+02  0.47000000000E+01 0. -1.
         -5    1    1    0    0  501  0.18467714325E+02  0.34974927315E+02  0.48164904099E+02  0.62500000000E+02  0.47000000000E+01 0. -1.
</event>
<event>
 3    0  0.4603569E-005  0.9118800E+02  0.7546771E-02  0.1235069E+00
         25   -1    0    0    0    0  0.00000000000E+00  0.00000000000E+00  0.99999998245E-14  0.12500000000E+03  0.12500000000E+03 0.  0.
          5    1    1    0  501    0  0.46787669499E+01 -0.60804650559E+02  0.12847708363E+02  0.62500000000E+02  0.47000000000E+01 0.  1.
         -5    1    1    0    0  501 -0.46787669499E+01  0.60804650559E+02 -0.12847708363E+02  0.62500000000E+02  0.47000000000E+01 0.  1.
</event>
<event>
 3    0  0.4603569E-005  0.9118800E+02  0.7546771E-02  0.1235069E+00
         25   -1    0    0    0    0  0.00000000000E+00  0.00000000000E+00  0.99999998245E-14  0.12500000000E+03  0.12500000000E+03 0.  0.
          5    1    1    0  501    0  0.48756295205E+01  0.58666810858E+02 -0.20459558660E+02  0.62500000000E+02  0.47000000000E+01 0. -1.
         -5    1    1    0    0  501 -0.48756295205E+01 -0.58666810858E+02  0.20459558660E+02  0.62500000000E+02  0.47000000000E+01 0. -1.
</event>
<event>
 3    0  0.4603569E-005  0.9118800E+02  0.7546771E-02  0.1235069E+00
         25   -1    0    0    0    0  0.00000000000E+00  0.00000000000E+00  0.99999998245E-14  0.12500000000E+03  0.12500000000E+03 0.  0.
          5    1    1    0  501    0 -0.28095181694E+02  0.19775302468E+02  0.51997674735E+02  0.62500000000E+02  0.47000000000E+01 0. -1.
         -5    1    1    0    0  501  0.28095181694E+02 -0.19775302468E+02 -0.51997674735E+02  0.62500000000E+02  0.47000000000E+01 0. -1.
</event>
<event>
 3    0  0.4603569E-005  0.9118800E+02  0.7546771E-02  0.1235069E+00
         25   -1    0    0    0    0  0.00000000000E+00  0.00000000000E+00  0.99999998245E-14  0.12500000000E+03  0.12500000000E+03 0.  0.
          5    1    1    0  501    0 -0.33122348515E+02 -0.51845060970E+02 -0.99578954532E+01  0.62500000000E+02  0.47000000000E+01 0.  1.
         -5    1    1    0    0  501  0.33122348515E+02  0.51845060970E+02  0.99578954532E+01  0.62500000000E+02  0.47000000000E+01 0.  1.
</event>
<event>
 3    0  0.4603569E-005  0.9118800E+02  0.7546771E-02  0.1235069E+00
         25   -1    0    0    0    0  0.00000000000E+00  0.00000000000E+00  0.99999998245E-14  0.12500000000E+03  0.12500000000E+03 0.  0.
          5    1    1    0  501    0  0.13403726896E+02  0.25912112747E+02 -0.55073246847E+02  0.62500000000E+02  0.47000000000E+01 0.  1.
         -5    1    1    0    0  501 -0.13403726896E+02 -0.25912112747E+02  0.55073246847E+02  0.62500000000E+02  0.47000000000E+01 0.  1.
</event>
<event>
 3    0  0.4603569E-005  0.9118800E+02  0.7546771E-02  0.1235069E+00
         25   -1    0    0    0    0  0.00000000000E+00  0.00000000000E+00  0.99999998245E-14  0.12500000000E+03  0.12500000000E+03 0.  0.
          5    1    1    0  501    0 -0.23759843200E+02  0.16940874772E+02 -0.55069379995E+02  0.62500000000E+02  0.47000000000E+01 0. -1.
         -5    1    1    0    0  501  0.23759843200E+02 -0.16940874772E+02  0.55069379995E+02  0.62500000000E+02  0.47000000000E+01 0. -1.
</event>
<event>
 3    0  0.4603569E-005  0.9118800E+02  0.7546771E-02  0.1235069E+00
         25   -1    0    0    0    0  0.00000000000E+00  0.00000000000E+00  0.99999998245E-14  0.12500000000E+03  0.12500000000E+03 0.  0.
          5    1    1    0  501    0 -0.49431270697E+02  0.34738710962E+02  0.15294817358E+02  0.62500000000E+02  0.47000000000E+01 0.  1.
         -5    1    1    0    0  501  0.49431270697E+02 -0.34738710962E+02 -0.15294817358E+02  0.62500000000E+02  0.47000000000E+01 0.  1.
</event>
<event>
 3    0  0.4603569E-005  0.9118800E+02  0.7546771E-02  0.1235069E+00
         25   -1    0    0    0    0  0.00000000000E+00  0.00000000000E+00  0.99999998245E-14  0.12500000000E+03  0.12500000000E+03 0.  0.
          5    1    1    0  501    0 -0.12151549042E+02 -0.53586952158E+02 -0.29409835334E+02  0.62500000000E+02  0.47000000000E+01 0. -1.
         -5    1    1    0    0  501  0.12151549042E+02  0.53586952158E+02  0.29409835334E+02  0.62500000000E+02  0.47000000000E+01 0. -1.
</event>
<event>
 3    0  0.4603569E-005  0.9118800E+02  0.7546771E-02  0.1235069E+00
         25   -1    0    0    0    0  0.00000000000E+00  0.00000000000E+00  0.99999998245E-14  0.12500000000E+03  0.12500000000E+03 0.  0.
          5    1    1    0  501    0 -0.10771611049E+02  0.53810003909E+01 -0.61148812173E+02  0.62500000000E+02  0.47000000000E+01 0.  1.
         -5    1    1    0    0  501  0.10771611049E+02 -0.53810003909E+01  0.61148812173E+02  0.62500000000E+02  0.47000000000E+01 0.  1.
</event>
<event>
 3    0  0.4603569E-005  0.9118800E+02  0.7546771E-02  0.1235069E+00
         25   -1    0    0    0    0  0.00000000000E+00  0.00000000000E+00  0.99999998245E-14  0.12500000000E+03  0.12500000000E+03 0.  0.
          5    1    1    0  501    0  0.30305446027E+02 -0.50188160898E+01 -0.54226851524E+02  0.62500000000E+02  0.47000000000E+01 0.  1.
         -5    1    1    0    0  501 -0.30305446027E+02  0.50188160898E+01  0.54226851524E+02  0.62500000000E+02  0.47000000000E+01 0.  1.
</event>
<event>
 3    0  0.4603569E-005  0.9118800E+02  0.7546771E-02  0.1235069E+00
         25   -1    0    0    0    0  0.00000000000E+00  0.00000000000E+00  0.99999998245E-14  0.12500000000E+03  0.12500000000E+03 0.  0.
          5    1    1    0  501    0 -0.28317838199E+02  0.57842686757E+00 -0.55515092201E+02  0.62500000000E+02  0.47000000000E+01 0.  1.
         -5    1    1    0    0  501  0.28317838199E+02 -0.57842686757E+00  0.55515092201E+02  0.62500000000E+02  0.47000000000E+01 0.  1.
</event>
<event>
 3    0  0.4603569E-005  0.9118800E+02  0.7546771E-02  0.1235069E+00
         25   -1    0    0    0    0  0.00000000000E+00  0.00000000000E+00  0.99999998245E-14  0.12500000000E+03  0.12500000000E+03 0.  0.
          5    1    1    0  501    0 -0.25838175623E+02  0.53604442544E+02  0.18523293983E+02  0.62500000000E+02  0.47000000000E+01 0.  1.
         -5    1    1    0    0  501  0.25838175623E+02 -0.53604442544E+02 -0.18523293983E+02  0.62500000000E+02  0.47000000000E+01 0.  1.
</event>
<event>
 3    0  0.4603569E-005  0.9118800E+02  0.7546771E-02  0.1235069E+00
         25   -1    0    0    0    0  0.00000000000E+00  0.00000000000E+00  0.99999998245E-14  0.12500000000E+03  0.12500000000E+03 0.  0.
          5    1    1    0  501    0  0.43438278979E+02  0.11552401191E+02  0.43171957867E+02  0.62500000000E+02  0.47000000000E+01 0.  1.
         -5    1    1    0    0  501 -0.43438278979E+02 -0.11552401191E+02 -0.43171957867E+02  0.62500000000E+02  0.47000000000E+01 0.  1.
</event>
<event>
 3    0  0.4603569E-005  0.9118800E+02  0.7546771E-02  0.1235069E+00
         25   -1    0    0    0    0  0.00000000000E+00  0.00000000000E+00  0.99999998245E-14  0.12500000000E+03  0.12500000000E+03 0.  0.
          5    1    1    0  501    0  0.16504441909E+02  0.51195244365E+02 -0.31477140144E+02  0.62500000000E+02  0.47000000000E+01 0.  1.
         -5    1    1    0    0  501 -0.16504441909E+02 -0.51195244365E+02  0.31477140144E+02  0.62500000000E+02  0.47000000000E+01 0.  1.
</event>
<event>
 3    0  0.4603569E-005  0.9118800E+02  0.7546771E-02  0.1235069E+00
         25   -1    0    0    0    0  0.00000000000E+00  0.00000000000E+00  0.99999998245E-14  0.12500000000E+03  0.12500000000E+03 0.  0.
          5    1    1    0  501    0  0.45836554470E+02  0.18655742944E+02  0.37883156277E+02  0.62500000000E+02  0.47000000000E+01 0. -1.
         -5    1    1    0    0  501 -0.45836554470E+02 -0.18655742944E+02 -0.37883156277E+02  0.62500000000E+02  0.47000000000E+01 0. -1.
</event>
<event>
 3    0  0.4603569E-005  0.9118800E+02  0.7546771E-02  0.1235069E+00
         25   -1    0    0    0    0  0.00000000000E+00  0.00000000000E+00  0.99999998245E-14  0.12500000000E+03  0.12500000000E+03 0.  0.
          5    1    1    0  501    0 -0.32925255032E+02 -0.30197314568E+02 -0.43453535805E+02  0.62500000000E+02  0.47000000000E+01 0. -1.
         -5    1    1    0    0  501  0.32925255032E+02  0.30197314568E+02  0.43453535805E+02  0.62500000000E+02  0.47000000000E+01 0. -1.
</event>
<event>
 3    0  0.4603569E-005  0.9118800E+02  0.7546771E-02  0.1235069E+00
         25   -1    0    0    0    0  0.00000000000E+00  0.00000000000E+00  0.99999998245E-14  0.12500000000E+03  0.12500000000E+03 0.  0.
          5    1    1    0  501    0  0.34394939183E+02  0.46059680323E+02 -0.24076004800E+02  0.62500000000E+02  0.47000000000E+01 0. -1.
         -5    1    1    0    0  501 -0.34394939183E+02 -0.46059680323E+02  0.24076004800E+02  0.62500000000E+02  0.47000000000E+01 0. -1.
</event>
<event>
 3    0  0.4603569E-005  0.9118800E+02  0.7546771E-02  0.1235069E+00
         25   -1    0    0    0    0  0.00000000000E+00  0.00000000000E+00  0.99999998245E-14  0.12500000000E+03  0.12500000000E+03 0.  0.
          5    1    1    0  501    0 -0.58202002475E+02  0.22255678252E+02  0.11711931842E+01  0.62500000000E+02  0.47000000000E+01 0. -1.
         -5    1    1    0    0  501  0.58202002475E+02 -0.22255678252E+02 -0.11711931842E+01  0.62500000000E+02  0.47000000000E+01 0. -1.
</event>
<event>
 3    0  0.4603569E-005  0.9118800E+02  0.7546771E-02  0.1235069E+00
         25   -1    0    0    0    0  0.00000000000E+00  0.00000000000E+00  0.99999998245E-14  0.12500000000E+03  0.12500000000E+03 0.  0.
          5    1    1    0  501    0 -0.86847801783E+00  0.25239212345E+02  0.56977082289E+02  0.62500000000E+02  0.47000000000E+01 0. -1.
         -5    1    1    0    0  501  0.86847801783E+00 -0.25239212345E+02 -0.56977082289E+02  0.62500000000E+02  0.47000000000E+01 0. -1.
</event>
<event>
 3    0  0.4603569E-005  0.9118800E+02  0.7546771E-02  0.1235069E+00
         25   -1    0    0    0    0  0.00000000000E+00  0.00000000000E+00  0.99999998245E-14  0.12500000000E+03  0.12500000000E+03 0.  0.
          5    1    1    0  501    0  0.52037143849E+02 -0.14722557848E+02 -0.30976474146E+02  0.62500000000E+02  0.47000000000E+01 0.  1.
         -5    1    1    0    0  501 -0.52037143849E+02  0.14722557848E+02  0.30976474146E+02  0.62500000000E+02  0.47000000000E+01 0.  1.
</event>
<event>
 3    0  0.4603569E-005  0.9118800E+02  0.7546771E-02  0.1235069E+00
         25   -1    0    0    0    0  0.00000000000E+00  0.00000000000E+00  0.99999998245E-14  0.12500000000E+03  0.12500000000E+03 0.  0.
          5    1    1    0  501    0 -0.14347347055E+02 -0.46548776291E+02  0.38878336620E+02  0.62500000000E+02  0.47000000000E+01 0. -1.
         -5    1    1    0    0  501  0.14347347055E+02  0.46548776291E+02 -0.38878336620E+02  0.62500000000E+02  0.47000000000E+01 0. -1.
</event>
<event>
 3    0  0.4603569E-005  0.9118800E+02  0.7546771E-02  0.1235069E+00
         25   -1    0    0    0    0  0.00000000000E+00  0.00000000000E+00  0.99999998245E-14  0.12500000000E+03  0.12500000000E+03 0.  0.
          5    1    1    0  501    0 -0.42819560508E+02  0.44127794423E+02 -0.10167742976E+02  0.62500000000E+02  0.47000000000E+01 0. -1.
         -5    1    1    0    0  501  0.42819560508E+02 -0.44127794423E+02  0.10167742976E+02  0.62500000000E+02  0.47000000000E+01 0. -1.
</event>
<event>
 3    0  0.4603569E-005  0.9118800E+02  0.7546771E-02  0.1235069E+00
         25   -1    0    0    0    0  0.00000000000E+00  0.00000000000E+00  0.99999998245E-14  0.12500000000E+03  0.12500000000E+03 0.  0.
          5    1    1    0  501    0  0.47718947332E+02  0.24266090652E+02 -0.31909542615E+02  0.62500000000E+02  0.47000000000E+01 0. -1.
         -5    1    1    0    0  501 -0.47718947332E+02 -0.24266090652E+02  0.31909542615E+02  0.62500000000E+02  0.47000000000E+01 0. -1.
</event>
<event>
 3    0  0.4603569E-005  0.9118800E+02  0.7546771E-02  0.1235069E+00
         25   -1    0    0    0    0  0.00000000000E+00  0.00000000000E+00  0.99999998245E-14  0.12500000000E+03  0.12500000000E+03 0.  0.
          5    1    1    0  501    0  0.58032288874E+02  0.19285516055E+02  0.12020079807E+02  0.62500000000E+02  0.47000000000E+01 0.  1.
         -5    1    1    0    0  501 -0.58032288874E+02 -0.19285516055E+02 -0.12020079807E+02  0.62500000000E+02  0.47000000000E+01 0.  1.
</event>
<event>
 3    0  0.4603569E-005  0.9118800E+02  0.7546771E-02  0.1235069E+00
         25   -1    0    0    0    0  0.00000000000E+00  0.00000000000E+00  0.99999998245E-14  0.12500000000E+03  0.12500000000E+03 0.  0.
          5    1    1    0  501    0  0.18482518646E+02 -0.53665111978E+02  0.25741256009E+02  0.62500000000E+02  0.47000000000E+01 0. -1.
         -5    1    1    0    0  501 -0.18482518646E+02  0.53665111978E+02 -0.25741256009E+02  0.62500000000E+02  0.47000000000E+01 0. -1.
</event>
<event>
 3    0  0.4603569E-005  0.9118800E+02  0.7546771E-02  0.1235069E+00
         25   -1    0    0    0    0  0.00000000000E+00  0.00000000000E+00  0.99999998245E-14  0.12500000000E+03  0.12500000000E+03 0.  0.
          5    1    1    0  501    0  0.49795335409E+02  0.31118707956E+02 -0.20885655045E+02  0.62500000000E+02  0.47000000000E+01 0. -1.
         -5    1    1    0    0  501 -0.49795335409E+02 -0.31118707956E+02  0.20885655045E+02  0.62500000000E+02  0.47000000000E+01 0. -1.
</event>
<event>
 3    0  0.4603569E-005  0.9118800E+02  0.7546771E-02  0.1235069E+00
         25   -1    0    0    0    0  0.00000000000E+00  0.00000000000E+00  0.99999998245E-14  0.12500000000E+03  0.12500000000E+03 0.  0.
          5    1    1    0  501    0  0.29594331202E+02 -0.52866517506E+02 -0.14610506066E+02  0.62500000000E+02  0.47000000000E+01 0.  1.
         -5    1    1    0    0  501 -0.29594331202E+02  0.52866517506E+02  0.14610506066E+02  0.62500000000E+02  0.47000000000E+01 0.  1.
</event>
<event>
 3    0  0.4603569E-005  0.9118800E+02  0.7546771E-02  0.1235069E+00
         25   -1    0    0    0    0  0.00000000000E+00  0.00000000000E+00  0.99999998245E-14  0.12500000000E+03  0.12500000000E+03 0.  0.
          5    1    1    0  501    0  0.62280135918E+02 -0.22237850071E+01  0.63202082068E+00  0.62500000000E+02  0.47000000000E+01 0. -1.
         -5    1    1    0    0  501 -0.62280135918E+02  0.22237850071E+01 -0.63202082068E+00  0.62500000000E+02  0.47000000000E+01 0. -1.
</event>
<event>
 3    0  0.4603569E-005  0.9118800E+02  0.7546771E-02  0.1235069E+00
         25   -1    0    0    0    0  0.00000000000E+00  0.00000000000E+00  0.99999998245E-14  0.12500000000E+03  0.12500000000E+03 0.  0.
          5    1    1    0  501    0 -0.42125143256E+02 -0.13979535752E+02 -0.43751627236E+02  0.62500000000E+02  0.47000000000E+01 0.  1.
         -5    1    1    0    0  501  0.42125143256E+02  0.13979535752E+02  0.43751627236E+02  0.62500000000E+02  0.47000000000E+01 0.  1.
</event>
<event>
 3    0  0.4603569E-005  0.9118800E+02  0.7546771E-02  0.1235069E+00
         25   -1    0    0    0    0  0.00000000000E+00  0.00000000000E+00  0.99999998245E-14  0.12500000000E+03  0.12500000000E+03 0.  0.
          5    1    1    0  501    0 -0.21608867556E+02 -0.25037493908E+02  0.52823675958E+02  0.62500000000E+02  0.47000000000E+01 0. -1.
         -5    1    1    0    0  501  0.21608867556E+02  0.25037493908E+02 -0.52823675958E+02  0.62500000000E+02  0.47000000000E+01 0. -1.
</event>
<event>
 3    0  0.4603569E-005  0.9118800E+02  0.7546771E-02  0.1235069E+00
         25   -1    0    0    0    0  0.00000000000E+00  0.00000000000E+00  0.99999998245E-14  0.12500000000E+03  0.12500000000E+03 0.  0.
          5    1    1    0  501    0  0.34825820474E+02 -0.26470806215E+00  0.51684157708E+02  0.62500000000E+02  0.47000000000E+01 0. -1.
         -5    1    1    0    0  501 -0.34825820474E+02  0.26470806215E+00 -0.51684157708E+02  0.62500000000E+02  0.47000000000E+01 0. -1.
</event>
<event>
 3    0  0.4603569E-005  0.9118800E+02  0.7546771E-02  0.1235069E+00
         25   -1    0    0    0    0  0.00000000000E+00  0.00000000000E+00  0.99999998245E-14  0.12500000000E+03  0.12500000000E+03 0.  0.
          5    1    1    0  501    0 -0.51747656616E+02  0.10544567284E+01 -0.34716396066E+02  0.62500000000E+02  0.47000000000E+01 0. -1.
         -5    1    1    0    0  501  0.51747656616E+02 -0.10544567284E+01  0.34716396066E+02  0.62500000000E+02  0.47000000000E+01 0. -1.
</event>
<event>
 3    0  0.4603569E-005  0.9118800E+02  0.7546771E-02  0.1235069E+00
         25   -1    0    0    0    0  0.00000000000E+00  0.00000000000E+00  0.99999998245E-14  0.12500000000E+03  0.12500000000E+03 0.  0.
          5    1    1    0  501    0 -0.23834465197E+01 -0.55413692209E+02 -0.28421856000E+02  0.62500000000E+02  0.47000000000E+01 0.  1.
         -5    1    1    0    0  501  0.23834465197E+01  0.55413692209E+02  0.28421856000E+02  0.62500000000E+02  0.47000000000E+01 0.  1.
</event>
<event>
 3    0  0.4603569E-005  0.9118800E+02  0.7546771E-02  0.1235069E+00
         25   -1    0    0    0    0  0.00000000000E+00  0.00000000000E+00  0.99999998245E-14  0.12500000000E+03  0.12500000000E+03 0.  0.
          5    1    1    0  501    0  0.98020950254E+01  0.61367268312E+02  0.47050306078E+01  0.62500000000E+02  0.47000000000E+01 0. -1.
         -5    1    1    0    0  501 -0.98020950254E+01 -0.61367268312E+02 -0.47050306078E+01  0.62500000000E+02  0.47000000000E+01 0. -1.
</event>
<event>
 3    0  0.4603569E-005  0.9118800E+02  0.7546771E-02  0.1235069E+00
         25   -1    0    0    0    0  0.00000000000E+00  0.00000000000E+00  0.99999998245E-14  0.12500000000E+03  0.12500000000E+03 0.  0.
          5    1    1    0  501    0  0.22419811414E+02 -0.58149512888E+02  0.38237030160E+00  0.62500000000E+02  0.47000000000E+01 0.  1.
         -5    1    1    0    0  501 -0.22419811414E+02  0.58149512888E+02 -0.38237030160E+00  0.62500000000E+02  0.47000000000E+01 0.  1.
</event>
<event>
 3    0  0.4603569E-005  0.9118800E+02  0.7546771E-02  0.1235069E+00
         25   -1    0    0    0    0  0.00000000000E+00  0.00000000000E+00  0.99999998245E-14  0.12500000000E+03  0.12500000000E+03 0.  0.
          5    1    1    0  501    0 -0.60785237034E+02  0.12783814486E+02  0.50881279400E+01  0.62500000000E+02  0.47000000000E+01 0. -1.
         -5    1    1    0    0  501  0.60785237034E+02 -0.12783814486E+02 -0.50881279400E+01  0.62500000000E+02  0.47000000000E+01 0. -1.
</event>
<event>
 3    0  0.4603569E-005  0.9118800E+02  0.7546771E-02  0.1235069E+00
         25   -1    0    0    0    0  0.00000000000E+00  0.00000000000E+00  0.99999998245E-14  0.12500000000E+03  0.12500000000E+03 0.  0.
          5    1    1    0  501    0  0.47422249334E+02  0.27584223056E+01 -0.40344533390E+02  0.62500000000E+02  0.47000000000E+01 0. -1.
         -5    1    1    0    0  501 -0.47422249334E+02 -0.27584223056E+01  0.40344533390E+02  0.62500000000E+02  0.47000000000E+01 0. -1.
</event>
<event>
 3    0  0.4603569E-005  0.9118800E+02  0.7546771E-02  0.1235069E+00
         25   -1    0    0    0    0  0.00000000000E+00  0.00000000000E+00  0.99999998245E-14  0.12500000000E+03  0.12500000000E+03 0.  0.
          5    1    1    0  501    0  0.55356287212E+02 -0.28413846553E+02 -0.35347970481E+01  0.62500000000E+02  0.47000000000E+01 0.  1.
         -5    1    1    0    0  501 -0.55356287212E+02  0.28413846553E+02  0.35347970481E+01  0.62500000000E+02  0.47000000000E+01 0.  1.
</event>
<event>
 3    0  0.4603569E-005  0.9118800E+02  0.7546771E-02  0.1235069E+00
         25   -1    0    0    0    0  0.00000000000E+00  0.00000000000E+00  0.99999998245E-14  0.12500000000E+03  0.12500000000E+03 0.  0.
          5    1    1    0  501    0  0.21389543409E+02  0.52509780984E+02  0.25872192288E+02  0.62500000000E+02  0.47000000000E+01 0. -1.
         -5    1    1    0    0  501 -0.21389543409E+02 -0.52509780984E+02 -0.25872192288E+02  0.62500000000E+02  0.47000000000E+01 0. -1.
</event>
<event>
 3    0  0.4603569E-005  0.9118800E+02  0.7546771E-02  0.1235069E+00
         25   -1    0    0    0    0  0.00000000000E+00  0.00000000000E+00  0.99999998245E-14  0.12500000000E+03  0.12500000000E+03 0.  0.
          5    1    1    0  501    0  0.18404856154E+02  0.82714320230E+01  0.58966131654E+02  0.62500000000E+02  0.47000000000E+01 0. -1.
         -5    1    1    0    0  501 -0.18404856154E+02 -0.82714320230E+01 -0.58966131654E+02  0.62500000000E+02  0.47000000000E+01 0. -1.
</event>
<event>
 3    0  0.4603569E-005  0.9118800E+02  0.7546771E-02  0.1235069E+00
         25   -1    0    0    0    0  0.00000000000E+00  0.00000000000E+00  0.99999998245E-14  0.12500000000E+03  0.12500000000E+03 0.  0.
          5    1    1    0  501    0 -0.39239258478E+02 -0.47667989770E+02 -0.84972551647E+01  0.62500000000E+02  0.47000000000E+01 0. -1.
         -5    1    1    0    0  501  0.39239258478E+02  0.47667989770E+02  0.84972551647E+01  0.62500000000E+02  0.47000000000E+01 0. -1.
</event>
<event>
 3    0  0.4603569E-005  0.9118800E+02  0.7546771E-02  0.1235069E+00
         25   -1    0    0    0    0  0.00000000000E+00  0.00000000000E+00  0.99999998245E-14  0.12500000000E+03  0.12500000000E+03 0.  0.
          5    1    1    0  501    0 -0.54941528294E+02  0.20273900292E+02 -0.21320352616E+02  0.62500000000E+02  0.47000000000E+01 0.  1.
         -5    1    1    0    0  501  0.54941528294E+02 -0.20273900292E+02  0.21320352616E+02  0.62500000000E+02  0.47000000000E+01 0.  1.
</event>
<event>
 3    0  0.4603569E-005  0.9118800E+02  0.7546771E-02  0.1235069E+00
         25   -1    0    0    0    0  0.00000000000E+00  0.00000000000E+00  0.99999998245E-14  0.12500000000E+03  0.12500000000E+03 0.  0.
          5    1    1    0  501    0  0.50732151882E+02  0.15925387447E+02  0.32508318937E+02  0.62500000000E+02  0.47000000000E+01 0. -1.
         -5    1    1    0    0  501 -0.50732151882E+02 -0.15925387447E+02 -0.32508318937E+02  0.62500000000E+02  0.47000000000E+01 0. -1.
</event>
<event>
 3    0  0.4603569E-005  0.9118800E+02  0.7546771E-02  0.1235069E+00
         25   -1    0    0    0    0  0.00000000000E+00  0.00000000000E+00  0.99999998245E-14  0.12500000000E+03  0.12500000000E+03 0.  0.
          5    1    1    0  501    0  0.60650525886E+02 -0.40678345743E+01  0.13752324588E+02  0.62500000000E+02  0.47000000000E+01 0. -1.
         -5    1    1    0    0  501 -0.60650525886E+02  0.40678345743E+01 -0.13752324588E+02  0.62500000000E+02  0.47000000000E+01 0. -1.
</event>
<event>
 3    0  0.4603569E-005  0.9118800E+02  0.7546771E-02  0.1235069E+00
         25   -1    0    0    0    0  0.00000000000E+00  0.00000000000E+00  0.99999998245E-14  0.12500000000E+03  0.12500000000E+03 0.  0.
          5    1    1    0  501    0  0.12218505175E+02 -0.41443649766E+02 -0.44914274183E+02  0.62500000000E+02  0.47000000000E+01 0.  1.
         -5    1    1    0    0  501 -0.12218505175E+02  0.41443649766E+02  0.44914274183E+02  0.62500000000E+02  0.47000000000E+01 0.  1.
</event>
<event>
 3    0  0.4603569E-005  0.9118800E+02  0.7546771E-02  0.1235069E+00
         25   -1    0    0    0    0  0.00000000000E+00  0.00000000000E+00  0.99999998245E-14  0.12500000000E+03  0.12500000000E+03 0.  0.
          5    1    1    0  501    0 -0.10214010514E+01  0.34369448360E+02  0.51979397451E+02  0.62500000000E+02  0.47000000000E+01 0. -1.
         -5    1    1    0    0  501  0.10214010514E+01 -0.34369448360E+02 -0.51979397451E+02  0.62500000000E+02  0.47000000000E+01 0. -1.
</event>
<event>
 3    0  0.4603569E-005  0.9118800E+02  0.7546771E-02  0.1235069E+00
         25   -1    0    0    0    0  0.00000000000E+00  0.00000000000E+00  0.99999998245E-14  0.12500000000E+03  0.12500000000E+03 0.  0.
          5    1    1    0  501    0 -0.65158087819E+01  0.23462877548E+02  0.57368960362E+02  0.62500000000E+02  0.47000000000E+01 0. -1.
         -5    1    1    0    0  501  0.65158087819E+01 -0.23462877548E+02 -0.57368960362E+02  0.62500000000E+02  0.47000000000E+01 0. -1.
</event>
<event>
 3    0  0.4603569E-005  0.9118800E+02  0.7546771E-02  0.1235069E+00
         25   -1    0    0    0    0  0.00000000000E+00  0.00000000000E+00  0.99999998245E-14  0.12500000000E+03  0.12500000000E+03 0.  0.
          5    1    1    0  501    0 -0.44374566572E+00 -0.35378147874E+02 -0.51306429838E+02  0.62500000000E+02  0.47000000000E+01 0. -1.
         -5    1    1    0    0  501  0.44374566572E+00  0.35378147874E+02  0.51306429838E+02  0.62500000000E+02  0.47000000000E+01 0. -1.
</event>
<event>
 3    0  0.4603569E-005  0.9118800E+02  0.7546771E-02  0.1235069E+00
         25   -1    0    0    0    0  0.00000000000E+00  0.00000000000E+00  0.99999998245E-14  0.12500000000E+03  0.12500000000E+03 0.  0.
          5    1    1    0  501    0  0.38254763839E+01  0.15231805109E+02  0.60311838337E+02  0.62500000000E+02  0.47000000000E+01 0. -1.
         -5    1    1    0    0  501 -0.38254763839E+01 -0.15231805109E+02 -0.60311838337E+02  0.62500000000E+02  0.47000000000E+01 0. -1.
</event>
<event>
 3    0  0.4603569E-005  0.9118800E+02  0.7546771E-02  0.1235069E+00
         25   -1    0    0    0    0  0.00000000000E+00  0.00000000000E+00  0.99999998245E-14  0.12500000000E+03  0.12500000000E+03 0.  0.
          5    1    1    0  501    0  0.13612821716E+02  0.60057505195E+02 -0.95889078999E+01  0.62500000000E+02  0.47000000000E+01 0.  1.
         -5    1    1    0    0  501 -0.13612821716E+02 -0.60057505195E+02  0.95889078999E+01  0.62500000000E+02  0.47000000000E+01 0.  1.
</event>
<event>
 3    0  0.4603569E-005  0.9118800E+02  0.7546771E-02  0.1235069E+00
         25   -1    0    0    0    0  0.00000000000E+00  0.00000000000E+00  0.99999998245E-14  0.12500000000E+03  0.12500000000E+03 0.  0.
          5    1    1    0  501    0 -0.45466589361E+02  0.22159211829E+02  0.36413164968E+02  0.62500000000E+02  0.47000000000E+01 0.  1.
         -5    1    1    0    0  501  0.45466589361E+02 -0.22159211829E+02 -0.36413164968E+02  0.62500000000E+02  0.47000000000E+01 0.  1.
</event>
<event>
 3    0  0.4603569E-005  0.9118800E+02  0.7546771E-02  0.1235069E+00
         25   -1    0    0    0    0  0.00000000000E+00  0.00000000000E+00  0.99999998245E-14  0.12500000000E+03  0.12500000000E+03 0.  0.
          5    1    1    0  501    0  0.18916284539E+02 -0.15842948021E+02  0.57230544093E+02  0.62500000000E+02  0.47000000000E+01 0. -1.
         -5    1    1    0    0  501 -0.18916284539E+02  0.15842948021E+02 -0.57230544093E+02  0.62500000000E+02  0.47000000000E+01 0. -1.
</event>
<event>
 3    0  0.4603569E-005  0.9118800E+02  0.7546771E-02  0.1235069E+00
         25   -1    0    0    0    0  0.00000000000E+00  0.00000000000E+00  0.99999998245E-14  0.12500000000E+03  0.12500000000E+03 0.  0.
          5    1    1    0  501    0 -0.63224109993E+01 -0.60190145543E+02 -0.14877281295E+02  0.62500000000E+02  0.47000000000E+01 0. -1.
         -5    1    1    0    0  501  0.63224109993E+01  0.60190145543E+02  0.14877281295E+02  0.62500000000E+02  0.47000000000E+01 0. -1.
</event>
<event>
 3    0  0.4603569E-005  0.9118800E+02  0.7546771E-02  0.1235069E+00
         25   -1    0    0    0    0  0.00000000000E+00  0.00000000000E+00  0.99999998245E-14  0.12500000000E+03  0.12500000000E+03 0.  0.
          5    1    1    0  501    0 -0.26888665725E+02  0.32044342638E+02  0.46198698688E+02  0.62500000000E+02  0.47000000000E+01 0.  1.
         -5    1    1    0    0  501  0.26888665725E+02 -0.32044342638E+02 -0.46198698688E+02  0.62500000000E+02  0.47000000000E+01 0.  1.
</event>
<event>
 3    0  0.4603569E-005  0.9118800E+02  0.7546771E-02  0.1235069E+00
         25   -1    0    0    0    0  0.00000000000E+00  0.00000000000E+00  0.99999998245E-14  0.12500000000E+03  0.12500000000E+03 0.  0.
          5    1    1    0  501    0 -0.20299839972E+02 -0.58861259336E+02  0.27255543324E+01  0.62500000000E+02  0.47000000000E+01 0.  1.
         -5    1    1    0    0  501  0.20299839972E+02  0.58861259336E+02 -0.27255543324E+01  0.62500000000E+02  0.47000000000E+01 0.  1.
</event>
<event>
 3    0  0.4603569E-005  0.9118800E+02  0.7546771E-02  0.1235069E+00
         25   -1    0    0    0    0  0.00000000000E+00  0.00000000000E+00  0.99999998245E-14  0.12500000000E+03  0.12500000000E+03 0.  0.
          5    1    1    0  501    0 -0.52614798631E+02 -0.50651834799E+01  0.33017978153E+02  0.62500000000E+02  0.47000000000E+01 0. -1.
         -5    1    1    0    0  501  0.52614798631E+02  0.50651834799E+01 -0.33017978153E+02  0.62500000000E+02  0.47000000000E+01 0. -1.
</event>
<event>
 3    0  0.4603569E-005  0.9118800E+02  0.7546771E-02  0.1235069E+00
         25   -1    0    0    0    0  0.00000000000E+00  0.00000000000E+00  0.99999998245E-14  0.12500000000E+03  0.12500000000E+03 0.  0.
          5    1    1    0  501    0 -0.29146252852E+02  0.55012129992E+02 -0.28847007620E+01  0.62500000000E+02  0.47000000000E+01 0.  1.
         -5    1    1    0    0  501  0.29146252852E+02 -0.55012129992E+02  0.28847007620E+01  0.62500000000E+02  0.47000000000E+01 0.  1.
</event>
<event>
 3    0  0.4603569E-005  0.9118800E+02  0.7546771E-02  0.1235069E+00
         25   -1    0    0    0    0  0.00000000000E+00  0.00000000000E+00  0.99999998245E-14  0.12500000000E+03  0.12500000000E+03 0.  0.
          5    1    1    0  501    0  0.24390325722E+02 -0.26368883685E+02  0.50930874569E+02  0.62500000000E+02  0.47000000000E+01 0.  1.
         -5    1    1    0    0  501 -0.24390325722E+02  0.26368883685E+02 -0.50930874569E+02  0.62500000000E+02  0.47000000000E+01 0.  1.
</event>
<event>
 3    0  0.4603569E-005  0.9118800E+02  0.7546771E-02  0.1235069E+00
         25   -1    0    0    0    0  0.00000000000E+00  0.00000000000E+00  0.99999998245E-14  0.12500000000E+03  0.12500000000E+03 0.  0.
          5    1    1    0  501    0  0.36136551416E+02  0.25553320213E+02  0.43878667685E+02  0.62500000000E+02  0.47000000000E+01 0. -1.
         -5    1    1    0    0  501 -0.36136551416E+02 -0.25553320213E+02 -0.43878667685E+02  0.62500000000E+02  0.47000000000E+01 0. -1.
</event>
<event>
 3    0  0.4603569E-005  0.9118800E+02  0.7546771E-02  0.1235069E+00
         25   -1    0    0    0    0  0.00000000000E+00  0.00000000000E+00  0.99999998245E-14  0.12500000000E+03  0.12500000000E+03 0.  0.
          5    1    1    0  501    0 -0.16981150365E+02  0.57406818089E+02 -0.17327947634E+02  0.62500000000E+02  0.47000000000E+01 0.  1.
         -5    1    1    0    0  501  0.16981150365E+02 -0.57406818089E+02  0.17327947634E+02  0.62500000000E+02  0.47000000000E+01 0.  1.
</event>
<event>
 3    0  0.4603569E-005  0.9118800E+02  0.7546771E-02  0.1235069E+00
         25   -1    0    0    0    0  0.00000000000E+00  0.00000000000E+00  0.99999998245E-14  0.12500000000E+03  0.12500000000E+03 0.  0.
          5    1    1    0  501    0 -0.51741836617E+02 -0.11980276397E+01  0.34720412920E+02  0.62500000000E+02  0.47000000000E+01 0. -1.
         -5    1    1    0    0  501  0.51741836617E+02  0.11980276397E+01 -0.34720412920E+02  0.62500000000E+02  0.47000000000E+01 0. -1.
</event>
<event>
 3    0  0.4603569E-005  0.9118800E+02  0.7546771E-02  0.1235069E+00
         25   -1    0    0    0    0  0.00000000000E+00  0.00000000000E+00  0.99999998245E-14  0.12500000000E+03  0.12500000000E+03 0.  0.
          5    1    1    0  501    0  0.34076097253E+01 -0.47096527314E+02  0.40675119065E+02  0.62500000000E+02  0.47000000000E+01 0. -1.
         -5    1    1    0    0  501 -0.34076097253E+01  0.47096527314E+02 -0.40675119065E+02  0.62500000000E+02  0.47000000000E+01 0. -1.
</event>
<event>
 3    0  0.4603569E-005  0.9118800E+02  0.7546771E-02  0.1235069E+00
         25   -1    0    0    0    0  0.00000000000E+00  0.00000000000E+00  0.99999998245E-14  0.12500000000E+03  0.12500000000E+03 0.  0.
          5    1    1    0  501    0  0.42903530938E+02  0.39891781196E+02  0.21262474597E+02  0.62500000000E+02  0.47000000000E+01 0. -1.
         -5    1    1    0    0  501 -0.42903530938E+02 -0.39891781196E+02 -0.21262474597E+02  0.62500000000E+02  0.47000000000E+01 0. -1.
</event>
<event>
 3    0  0.4603569E-005  0.9118800E+02  0.7546771E-02  0.1235069E+00
         25   -1    0    0    0    0  0.00000000000E+00  0.00000000000E+00  0.99999998245E-14  0.12500000000E+03  0.12500000000E+03 0.  0.
          5    1    1    0  501    0  0.64657316478E+01  0.55603473551E+02  0.27397226928E+02  0.62500000000E+02  0.47000000000E+01 0. -1.
         -5    1    1    0    0  501 -0.64657316478E+01 -0.55603473551E+02 -0.27397226928E+02  0.62500000000E+02  0.47000000000E+01 0. -1.
</event>
<event>
 3    0  0.4603569E-005  0.9118800E+02  0.7546771E-02  0.1235069E+00
         25   -1    0    0    0    0  0.00000000000E+00  0.00000000000E+00  0.99999998245E-14  0.12500000000E+03  0.12500000000E+03 0.  0.
          5    1    1    0  501    0 -0.93448448176E+01 -0.22171545178E+02  0.57491359871E+02  0.62500000000E+02  0.47000000000E+01 0.  1.
         -5    1    1    0    0  501  0.93448448176E+01  0.22171545178E+02 -0.57491359871E+02  0.62500000000E+02  0.47000000000E+01 0.  1.
</event>
<event>
 3    0  0.4603569E-005  0.9118800E+02  0.7546771E-02  0.1235069E+00
         25   -1    0    0    0    0  0.00000000000E+00  0.00000000000E+00  0.99999998245E-14  0.12500000000E+03  0.12500000000E+03 0.  0.
          5    1    1    0  501    0 -0.21385839225E+01 -0.60652329320E+02  0.14173263806E+02  0.62500000000E+02  0.47000000000E+01 0.  1.
         -5    1    1    0    0  501  0.21385839225E+01  0.60652329320E+02 -0.14173263806E+02  0.62500000000E+02  0.47000000000E+01 0.  1.
</event>
<event>
 3    0  0.4603569E-005  0.9118800E+02  0.7546771E-02  0.1235069E+00
         25   -1    0    0    0    0  0.00000000000E+00  0.00000000000E+00  0.99999998245E-14  0.12500000000E+03  0.12500000000E+03 0.  0.
          5    1    1    0  501    0  0.45755162046E+02 -0.32730307282E+02  0.26820740694E+02  0.62500000000E+02  0.47000000000E+01 0. -1.
         -5    1    1    0    0  501 -0.45755162046E+02  0.32730307282E+02 -0.26820740694E+02  0.62500000000E+02  0.47000000000E+01 0. -1.
</event>
<event>
 3    0  0.4603569E-005  0.9118800E+02  0.7546771E-02  0.1235069E+00
         25   -1    0    0    0    0  0.00000000000E+00  0.00000000000E+00  0.99999998245E-14  0.12500000000E+03  0.12500000000E+03 0.  0.
          5    1    1    0  501    0  0.61935551378E+02 -0.47715425954E+01  0.50378424721E+01  0.62500000000E+02  0.47000000000E+01 0.  1.
         -5    1    1    0    0  501 -0.61935551378E+02  0.47715425954E+01 -0.50378424721E+01  0.62500000000E+02  0.47000000000E+01 0.  1.
</event>
<event>
 3    0  0.4603569E-005  0.9118800E+02  0.7546771E-02  0.1235069E+00
         25   -1    0    0    0    0  0.00000000000E+00  0.00000000000E+00  0.99999998245E-14  0.12500000000E+03  0.12500000000E+03 0.  0.
          5    1    1    0  501    0  0.46188562424E+02 -0.41577831315E+02 -0.46968760128E+01  0.62500000000E+02  0.47000000000E+01 0.  1.
         -5    1    1    0    0  501 -0.46188562424E+02  0.41577831315E+02  0.46968760128E+01  0.62500000000E+02  0.47000000000E+01 0.  1.
</event>
<event>
 3    0  0.4603569E-005  0.9118800E+02  0.7546771E-02  0.1235069E+00
         25   -1    0    0    0    0  0.00000000000E+00  0.00000000000E+00  0.99999998245E-14  0.12500000000E+03  0.12500000000E+03 0.  0.
          5    1    1    0  501    0  0.51587905838E+02 -0.34725362472E+02 -0.41227627148E+01  0.62500000000E+02  0.47000000000E+01 0.  1.
         -5    1    1    0    0  501 -0.51587905838E+02  0.34725362472E+02  0.41227627148E+01  0.62500000000E+02  0.47000000000E+01 0.  1.
</event>
<event>
 3    0  0.4603569E-005  0.9118800E+02  0.7546771E-02  0.1235069E+00
         25   -1    0    0    0    0  0.00000000000E+00  0.00000000000E+00  0.99999998245E-14  0.12500000000E+03  0.12500000000E+03 0.  0.
          5    1    1    0  501    0 -0.12230791090E+02 -0.33522249943E+02 -0.51096247495E+02  0.62500000000E+02  0.47000000000E+01 0. -1.
         -5    1    1    0    0  501  0.12230791090E+02  0.33522249943E+02  0.51096247495E+02  0.62500000000E+02  0.47000000000E+01 0. -1.
</event>
<event>
 3    0  0.4603569E-005  0.9118800E+02  0.7546771E-02  0.1235069E+00
         25   -1    0    0    0    0  0.00000000000E+00  0.00000000000E+00  0.99999998245E-14  0.12500000000E+03  0.12500000000E+03 0.  0.
          5    1    1    0  501    0 -0.29507639434E+02  0.49747087456E+02 -0.23209620950E+02  0.62500000000E+02  0.47000000000E+01 0. -1.
         -5    1    1    0    0  501  0.29507639434E+02 -0.49747087456E+02  0.23209620950E+02  0.62500000000E+02  0.47000000000E+01 0. -1.
</event>
<event>
 3    0  0.4603569E-005  0.9118800E+02  0.7546771E-02  0.1235069E+00
         25   -1    0    0    0    0  0.00000000000E+00  0.00000000000E+00  0.99999998245E-14  0.12500000000E+03  0.12500000000E+03 0.  0.
          5    1    1    0  501    0  0.12004140740E+02 -0.48876086036E+02 -0.36758520357E+02  0.62500000000E+02  0.47000000000E+01 0.  1.
         -5    1    1    0    0  501 -0.12004140740E+02  0.48876086036E+02  0.36758520357E+02  0.62500000000E+02  0.47000000000E+01 0.  1.
</event>
<event>
 3    0  0.4603569E-005  0.9118800E+02  0.7546771E-02  0.1235069E+00
         25   -1    0    0    0    0  0.00000000000E+00  0.00000000000E+00  0.99999998245E-14  0.12500000000E+03  0.12500000000E+03 0.  0.
          5    1    1    0  501    0  0.43580178152E+02 -0.40663598278E+02  0.18204390881E+02  0.62500000000E+02  0.47000000000E+01 0. -1.
         -5    1    1    0    0  501 -0.43580178152E+02  0.40663598278E+02 -0.18204390881E+02  0.62500000000E+02  0.47000000000E+01 0. -1.
</event>
<event>
 3    0  0.4603569E-005  0.9118800E+02  0.7546771E-02  0.1235069E+00
         25   -1    0    0    0    0  0.00000000000E+00  0.00000000000E+00  0.99999998245E-14  0.12500000000E+03  0.12500000000E+03 0.  0.
          5    1    1    0  501    0  0.16869656565E+02  0.53751683128E+02 -0.26652040228E+02  0.62500000000E+02  0.47000000000E+01 0. -1.
         -5    1    1    0    0  501 -0.16869656565E+02 -0.53751683128E+02  0.26652040228E+02  0.62500000000E+02  0.47000000000E+01 0. -1.
</event>
<event>
 3    0  0.4603569E-005  0.9118800E+02  0.7546771E-02  0.1235069E+00
         25   -1    0    0    0    0  0.00000000000E+00  0.00000000000E+00  0.99999998245E-14  0.12500000000E+03  0.12500000000E+03 0.  0.
          5    1    1    0  501    0 -0.40561633868E+02 -0.39022876525E+02 -0.26760586048E+02  0.62500000000E+02  0.47000000000E+01 0.  1.
         -5    1    1    0    0  501  0.40561633868E+02  0.39022876525E+02  0.26760586048E+02  0.62500000000E+02  0.47000000000E+01 0.  1.
</event>
<event>
 3    0  0.4603569E-005  0.9118800E+02  0.7546771E-02  0.1235069E+00
         25   -1    0    0    0    0  0.00000000000E+00  0.00000000000E+00  0.99999998245E-14  0.12500000000E+03  0.12500000000E+03 0.  0.
          5    1    1    0  501    0  0.49639562575E+02 -0.16481816409E+02 -0.33888398534E+02  0.62500000000E+02  0.47000000000E+01 0. -1.
         -5    1    1    0    0  501 -0.49639562575E+02  0.16481816409E+02  0.33888398534E+02  0.62500000000E+02  0.47000000000E+01 0. -1.
</event>
<event>
 3    0  0.4603569E-005  0.9118800E+02  0.7546771E-02  0.1235069E+00
         25   -1    0    0    0    0  0.00000000000E+00  0.00000000000E+00  0.99999998245E-14  0.12500000000E+03  0.12500000000E+03 0.  0.
          5    1    1    0  501    0 -0.48371325417E+02 -0.14822808172E+02 -0.36395868383E+02  0.62500000000E+02  0.47000000000E+01 0.  1.
         -5    1    1    0    0  501  0.48371325417E+02  0.14822808172E+02  0.36395868383E+02  0.62500000000E+02  0.47000000000E+01 0.  1.
</event>
<event>
 3    0  0.4603569E-005  0.9118800E+02  0.7546771E-02  0.1235069E+00
         25   -1    0    0    0    0  0.00000000000E+00  0.00000000000E+00  0.99999998245E-14  0.12500000000E+03  0.12500000000E+03 0.  0.
          5    1    1    0  501    0 -0.47326898146E+02 -0.40444627632E+02  0.29252021421E+01  0.62500000000E+02  0.47000000000E+01 0. -1.
         -5    1    1    0    0  501  0.47326898146E+02  0.40444627632E+02 -0.29252021421E+01  0.62500000000E+02  0.47000000000E+01 0. -1.
</event>
<event>
 3    0  0.4603569E-005  0.9118800E+02  0.7546771E-02  0.1235069E+00
         25   -1    0    0    0    0  0.00000000000E+00  0.00000000000E+00  0.99999998245E-14  0.12500000000E+03  0.12500000000E+03 0.  0.
          5    1    1    0  501    0 -0.60197967280E+02  0.15872884785E+02 -0.29010797938E+01  0.62500000000E+02  0.47000000000E+01 0.  1.
         -5    1    1    0    0  501  0.60197967280E+02 -0.15872884785E+02  0.29010797938E+01  0.62500000000E+02  0.47000000000E+01 0.  1.
</event>
<event>
 3    0  0.4603569E-005  0.9118800E+02  0.7546771E-02  0.1235069E+00
         25   -1    0    0    0    0  0.00000000000E+00  0.00000000000E+00  0.99999998245E-14  0.12500000000E+03  0.12500000000E+03 0.  0.
          5    1    1    0  501    0 -0.40255139152E+02 -0.36283057532E+02  0.30776996410E+02  0.62500000000E+02  0.47000000000E+01 0. -1.
         -5    1    1    0    0  501  0.40255139152E+02  0.36283057532E+02 -0.30776996410E+02  0.62500000000E+02  0.47000000000E+01 0. -1.
</event>
<event>
 3    0  0.4603569E-005  0.9118800E+02  0.7546771E-02  0.1235069E+00
         25   -1    0    0    0    0  0.00000000000E+00  0.00000000000E+00  0.99999998245E-14  0.12500000000E+03  0.12500000000E+03 0.  0.
          5    1    1    0  501    0  0.30242475726E+02 -0.41600219753E+02 -0.35199067864E+02  0.62500000000E+02  0.47000000000E+01 0.  1.
         -5    1    1    0    0  501 -0.30242475726E+02  0.41600219753E+02  0.35199067864E+02  0.62500000000E+02  0.47000000000E+01 0.  1.
</event>
<event>
 3    0  0.4603569E-005  0.9118800E+02  0.7546771E-02  0.1235069E+00
         25   -1    0    0    0    0  0.00000000000E+00  0.00000000000E+00  0.99999998245E-14  0.12500000000E+03  0.12500000000E+03 0.  0.
          5    1    1    0  501    0  0.40913992911E+02 -0.45868858297E+02 -0.10307910683E+02  0.62500000000E+02  0.47000000000E+01 0. -1.
         -5    1    1    0    0  501 -0.40913992911E+02  0.45868858297E+02  0.10307910683E+02  0.62500000000E+02  0.47000000000E+01 0. -1.
</event>
<event>
 3    0  0.4603569E-005  0.9118800E+02  0.7546771E-02  0.1235069E+00
         25   -1    0    0    0    0  0.00000000000E+00  0.00000000000E+00  0.99999998245E-14  0.12500000000E+03  0.12500000000E+03 0.  0.
          5    1    1    0  501    0  0.19966094538E+02  0.42442698909E+02 -0.41038181955E+02  0.62500000000E+02  0.47000000000E+01 0. -1.
         -5    1    1    0    0  501 -0.19966094538E+02 -0.42442698909E+02  0.41038181955E+02  0.62500000000E+02  0.47000000000E+01 0. -1.
</event>
<event>
 3    0  0.4603569E-005  0.9118800E+02  0.7546771E-02  0.1235069E+00
         25   -1    0    0    0    0  0.00000000000E+00  0.00000000000E+00  0.99999998245E-14  0.12500000000E+03  0.12500000000E+03 0.  0.
          5    1    1    0  501    0 -0.29400846449E+02  0.42951847636E+02  0.34276654048E+02  0.62500000000E+02  0.47000000000E+01 0.  1.
         -5    1    1    0    0  501  0.29400846449E+02 -0.42951847636E+02 -0.34276654048E+02  0.62500000000E+02  0.47000000000E+01 0.  1.
</event>
<event>
 3    0  0.4603569E-005  0.9118800E+02  0.7546771E-02  0.1235069E+00
         25   -1    0    0    0    0  0.00000000000E+00  0.00000000000E+00  0.99999998245E-14  0.12500000000E+03  0.12500000000E+03 0.  0.
          5    1    1    0  501    0 -0.36213487914E+02  0.33423862009E+02  0.38152178726E+02  0.62500000000E+02  0.47000000000E+01 0.  1.
         -5    1    1    0    0  501  0.36213487914E+02 -0.33423862009E+02 -0.38152178726E+02  0.62500000000E+02  0.47000000000E+01 0.  1.
</event>
<event>
 3    0  0.4603569E-005  0.9118800E+02  0.7546771E-02  0.1235069E+00
         25   -1    0    0    0    0  0.00000000000E+00  0.00000000000E+00  0.99999998245E-14  0.12500000000E+03  0.12500000000E+03 0.  0.
          5    1    1    0  501    0  0.51809908966E+01  0.60464674515E+02 -0.14189449219E+02  0.62500000000E+02  0.47000000000E+01 0. -1.
         -5    1    1    0    0  501 -0.51809908966E+01 -0.60464674515E+02  0.14189449219E+02  0.62500000000E+02  0.47000000000E+01 0. -1.
</event>
<event>
 3    0  0.4603569E-005  0.9118800E+02  0.7546771E-02  0.1235069E+00
         25   -1    0    0    0    0  0.00000000000E+00  0.00000000000E+00  0.99999998245E-14  0.12500000000E+03  0.12500000000E+03 0.  0.
          5    1    1    0  501    0  0.47927795047E+02  0.10595382605E+02 -0.38403441635E+02  0.62500000000E+02  0.47000000000E+01 0. -1.
         -5    1    1    0    0  501 -0.47927795047E+02 -0.10595382605E+02  0.38403441635E+02  0.62500000000E+02  0.47000000000E+01 0. -1.
</event>
<event>
 3    0  0.4603569E-005  0.9118800E+02  0.7546771E-02  0.1235069E+00
         25   -1    0    0    0    0  0.00000000000E+00  0.00000000000E+00  0.99999998245E-14  0.12500000000E+03  0.12500000000E+03 0.  0.
          5    1    1    0  501    0 -0.54284335768E+02  0.77251588134E+01  0.29625880772E+02  0.62500000000E+02  0.47000000000E+01 0.  1.
         -5    1    1    0    0  501  0.54284335768E+02 -0.77251588134E+01 -0.29625880772E+02  0.62500000000E+02  0.47000000000E+01 0.  1.
</event>
<event>
 3    0  0.4603569E-005  0.9118800E+02  0.7546771E-02  0.1235069E+00
         25   -1    0    0    0    0  0.00000000000E+00  0.00000000000E+00  0.99999998245E-14  0.12500000000E+03  0.12500000000E+03 0.  0.
          5    1    1    0  501    0 -0.60805824919E+02  0.13167642297E+02 -0.36639940252E+01  0.62500000000E+02  0.47000000000E+01 0.  1.
         -5    1    1    0    0  501  0.60805824919E+02 -0.13167642297E+02  0.36639940252E+01  0.62500000000E+02  0.47000000000E+01 0.  1.
</event>
<event>
 3    0  0.4603569E-005  0.9118800E+02  0.7546771E-02  0.1235069E+00
         25   -1    0    0    0    0  0.00000000000E+00  0.00000000000E+00  0.99999998245E-14  0.12500000000E+03  0.12500000000E+03 0.  0.
          5    1    1    0  501    0 -0.43453361793E+02  0.55732126297E+01 -0.44327245007E+02  0.62500000000E+02  0.47000000000E+01 0.  1.
         -5    1    1    0    0  501  0.43453361793E+02 -0.55732126297E+01  0.44327245007E+02  0.62500000000E+02  0.47000000000E+01 0.  1.
</event>
<event>
 3    0  0.4603569E-005  0.9118800E+02  0.7546771E-02  0.1235069E+00
         25   -1    0    0    0    0  0.00000000000E+00  0.00000000000E+00  0.99999998245E-14  0.12500000000E+03  0.12500000000E+03 0.  0.
          5    1    1    0  501    0  0.39866366902E+02  0.47495173795E+02  0.62483002616E+01  0.62500000000E+02  0.47000000000E+01 0. -1.
         -5    1    1    0    0  501 -0.39866366902E+02 -0.47495173795E+02 -0.62483002616E+01  0.62500000000E+02  0.47000000000E+01 0. -1.
</event>
<event>
 3    0  0.4603569E-005  0.9118800E+02  0.7546771E-02  0.1235069E+00
         25   -1    0    0    0    0  0.00000000000E+00  0.00000000000E+00  0.99999998245E-14  0.12500000000E+03  0.12500000000E+03 0.  0.
          5    1    1    0  501    0  0.34128930798E+02 -0.31228838279E+02  0.41762851223E+02  0.62500000000E+02  0.47000000000E+01 0. -1.
         -5    1    1    0    0  501 -0.34128930798E+02  0.31228838279E+02 -0.41762851223E+02  0.62500000000E+02  0.47000000000E+01 0. -1.
</event>
<event>
 3    0  0.4603569E-005  0.9118800E+02  0.7546771E-02  0.1235069E+00
         25   -1    0    0    0    0  0.00000000000E+00  0.00000000000E+00  0.99999998245E-14  0.12500000000E+03  0.12500000000E+03 0.  0.
          5    1    1    0  501    0 -0.32070497772E+01  0.26596855433E+02  0.56271503559E+02  0.62500000000E+02  0.47000000000E+01 0. -1.
         -5    1    1    0    0  501  0.32070497772E+01 -0.26596855433E+02 -0.56271503559E+02  0.62500000000E+02  0.47000000000E+01 0. -1.
</event>
<event>
 3    0  0.4603569E-005  0.9118800E+02  0.7546771E-02  0.1235069E+00
         25   -1    0    0    0    0  0.00000000000E+00  0.00000000000E+00  0.99999998245E-14  0.12500000000E+03  0.12500000000E+03 0.  0.
          5    1    1    0  501    0 -0.43252483835E+02  0.44462845460E+02  0.60363909534E+01  0.62500000000E+02  0.47000000000E+01 0. -1.
         -5    1    1    0    0  501  0.43252483835E+02 -0.44462845460E+02 -0.60363909534E+01  0.62500000000E+02  0.47000000000E+01 0. -1.
</event>
<event>
 3    0  0.4603569E-005  0.9118800E+02  0.7546771E-02  0.1235069E+00
         25   -1    0    0    0    0  0.00000000000E+00  0.00000000000E+00  0.99999998245E-14  0.12500000000E+03  0.12500000000E+03 0.  0.
          5    1    1    0  501    0  0.59181699027E+02  0.18314479513E+02  0.68019365243E+01  0.62500000000E+02  0.47000000000E+01 0.  1.
         -5    1    1    0    0  501 -0.59181699027E+02 -0.18314479513E+02 -0.68019365243E+01  0.62500000000E+02  0.47000000000E+01 0.  1.
</event>
<event>
 3    0  0.4603569E-005  0.9118800E+02  0.7546771E-02  0.1235069E+00
         25   -1    0    0    0    0  0.00000000000E+00  0.00000000000E+00  0.99999998245E-14  0.12500000000E+03  0.12500000000E+03 0.  0.
          5    1    1    0  501    0 -0.43017244346E+02 -0.38118701116E+02  0.24096500039E+02  0.62500000000E+02  0.47000000000E+01 0.  1.
         -5    1    1    0    0  501  0.43017244346E+02  0.38118701116E+02 -0.24096500039E+02  0.62500000000E+02  0.47000000000E+01 0.  1.
</event>
<event>
 3    0  0.4603569E-005  0.9118800E+02  0.7546771E-02  0.1235069E+00
         25   -1    0    0    0    0  0.00000000000E+00  0.00000000000E+00  0.99999998245E-14  0.12500000000E+03  0.12500000000E+03 0.  0.
          5    1    1    0  501    0  0.30769843227E+02 -0.50213466373E+02 -0.20395699120E+02  0.62500000000E+02  0.47000000000E+01 0.  1.
         -5    1    1    0    0  501 -0.30769843227E+02  0.50213466373E+02  0.20395699120E+02  0.62500000000E+02  0.47000000000E+01 0.  1.
</event>
<event>
 3    0  0.4603569E-005  0.9118800E+02  0.7546771E-02  0.1235069E+00
         25   -1    0    0    0    0  0.00000000000E+00  0.00000000000E+00  0.99999998245E-14  0.12500000000E+03  0.12500000000E+03 0.  0.
          5    1    1    0  501    0 -0.17372133994E+02  0.41051294353E+02  0.43556402428E+02  0.62500000000E+02  0.47000000000E+01 0. -1.
         -5    1    1    0    0  501  0.17372133994E+02 -0.41051294353E+02 -0.43556402428E+02  0.62500000000E+02  0.47000000000E+01 0. -1.
</event>
<event>
 3    0  0.4603569E-005  0.9118800E+02  0.7546771E-02  0.1235069E+00
         25   -1    0    0    0    0  0.00000000000E+00  0.00000000000E+00  0.99999998245E-14  0.12500000000E+03  0.12500000000E+03 0.  0.
          5    1    1    0  501    0 -0.11024684070E+02 -0.59791455094E+02  0.13696650645E+02  0.62500000000E+02  0.47000000000E+01 0. -1.
         -5    1    1    0    0  501  0.11024684070E+02  0.59791455094E+02 -0.13696650645E+02  0.62500000000E+02  0.47000000000E+01 0. -1.
</event>
<event>
 3    0  0.4603569E-005  0.9118800E+02  0.7546771E-02  0.1235069E+00
         25   -1    0    0    0    0  0.00000000000E+00  0.00000000000E+00  0.99999998245E-14  0.12500000000E+03  0.12500000000E+03 0.  0.
          5    1    1    0  501    0  0.16414874422E+02  0.56909727795E+02 -0.19390584828E+02  0.62500000000E+02  0.47000000000E+01 0. -1.
         -5    1    1    0    0  501 -0.16414874422E+02 -0.56909727795E+02  0.19390584828E+02  0.62500000000E+02  0.47000000000E+01 0. -1.
</event>
<event>
 3    0  0.4603569E-005  0.9118800E+02  0.7546771E-02  0.1235069E+00
         25   -1    0    0    0    0  0.00000000000E+00  0.00000000000E+00  0.99999998245E-14  0.12500000000E+03  0.12500000000E+03 0.  0.
          5    1    1    0  501    0 -0.34489730670E+02 -0.18378634958E+02 -0.48547340353E+02  0.62500000000E+02  0.47000000000E+01 0. -1.
         -5    1    1    0    0  501  0.34489730670E+02  0.18378634958E+02  0.48547340353E+02  0.62500000000E+02  0.47000000000E+01 0. -1.
</event>
<event>
 3    0  0.4603569E-005  0.9118800E+02  0.7546771E-02  0.1235069E+00
         25   -1    0    0    0    0  0.00000000000E+00  0.00000000000E+00  0.99999998245E-14  0.12500000000E+03  0.12500000000E+03 0.  0.
          5    1    1    0  501    0 -0.19318852816E+02  0.52810993115E+02  0.26868958522E+02  0.62500000000E+02  0.47000000000E+01 0.  1.
         -5    1    1    0    0  501  0.19318852816E+02 -0.52810993115E+02 -0.26868958522E+02  0.62500000000E+02  0.47000000000E+01 0.  1.
</event>
<event>
 3    0  0.4603569E-005  0.9118800E+02  0.7546771E-02  0.1235069E+00
         25   -1    0    0    0    0  0.00000000000E+00  0.00000000000E+00  0.99999998245E-14  0.12500000000E+03  0.12500000000E+03 0.  0.
          5    1    1    0  501    0  0.32297918530E+02  0.10774041611E+02  0.52200809246E+02  0.62500000000E+02  0.47000000000E+01 0.  1.
         -5    1    1    0    0  501 -0.32297918530E+02 -0.10774041611E+02 -0.52200809246E+02  0.62500000000E+02  0.47000000000E+01 0.  1.
</event>
<event>
 3    0  0.4603569E-005  0.9118800E+02  0.7546771E-02  0.1235069E+00
         25   -1    0    0    0    0  0.00000000000E+00  0.00000000000E+00  0.99999998245E-14  0.12500000000E+03  0.12500000000E+03 0.  0.
          5    1    1    0  501    0 -0.49699076421E+02  0.37204282904E+02  0.54775118834E+01  0.62500000000E+02  0.47000000000E+01 0.  1.
         -5    1    1    0    0  501  0.49699076421E+02 -0.37204282904E+02 -0.54775118834E+01  0.62500000000E+02  0.47000000000E+01 0.  1.
</event>
<event>
 3    0  0.4603569E-005  0.9118800E+02  0.7546771E-02  0.1235069E+00
         25   -1    0    0    0    0  0.00000000000E+00  0.00000000000E+00  0.99999998245E-14  0.12500000000E+03  0.12500000000E+03 0.  0.
          5    1    1    0  501    0  0.51974027991E+02  0.11264920190E+02  0.32495568736E+02  0.62500000000E+02  0.47000000000E+01 0.  1.
         -5    1    1    0    0  501 -0.51974027991E+02 -0.11264920190E+02 -0.32495568736E+02  0.62500000000E+02  0.47000000000E+01 0.  1.
</event>
<event>
 3    0  0.4603569E-005  0.9118800E+02  0.7546771E-02  0.1235069E+00
         25   -1    0    0    0    0  0.00000000000E+00  0.00000000000E+00  0.99999998245E-14  0.12500000000E+03  0.12500000000E+03 0.  0.
          5    1    1    0  501    0 -0.48517459108E+01 -0.86389493518E+01 -0.61530391805E+02  0.62500000000E+02  0.47000000000E+01 0. -1.
         -5    1    1    0    0  501  0.48517459108E+01  0.86389493518E+01  0.61530391805E+02  0.62500000000E+02  0.47000000000E+01 0. -1.
</event>
<event>
 3    0  0.4603569E-005  0.9118800E+02  0.7546771E-02  0.1235069E+00
         25   -1    0    0    0    0  0.00000000000E+00  0.00000000000E+00  0.99999998245E-14  0.12500000000E+03  0.12500000000E+03 0.  0.
          5    1    1    0  501    0  0.14562165264E+02  0.59734909094E+02  0.10190386567E+02  0.62500000000E+02  0.47000000000E+01 0. -1.
         -5    1    1    0    0  501 -0.14562165264E+02 -0.59734909094E+02 -0.10190386567E+02  0.62500000000E+02  0.47000000000E+01 0. -1.
</event>
<event>
 3    0  0.4603569E-005  0.9118800E+02  0.7546771E-02  0.1235069E+00
         25   -1    0    0    0    0  0.00000000000E+00  0.00000000000E+00  0.99999998245E-14  0.12500000000E+03  0.12500000000E+03 0.  0.
          5    1    1    0  501    0  0.31326151197E+02 -0.13555765016E+02 -0.52144735938E+02  0.62500000000E+02  0.47000000000E+01 0. -1.
         -5    1    1    0    0  501 -0.31326151197E+02  0.13555765016E+02  0.52144735938E+02  0.62500000000E+02  0.47000000000E+01 0. -1.
</event>
<event>
 3    0  0.4603569E-005  0.9118800E+02  0.7546771E-02  0.1235069E+00
         25   -1    0    0    0    0  0.00000000000E+00  0.00000000000E+00  0.99999998245E-14  0.12500000000E+03  0.12500000000E+03 0.  0.
          5    1    1    0  501    0  0.35436064125E+02 -0.41546007187E+02  0.30039551365E+02  0.62500000000E+02  0.47000000000E+01 0.  1.
         -5    1    1    0    0  501 -0.35436064125E+02  0.41546007187E+02 -0.30039551365E+02  0.62500000000E+02  0.47000000000E+01 0.  1.
</event>
<event>
 3    0  0.4603569E-005  0.9118800E+02  0.7546771E-02  0.1235069E+00
         25   -1    0    0    0    0  0.00000000000E+00  0.00000000000E+00  0.99999998245E-14  0.12500000000E+03  0.12500000000E+03 0.  0.
          5    1    1    0  501    0 -0.50876620902E+01  0.18430341568E+02  0.59317773088E+02  0.62500000000E+02  0.47000000000E+01 0. -1.
         -5    1    1    0    0  501  0.50876620902E+01 -0.18430341568E+02 -0.59317773088E+02  0.62500000000E+02  0.47000000000E+01 0. -1.
</event>
<event>
 3    0  0.4603569E-005  0.9118800E+02  0.7546771E-02  0.1235069E+00
         25   -1    0    0    0    0  0.00000000000E+00  0.00000000000E+00  0.99999998245E-14  0.12500000000E+03  0.12500000000E+03 0.  0.
          5    1    1    0  501    0 -0.74444255014E+01 -0.17418708974E+01 -0.61852295145E+02  0.62500000000E+02  0.47000000000E+01 0.  1.
         -5    1    1    0    0  501  0.74444255014E+01  0.17418708974E+01  0.61852295145E+02  0.62500000000E+02  0.47000000000E+01 0.  1.
</event>
<event>
 3    0  0.4603569E-005  0.9118800E+02  0.7546771E-02  0.1235069E+00
         25   -1    0    0    0    0  0.00000000000E+00  0.00000000000E+00  0.99999998245E-14  0.12500000000E+03  0.12500000000E+03 0.  0.
          5    1    1    0  501    0 -0.33604359564E+02 -0.49566901805E+02 -0.17263524081E+02  0.62500000000E+02  0.47000000000E+01 0.  1.
         -5    1    1    0    0  501  0.33604359564E+02  0.49566901805E+02  0.17263524081E+02  0.62500000000E+02  0.47000000000E+01 0.  1.
</event>
<event>
 3    0  0.4603569E-005  0.9118800E+02  0.7546771E-02  0.1235069E+00
         25   -1    0    0    0    0  0.00000000000E+00  0.00000000000E+00  0.99999998245E-14  0.12500000000E+03  0.12500000000E+03 0.  0.
          5    1    1    0  501    0  0.57777974825E+02  0.77383523244E+01 -0.22045034099E+02  0.62500000000E+02  0.47000000000E+01 0. -1.
         -5    1    1    0    0  501 -0.57777974825E+02 -0.77383523244E+01  0.22045034099E+02  0.62500000000E+02  0.47000000000E+01 0. -1.
</event>
<event>
 3    0  0.4603569E-005  0.9118800E+02  0.7546771E-02  0.1235069E+00
         25   -1    0    0    0    0  0.00000000000E+00  0.00000000000E+00  0.99999998245E-14  0.12500000000E+03  0.12500000000E+03 0.  0.
          5    1    1    0  501    0  0.14119590908E+02  0.75555443887E+01 -0.60230481499E+02  0.62500000000E+02  0.47000000000E+01 0. -1.
         -5    1    1    0    0  501 -0.14119590908E+02 -0.75555443887E+01  0.60230481499E+02  0.62500000000E+02  0.47000000000E+01 0. -1.
</event>
<event>
 3    0  0.4603569E-005  0.9118800E+02  0.7546771E-02  0.1235069E+00
         25   -1    0    0    0    0  0.00000000000E+00  0.00000000000E+00  0.99999998245E-14  0.12500000000E+03  0.12500000000E+03 0.  0.
          5    1    1    0  501    0 -0.29643276120E+02 -0.44504421159E+02 -0.32012383201E+02  0.62500000000E+02  0.47000000000E+01 0.  1.
         -5    1    1    0    0  501  0.29643276120E+02  0.44504421159E+02  0.32012383201E+02  0.62500000000E+02  0.47000000000E+01 0.  1.
</event>
<event>
 3    0  0.4603569E-005  0.9118800E+02  0.7546771E-02  0.1235069E+00
         25   -1    0    0    0    0  0.00000000000E+00  0.00000000000E+00  0.99999998245E-14  0.12500000000E+03  0.12500000000E+03 0.  0.
          5    1    1    0  501    0 -0.54281463585E+02  0.18940253172E+02 -0.24061369887E+02  0.62500000000E+02  0.47000000000E+01 0.  1.
         -5    1    1    0    0  501  0.54281463585E+02 -0.18940253172E+02  0.24061369887E+02  0.62500000000E+02  0.47000000000E+01 0.  1.
</event>
<event>
 3    0  0.4603569E-005  0.9118800E+02  0.7546771E-02  0.1235069E+00
         25   -1    0    0    0    0  0.00000000000E+00  0.00000000000E+00  0.99999998245E-14  0.12500000000E+03  0.12500000000E+03 0.  0.
          5    1    1    0  501    0  0.17528214624E+02  0.13894567813E+02  0.58170977965E+02  0.62500000000E+02  0.47000000000E+01 0.  1.
         -5    1    1    0    0  501 -0.17528214624E+02 -0.13894567813E+02 -0.58170977965E+02  0.62500000000E+02  0.47000000000E+01 0.  1.
</event>
<event>
 3    0  0.4603569E-005  0.9118800E+02  0.7546771E-02  0.1235069E+00
         25   -1    0    0    0    0  0.00000000000E+00  0.00000000000E+00  0.99999998245E-14  0.12500000000E+03  0.12500000000E+03 0.  0.
          5    1    1    0  501    0 -0.44776283000E+02 -0.82540699490E+01 -0.42557194574E+02  0.62500000000E+02  0.47000000000E+01 0. -1.
         -5    1    1    0    0  501  0.44776283000E+02  0.82540699490E+01  0.42557194574E+02  0.62500000000E+02  0.47000000000E+01 0. -1.
</event>
<event>
 3    0  0.4603569E-005  0.9118800E+02  0.7546771E-02  0.1235069E+00
         25   -1    0    0    0    0  0.00000000000E+00  0.00000000000E+00  0.99999998245E-14  0.12500000000E+03  0.12500000000E+03 0.  0.
          5    1    1    0  501    0 -0.44535025480E+02  0.18109114559E+02  0.39659191563E+02  0.62500000000E+02  0.47000000000E+01 0.  1.
         -5    1    1    0    0  501  0.44535025480E+02 -0.18109114559E+02 -0.39659191563E+02  0.62500000000E+02  0.47000000000E+01 0.  1.
</event>
<event>
 3    0  0.4603569E-005  0.9118800E+02  0.7546771E-02  0.1235069E+00
         25   -1    0    0    0    0  0.00000000000E+00  0.00000000000E+00  0.99999998245E-14  0.12500000000E+03  0.12500000000E+03 0.  0.
          5    1    1    0  501    0  0.42272918698E+02 -0.42840204134E+02  0.16182621990E+02  0.62500000000E+02  0.47000000000E+01 0.  1.
         -5    1    1    0    0  501 -0.42272918698E+02  0.42840204134E+02 -0.16182621990E+02  0.62500000000E+02  0.47000000000E+01 0.  1.
</event>
<event>
 3    0  0.4603569E-005  0.9118800E+02  0.7546771E-02  0.1235069E+00
         25   -1    0    0    0    0  0.00000000000E+00  0.00000000000E+00  0.99999998245E-14  0.12500000000E+03  0.12500000000E+03 0.  0.
          5    1    1    0  501    0  0.20664901872E+02  0.43951490734E+02 -0.39056219643E+02  0.62500000000E+02  0.47000000000E+01 0. -1.
         -5    1    1    0    0  501 -0.20664901872E+02 -0.43951490734E+02  0.39056219643E+02  0.62500000000E+02  0.47000000000E+01 0. -1.
</event>
<event>
 3    0  0.4603569E-005  0.9118800E+02  0.7546771E-02  0.1235069E+00
         25   -1    0    0    0    0  0.00000000000E+00  0.00000000000E+00  0.99999998245E-14  0.12500000000E+03  0.12500000000E+03 0.  0.
          5    1    1    0  501    0  0.54974095230E+02  0.28582724939E+02  0.67109379913E+01  0.62500000000E+02  0.47000000000E+01 0.  1.
         -5    1    1    0    0  501 -0.54974095230E+02 -0.28582724939E+02 -0.67109379913E+01  0.62500000000E+02  0.47000000000E+01 0.  1.
</event>
<event>
 3    0  0.4603569E-005  0.9118800E+02  0.7546771E-02  0.1235069E+00
         25   -1    0    0    0    0  0.00000000000E+00  0.00000000000E+00  0.99999998245E-14  0.12500000000E+03  0.12500000000E+03 0.  0.
          5    1    1    0  501    0 -0.50732963763E+01  0.62045840318E+02  0.29555647669E+01  0.62500000000E+02  0.47000000000E+01 0.  1.
         -5    1    1    0    0  501  0.50732963763E+01 -0.62045840318E+02 -0.29555647669E+01  0.62500000000E+02  0.47000000000E+01 0.  1.
</event>
<event>
 3    0  0.4603569E-005  0.9118800E+02  0.7546771E-02  0.1235069E+00
         25   -1    0    0    0    0  0.00000000000E+00  0.00000000000E+00  0.99999998245E-14  0.12500000000E+03  0.12500000000E+03 0.  0.
          5    1    1    0  501    0  0.50483662416E+02  0.35027947504E+02  0.10421263012E+02  0.62500000000E+02  0.47000000000E+01 0. -1.
         -5    1    1    0    0  501 -0.50483662416E+02 -0.35027947504E+02 -0.10421263012E+02  0.62500000000E+02  0.47000000000E+01 0. -1.
</event>
<event>
 3    0  0.4603569E-005  0.9118800E+02  0.7546771E-02  0.1235069E+00
         25   -1    0    0    0    0  0.00000000000E+00  0.00000000000E+00  0.99999998245E-14  0.12500000000E+03  0.12500000000E+03 0.  0.
          5    1    1    0  501    0 -0.12862298758E+00  0.63314706572E+01 -0.62000451091E+02  0.62500000000E+02  0.47000000000E+01 0.  1.
         -5    1    1    0    0  501  0.12862298758E+00 -0.63314706572E+01  0.62000451091E+02  0.62500000000E+02  0.47000000000E+01 0.  1.
</event>
<event>
 3    0  0.4603569E-005  0.9118800E+02  0.7546771E-02  0.1235069E+00
         25   -1    0    0    0    0  0.00000000000E+00  0.00000000000E+00  0.99999998245E-14  0.12500000000E+03  0.12500000000E+03 0.  0.
          5    1    1    0  501    0 -0.47276065372E+02 -0.40185256176E+02  0.58548124701E+01  0.62500000000E+02  0.47000000000E+01 0. -1.
         -5    1    1    0    0  501  0.47276065372E+02  0.40185256176E+02 -0.58548124701E+01  0.62500000000E+02  0.47000000000E+01 0. -1.
</event>
<event>
 3    0  0.4603569E-005  0.9118800E+02  0.7546771E-02  0.1235069E+00
         25   -1    0    0    0    0  0.00000000000E+00  0.00000000000E+00  0.99999998245E-14  0.12500000000E+03  0.12500000000E+03 0.  0.
          5    1    1    0  501    0 -0.10010647381E+01  0.62082295421E+02  0.53801918753E+01  0.62500000000E+02  0.47000000000E+01 0.  1.
         -5    1    1    0    0  501  0.10010647381E+01 -0.62082295421E+02 -0.53801918753E+01  0.62500000000E+02  0.47000000000E+01 0.  1.
</event>
<event>
 3    0  0.4603569E-005  0.9118800E+02  0.7546771E-02  0.1235069E+00
         25   -1    0    0    0    0  0.00000000000E+00  0.00000000000E+00  0.99999998245E-14  0.12500000000E+03  0.12500000000E+03 0.  0.
          5    1    1    0  501    0  0.53775702671E+02 -0.15289827114E+02 -0.27541877006E+02  0.62500000000E+02  0.47000000000E+01 0. -1.
         -5    1    1    0    0  501 -0.53775702671E+02  0.15289827114E+02  0.27541877006E+02  0.62500000000E+02  0.47000000000E+01 0. -1.
</event>
<event>
 3    0  0.4603569E-005  0.9118800E+02  0.7546771E-02  0.1235069E+00
         25   -1    0    0    0    0  0.00000000000E+00  0.00000000000E+00  0.99999998245E-14  0.12500000000E+03  0.12500000000E+03 0.  0.
          5    1    1    0  501    0 -0.58282538820E+02 -0.40982052447E+01  0.21691251288E+02  0.62500000000E+02  0.47000000000E+01 0.  1.
         -5    1    1    0    0  501  0.58282538820E+02  0.40982052447E+01 -0.21691251288E+02  0.62500000000E+02  0.47000000000E+01 0.  1.
</event>
<event>
 3    0  0.4603569E-005  0.9118800E+02  0.7546771E-02  0.1235069E+00
         25   -1    0    0    0    0  0.00000000000E+00  0.00000000000E+00  0.99999998245E-14  0.12500000000E+03  0.12500000000E+03 0.  0.
          5    1    1    0  501    0  0.43343654649E+02  0.16829100939E+01  0.44751038147E+02  0.62500000000E+02  0.47000000000E+01 0. -1.
         -5    1    1    0    0  501 -0.43343654649E+02 -0.16829100939E+01 -0.44751038147E+02  0.62500000000E+02  0.47000000000E+01 0. -1.
</event>
<event>
 3    0  0.4603569E-005  0.9118800E+02  0.7546771E-02  0.1235069E+00
         25   -1    0    0    0    0  0.00000000000E+00  0.00000000000E+00  0.99999998245E-14  0.12500000000E+03  0.12500000000E+03 0.  0.
          5    1    1    0  501    0  0.52727724242E+00 -0.60657674367E+02  0.14301346760E+02  0.62500000000E+02  0.47000000000E+01 0.  1.
         -5    1    1    0    0  501 -0.52727724242E+00  0.60657674367E+02 -0.14301346760E+02  0.62500000000E+02  0.47000000000E+01 0.  1.
</event>
<event>
 3    0  0.4603569E-005  0.9118800E+02  0.7546771E-02  0.1235069E+00
         25   -1    0    0    0    0  0.00000000000E+00  0.00000000000E+00  0.99999998245E-14  0.12500000000E+03  0.12500000000E+03 0.  0.
          5    1    1    0  501    0 -0.43414522379E+02  0.39076115863E+02  0.21734682323E+02  0.62500000000E+02  0.47000000000E+01 0. -1.
         -5    1    1    0    0  501  0.43414522379E+02 -0.39076115863E+02 -0.21734682323E+02  0.62500000000E+02  0.47000000000E+01 0. -1.
</event>
<event>
 3    0  0.4603569E-005  0.9118800E+02  0.7546771E-02  0.1235069E+00
         25   -1    0    0    0    0  0.00000000000E+00  0.00000000000E+00  0.99999998245E-14  0.12500000000E+03  0.12500000000E+03 0.  0.
          5    1    1    0  501    0  0.52519080243E+02 -0.20080784908E+02  0.26882490359E+02  0.62500000000E+02  0.47000000000E+01 0. -1.
         -5    1    1    0    0  501 -0.52519080243E+02  0.20080784908E+02 -0.26882490359E+02  0.62500000000E+02  0.47000000000E+01 0. -1.
</event>
<event>
 3    0  0.4603569E-005  0.9118800E+02  0.7546771E-02  0.1235069E+00
         25   -1    0    0    0    0  0.00000000000E+00  0.00000000000E+00  0.99999998245E-14  0.12500000000E+03  0.12500000000E+03 0.  0.
          5    1    1    0  501    0  0.48988924280E+02 -0.16516324693E+01 -0.38490484643E+02  0.62500000000E+02  0.47000000000E+01 0.  1.
         -5    1    1    0    0  501 -0.48988924280E+02  0.16516324693E+01  0.38490484643E+02  0.62500000000E+02  0.47000000000E+01 0.  1.
</event>
<event>
 3    0  0.4603569E-005  0.9118800E+02  0.7546771E-02  0.1235069E+00
         25   -1    0    0    0    0  0.00000000000E+00  0.00000000000E+00  0.99999998245E-14  0.12500000000E+03  0.12500000000E+03 0.  0.
          5    1    1    0  501    0 -0.51316214065E+01  0.52283774342E+02 -0.33529589951E+02  0.62500000000E+02  0.47000000000E+01 0.  1.
         -5    1    1    0    0  501  0.51316214065E+01 -0.52283774342E+02  0.33529589951E+02  0.62500000000E+02  0.47000000000E+01 0.  1.
</event>
<event>
 3    0  0.4603569E-005  0.9118800E+02  0.7546771E-02  0.1235069E+00
         25   -1    0    0    0    0  0.00000000000E+00  0.00000000000E+00  0.99999998245E-14  0.12500000000E+03  0.12500000000E+03 0.  0.
          5    1    1    0  501    0 -0.37394477175E+02  0.41935491607E+01  0.49681256247E+02  0.62500000000E+02  0.47000000000E+01 0. -1.
         -5    1    1    0    0  501  0.37394477175E+02 -0.41935491607E+01 -0.49681256247E+02  0.62500000000E+02  0.47000000000E+01 0. -1.
</event>
<event>
 3    0  0.4603569E-005  0.9118800E+02  0.7546771E-02  0.1235069E+00
         25   -1    0    0    0    0  0.00000000000E+00  0.00000000000E+00  0.99999998245E-14  0.12500000000E+03  0.12500000000E+03 0.  0.
          5    1    1    0  501    0 -0.24265396189E+02  0.56496709782E+02  0.10172135054E+02  0.62500000000E+02  0.47000000000E+01 0.  1.
         -5    1    1    0    0  501  0.24265396189E+02 -0.56496709782E+02 -0.10172135054E+02  0.62500000000E+02  0.47000000000E+01 0.  1.
</event>
<event>
 3    0  0.4603569E-005  0.9118800E+02  0.7546771E-02  0.1235069E+00
         25   -1    0    0    0    0  0.00000000000E+00  0.00000000000E+00  0.99999998245E-14  0.12500000000E+03  0.12500000000E+03 0.  0.
          5    1    1    0  501    0 -0.38232506400E+02  0.40350580300E+02  0.28182727403E+02  0.62500000000E+02  0.47000000000E+01 0. -1.
         -5    1    1    0    0  501  0.38232506400E+02 -0.40350580300E+02 -0.28182727403E+02  0.62500000000E+02  0.47000000000E+01 0. -1.
</event>
<event>
 3    0  0.4603569E-005  0.9118800E+02  0.7546771E-02  0.1235069E+00
         25   -1    0    0    0    0  0.00000000000E+00  0.00000000000E+00  0.99999998245E-14  0.12500000000E+03  0.12500000000E+03 0.  0.
          5    1    1    0  501    0 -0.20126522361E+02 -0.36914585454E+02  0.46004309346E+02  0.62500000000E+02  0.47000000000E+01 0. -1.
         -5    1    1    0    0  501  0.20126522361E+02  0.36914585454E+02 -0.46004309346E+02  0.62500000000E+02  0.47000000000E+01 0. -1.
</event>
<event>
 3    0  0.4603569E-005  0.9118800E+02  0.7546771E-02  0.1235069E+00
         25   -1    0    0    0    0  0.00000000000E+00  0.00000000000E+00  0.99999998245E-14  0.12500000000E+03  0.12500000000E+03 0.  0.
          5    1    1    0  501    0  0.36837229543E+02  0.42842517064E+02 -0.26300137856E+02  0.62500000000E+02  0.47000000000E+01 0. -1.
         -5    1    1    0    0  501 -0.36837229543E+02 -0.42842517064E+02  0.26300137856E+02  0.62500000000E+02  0.47000000000E+01 0. -1.
</event>
<event>
 3    0  0.4603569E-005  0.9118800E+02  0.7546771E-02  0.1235069E+00
         25   -1    0    0    0    0  0.00000000000E+00  0.00000000000E+00  0.99999998245E-14  0.12500000000E+03  0.12500000000E+03 0.  0.
          5    1    1    0  501    0  0.24095726197E+02  0.57250290590E+02 -0.50951159372E+01  0.62500000000E+02  0.47000000000E+01 0. -1.
         -5    1    1    0    0  501 -0.24095726197E+02 -0.57250290590E+02  0.50951159372E+01  0.62500000000E+02  0.47000000000E+01 0. -1.
</event>
<event>
 3    0  0.4603569E-005  0.9118800E+02  0.7546771E-02  0.1235069E+00
         25   -1    0    0    0    0  0.00000000000E+00  0.00000000000E+00  0.99999998245E-14  0.12500000000E+03  0.12500000000E+03 0.  0.
          5    1    1    0  501    0  0.24525649566E+02 -0.24953841598E+02  0.51574783595E+02  0.62500000000E+02  0.47000000000E+01 0. -1.
         -5    1    1    0    0  501 -0.24525649566E+02  0.24953841598E+02 -0.51574783595E+02  0.62500000000E+02  0.47000000000E+01 0. -1.
</event>
<event>
 3    0  0.4603569E-005  0.9118800E+02  0.7546771E-02  0.1235069E+00
         25   -1    0    0    0    0  0.00000000000E+00  0.00000000000E+00  0.99999998245E-14  0.12500000000E+03  0.12500000000E+03 0.  0.
          5    1    1    0  501    0  0.40774092649E+02  0.15925030114E+02 -0.44362447909E+02  0.62500000000E+02  0.47000000000E+01 0. -1.
         -5    1    1    0    0  501 -0.40774092649E+02 -0.15925030114E+02  0.44362447909E+02  0.62500000000E+02  0.47000000000E+01 0. -1.
</event>
<event>
 3    0  0.4603569E-005  0.9118800E+02  0.7546771E-02  0.1235069E+00
         25   -1    0    0    0    0  0.00000000000E+00  0.00000000000E+00  0.99999998245E-14  0.12500000000E+03  0.12500000000E+03 0.  0.
          5    1    1    0  501    0 -0.22904723827E+02 -0.44698432130E+01  0.57788875470E+02  0.62500000000E+02  0.47000000000E+01 0.  1.
         -5    1    1    0    0  501  0.22904723827E+02  0.44698432130E+01 -0.57788875470E+02  0.62500000000E+02  0.47000000000E+01 0.  1.
</event>
<event>
 3    0  0.4603569E-005  0.9118800E+02  0.7546771E-02  0.1235069E+00
         25   -1    0    0    0    0  0.00000000000E+00  0.00000000000E+00  0.99999998245E-14  0.12500000000E+03  0.12500000000E+03 0.  0.
          5    1    1    0  501    0  0.48650899125E+02 -0.25690625057E+02  0.29278691885E+02  0.62500000000E+02  0.47000000000E+01 0.  1.
         -5    1    1    0    0  501 -0.48650899125E+02  0.25690625057E+02 -0.29278691885E+02  0.62500000000E+02  0.47000000000E+01 0.  1.
</event>
<event>
 3    0  0.4603569E-005  0.9118800E+02  0.7546771E-02  0.1235069E+00
         25   -1    0    0    0    0  0.00000000000E+00  0.00000000000E+00  0.99999998245E-14  0.12500000000E+03  0.12500000000E+03 0.  0.
          5    1    1    0  501    0  0.26343105468E+01  0.28988743423E+02  0.55107832136E+02  0.62500000000E+02  0.47000000000E+01 0.  1.
         -5    1    1    0    0  501 -0.26343105468E+01 -0.28988743423E+02 -0.55107832136E+02  0.62500000000E+02  0.47000000000E+01 0.  1.
</event>
<event>
 3    0  0.4603569E-005  0.9118800E+02  0.7546771E-02  0.1235069E+00
         25   -1    0    0    0    0  0.00000000000E+00  0.00000000000E+00  0.99999998245E-14  0.12500000000E+03  0.12500000000E+03 0.  0.
          5    1    1    0  501    0  0.14154794908E+02  0.20110429940E+02  0.57265804707E+02  0.62500000000E+02  0.47000000000E+01 0.  1.
         -5    1    1    0    0  501 -0.14154794908E+02 -0.20110429940E+02 -0.57265804707E+02  0.62500000000E+02  0.47000000000E+01 0.  1.
</event>
<event>
 3    0  0.4603569E-005  0.9118800E+02  0.7546771E-02  0.1235069E+00
         25   -1    0    0    0    0  0.00000000000E+00  0.00000000000E+00  0.99999998245E-14  0.12500000000E+03  0.12500000000E+03 0.  0.
          5    1    1    0  501    0  0.61106317127E+02 -0.82296592315E+01  0.90802376649E+01  0.62500000000E+02  0.47000000000E+01 0.  1.
         -5    1    1    0    0  501 -0.61106317127E+02  0.82296592315E+01 -0.90802376649E+01  0.62500000000E+02  0.47000000000E+01 0.  1.
</event>
<event>
 3    0  0.4603569E-005  0.9118800E+02  0.7546771E-02  0.1235069E+00
         25   -1    0    0    0    0  0.00000000000E+00  0.00000000000E+00  0.99999998245E-14  0.12500000000E+03  0.12500000000E+03 0.  0.
          5    1    1    0  501    0  0.49005903593E+02  0.38468978892E+02 -0.16489621069E+01  0.62500000000E+02  0.47000000000E+01 0.  1.
         -5    1    1    0    0  501 -0.49005903593E+02 -0.38468978892E+02  0.16489621069E+01  0.62500000000E+02  0.47000000000E+01 0.  1.
</event>
<event>
 3    0  0.4603569E-005  0.9118800E+02  0.7546771E-02  0.1235069E+00
         25   -1    0    0    0    0  0.00000000000E+00  0.00000000000E+00  0.99999998245E-14  0.12500000000E+03  0.12500000000E+03 0.  0.
          5    1    1    0  501    0  0.35327066728E+02 -0.51189621540E+01  0.51087714598E+02  0.62500000000E+02  0.47000000000E+01 0. -1.
         -5    1    1    0    0  501 -0.35327066728E+02  0.51189621540E+01 -0.51087714598E+02  0.62500000000E+02  0.47000000000E+01 0. -1.
</event>
<event>
 3    0  0.4603569E-005  0.9118800E+02  0.7546771E-02  0.1235069E+00
         25   -1    0    0    0    0  0.00000000000E+00  0.00000000000E+00  0.99999998245E-14  0.12500000000E+03  0.12500000000E+03 0.  0.
          5    1    1    0  501    0  0.49848995777E+02  0.32972440530E+02 -0.17665100778E+02  0.62500000000E+02  0.47000000000E+01 0.  1.
         -5    1    1    0    0  501 -0.49848995777E+02 -0.32972440530E+02  0.17665100778E+02  0.62500000000E+02  0.47000000000E+01 0.  1.
</event>
<event>
 3    0  0.4603569E-005  0.9118800E+02  0.7546771E-02  0.1235069E+00
         25   -1    0    0    0    0  0.00000000000E+00  0.00000000000E+00  0.99999998245E-14  0.12500000000E+03  0.12500000000E+03 0.  0.
          5    1    1    0  501    0 -0.36090058489E+02  0.17663180591E+02 -0.47641155839E+02  0.62500000000E+02  0.47000000000E+01 0.  1.
         -5    1    1    0    0  501  0.36090058489E+02 -0.17663180591E+02  0.47641155839E+02  0.62500000000E+02  0.47000000000E+01 0.  1.
</event>
<event>
 3    0  0.4603569E-005  0.9118800E+02  0.7546771E-02  0.1235069E+00
         25   -1    0    0    0    0  0.00000000000E+00  0.00000000000E+00  0.99999998245E-14  0.12500000000E+03  0.12500000000E+03 0.  0.
          5    1    1    0  501    0  0.28212085241E+02 -0.54481906810E+02 -0.10952628758E+02  0.62500000000E+02  0.47000000000E+01 0.  1.
         -5    1    1    0    0  501 -0.28212085241E+02  0.54481906810E+02  0.10952628758E+02  0.62500000000E+02  0.47000000000E+01 0.  1.
</event>
<event>
 3    0  0.4603569E-005  0.9118800E+02  0.7546771E-02  0.1235069E+00
         25   -1    0    0    0    0  0.00000000000E+00  0.00000000000E+00  0.99999998245E-14  0.12500000000E+03  0.12500000000E+03 0.  0.
          5    1    1    0  501    0  0.60988005909E+02 -0.10994479522E+02 -0.66139666788E+01  0.62500000000E+02  0.47000000000E+01 0. -1.
         -5    1    1    0    0  501 -0.60988005909E+02  0.10994479522E+02  0.66139666788E+01  0.62500000000E+02  0.47000000000E+01 0. -1.
</event>
<event>
 3    0  0.4603569E-005  0.9118800E+02  0.7546771E-02  0.1235069E+00
         25   -1    0    0    0    0  0.00000000000E+00  0.00000000000E+00  0.99999998245E-14  0.12500000000E+03  0.12500000000E+03 0.  0.
          5    1    1    0  501    0  0.12411060204E+01 -0.57819755931E+02  0.23227041997E+02  0.62500000000E+02  0.47000000000E+01 0.  1.
         -5    1    1    0    0  501 -0.12411060204E+01  0.57819755931E+02 -0.23227041997E+02  0.62500000000E+02  0.47000000000E+01 0.  1.
</event>
<event>
 3    0  0.4603569E-005  0.9118800E+02  0.7546771E-02  0.1235069E+00
         25   -1    0    0    0    0  0.00000000000E+00  0.00000000000E+00  0.99999998245E-14  0.12500000000E+03  0.12500000000E+03 0.  0.
          5    1    1    0  501    0  0.93298007097E+01  0.61411484571E+02  0.50738921426E+01  0.62500000000E+02  0.47000000000E+01 0. -1.
         -5    1    1    0    0  501 -0.93298007097E+01 -0.61411484571E+02 -0.50738921426E+01  0.62500000000E+02  0.47000000000E+01 0. -1.
</event>
<event>
 3    0  0.4603569E-005  0.9118800E+02  0.7546771E-02  0.1235069E+00
         25   -1    0    0    0    0  0.00000000000E+00  0.00000000000E+00  0.99999998245E-14  0.12500000000E+03  0.12500000000E+03 0.  0.
          5    1    1    0  501    0  0.29991574740E+02  0.40040621465E+02  0.37167379209E+02  0.62500000000E+02  0.47000000000E+01 0.  1.
         -5    1    1    0    0  501 -0.29991574740E+02 -0.40040621465E+02 -0.37167379209E+02  0.62500000000E+02  0.47000000000E+01 0.  1.
</event>
<event>
 3    0  0.4603569E-005  0.9118800E+02  0.7546771E-02  0.1235069E+00
         25   -1    0    0    0    0  0.00000000000E+00  0.00000000000E+00  0.99999998245E-14  0.12500000000E+03  0.12500000000E+03 0.  0.
          5    1    1    0  501    0  0.21288414888E+02 -0.42687547475E+02 -0.40109059852E+02  0.62500000000E+02  0.47000000000E+01 0. -1.
         -5    1    1    0    0  501 -0.21288414888E+02  0.42687547475E+02  0.40109059852E+02  0.62500000000E+02  0.47000000000E+01 0. -1.
</event>
<event>
 3    0  0.4603569E-005  0.9118800E+02  0.7546771E-02  0.1235069E+00
         25   -1    0    0    0    0  0.00000000000E+00  0.00000000000E+00  0.99999998245E-14  0.12500000000E+03  0.12500000000E+03 0.  0.
          5    1    1    0  501    0 -0.24499135597E+02  0.36591942873E+02 -0.44101950883E+02  0.62500000000E+02  0.47000000000E+01 0. -1.
         -5    1    1    0    0  501  0.24499135597E+02 -0.36591942873E+02  0.44101950883E+02  0.62500000000E+02  0.47000000000E+01 0. -1.
</event>
<event>
 3    0  0.4603569E-005  0.9118800E+02  0.7546771E-02  0.1235069E+00
         25   -1    0    0    0    0  0.00000000000E+00  0.00000000000E+00  0.99999998245E-14  0.12500000000E+03  0.12500000000E+03 0.  0.
          5    1    1    0  501    0  0.31427463602E+02  0.50224303568E+02  0.19338920928E+02  0.62500000000E+02  0.47000000000E+01 0. -1.
         -5    1    1    0    0  501 -0.31427463602E+02 -0.50224303568E+02 -0.19338920928E+02  0.62500000000E+02  0.47000000000E+01 0. -1.
</event>
<event>
 3    0  0.4603569E-005  0.9118800E+02  0.7546771E-02  0.1235069E+00
         25   -1    0    0    0    0  0.00000000000E+00  0.00000000000E+00  0.99999998245E-14  0.12500000000E+03  0.12500000000E+03 0.  0.
          5    1    1    0  501    0 -0.35528644422E+02 -0.43134182801E+02 -0.27591986148E+02  0.62500000000E+02  0.47000000000E+01 0.  1.
         -5    1    1    0    0  501  0.35528644422E+02  0.43134182801E+02  0.27591986148E+02  0.62500000000E+02  0.47000000000E+01 0.  1.
</event>
<event>
 3    0  0.4603569E-005  0.9118800E+02  0.7546771E-02  0.1235069E+00
         25   -1    0    0    0    0  0.00000000000E+00  0.00000000000E+00  0.99999998245E-14  0.12500000000E+03  0.12500000000E+03 0.  0.
          5    1    1    0  501    0  0.30886461147E+02  0.74575839785E+01  0.53615025497E+02  0.62500000000E+02  0.47000000000E+01 0. -1.
         -5    1    1    0    0  501 -0.30886461147E+02 -0.74575839785E+01 -0.53615025497E+02  0.62500000000E+02  0.47000000000E+01 0. -1.
</event>
<event>
 3    0  0.4603569E-005  0.9118800E+02  0.7546771E-02  0.1235069E+00
         25   -1    0    0    0    0  0.00000000000E+00  0.00000000000E+00  0.99999998245E-14  0.12500000000E+03  0.12500000000E+03 0.  0.
          5    1    1    0  501    0  0.22248278133E+00  0.62319209066E+02 -0.65320961611E+00  0.62500000000E+02  0.47000000000E+01 0. -1.
         -5    1    1    0    0  501 -0.22248278133E+00 -0.62319209066E+02  0.65320961611E+00  0.62500000000E+02  0.47000000000E+01 0. -1.
</event>
<event>
 3    0  0.4603569E-005  0.9118800E+02  0.7546771E-02  0.1235069E+00
         25   -1    0    0    0    0  0.00000000000E+00  0.00000000000E+00  0.99999998245E-14  0.12500000000E+03  0.12500000000E+03 0.  0.
          5    1    1    0  501    0  0.62212352672E+02 -0.36660743817E+01 -0.58572487016E+00  0.62500000000E+02  0.47000000000E+01 0. -1.
         -5    1    1    0    0  501 -0.62212352672E+02  0.36660743817E+01  0.58572487016E+00  0.62500000000E+02  0.47000000000E+01 0. -1.
</event>
<event>
 3    0  0.4603569E-005  0.9118800E+02  0.7546771E-02  0.1235069E+00
         25   -1    0    0    0    0  0.00000000000E+00  0.00000000000E+00  0.99999998245E-14  0.12500000000E+03  0.12500000000E+03 0.  0.
          5    1    1    0  501    0  0.56639501287E+02 -0.13613380309E+02  0.22154068938E+02  0.62500000000E+02  0.47000000000E+01 0. -1.
         -5    1    1    0    0  501 -0.56639501287E+02  0.13613380309E+02 -0.22154068938E+02  0.62500000000E+02  0.47000000000E+01 0. -1.
</event>
<event>
 3    0  0.4603569E-005  0.9118800E+02  0.7546771E-02  0.1235069E+00
         25   -1    0    0    0    0  0.00000000000E+00  0.00000000000E+00  0.99999998245E-14  0.12500000000E+03  0.12500000000E+03 0.  0.
          5    1    1    0  501    0  0.43963220247E+02  0.16285481100E+02 -0.41063102305E+02  0.62500000000E+02  0.47000000000E+01 0. -1.
         -5    1    1    0    0  501 -0.43963220247E+02 -0.16285481100E+02  0.41063102305E+02  0.62500000000E+02  0.47000000000E+01 0. -1.
</event>
<event>
 3    0  0.4603569E-005  0.9118800E+02  0.7546771E-02  0.1235069E+00
         25   -1    0    0    0    0  0.00000000000E+00  0.00000000000E+00  0.99999998245E-14  0.12500000000E+03  0.12500000000E+03 0.  0.
          5    1    1    0  501    0 -0.60035553522E+02 -0.12892848316E+02 -0.10661462169E+02  0.62500000000E+02  0.47000000000E+01 0.  1.
         -5    1    1    0    0  501  0.60035553522E+02  0.12892848316E+02  0.10661462169E+02  0.62500000000E+02  0.47000000000E+01 0.  1.
</event>
<event>
 3    0  0.4603569E-005  0.9118800E+02  0.7546771E-02  0.1235069E+00
         25   -1    0    0    0    0  0.00000000000E+00  0.00000000000E+00  0.99999998245E-14  0.12500000000E+03  0.12500000000E+03 0.  0.
          5    1    1    0  501    0 -0.47581078831E+02  0.39149168944E+02 -0.93564687913E+01  0.62500000000E+02  0.47000000000E+01 0. -1.
         -5    1    1    0    0  501  0.47581078831E+02 -0.39149168944E+02  0.93564687913E+01  0.62500000000E+02  0.47000000000E+01 0. -1.
</event>
<event>
 3    0  0.4603569E-005  0.9118800E+02  0.7546771E-02  0.1235069E+00
         25   -1    0    0    0    0  0.00000000000E+00  0.00000000000E+00  0.99999998245E-14  0.12500000000E+03  0.12500000000E+03 0.  0.
          5    1    1    0  501    0 -0.89698908427E+01 -0.58202485650E+02  0.20400287312E+02  0.62500000000E+02  0.47000000000E+01 0.  1.
         -5    1    1    0    0  501  0.89698908427E+01  0.58202485650E+02 -0.20400287312E+02  0.62500000000E+02  0.47000000000E+01 0.  1.
</event>
<event>
 3    0  0.4603569E-005  0.9118800E+02  0.7546771E-02  0.1235069E+00
         25   -1    0    0    0    0  0.00000000000E+00  0.00000000000E+00  0.99999998245E-14  0.12500000000E+03  0.12500000000E+03 0.  0.
          5    1    1    0  501    0 -0.56865912171E+02 -0.24460603705E+02  0.72185108856E+01  0.62500000000E+02  0.47000000000E+01 0. -1.
         -5    1    1    0    0  501  0.56865912171E+02  0.24460603705E+02 -0.72185108856E+01  0.62500000000E+02  0.47000000000E+01 0. -1.
</event>
<event>
 3    0  0.4603569E-005  0.9118800E+02  0.7546771E-02  0.1235069E+00
         25   -1    0    0    0    0  0.00000000000E+00  0.00000000000E+00  0.99999998245E-14  0.12500000000E+03  0.12500000000E+03 0.  0.
          5    1    1    0  501    0 -0.60876321857E+02  0.96892125553E+01  0.91843670034E+01  0.62500000000E+02  0.47000000000E+01 0. -1.
         -5    1    1    0    0  501  0.60876321857E+02 -0.96892125553E+01 -0.91843670034E+01  0.62500000000E+02  0.47000000000E+01 0. -1.
</event>
<event>
 3    0  0.4603569E-005  0.9118800E+02  0.7546771E-02  0.1235069E+00
         25   -1    0    0    0    0  0.00000000000E+00  0.00000000000E+00  0.99999998245E-14  0.12500000000E+03  0.12500000000E+03 0.  0.
          5    1    1    0  501    0  0.76945940594E+01  0.59369986624E+02  0.17325065960E+02  0.62500000000E+02  0.47000000000E+01 0.  1.
         -5    1    1    0    0  501 -0.76945940594E+01 -0.59369986624E+02 -0.17325065960E+02  0.62500000000E+02  0.47000000000E+01 0.  1.
</event>
<event>
 3    0  0.4603569E-005  0.9118800E+02  0.7546771E-02  0.1235069E+00
         25   -1    0    0    0    0  0.00000000000E+00  0.00000000000E+00  0.99999998245E-14  0.12500000000E+03  0.12500000000E+03 0.  0.
          5    1    1    0  501    0  0.52350407722E+02  0.33113783515E+02  0.68609148558E+01  0.62500000000E+02  0.47000000000E+01 0. -1.
         -5    1    1    0    0  501 -0.52350407722E+02 -0.33113783515E+02 -0.68609148558E+01  0.62500000000E+02  0.47000000000E+01 0. -1.
</event>
<event>
 3    0  0.4603569E-005  0.9118800E+02  0.7546771E-02  0.1235069E+00
         25   -1    0    0    0    0  0.00000000000E+00  0.00000000000E+00  0.99999998245E-14  0.12500000000E+03  0.12500000000E+03 0.  0.
          5    1    1    0  501    0  0.48927952576E+02  0.12990420941E+02  0.36351952087E+02  0.62500000000E+02  0.47000000000E+01 0.  1.
         -5    1    1    0    0  501 -0.48927952576E+02 -0.12990420941E+02 -0.36351952087E+02  0.62500000000E+02  0.47000000000E+01 0.  1.
</event>
<event>
 3    0  0.4603569E-005  0.9118800E+02  0.7546771E-02  0.1235069E+00
         25   -1    0    0    0    0  0.00000000000E+00  0.00000000000E+00  0.99999998245E-14  0.12500000000E+03  0.12500000000E+03 0.  0.
          5    1    1    0  501    0 -0.30941714713E+01  0.13604289505E+02 -0.60741331974E+02  0.62500000000E+02  0.47000000000E+01 0.  1.
         -5    1    1    0    0  501  0.30941714713E+01 -0.13604289505E+02  0.60741331974E+02  0.62500000000E+02  0.47000000000E+01 0.  1.
</event>
<event>
 3    0  0.4603569E-005  0.9118800E+02  0.7546771E-02  0.1235069E+00
         25   -1    0    0    0    0  0.00000000000E+00  0.00000000000E+00  0.99999998245E-14  0.12500000000E+03  0.12500000000E+03 0.  0.
          5    1    1    0  501    0  0.15455502985E+02 -0.61640063718E+01 -0.60060739697E+02  0.62500000000E+02  0.47000000000E+01 0. -1.
         -5    1    1    0    0  501 -0.15455502985E+02  0.61640063718E+01  0.60060739697E+02  0.62500000000E+02  0.47000000000E+01 0. -1.
</event>
<event>
 3    0  0.4603569E-005  0.9118800E+02  0.7546771E-02  0.1235069E+00
         25   -1    0    0    0    0  0.00000000000E+00  0.00000000000E+00  0.99999998245E-14  0.12500000000E+03  0.12500000000E+03 0.  0.
          5    1    1    0  501    0 -0.43619262049E+02 -0.30704344307E+02 -0.32229849812E+02  0.62500000000E+02  0.47000000000E+01 0.  1.
         -5    1    1    0    0  501  0.43619262049E+02  0.30704344307E+02  0.32229849812E+02  0.62500000000E+02  0.47000000000E+01 0.  1.
</event>
<event>
 3    0  0.4603569E-005  0.9118800E+02  0.7546771E-02  0.1235069E+00
         25   -1    0    0    0    0  0.00000000000E+00  0.00000000000E+00  0.99999998245E-14  0.12500000000E+03  0.12500000000E+03 0.  0.
          5    1    1    0  501    0 -0.47975271638E+02  0.20394284311E+02  0.34155621480E+02  0.62500000000E+02  0.47000000000E+01 0. -1.
         -5    1    1    0    0  501  0.47975271638E+02 -0.20394284311E+02 -0.34155621480E+02  0.62500000000E+02  0.47000000000E+01 0. -1.
</event>
<event>
 3    0  0.4603569E-005  0.9118800E+02  0.7546771E-02  0.1235069E+00
         25   -1    0    0    0    0  0.00000000000E+00  0.00000000000E+00  0.99999998245E-14  0.12500000000E+03  0.12500000000E+03 0.  0.
          5    1    1    0  501    0 -0.11481890954E+01 -0.61535303513E+02 -0.98106107525E+01  0.62500000000E+02  0.47000000000E+01 0.  1.
         -5    1    1    0    0  501  0.11481890954E+01  0.61535303513E+02  0.98106107525E+01  0.62500000000E+02  0.47000000000E+01 0.  1.
</event>
<event>
 3    0  0.4603569E-005  0.9118800E+02  0.7546771E-02  0.1235069E+00
         25   -1    0    0    0    0  0.00000000000E+00  0.00000000000E+00  0.99999998245E-14  0.12500000000E+03  0.12500000000E+03 0.  0.
          5    1    1    0  501    0 -0.53995369817E+02  0.31116311483E+02 -0.65969539442E+00  0.62500000000E+02  0.47000000000E+01 0.  1.
         -5    1    1    0    0  501  0.53995369817E+02 -0.31116311483E+02  0.65969539442E+00  0.62500000000E+02  0.47000000000E+01 0.  1.
</event>
<event>
 3    0  0.4603569E-005  0.9118800E+02  0.7546771E-02  0.1235069E+00
         25   -1    0    0    0    0  0.00000000000E+00  0.00000000000E+00  0.99999998245E-14  0.12500000000E+03  0.12500000000E+03 0.  0.
          5    1    1    0  501    0  0.57170249832E+02  0.78958722557E+01 -0.23523982136E+02  0.62500000000E+02  0.47000000000E+01 0.  1.
         -5    1    1    0    0  501 -0.57170249832E+02 -0.78958722557E+01  0.23523982136E+02  0.62500000000E+02  0.47000000000E+01 0.  1.
</event>
<event>
 3    0  0.4603569E-005  0.9118800E+02  0.7546771E-02  0.1235069E+00
         25   -1    0    0    0    0  0.00000000000E+00  0.00000000000E+00  0.99999998245E-14  0.12500000000E+03  0.12500000000E+03 0.  0.
          5    1    1    0  501    0 -0.50085759638E+02 -0.24108621599E+02  0.28184233999E+02  0.62500000000E+02  0.47000000000E+01 0.  1.
         -5    1    1    0    0  501  0.50085759638E+02  0.24108621599E+02 -0.28184233999E+02  0.62500000000E+02  0.47000000000E+01 0.  1.
</event>
<event>
 3    0  0.4603569E-005  0.9118800E+02  0.7546771E-02  0.1235069E+00
         25   -1    0    0    0    0  0.00000000000E+00  0.00000000000E+00  0.99999998245E-14  0.12500000000E+03  0.12500000000E+03 0.  0.
          5    1    1    0  501    0 -0.52352873463E+02  0.10820067621E+02  0.32035336378E+02  0.62500000000E+02  0.47000000000E+01 0.  1.
         -5    1    1    0    0  501  0.52352873463E+02 -0.10820067621E+02 -0.32035336378E+02  0.62500000000E+02  0.47000000000E+01 0.  1.
</event>
<event>
 3    0  0.4603569E-005  0.9118800E+02  0.7546771E-02  0.1235069E+00
         25   -1    0    0    0    0  0.00000000000E+00  0.00000000000E+00  0.99999998245E-14  0.12500000000E+03  0.12500000000E+03 0.  0.
          5    1    1    0  501    0 -0.23082849844E+02  0.36601654121E+02  0.44851543549E+02  0.62500000000E+02  0.47000000000E+01 0.  1.
         -5    1    1    0    0  501  0.23082849844E+02 -0.36601654121E+02 -0.44851543549E+02  0.62500000000E+02  0.47000000000E+01 0.  1.
</event>
<event>
 3    0  0.4603569E-005  0.9118800E+02  0.7546771E-02  0.1235069E+00
         25   -1    0    0    0    0  0.00000000000E+00  0.00000000000E+00  0.99999998245E-14  0.12500000000E+03  0.12500000000E+03 0.  0.
          5    1    1    0  501    0 -0.50625552697E+02 -0.80341603348E+00 -0.36339619382E+02  0.62500000000E+02  0.47000000000E+01 0.  1.
         -5    1    1    0    0  501  0.50625552697E+02  0.80341603348E+00  0.36339619382E+02  0.62500000000E+02  0.47000000000E+01 0.  1.
</event>
<event>
 3    0  0.4603569E-005  0.9118800E+02  0.7546771E-02  0.1235069E+00
         25   -1    0    0    0    0  0.00000000000E+00  0.00000000000E+00  0.99999998245E-14  0.12500000000E+03  0.12500000000E+03 0.  0.
          5    1    1    0  501    0 -0.32472352503E+01  0.18655196245E+02 -0.59376755690E+02  0.62500000000E+02  0.47000000000E+01 0.  1.
         -5    1    1    0    0  501  0.32472352503E+01 -0.18655196245E+02  0.59376755690E+02  0.62500000000E+02  0.47000000000E+01 0.  1.
</event>
<event>
 3    0  0.4603569E-005  0.9118800E+02  0.7546771E-02  0.1235069E+00
         25   -1    0    0    0    0  0.00000000000E+00  0.00000000000E+00  0.99999998245E-14  0.12500000000E+03  0.12500000000E+03 0.  0.
          5    1    1    0  501    0  0.13233030604E+02 -0.53687828972E+02 -0.28751763795E+02  0.62500000000E+02  0.47000000000E+01 0. -1.
         -5    1    1    0    0  501 -0.13233030604E+02  0.53687828972E+02  0.28751763795E+02  0.62500000000E+02  0.47000000000E+01 0. -1.
</event>
<event>
 3    0  0.4603569E-005  0.9118800E+02  0.7546771E-02  0.1235069E+00
         25   -1    0    0    0    0  0.00000000000E+00  0.00000000000E+00  0.99999998245E-14  0.12500000000E+03  0.12500000000E+03 0.  0.
          5    1    1    0  501    0  0.44375335226E+01 -0.62159841535E+02 -0.78892118791E+00  0.62500000000E+02  0.47000000000E+01 0.  1.
         -5    1    1    0    0  501 -0.44375335226E+01  0.62159841535E+02  0.78892118791E+00  0.62500000000E+02  0.47000000000E+01 0.  1.
</event>
<event>
 3    0  0.4603569E-005  0.9118800E+02  0.7546771E-02  0.1235069E+00
         25   -1    0    0    0    0  0.00000000000E+00  0.00000000000E+00  0.99999998245E-14  0.12500000000E+03  0.12500000000E+03 0.  0.
          5    1    1    0  501    0 -0.39072060521E+02 -0.48395862318E+02 -0.39210454228E+01  0.62500000000E+02  0.47000000000E+01 0. -1.
         -5    1    1    0    0  501  0.39072060521E+02  0.48395862318E+02  0.39210454228E+01  0.62500000000E+02  0.47000000000E+01 0. -1.
</event>
<event>
 3    0  0.4603569E-005  0.9118800E+02  0.7546771E-02  0.1235069E+00
         25   -1    0    0    0    0  0.00000000000E+00  0.00000000000E+00  0.99999998245E-14  0.12500000000E+03  0.12500000000E+03 0.  0.
          5    1    1    0  501    0  0.96372466945E+01 -0.41090009407E+02  0.45857328783E+02  0.62500000000E+02  0.47000000000E+01 0. -1.
         -5    1    1    0    0  501 -0.96372466945E+01  0.41090009407E+02 -0.45857328783E+02  0.62500000000E+02  0.47000000000E+01 0. -1.
</event>
<event>
 3    0  0.4603569E-005  0.9118800E+02  0.7546771E-02  0.1235069E+00
         25   -1    0    0    0    0  0.00000000000E+00  0.00000000000E+00  0.99999998245E-14  0.12500000000E+03  0.12500000000E+03 0.  0.
          5    1    1    0  501    0  0.26408824338E+02 -0.14204662786E+02  0.54634801658E+02  0.62500000000E+02  0.47000000000E+01 0. -1.
         -5    1    1    0    0  501 -0.26408824338E+02  0.14204662786E+02 -0.54634801658E+02  0.62500000000E+02  0.47000000000E+01 0. -1.
</event>
<event>
 3    0  0.4603569E-005  0.9118800E+02  0.7546771E-02  0.1235069E+00
         25   -1    0    0    0    0  0.00000000000E+00  0.00000000000E+00  0.99999998245E-14  0.12500000000E+03  0.12500000000E+03 0.  0.
          5    1    1    0  501    0 -0.60317287109E+00  0.52179428792E+00  0.62317926098E+02  0.62500000000E+02  0.47000000000E+01 0. -1.
         -5    1    1    0    0  501  0.60317287109E+00 -0.52179428792E+00 -0.62317926098E+02  0.62500000000E+02  0.47000000000E+01 0. -1.
</event>
<event>
 3    0  0.4603569E-005  0.9118800E+02  0.7546771E-02  0.1235069E+00
         25   -1    0    0    0    0  0.00000000000E+00  0.00000000000E+00  0.99999998245E-14  0.12500000000E+03  0.12500000000E+03 0.  0.
          5    1    1    0  501    0 -0.24679006014E+02 -0.26413966169E+02  0.50768189385E+02  0.62500000000E+02  0.47000000000E+01 0.  1.
         -5    1    1    0    0  501  0.24679006014E+02  0.26413966169E+02 -0.50768189385E+02  0.62500000000E+02  0.47000000000E+01 0.  1.
</event>
<event>
 3    0  0.4603569E-005  0.9118800E+02  0.7546771E-02  0.1235069E+00
         25   -1    0    0    0    0  0.00000000000E+00  0.00000000000E+00  0.99999998245E-14  0.12500000000E+03  0.12500000000E+03 0.  0.
          5    1    1    0  501    0 -0.12249443723E+01 -0.57476998398E+02 -0.24063544344E+02  0.62500000000E+02  0.47000000000E+01 0. -1.
         -5    1    1    0    0  501  0.12249443723E+01  0.57476998398E+02  0.24063544344E+02  0.62500000000E+02  0.47000000000E+01 0. -1.
</event>
<event>
 3    0  0.4603569E-005  0.9118800E+02  0.7546771E-02  0.1235069E+00
         25   -1    0    0    0    0  0.00000000000E+00  0.00000000000E+00  0.99999998245E-14  0.12500000000E+03  0.12500000000E+03 0.  0.
          5    1    1    0  501    0  0.11312414468E+02  0.53198755385E+02 -0.30431590566E+02  0.62500000000E+02  0.47000000000E+01 0.  1.
         -5    1    1    0    0  501 -0.11312414468E+02 -0.53198755385E+02  0.30431590566E+02  0.62500000000E+02  0.47000000000E+01 0.  1.
</event>
<event>
 3    0  0.4603569E-005  0.9118800E+02  0.7546771E-02  0.1235069E+00
         25   -1    0    0    0    0  0.00000000000E+00  0.00000000000E+00  0.99999998245E-14  0.12500000000E+03  0.12500000000E+03 0.  0.
          5    1    1    0  501    0 -0.46511543195E+02  0.22102911995E+02  0.35104097069E+02  0.62500000000E+02  0.47000000000E+01 0.  1.
         -5    1    1    0    0  501  0.46511543195E+02 -0.22102911995E+02 -0.35104097069E+02  0.62500000000E+02  0.47000000000E+01 0.  1.
</event>
<event>
 3    0  0.4603569E-005  0.9118800E+02  0.7546771E-02  0.1235069E+00
         25   -1    0    0    0    0  0.00000000000E+00  0.00000000000E+00  0.99999998245E-14  0.12500000000E+03  0.12500000000E+03 0.  0.
          5    1    1    0  501    0 -0.61085272741E+02  0.12160343305E+02 -0.22080545371E+01  0.62500000000E+02  0.47000000000E+01 0. -1.
         -5    1    1    0    0  501  0.61085272741E+02 -0.12160343305E+02  0.22080545371E+01  0.62500000000E+02  0.47000000000E+01 0. -1.
</event>
<event>
 3    0  0.4603569E-005  0.9118800E+02  0.7546771E-02  0.1235069E+00
         25   -1    0    0    0    0  0.00000000000E+00  0.00000000000E+00  0.99999998245E-14  0.12500000000E+03  0.12500000000E+03 0.  0.
          5    1    1    0  501    0  0.21673198855E+02  0.57778310725E+02  0.87234890515E+01  0.62500000000E+02  0.47000000000E+01 0.  1.
         -5    1    1    0    0  501 -0.21673198855E+02 -0.57778310725E+02 -0.87234890515E+01  0.62500000000E+02  0.47000000000E+01 0.  1.
</event>
<event>
 3    0  0.4603569E-005  0.9118800E+02  0.7546771E-02  0.1235069E+00
         25   -1    0    0    0    0  0.00000000000E+00  0.00000000000E+00  0.99999998245E-14  0.12500000000E+03  0.12500000000E+03 0.  0.
          5    1    1    0  501    0 -0.59358314081E+02 -0.13742912697E+02  0.13110411895E+02  0.62500000000E+02  0.47000000000E+01 0. -1.
         -5    1    1    0    0  501  0.59358314081E+02  0.13742912697E+02 -0.13110411895E+02  0.62500000000E+02  0.47000000000E+01 0. -1.
</event>
<event>
 3    0  0.4603569E-005  0.9118800E+02  0.7546771E-02  0.1235069E+00
         25   -1    0    0    0    0  0.00000000000E+00  0.00000000000E+00  0.99999998245E-14  0.12500000000E+03  0.12500000000E+03 0.  0.
          5    1    1    0  501    0  0.38773113051E+02  0.44235412105E+02  0.20592086350E+02  0.62500000000E+02  0.47000000000E+01 0.  1.
         -5    1    1    0    0  501 -0.38773113051E+02 -0.44235412105E+02 -0.20592086350E+02  0.62500000000E+02  0.47000000000E+01 0.  1.
</event>
<event>
 3    0  0.4603569E-005  0.9118800E+02  0.7546771E-02  0.1235069E+00
         25   -1    0    0    0    0  0.00000000000E+00  0.00000000000E+00  0.99999998245E-14  0.12500000000E+03  0.12500000000E+03 0.  0.
          5    1    1    0  501    0  0.13752336521E+02 -0.19587360535E+02  0.57544491895E+02  0.62500000000E+02  0.47000000000E+01 0.  1.
         -5    1    1    0    0  501 -0.13752336521E+02  0.19587360535E+02 -0.57544491895E+02  0.62500000000E+02  0.47000000000E+01 0.  1.
</event>
<event>
 3    0  0.4603569E-005  0.9118800E+02  0.7546771E-02  0.1235069E+00
         25   -1    0    0    0    0  0.00000000000E+00  0.00000000000E+00  0.99999998245E-14  0.12500000000E+03  0.12500000000E+03 0.  0.
          5    1    1    0  501    0 -0.42560377073E+02 -0.36544371421E+02 -0.27152959707E+02  0.62500000000E+02  0.47000000000E+01 0.  1.
         -5    1    1    0    0  501  0.42560377073E+02  0.36544371421E+02  0.27152959707E+02  0.62500000000E+02  0.47000000000E+01 0.  1.
</event>
<event>
 3    0  0.4603569E-005  0.9118800E+02  0.7546771E-02  0.1235069E+00
         25   -1    0    0    0    0  0.00000000000E+00  0.00000000000E+00  0.99999998245E-14  0.12500000000E+03  0.12500000000E+03 0.  0.
          5    1    1    0  501    0  0.48947204179E+02 -0.10650936483E+02 -0.37079492379E+02  0.62500000000E+02  0.47000000000E+01 0.  1.
         -5    1    1    0    0  501 -0.48947204179E+02  0.10650936483E+02  0.37079492379E+02  0.62500000000E+02  0.47000000000E+01 0.  1.
</event>
<event>
 3    0  0.4603569E-005  0.9118800E+02  0.7546771E-02  0.1235069E+00
         25   -1    0    0    0    0  0.00000000000E+00  0.00000000000E+00  0.99999998245E-14  0.12500000000E+03  0.12500000000E+03 0.  0.
          5    1    1    0  501    0 -0.30073702112E+01 -0.60559005610E+02  0.14412583529E+02  0.62500000000E+02  0.47000000000E+01 0.  1.
         -5    1    1    0    0  501  0.30073702112E+01  0.60559005610E+02 -0.14412583529E+02  0.62500000000E+02  0.47000000000E+01 0.  1.
</event>
<event>
 3    0  0.4603569E-005  0.9118800E+02  0.7546771E-02  0.1235069E+00
         25   -1    0    0    0    0  0.00000000000E+00  0.00000000000E+00  0.99999998245E-14  0.12500000000E+03  0.12500000000E+03 0.  0.
          5    1    1    0  501    0 -0.60863509922E+02 -0.10249508250E+02 -0.86452727331E+01  0.62500000000E+02  0.47000000000E+01 0. -1.
         -5    1    1    0    0  501  0.60863509922E+02  0.10249508250E+02  0.86452727331E+01  0.62500000000E+02  0.47000000000E+01 0. -1.
</event>
<event>
 3    0  0.4603569E-005  0.9118800E+02  0.7546771E-02  0.1235069E+00
         25   -1    0    0    0    0  0.00000000000E+00  0.00000000000E+00  0.99999998245E-14  0.12500000000E+03  0.12500000000E+03 0.  0.
          5    1    1    0  501    0  0.70349673520E+01 -0.61394687770E+02  0.80846489111E+01  0.62500000000E+02  0.47000000000E+01 0.  1.
         -5    1    1    0    0  501 -0.70349673520E+01  0.61394687770E+02 -0.80846489111E+01  0.62500000000E+02  0.47000000000E+01 0.  1.
</event>
<event>
 3    0  0.4603569E-005  0.9118800E+02  0.7546771E-02  0.1235069E+00
         25   -1    0    0    0    0  0.00000000000E+00  0.00000000000E+00  0.99999998245E-14  0.12500000000E+03  0.12500000000E+03 0.  0.
          5    1    1    0  501    0  0.13884662928E+02 -0.39800249527E+02 -0.45905514625E+02  0.62500000000E+02  0.47000000000E+01 0. -1.
         -5    1    1    0    0  501 -0.13884662928E+02  0.39800249527E+02  0.45905514625E+02  0.62500000000E+02  0.47000000000E+01 0. -1.
</event>
<event>
 3    0  0.4603569E-005  0.9118800E+02  0.7546771E-02  0.1235069E+00
         25   -1    0    0    0    0  0.00000000000E+00  0.00000000000E+00  0.99999998245E-14  0.12500000000E+03  0.12500000000E+03 0.  0.
          5    1    1    0  501    0 -0.54613073668E+02 -0.30020562195E+02  0.58140355088E+00  0.62500000000E+02  0.47000000000E+01 0. -1.
         -5    1    1    0    0  501  0.54613073668E+02  0.30020562195E+02 -0.58140355088E+00  0.62500000000E+02  0.47000000000E+01 0. -1.
</event>
<event>
 3    0  0.4603569E-005  0.9118800E+02  0.7546771E-02  0.1235069E+00
         25   -1    0    0    0    0  0.00000000000E+00  0.00000000000E+00  0.99999998245E-14  0.12500000000E+03  0.12500000000E+03 0.  0.
          5    1    1    0  501    0  0.11456078458E+02 -0.26336422597E+02 -0.55311039686E+02  0.62500000000E+02  0.47000000000E+01 0. -1.
         -5    1    1    0    0  501 -0.11456078458E+02  0.26336422597E+02  0.55311039686E+02  0.62500000000E+02  0.47000000000E+01 0. -1.
</event>
<event>
 3    0  0.4603569E-005  0.9118800E+02  0.7546771E-02  0.1235069E+00
         25   -1    0    0    0    0  0.00000000000E+00  0.00000000000E+00  0.99999998245E-14  0.12500000000E+03  0.12500000000E+03 0.  0.
          5    1    1    0  501    0  0.60117562648E+01  0.60772418731E+02 -0.12439128111E+02  0.62500000000E+02  0.47000000000E+01 0.  1.
         -5    1    1    0    0  501 -0.60117562648E+01 -0.60772418731E+02  0.12439128111E+02  0.62500000000E+02  0.47000000000E+01 0.  1.
</event>
<event>
 3    0  0.4603569E-005  0.9118800E+02  0.7546771E-02  0.1235069E+00
         25   -1    0    0    0    0  0.00000000000E+00  0.00000000000E+00  0.99999998245E-14  0.12500000000E+03  0.12500000000E+03 0.  0.
          5    1    1    0  501    0  0.43925102193E+02  0.76047021475E+01  0.43553575084E+02  0.62500000000E+02  0.47000000000E+01 0. -1.
         -5    1    1    0    0  501 -0.43925102193E+02 -0.76047021475E+01 -0.43553575084E+02  0.62500000000E+02  0.47000000000E+01 0. -1.
</event>
<event>
 3    0  0.4603569E-005  0.9118800E+02  0.7546771E-02  0.1235069E+00
         25   -1    0    0    0    0  0.00000000000E+00  0.00000000000E+00  0.99999998245E-14  0.12500000000E+03  0.12500000000E+03 0.  0.
          5    1    1    0  501    0 -0.45741388532E+02  0.36024884724E+02  0.22228204061E+02  0.62500000000E+02  0.47000000000E+01 0. -1.
         -5    1    1    0    0  501  0.45741388532E+02 -0.36024884724E+02 -0.22228204061E+02  0.62500000000E+02  0.47000000000E+01 0. -1.
</event>
<event>
 3    0  0.4603569E-005  0.9118800E+02  0.7546771E-02  0.1235069E+00
         25   -1    0    0    0    0  0.00000000000E+00  0.00000000000E+00  0.99999998245E-14  0.12500000000E+03  0.12500000000E+03 0.  0.
          5    1    1    0  501    0  0.58633681897E+02 -0.11371838145E+02  0.17802602181E+02  0.62500000000E+02  0.47000000000E+01 0.  1.
         -5    1    1    0    0  501 -0.58633681897E+02  0.11371838145E+02 -0.17802602181E+02  0.62500000000E+02  0.47000000000E+01 0.  1.
</event>
<event>
 3    0  0.4603569E-005  0.9118800E+02  0.7546771E-02  0.1235069E+00
         25   -1    0    0    0    0  0.00000000000E+00  0.00000000000E+00  0.99999998245E-14  0.12500000000E+03  0.12500000000E+03 0.  0.
          5    1    1    0  501    0 -0.49130007593E+02  0.52962469683E-01 -0.38345789193E+02  0.62500000000E+02  0.47000000000E+01 0.  1.
         -5    1    1    0    0  501  0.49130007593E+02 -0.52962469683E-01  0.38345789193E+02  0.62500000000E+02  0.47000000000E+01 0.  1.
</event>
<event>
 3    0  0.4603569E-005  0.9118800E+02  0.7546771E-02  0.1235069E+00
         25   -1    0    0    0    0  0.00000000000E+00  0.00000000000E+00  0.99999998245E-14  0.12500000000E+03  0.12500000000E+03 0.  0.
          5    1    1    0  501    0 -0.37838427568E+02 -0.28064757665E+01 -0.49442260193E+02  0.62500000000E+02  0.47000000000E+01 0. -1.
         -5    1    1    0    0  501  0.37838427568E+02  0.28064757665E+01  0.49442260193E+02  0.62500000000E+02  0.47000000000E+01 0. -1.
</event>
<event>
 3    0  0.4603569E-005  0.9118800E+02  0.7546771E-02  0.1235069E+00
         25   -1    0    0    0    0  0.00000000000E+00  0.00000000000E+00  0.99999998245E-14  0.12500000000E+03  0.12500000000E+03 0.  0.
          5    1    1    0  501    0  0.17466009953E+02 -0.59764975684E+02  0.26918725358E+01  0.62500000000E+02  0.47000000000E+01 0.  1.
         -5    1    1    0    0  501 -0.17466009953E+02  0.59764975684E+02 -0.26918725358E+01  0.62500000000E+02  0.47000000000E+01 0.  1.
</event>
<event>
 3    0  0.4603569E-005  0.9118800E+02  0.7546771E-02  0.1235069E+00
         25   -1    0    0    0    0  0.00000000000E+00  0.00000000000E+00  0.99999998245E-14  0.12500000000E+03  0.12500000000E+03 0.  0.
          5    1    1    0  501    0 -0.40271796791E+02  0.56576620086E+01 -0.47226404096E+02  0.62500000000E+02  0.47000000000E+01 0. -1.
         -5    1    1    0    0  501  0.40271796791E+02 -0.56576620086E+01  0.47226404096E+02  0.62500000000E+02  0.47000000000E+01 0. -1.
</event>
<event>
 3    0  0.4603569E-005  0.9118800E+02  0.7546771E-02  0.1235069E+00
         25   -1    0    0    0    0  0.00000000000E+00  0.00000000000E+00  0.99999998245E-14  0.12500000000E+03  0.12500000000E+03 0.  0.
          5    1    1    0  501    0 -0.55315527660E+02  0.28501880925E+02  0.34634063358E+01  0.62500000000E+02  0.47000000000E+01 0.  1.
         -5    1    1    0    0  501  0.55315527660E+02 -0.28501880925E+02 -0.34634063358E+01  0.62500000000E+02  0.47000000000E+01 0.  1.
</event>
<event>
 3    0  0.4603569E-005  0.9118800E+02  0.7546771E-02  0.1235069E+00
         25   -1    0    0    0    0  0.00000000000E+00  0.00000000000E+00  0.99999998245E-14  0.12500000000E+03  0.12500000000E+03 0.  0.
          5    1    1    0  501    0  0.53453857683E+02  0.23639976313E+02  0.21633229503E+02  0.62500000000E+02  0.47000000000E+01 0.  1.
         -5    1    1    0    0  501 -0.53453857683E+02 -0.23639976313E+02 -0.21633229503E+02  0.62500000000E+02  0.47000000000E+01 0.  1.
</event>
<event>
 3    0  0.4603569E-005  0.9118800E+02  0.7546771E-02  0.1235069E+00
         25   -1    0    0    0    0  0.00000000000E+00  0.00000000000E+00  0.99999998245E-14  0.12500000000E+03  0.12500000000E+03 0.  0.
          5    1    1    0  501    0  0.51262876099E+02  0.26476802291E+02  0.23563880717E+02  0.62500000000E+02  0.47000000000E+01 0. -1.
         -5    1    1    0    0  501 -0.51262876099E+02 -0.26476802291E+02 -0.23563880717E+02  0.62500000000E+02  0.47000000000E+01 0. -1.
</event>
<event>
 3    0  0.4603569E-005  0.9118800E+02  0.7546771E-02  0.1235069E+00
         25   -1    0    0    0    0  0.00000000000E+00  0.00000000000E+00  0.99999998245E-14  0.12500000000E+03  0.12500000000E+03 0.  0.
          5    1    1    0  501    0  0.48242611448E+00  0.34479845198E+02  0.51914039914E+02  0.62500000000E+02  0.47000000000E+01 0. -1.
         -5    1    1    0    0  501 -0.48242611448E+00 -0.34479845198E+02 -0.51914039914E+02  0.62500000000E+02  0.47000000000E+01 0. -1.
</event>
<event>
 3    0  0.4603569E-005  0.9118800E+02  0.7546771E-02  0.1235069E+00
         25   -1    0    0    0    0  0.00000000000E+00  0.00000000000E+00  0.99999998245E-14  0.12500000000E+03  0.12500000000E+03 0.  0.
          5    1    1    0  501    0  0.60261986386E+02  0.15889065075E+02  0.43658665890E+00  0.62500000000E+02  0.47000000000E+01 0.  1.
         -5    1    1    0    0  501 -0.60261986386E+02 -0.15889065075E+02 -0.43658665890E+00  0.62500000000E+02  0.47000000000E+01 0.  1.
</event>
<event>
 3    0  0.4603569E-005  0.9118800E+02  0.7546771E-02  0.1235069E+00
         25   -1    0    0    0    0  0.00000000000E+00  0.00000000000E+00  0.99999998245E-14  0.12500000000E+03  0.12500000000E+03 0.  0.
          5    1    1    0  501    0 -0.42322384747E+02 -0.37028095300E+02  0.26868120660E+02  0.62500000000E+02  0.47000000000E+01 0.  1.
         -5    1    1    0    0  501  0.42322384747E+02  0.37028095300E+02 -0.26868120660E+02  0.62500000000E+02  0.47000000000E+01 0.  1.
</event>
<event>
 3    0  0.4603569E-005  0.9118800E+02  0.7546771E-02  0.1235069E+00
         25   -1    0    0    0    0  0.00000000000E+00  0.00000000000E+00  0.99999998245E-14  0.12500000000E+03  0.12500000000E+03 0.  0.
          5    1    1    0  501    0  0.55032194876E+02  0.36239909165E+01  0.29025578667E+02  0.62500000000E+02  0.47000000000E+01 0. -1.
         -5    1    1    0    0  501 -0.55032194876E+02 -0.36239909165E+01 -0.29025578667E+02  0.62500000000E+02  0.47000000000E+01 0. -1.
</event>
<event>
 3    0  0.4603569E-005  0.9118800E+02  0.7546771E-02  0.1235069E+00
         25   -1    0    0    0    0  0.00000000000E+00  0.00000000000E+00  0.99999998245E-14  0.12500000000E+03  0.12500000000E+03 0.  0.
          5    1    1    0  501    0  0.13574944167E+02 -0.20262739596E+02  0.57352439137E+02  0.62500000000E+02  0.47000000000E+01 0.  1.
         -5    1    1    0    0  501 -0.13574944167E+02  0.20262739596E+02 -0.57352439137E+02  0.62500000000E+02  0.47000000000E+01 0.  1.
</event>
<event>
 3    0  0.4603569E-005  0.9118800E+02  0.7546771E-02  0.1235069E+00
         25   -1    0    0    0    0  0.00000000000E+00  0.00000000000E+00  0.99999998245E-14  0.12500000000E+03  0.12500000000E+03 0.  0.
          5    1    1    0  501    0 -0.39561415478E+01  0.29475206517E+02 -0.54769710104E+02  0.62500000000E+02  0.47000000000E+01 0.  1.
         -5    1    1    0    0  501  0.39561415478E+01 -0.29475206517E+02  0.54769710104E+02  0.62500000000E+02  0.47000000000E+01 0.  1.
</event>
<event>
 3    0  0.4603569E-005  0.9118800E+02  0.7546771E-02  0.1235069E+00
         25   -1    0    0    0    0  0.00000000000E+00  0.00000000000E+00  0.99999998245E-14  0.12500000000E+03  0.12500000000E+03 0.  0.
          5    1    1    0  501    0 -0.13949163070E+02  0.22146823419E+02 -0.56560578693E+02  0.62500000000E+02  0.47000000000E+01 0. -1.
         -5    1    1    0    0  501  0.13949163070E+02 -0.22146823419E+02  0.56560578693E+02  0.62500000000E+02  0.47000000000E+01 0. -1.
</event>
<event>
 3    0  0.4603569E-005  0.9118800E+02  0.7546771E-02  0.1235069E+00
         25   -1    0    0    0    0  0.00000000000E+00  0.00000000000E+00  0.99999998245E-14  0.12500000000E+03  0.12500000000E+03 0.  0.
          5    1    1    0  501    0 -0.53343883221E+02 -0.30528143203E+02 -0.10325821784E+02  0.62500000000E+02  0.47000000000E+01 0. -1.
         -5    1    1    0    0  501  0.53343883221E+02  0.30528143203E+02  0.10325821784E+02  0.62500000000E+02  0.47000000000E+01 0. -1.
</event>
<event>
 3    0  0.4603569E-005  0.9118800E+02  0.7546771E-02  0.1235069E+00
         25   -1    0    0    0    0  0.00000000000E+00  0.00000000000E+00  0.99999998245E-14  0.12500000000E+03  0.12500000000E+03 0.  0.
          5    1    1    0  501    0  0.33608763016E+02 -0.52467309037E+02 -0.13388543382E+01  0.62500000000E+02  0.47000000000E+01 0. -1.
         -5    1    1    0    0  501 -0.33608763016E+02  0.52467309037E+02  0.13388543382E+01  0.62500000000E+02  0.47000000000E+01 0. -1.
</event>
<event>
 3    0  0.4603569E-005  0.9118800E+02  0.7546771E-02  0.1235069E+00
         25   -1    0    0    0    0  0.00000000000E+00  0.00000000000E+00  0.99999998245E-14  0.12500000000E+03  0.12500000000E+03 0.  0.
          5    1    1    0  501    0  0.46928475146E+02 -0.39844156132E+01  0.40816695759E+02  0.62500000000E+02  0.47000000000E+01 0. -1.
         -5    1    1    0    0  501 -0.46928475146E+02  0.39844156132E+01 -0.40816695759E+02  0.62500000000E+02  0.47000000000E+01 0. -1.
</event>
<event>
 3    0  0.4603569E-005  0.9118800E+02  0.7546771E-02  0.1235069E+00
         25   -1    0    0    0    0  0.00000000000E+00  0.00000000000E+00  0.99999998245E-14  0.12500000000E+03  0.12500000000E+03 0.  0.
          5    1    1    0  501    0 -0.39631294755E+02 -0.38032005442E+02 -0.29446341676E+02  0.62500000000E+02  0.47000000000E+01 0. -1.
         -5    1    1    0    0  501  0.39631294755E+02  0.38032005442E+02  0.29446341676E+02  0.62500000000E+02  0.47000000000E+01 0. -1.
</event>
<event>
 3    0  0.4603569E-005  0.9118800E+02  0.7546771E-02  0.1235069E+00
         25   -1    0    0    0    0  0.00000000000E+00  0.00000000000E+00  0.99999998245E-14  0.12500000000E+03  0.12500000000E+03 0.  0.
          5    1    1    0  501    0 -0.27853140036E+02  0.52810072315E+02  0.17873411879E+02  0.62500000000E+02  0.47000000000E+01 0. -1.
         -5    1    1    0    0  501  0.27853140036E+02 -0.52810072315E+02 -0.17873411879E+02  0.62500000000E+02  0.47000000000E+01 0. -1.
</event>
<event>
 3    0  0.4603569E-005  0.9118800E+02  0.7546771E-02  0.1235069E+00
         25   -1    0    0    0    0  0.00000000000E+00  0.00000000000E+00  0.99999998245E-14  0.12500000000E+03  0.12500000000E+03 0.  0.
          5    1    1    0  501    0  0.75871380479E+01 -0.33949944879E+02 -0.51710700817E+02  0.62500000000E+02  0.47000000000E+01 0.  1.
         -5    1    1    0    0  501 -0.75871380479E+01  0.33949944879E+02  0.51710700817E+02  0.62500000000E+02  0.47000000000E+01 0.  1.
</event>
<event>
 3    0  0.4603569E-005  0.9118800E+02  0.7546771E-02  0.1235069E+00
         25   -1    0    0    0    0  0.00000000000E+00  0.00000000000E+00  0.99999998245E-14  0.12500000000E+03  0.12500000000E+03 0.  0.
          5    1    1    0  501    0 -0.45060898780E+02  0.19000321729E+02  0.38634999358E+02  0.62500000000E+02  0.47000000000E+01 0.  1.
         -5    1    1    0    0  501  0.45060898780E+02 -0.19000321729E+02 -0.38634999358E+02  0.62500000000E+02  0.47000000000E+01 0.  1.
</event>
<event>
 3    0  0.4603569E-005  0.9118800E+02  0.7546771E-02  0.1235069E+00
         25   -1    0    0    0    0  0.00000000000E+00  0.00000000000E+00  0.99999998245E-14  0.12500000000E+03  0.12500000000E+03 0.  0.
          5    1    1    0  501    0 -0.34450661855E+02  0.39987105925E+02 -0.33141262158E+02  0.62500000000E+02  0.47000000000E+01 0. -1.
         -5    1    1    0    0  501  0.34450661855E+02 -0.39987105925E+02  0.33141262158E+02  0.62500000000E+02  0.47000000000E+01 0. -1.
</event>
<event>
 3    0  0.4603569E-005  0.9118800E+02  0.7546771E-02  0.1235069E+00
         25   -1    0    0    0    0  0.00000000000E+00  0.00000000000E+00  0.99999998245E-14  0.12500000000E+03  0.12500000000E+03 0.  0.
          5    1    1    0  501    0 -0.29862279847E+01  0.26115593683E+02  0.56508567572E+02  0.62500000000E+02  0.47000000000E+01 0.  1.
         -5    1    1    0    0  501  0.29862279847E+01 -0.26115593683E+02 -0.56508567572E+02  0.62500000000E+02  0.47000000000E+01 0.  1.
</event>
<event>
 3    0  0.4603569E-005  0.9118800E+02  0.7546771E-02  0.1235069E+00
         25   -1    0    0    0    0  0.00000000000E+00  0.00000000000E+00  0.99999998245E-14  0.12500000000E+03  0.12500000000E+03 0.  0.
          5    1    1    0  501    0  0.41521227575E+02 -0.46327195279E+02  0.37334485743E+01  0.62500000000E+02  0.47000000000E+01 0.  1.
         -5    1    1    0    0  501 -0.41521227575E+02  0.46327195279E+02 -0.37334485743E+01  0.62500000000E+02  0.47000000000E+01 0.  1.
</event>
<event>
 3    0  0.4603569E-005  0.9118800E+02  0.7546771E-02  0.1235069E+00
         25   -1    0    0    0    0  0.00000000000E+00  0.00000000000E+00  0.99999998245E-14  0.12500000000E+03  0.12500000000E+03 0.  0.
          5    1    1    0  501    0 -0.50374553460E+02  0.28842142191E+02 -0.22686894841E+02  0.62500000000E+02  0.47000000000E+01 0. -1.
         -5    1    1    0    0  501  0.50374553460E+02 -0.28842142191E+02  0.22686894841E+02  0.62500000000E+02  0.47000000000E+01 0. -1.
</event>
<event>
 3    0  0.4603569E-005  0.9118800E+02  0.7546771E-02  0.1235069E+00
         25   -1    0    0    0    0  0.00000000000E+00  0.00000000000E+00  0.99999998245E-14  0.12500000000E+03  0.12500000000E+03 0.  0.
          5    1    1    0  501    0  0.55328835065E+02 -0.42698273526E+01 -0.28366328362E+02  0.62500000000E+02  0.47000000000E+01 0. -1.
         -5    1    1    0    0  501 -0.55328835065E+02  0.42698273526E+01  0.28366328362E+02  0.62500000000E+02  0.47000000000E+01 0. -1.
</event>
<event>
 3    0  0.4603569E-005  0.9118800E+02  0.7546771E-02  0.1235069E+00
         25   -1    0    0    0    0  0.00000000000E+00  0.00000000000E+00  0.99999998245E-14  0.12500000000E+03  0.12500000000E+03 0.  0.
          5    1    1    0  501    0 -0.20298154071E+02  0.41174802632E+02 -0.42151875042E+02  0.62500000000E+02  0.47000000000E+01 0.  1.
         -5    1    1    0    0  501  0.20298154071E+02 -0.41174802632E+02  0.42151875042E+02  0.62500000000E+02  0.47000000000E+01 0.  1.
</event>
<event>
 3    0  0.4603569E-005  0.9118800E+02  0.7546771E-02  0.1235069E+00
         25   -1    0    0    0    0  0.00000000000E+00  0.00000000000E+00  0.99999998245E-14  0.12500000000E+03  0.12500000000E+03 0.  0.
          5    1    1    0  501    0  0.46705429919E+02 -0.12669304997E+02 -0.39271510374E+02  0.62500000000E+02  0.47000000000E+01 0. -1.
         -5    1    1    0    0  501 -0.46705429919E+02  0.12669304997E+02  0.39271510374E+02  0.62500000000E+02  0.47000000000E+01 0. -1.
</event>
<event>
 3    0  0.4603569E-005  0.9118800E+02  0.7546771E-02  0.1235069E+00
         25   -1    0    0    0    0  0.00000000000E+00  0.00000000000E+00  0.99999998245E-14  0.12500000000E+03  0.12500000000E+03 0.  0.
          5    1    1    0  501    0  0.36808479566E+02  0.41757749016E+02 -0.28028311208E+02  0.62500000000E+02  0.47000000000E+01 0. -1.
         -5    1    1    0    0  501 -0.36808479566E+02 -0.41757749016E+02  0.28028311208E+02  0.62500000000E+02  0.47000000000E+01 0. -1.
</event>
<event>
 3    0  0.4603569E-005  0.9118800E+02  0.7546771E-02  0.1235069E+00
         25   -1    0    0    0    0  0.00000000000E+00  0.00000000000E+00  0.99999998245E-14  0.12500000000E+03  0.12500000000E+03 0.  0.
          5    1    1    0  501    0  0.28722224996E+02 -0.15716397410E+02 -0.53030073013E+02  0.62500000000E+02  0.47000000000E+01 0. -1.
         -5    1    1    0    0  501 -0.28722224996E+02  0.15716397410E+02  0.53030073013E+02  0.62500000000E+02  0.47000000000E+01 0. -1.
</event>
<event>
 3    0  0.4603569E-005  0.9118800E+02  0.7546771E-02  0.1235069E+00
         25   -1    0    0    0    0  0.00000000000E+00  0.00000000000E+00  0.99999998245E-14  0.12500000000E+03  0.12500000000E+03 0.  0.
          5    1    1    0  501    0 -0.33348385700E+02 -0.52458309696E+02  0.44912041817E+01  0.62500000000E+02  0.47000000000E+01 0. -1.
         -5    1    1    0    0  501  0.33348385700E+02  0.52458309696E+02 -0.44912041817E+01  0.62500000000E+02  0.47000000000E+01 0. -1.
</event>
<event>
 3    0  0.4603569E-005  0.9118800E+02  0.7546771E-02  0.1235069E+00
         25   -1    0    0    0    0  0.00000000000E+00  0.00000000000E+00  0.99999998245E-14  0.12500000000E+03  0.12500000000E+03 0.  0.
          5    1    1    0  501    0 -0.31382626733E+02  0.15311256834E+02 -0.51622244754E+02  0.62500000000E+02  0.47000000000E+01 0.  1.
         -5    1    1    0    0  501  0.31382626733E+02 -0.15311256834E+02  0.51622244754E+02  0.62500000000E+02  0.47000000000E+01 0.  1.
</event>
<event>
 3    0  0.4603569E-005  0.9118800E+02  0.7546771E-02  0.1235069E+00
         25   -1    0    0    0    0  0.00000000000E+00  0.00000000000E+00  0.99999998245E-14  0.12500000000E+03  0.12500000000E+03 0.  0.
          5    1    1    0  501    0 -0.46427620519E+02  0.39005322623E+02 -0.14395167939E+02  0.62500000000E+02  0.47000000000E+01 0. -1.
         -5    1    1    0    0  501  0.46427620519E+02 -0.39005322623E+02  0.14395167939E+02  0.62500000000E+02  0.47000000000E+01 0. -1.
</event>
<event>
 3    0  0.4603569E-005  0.9118800E+02  0.7546771E-02  0.1235069E+00
         25   -1    0    0    0    0  0.00000000000E+00  0.00000000000E+00  0.99999998245E-14  0.12500000000E+03  0.12500000000E+03 0.  0.
          5    1    1    0  501    0 -0.34239215384E+01  0.56832388400E+02 -0.25347907015E+02  0.62500000000E+02  0.47000000000E+01 0. -1.
         -5    1    1    0    0  501  0.34239215384E+01 -0.56832388400E+02  0.25347907015E+02  0.62500000000E+02  0.47000000000E+01 0. -1.
</event>
<event>
 3    0  0.4603569E-005  0.9118800E+02  0.7546771E-02  0.1235069E+00
         25   -1    0    0    0    0  0.00000000000E+00  0.00000000000E+00  0.99999998245E-14  0.12500000000E+03  0.12500000000E+03 0.  0.
          5    1    1    0  501    0  0.18768878752E+02 -0.58115964438E+02  0.12426740035E+02  0.62500000000E+02  0.47000000000E+01 0.  1.
         -5    1    1    0    0  501 -0.18768878752E+02  0.58115964438E+02 -0.12426740035E+02  0.62500000000E+02  0.47000000000E+01 0.  1.
</event>
<event>
 3    0  0.4603569E-005  0.9118800E+02  0.7546771E-02  0.1235069E+00
         25   -1    0    0    0    0  0.00000000000E+00  0.00000000000E+00  0.99999998245E-14  0.12500000000E+03  0.12500000000E+03 0.  0.
          5    1    1    0  501    0 -0.11749988716E+00  0.52840407220E+02 -0.33045991567E+02  0.62500000000E+02  0.47000000000E+01 0. -1.
         -5    1    1    0    0  501  0.11749988716E+00 -0.52840407220E+02  0.33045991567E+02  0.62500000000E+02  0.47000000000E+01 0. -1.
</event>
<event>
 3    0  0.4603569E-005  0.9118800E+02  0.7546771E-02  0.1235069E+00
         25   -1    0    0    0    0  0.00000000000E+00  0.00000000000E+00  0.99999998245E-14  0.12500000000E+03  0.12500000000E+03 0.  0.
          5    1    1    0  501    0 -0.53419357952E+02  0.22209867349E+02  0.23178740009E+02  0.62500000000E+02  0.47000000000E+01 0.  1.
         -5    1    1    0    0  501  0.53419357952E+02 -0.22209867349E+02 -0.23178740009E+02  0.62500000000E+02  0.47000000000E+01 0.  1.
</event>
<event>
 3    0  0.4603569E-005  0.9118800E+02  0.7546771E-02  0.1235069E+00
         25   -1    0    0    0    0  0.00000000000E+00  0.00000000000E+00  0.99999998245E-14  0.12500000000E+03  0.12500000000E+03 0.  0.
          5    1    1    0  501    0 -0.67986295116E+00 -0.32128077557E+02 -0.53399292307E+02  0.62500000000E+02  0.47000000000E+01 0. -1.
         -5    1    1    0    0  501  0.67986295116E+00  0.32128077557E+02  0.53399292307E+02  0.62500000000E+02  0.47000000000E+01 0. -1.
</event>
<event>
 3    0  0.4603569E-005  0.9118800E+02  0.7546771E-02  0.1235069E+00
         25   -1    0    0    0    0  0.00000000000E+00  0.00000000000E+00  0.99999998245E-14  0.12500000000E+03  0.12500000000E+03 0.  0.
          5    1    1    0  501    0  0.46966563761E+02 -0.40964733415E+02  0.43875353220E+00  0.62500000000E+02  0.47000000000E+01 0.  1.
         -5    1    1    0    0  501 -0.46966563761E+02  0.40964733415E+02 -0.43875353220E+00  0.62500000000E+02  0.47000000000E+01 0.  1.
</event>
<event>
 3    0  0.4603569E-005  0.9118800E+02  0.7546771E-02  0.1235069E+00
         25   -1    0    0    0    0  0.00000000000E+00  0.00000000000E+00  0.99999998245E-14  0.12500000000E+03  0.12500000000E+03 0.  0.
          5    1    1    0  501    0  0.13537079594E+02 -0.47983907988E+02 -0.37395882799E+02  0.62500000000E+02  0.47000000000E+01 0.  1.
         -5    1    1    0    0  501 -0.13537079594E+02  0.47983907988E+02  0.37395882799E+02  0.62500000000E+02  0.47000000000E+01 0.  1.
</event>
<event>
 3    0  0.4603569E-005  0.9118800E+02  0.7546771E-02  0.1235069E+00
         25   -1    0    0    0    0  0.00000000000E+00  0.00000000000E+00  0.99999998245E-14  0.12500000000E+03  0.12500000000E+03 0.  0.
          5    1    1    0  501    0 -0.41060826239E+02  0.45237665784E+02 -0.12317554263E+02  0.62500000000E+02  0.47000000000E+01 0. -1.
         -5    1    1    0    0  501  0.41060826239E+02 -0.45237665784E+02  0.12317554263E+02  0.62500000000E+02  0.47000000000E+01 0. -1.
</event>
<event>
 3    0  0.4603569E-005  0.9118800E+02  0.7546771E-02  0.1235069E+00
         25   -1    0    0    0    0  0.00000000000E+00  0.00000000000E+00  0.99999998245E-14  0.12500000000E+03  0.12500000000E+03 0.  0.
          5    1    1    0  501    0 -0.14135532460E+02  0.34312126954E+02  0.50070197383E+02  0.62500000000E+02  0.47000000000E+01 0. -1.
         -5    1    1    0    0  501  0.14135532460E+02 -0.34312126954E+02 -0.50070197383E+02  0.62500000000E+02  0.47000000000E+01 0. -1.
</event>
<event>
 3    0  0.4603569E-005  0.9118800E+02  0.7546771E-02  0.1235069E+00
         25   -1    0    0    0    0  0.00000000000E+00  0.00000000000E+00  0.99999998245E-14  0.12500000000E+03  0.12500000000E+03 0.  0.
          5    1    1    0  501    0 -0.42290586335E+02 -0.38534501198E+02 -0.24713529188E+02  0.62500000000E+02  0.47000000000E+01 0. -1.
         -5    1    1    0    0  501  0.42290586335E+02  0.38534501198E+02  0.24713529188E+02  0.62500000000E+02  0.47000000000E+01 0. -1.
</event>
<event>
 3    0  0.4603569E-005  0.9118800E+02  0.7546771E-02  0.1235069E+00
         25   -1    0    0    0    0  0.00000000000E+00  0.00000000000E+00  0.99999998245E-14  0.12500000000E+03  0.12500000000E+03 0.  0.
          5    1    1    0  501    0 -0.31528157530E+02 -0.14560160071E+02 -0.51750720010E+02  0.62500000000E+02  0.47000000000E+01 0.  1.
         -5    1    1    0    0  501  0.31528157530E+02  0.14560160071E+02  0.51750720010E+02  0.62500000000E+02  0.47000000000E+01 0.  1.
</event>
<event>
 3    0  0.4603569E-005  0.9118800E+02  0.7546771E-02  0.1235069E+00
         25   -1    0    0    0    0  0.00000000000E+00  0.00000000000E+00  0.99999998245E-14  0.12500000000E+03  0.12500000000E+03 0.  0.
          5    1    1    0  501    0  0.58614734577E+02  0.13314984581E+02  0.16467667596E+02  0.62500000000E+02  0.47000000000E+01 0. -1.
         -5    1    1    0    0  501 -0.58614734577E+02 -0.13314984581E+02 -0.16467667596E+02  0.62500000000E+02  0.47000000000E+01 0. -1.
</event>
<event>
 3    0  0.4603569E-005  0.9118800E+02  0.7546771E-02  0.1235069E+00
         25   -1    0    0    0    0  0.00000000000E+00  0.00000000000E+00  0.99999998245E-14  0.12500000000E+03  0.12500000000E+03 0.  0.
          5    1    1    0  501    0  0.21788385774E+02  0.18150899507E+02 -0.55497487263E+02  0.62500000000E+02  0.47000000000E+01 0.  1.
         -5    1    1    0    0  501 -0.21788385774E+02 -0.18150899507E+02  0.55497487263E+02  0.62500000000E+02  0.47000000000E+01 0.  1.
</event>
<event>
 3    0  0.4603569E-005  0.9118800E+02  0.7546771E-02  0.1235069E+00
         25   -1    0    0    0    0  0.00000000000E+00  0.00000000000E+00  0.99999998245E-14  0.12500000000E+03  0.12500000000E+03 0.  0.
          5    1    1    0  501    0  0.39332006070E+02  0.37204494299E+02  0.30870356371E+02  0.62500000000E+02  0.47000000000E+01 0. -1.
         -5    1    1    0    0  501 -0.39332006070E+02 -0.37204494299E+02 -0.30870356371E+02  0.62500000000E+02  0.47000000000E+01 0. -1.
</event>
<event>
 3    0  0.4603569E-005  0.9118800E+02  0.7546771E-02  0.1235069E+00
         25   -1    0    0    0    0  0.00000000000E+00  0.00000000000E+00  0.99999998245E-14  0.12500000000E+03  0.12500000000E+03 0.  0.
          5    1    1    0  501    0  0.33369773852E+02 -0.35774726518E+02 -0.38610712705E+02  0.62500000000E+02  0.47000000000E+01 0.  1.
         -5    1    1    0    0  501 -0.33369773852E+02  0.35774726518E+02  0.38610712705E+02  0.62500000000E+02  0.47000000000E+01 0.  1.
</event>
<event>
 3    0  0.4603569E-005  0.9118800E+02  0.7546771E-02  0.1235069E+00
         25   -1    0    0    0    0  0.00000000000E+00  0.00000000000E+00  0.99999998245E-14  0.12500000000E+03  0.12500000000E+03 0.  0.
          5    1    1    0  501    0  0.47137934137E+02 -0.26661596534E+02 -0.30843709822E+02  0.62500000000E+02  0.47000000000E+01 0.  1.
         -5    1    1    0    0  501 -0.47137934137E+02  0.26661596534E+02  0.30843709822E+02  0.62500000000E+02  0.47000000000E+01 0.  1.
</event>
<event>
 3    0  0.4603569E-005  0.9118800E+02  0.7546771E-02  0.1235069E+00
         25   -1    0    0    0    0  0.00000000000E+00  0.00000000000E+00  0.99999998245E-14  0.12500000000E+03  0.12500000000E+03 0.  0.
          5    1    1    0  501    0  0.17896994975E+01  0.55893543055E+02 -0.27511248980E+02  0.62500000000E+02  0.47000000000E+01 0.  1.
         -5    1    1    0    0  501 -0.17896994975E+01 -0.55893543055E+02  0.27511248980E+02  0.62500000000E+02  0.47000000000E+01 0.  1.
</event>
<event>
 3    0  0.4603569E-005  0.9118800E+02  0.7546771E-02  0.1235069E+00
         25   -1    0    0    0    0  0.00000000000E+00  0.00000000000E+00  0.99999998245E-14  0.12500000000E+03  0.12500000000E+03 0.  0.
          5    1    1    0  501    0  0.31005047997E+02  0.19924557095E+02  0.50257924980E+02  0.62500000000E+02  0.47000000000E+01 0.  1.
         -5    1    1    0    0  501 -0.31005047997E+02 -0.19924557095E+02 -0.50257924980E+02  0.62500000000E+02  0.47000000000E+01 0.  1.
</event>
<event>
 3    0  0.4603569E-005  0.9118800E+02  0.7546771E-02  0.1235069E+00
         25   -1    0    0    0    0  0.00000000000E+00  0.00000000000E+00  0.99999998245E-14  0.12500000000E+03  0.12500000000E+03 0.  0.
          5    1    1    0  501    0 -0.38962332365E+02 -0.24860990631E+02  0.41809422401E+02  0.62500000000E+02  0.47000000000E+01 0.  1.
         -5    1    1    0    0  501  0.38962332365E+02  0.24860990631E+02 -0.41809422401E+02  0.62500000000E+02  0.47000000000E+01 0.  1.
</event>
<event>
 3    0  0.4603569E-005  0.9118800E+02  0.7546771E-02  0.1235069E+00
         25   -1    0    0    0    0  0.00000000000E+00  0.00000000000E+00  0.99999998245E-14  0.12500000000E+03  0.12500000000E+03 0.  0.
          5    1    1    0  501    0  0.42461639377E+02  0.44836789782E+02  0.84161430247E+01  0.62500000000E+02  0.47000000000E+01 0.  1.
         -5    1    1    0    0  501 -0.42461639377E+02 -0.44836789782E+02 -0.84161430247E+01  0.62500000000E+02  0.47000000000E+01 0.  1.
</event>
<event>
 3    0  0.4603569E-005  0.9118800E+02  0.7546771E-02  0.1235069E+00
         25   -1    0    0    0    0  0.00000000000E+00  0.00000000000E+00  0.99999998245E-14  0.12500000000E+03  0.12500000000E+03 0.  0.
          5    1    1    0  501    0 -0.31277520111E+02  0.73466711601E+01  0.53403212998E+02  0.62500000000E+02  0.47000000000E+01 0. -1.
         -5    1    1    0    0  501  0.31277520111E+02 -0.73466711601E+01 -0.53403212998E+02  0.62500000000E+02  0.47000000000E+01 0. -1.
</event>
<event>
 3    0  0.4603569E-005  0.9118800E+02  0.7546771E-02  0.1235069E+00
         25   -1    0    0    0    0  0.00000000000E+00  0.00000000000E+00  0.99999998245E-14  0.12500000000E+03  0.12500000000E+03 0.  0.
          5    1    1    0  501    0  0.60064481011E+02 -0.15051999796E+02 -0.70608372764E+01  0.62500000000E+02  0.47000000000E+01 0.  1.
         -5    1    1    0    0  501 -0.60064481011E+02  0.15051999796E+02  0.70608372764E+01  0.62500000000E+02  0.47000000000E+01 0.  1.
</event>
<event>
 3    0  0.4603569E-005  0.9118800E+02  0.7546771E-02  0.1235069E+00
         25   -1    0    0    0    0  0.00000000000E+00  0.00000000000E+00  0.99999998245E-14  0.12500000000E+03  0.12500000000E+03 0.  0.
          5    1    1    0  501    0 -0.24912368660E+02  0.56923653609E+02  0.48199115631E+01  0.62500000000E+02  0.47000000000E+01 0.  1.
         -5    1    1    0    0  501  0.24912368660E+02 -0.56923653609E+02 -0.48199115631E+01  0.62500000000E+02  0.47000000000E+01 0.  1.
</event>
<event>
 3    0  0.4603569E-005  0.9118800E+02  0.7546771E-02  0.1235069E+00
         25   -1    0    0    0    0  0.00000000000E+00  0.00000000000E+00  0.99999998245E-14  0.12500000000E+03  0.12500000000E+03 0.  0.
          5    1    1    0  501    0 -0.45087992911E+02 -0.12071793628E+02  0.41297756523E+02  0.62500000000E+02  0.47000000000E+01 0.  1.
         -5    1    1    0    0  501  0.45087992911E+02  0.12071793628E+02 -0.41297756523E+02  0.62500000000E+02  0.47000000000E+01 0.  1.
</event>
<event>
 3    0  0.4603569E-005  0.9118800E+02  0.7546771E-02  0.1235069E+00
         25   -1    0    0    0    0  0.00000000000E+00  0.00000000000E+00  0.99999998245E-14  0.12500000000E+03  0.12500000000E+03 0.  0.
          5    1    1    0  501    0  0.65702278425E+01  0.51668856958E+02  0.34224571973E+02  0.62500000000E+02  0.47000000000E+01 0. -1.
         -5    1    1    0    0  501 -0.65702278425E+01 -0.51668856958E+02 -0.34224571973E+02  0.62500000000E+02  0.47000000000E+01 0. -1.
</event>
<event>
 3    0  0.4603569E-005  0.9118800E+02  0.7546771E-02  0.1235069E+00
         25   -1    0    0    0    0  0.00000000000E+00  0.00000000000E+00  0.99999998245E-14  0.12500000000E+03  0.12500000000E+03 0.  0.
          5    1    1    0  501    0  0.51562861845E+02  0.79275069616E+01 -0.34096714091E+02  0.62500000000E+02  0.47000000000E+01 0.  1.
         -5    1    1    0    0  501 -0.51562861845E+02 -0.79275069616E+01  0.34096714091E+02  0.62500000000E+02  0.47000000000E+01 0.  1.
</event>
<event>
 3    0  0.4603569E-005  0.9118800E+02  0.7546771E-02  0.1235069E+00
         25   -1    0    0    0    0  0.00000000000E+00  0.00000000000E+00  0.99999998245E-14  0.12500000000E+03  0.12500000000E+03 0.  0.
          5    1    1    0  501    0 -0.14185905496E+02 -0.46523335873E+02  0.38967926612E+02  0.62500000000E+02  0.47000000000E+01 0.  1.
         -5    1    1    0    0  501  0.14185905496E+02  0.46523335873E+02 -0.38967926612E+02  0.62500000000E+02  0.47000000000E+01 0.  1.
</event>
<event>
 3    0  0.4603569E-005  0.9118800E+02  0.7546771E-02  0.1235069E+00
         25   -1    0    0    0    0  0.00000000000E+00  0.00000000000E+00  0.99999998245E-14  0.12500000000E+03  0.12500000000E+03 0.  0.
          5    1    1    0  501    0 -0.31189614554E+02  0.38187789183E+02 -0.38119033320E+02  0.62500000000E+02  0.47000000000E+01 0.  1.
         -5    1    1    0    0  501  0.31189614554E+02 -0.38187789183E+02  0.38119033320E+02  0.62500000000E+02  0.47000000000E+01 0.  1.
</event>
<event>
 3    0  0.4603569E-005  0.9118800E+02  0.7546771E-02  0.1235069E+00
         25   -1    0    0    0    0  0.00000000000E+00  0.00000000000E+00  0.99999998245E-14  0.12500000000E+03  0.12500000000E+03 0.  0.
          5    1    1    0  501    0 -0.33288050105E+02 -0.52684625826E+02  0.62922317947E+00  0.62500000000E+02  0.47000000000E+01 0. -1.
         -5    1    1    0    0  501  0.33288050105E+02  0.52684625826E+02 -0.62922317947E+00  0.62500000000E+02  0.47000000000E+01 0. -1.
</event>
<event>
 3    0  0.4603569E-005  0.9118800E+02  0.7546771E-02  0.1235069E+00
         25   -1    0    0    0    0  0.00000000000E+00  0.00000000000E+00  0.99999998245E-14  0.12500000000E+03  0.12500000000E+03 0.  0.
          5    1    1    0  501    0  0.12401015725E+02  0.58655958291E+02 -0.17025080496E+02  0.62500000000E+02  0.47000000000E+01 0. -1.
         -5    1    1    0    0  501 -0.12401015725E+02 -0.58655958291E+02  0.17025080496E+02  0.62500000000E+02  0.47000000000E+01 0. -1.
</event>
<event>
 3    0  0.4603569E-005  0.9118800E+02  0.7546771E-02  0.1235069E+00
         25   -1    0    0    0    0  0.00000000000E+00  0.00000000000E+00  0.99999998245E-14  0.12500000000E+03  0.12500000000E+03 0.  0.
          5    1    1    0  501    0 -0.26829052988E+01  0.17366109007E+02  0.59794483668E+02  0.62500000000E+02  0.47000000000E+01 0.  1.
         -5    1    1    0    0  501  0.26829052988E+01 -0.17366109007E+02 -0.59794483668E+02  0.62500000000E+02  0.47000000000E+01 0.  1.
</event>
<event>
 3    0  0.4603569E-005  0.9118800E+02  0.7546771E-02  0.1235069E+00
         25   -1    0    0    0    0  0.00000000000E+00  0.00000000000E+00  0.99999998245E-14  0.12500000000E+03  0.12500000000E+03 0.  0.
          5    1    1    0  501    0 -0.30216135070E+02  0.54342733594E+02 -0.42441120400E+01  0.62500000000E+02  0.47000000000E+01 0.  1.
         -5    1    1    0    0  501  0.30216135070E+02 -0.54342733594E+02  0.42441120400E+01  0.62500000000E+02  0.47000000000E+01 0.  1.
</event>
<event>
 3    0  0.4603569E-005  0.9118800E+02  0.7546771E-02  0.1235069E+00
         25   -1    0    0    0    0  0.00000000000E+00  0.00000000000E+00  0.99999998245E-14  0.12500000000E+03  0.12500000000E+03 0.  0.
          5    1    1    0  501    0 -0.26878191731E+02 -0.13366603264E+02 -0.54617366528E+02  0.62500000000E+02  0.47000000000E+01 0. -1.
         -5    1    1    0    0  501  0.26878191731E+02  0.13366603264E+02  0.54617366528E+02  0.62500000000E+02  0.47000000000E+01 0. -1.
</event>
<event>
 3    0  0.4603569E-005  0.9118800E+02  0.7546771E-02  0.1235069E+00
         25   -1    0    0    0    0  0.00000000000E+00  0.00000000000E+00  0.99999998245E-14  0.12500000000E+03  0.12500000000E+03 0.  0.
          5    1    1    0  501    0  0.39525242211E+02 -0.17650084420E+02  0.44837369995E+02  0.62500000000E+02  0.47000000000E+01 0. -1.
         -5    1    1    0    0  501 -0.39525242211E+02  0.17650084420E+02 -0.44837369995E+02  0.62500000000E+02  0.47000000000E+01 0. -1.
</event>
<event>
 3    0  0.4603569E-005  0.9118800E+02  0.7546771E-02  0.1235069E+00
         25   -1    0    0    0    0  0.00000000000E+00  0.00000000000E+00  0.99999998245E-14  0.12500000000E+03  0.12500000000E+03 0.  0.
          5    1    1    0  501    0  0.29042271760E+02  0.52349151461E+02  0.17328381121E+02  0.62500000000E+02  0.47000000000E+01 0.  1.
         -5    1    1    0    0  501 -0.29042271760E+02 -0.52349151461E+02 -0.17328381121E+02  0.62500000000E+02  0.47000000000E+01 0.  1.
</event>
<event>
 3    0  0.4603569E-005  0.9118800E+02  0.7546771E-02  0.1235069E+00
         25   -1    0    0    0    0  0.00000000000E+00  0.00000000000E+00  0.99999998245E-14  0.12500000000E+03  0.12500000000E+03 0.  0.
          5    1    1    0  501    0  0.59108201915E+02  0.19685323728E+02  0.16936635093E+01  0.62500000000E+02  0.47000000000E+01 0. -1.
         -5    1    1    0    0  501 -0.59108201915E+02 -0.19685323728E+02 -0.16936635093E+01  0.62500000000E+02  0.47000000000E+01 0. -1.
</event>
<event>
 3    0  0.4603569E-005  0.9118800E+02  0.7546771E-02  0.1235069E+00
         25   -1    0    0    0    0  0.00000000000E+00  0.00000000000E+00  0.99999998245E-14  0.12500000000E+03  0.12500000000E+03 0.  0.
          5    1    1    0  501    0 -0.55971706747E+02 -0.23568673973E+02  0.13994486451E+02  0.62500000000E+02  0.47000000000E+01 0. -1.
         -5    1    1    0    0  501  0.55971706747E+02  0.23568673973E+02 -0.13994486451E+02  0.62500000000E+02  0.47000000000E+01 0. -1.
</event>
<event>
 3    0  0.4603569E-005  0.9118800E+02  0.7546771E-02  0.1235069E+00
         25   -1    0    0    0    0  0.00000000000E+00  0.00000000000E+00  0.99999998245E-14  0.12500000000E+03  0.12500000000E+03 0.  0.
          5    1    1    0  501    0  0.14559842046E+02  0.54656460478E+02  0.26169492307E+02  0.62500000000E+02  0.47000000000E+01 0. -1.
         -5    1    1    0    0  501 -0.14559842046E+02 -0.54656460478E+02 -0.26169492307E+02  0.62500000000E+02  0.47000000000E+01 0. -1.
</event>
<event>
 3    0  0.4603569E-005  0.9118800E+02  0.7546771E-02  0.1235069E+00
         25   -1    0    0    0    0  0.00000000000E+00  0.00000000000E+00  0.99999998245E-14  0.12500000000E+03  0.12500000000E+03 0.  0.
          5    1    1    0  501    0 -0.46191373642E+02  0.40045953421E+02  0.12117698447E+02  0.62500000000E+02  0.47000000000E+01 0.  1.
         -5    1    1    0    0  501  0.46191373642E+02 -0.40045953421E+02 -0.12117698447E+02  0.62500000000E+02  0.47000000000E+01 0.  1.
</event>
<event>
 3    0  0.4603569E-005  0.9118800E+02  0.7546771E-02  0.1235069E+00
         25   -1    0    0    0    0  0.00000000000E+00  0.00000000000E+00  0.99999998245E-14  0.12500000000E+03  0.12500000000E+03 0.  0.
          5    1    1    0  501    0 -0.34821938377E+02  0.90046948078E+01 -0.50897034090E+02  0.62500000000E+02  0.47000000000E+01 0. -1.
         -5    1    1    0    0  501  0.34821938377E+02 -0.90046948078E+01  0.50897034090E+02  0.62500000000E+02  0.47000000000E+01 0. -1.
</event>
<event>
 3    0  0.4603569E-005  0.9118800E+02  0.7546771E-02  0.1235069E+00
         25   -1    0    0    0    0  0.00000000000E+00  0.00000000000E+00  0.99999998245E-14  0.12500000000E+03  0.12500000000E+03 0.  0.
          5    1    1    0  501    0  0.46615933843E+02 -0.38854937918E+02 -0.14191846648E+02  0.62500000000E+02  0.47000000000E+01 0.  1.
         -5    1    1    0    0  501 -0.46615933843E+02  0.38854937918E+02  0.14191846648E+02  0.62500000000E+02  0.47000000000E+01 0.  1.
</event>
<event>
 3    0  0.4603569E-005  0.9118800E+02  0.7546771E-02  0.1235069E+00
         25   -1    0    0    0    0  0.00000000000E+00  0.00000000000E+00  0.99999998245E-14  0.12500000000E+03  0.12500000000E+03 0.  0.
          5    1    1    0  501    0  0.43906223934E+02  0.25689730673E+02 -0.36006127781E+02  0.62500000000E+02  0.47000000000E+01 0.  1.
         -5    1    1    0    0  501 -0.43906223934E+02 -0.25689730673E+02  0.36006127781E+02  0.62500000000E+02  0.47000000000E+01 0.  1.
</event>
<event>
 3    0  0.4603569E-005  0.9118800E+02  0.7546771E-02  0.1235069E+00
         25   -1    0    0    0    0  0.00000000000E+00  0.00000000000E+00  0.99999998245E-14  0.12500000000E+03  0.12500000000E+03 0.  0.
          5    1    1    0  501    0  0.57050870066E+02 -0.14036023052E+02 -0.20792986354E+02  0.62500000000E+02  0.47000000000E+01 0. -1.
         -5    1    1    0    0  501 -0.57050870066E+02  0.14036023052E+02  0.20792986354E+02  0.62500000000E+02  0.47000000000E+01 0. -1.
</event>
<event>
 3    0  0.4603569E-005  0.9118800E+02  0.7546771E-02  0.1235069E+00
         25   -1    0    0    0    0  0.00000000000E+00  0.00000000000E+00  0.99999998245E-14  0.12500000000E+03  0.12500000000E+03 0.  0.
          5    1    1    0  501    0  0.39854509414E+02  0.44148299968E+02  0.18620034620E+02  0.62500000000E+02  0.47000000000E+01 0. -1.
         -5    1    1    0    0  501 -0.39854509414E+02 -0.44148299968E+02 -0.18620034620E+02  0.62500000000E+02  0.47000000000E+01 0. -1.
</event>
<event>
 3    0  0.4603569E-005  0.9118800E+02  0.7546771E-02  0.1235069E+00
         25   -1    0    0    0    0  0.00000000000E+00  0.00000000000E+00  0.99999998245E-14  0.12500000000E+03  0.12500000000E+03 0.  0.
          5    1    1    0  501    0 -0.36988462004E+02 -0.56119697086E+01 -0.49844954354E+02  0.62500000000E+02  0.47000000000E+01 0.  1.
         -5    1    1    0    0  501  0.36988462004E+02  0.56119697086E+01  0.49844954354E+02  0.62500000000E+02  0.47000000000E+01 0.  1.
</event>
<event>
 3    0  0.4603569E-005  0.9118800E+02  0.7546771E-02  0.1235069E+00
         25   -1    0    0    0    0  0.00000000000E+00  0.00000000000E+00  0.99999998245E-14  0.12500000000E+03  0.12500000000E+03 0.  0.
          5    1    1    0  501    0  0.71655643859E+01 -0.54445266444E+01 -0.61669861494E+02  0.62500000000E+02  0.47000000000E+01 0.  1.
         -5    1    1    0    0  501 -0.71655643859E+01  0.54445266444E+01  0.61669861494E+02  0.62500000000E+02  0.47000000000E+01 0.  1.
</event>
<event>
 3    0  0.4603569E-005  0.9118800E+02  0.7546771E-02  0.1235069E+00
         25   -1    0    0    0    0  0.00000000000E+00  0.00000000000E+00  0.99999998245E-14  0.12500000000E+03  0.12500000000E+03 0.  0.
          5    1    1    0  501    0 -0.35402281833E+02  0.46040345622E+02 -0.22608074134E+02  0.62500000000E+02  0.47000000000E+01 0. -1.
         -5    1    1    0    0  501  0.35402281833E+02 -0.46040345622E+02  0.22608074134E+02  0.62500000000E+02  0.47000000000E+01 0. -1.
</event>
<event>
 3    0  0.4603569E-005  0.9118800E+02  0.7546771E-02  0.1235069E+00
         25   -1    0    0    0    0  0.00000000000E+00  0.00000000000E+00  0.99999998245E-14  0.12500000000E+03  0.12500000000E+03 0.  0.
          5    1    1    0  501    0 -0.26535373243E+02  0.23472281598E+02 -0.51274613245E+02  0.62500000000E+02  0.47000000000E+01 0.  1.
         -5    1    1    0    0  501  0.26535373243E+02 -0.23472281598E+02  0.51274613245E+02  0.62500000000E+02  0.47000000000E+01 0.  1.
</event>
<event>
 3    0  0.4603569E-005  0.9118800E+02  0.7546771E-02  0.1235069E+00
         25   -1    0    0    0    0  0.00000000000E+00  0.00000000000E+00  0.99999998245E-14  0.12500000000E+03  0.12500000000E+03 0.  0.
          5    1    1    0  501    0  0.76667634871E+01 -0.41436056183E+01  0.61710706284E+02  0.62500000000E+02  0.47000000000E+01 0.  1.
         -5    1    1    0    0  501 -0.76667634871E+01  0.41436056183E+01 -0.61710706284E+02  0.62500000000E+02  0.47000000000E+01 0.  1.
</event>
<event>
 3    0  0.4603569E-005  0.9118800E+02  0.7546771E-02  0.1235069E+00
         25   -1    0    0    0    0  0.00000000000E+00  0.00000000000E+00  0.99999998245E-14  0.12500000000E+03  0.12500000000E+03 0.  0.
          5    1    1    0  501    0 -0.21048970078E+02 -0.65922038734E+00  0.58657192970E+02  0.62500000000E+02  0.47000000000E+01 0. -1.
         -5    1    1    0    0  501  0.21048970078E+02  0.65922038734E+00 -0.58657192970E+02  0.62500000000E+02  0.47000000000E+01 0. -1.
</event>
<event>
 3    0  0.4603569E-005  0.9118800E+02  0.7546771E-02  0.1235069E+00
         25   -1    0    0    0    0  0.00000000000E+00  0.00000000000E+00  0.99999998245E-14  0.12500000000E+03  0.12500000000E+03 0.  0.
          5    1    1    0  501    0  0.34159057916E+02 -0.48683209881E+02  0.18635016446E+02  0.62500000000E+02  0.47000000000E+01 0. -1.
         -5    1    1    0    0  501 -0.34159057916E+02  0.48683209881E+02 -0.18635016446E+02  0.62500000000E+02  0.47000000000E+01 0. -1.
</event>
<event>
 3    0  0.4603569E-005  0.9118800E+02  0.7546771E-02  0.1235069E+00
         25   -1    0    0    0    0  0.00000000000E+00  0.00000000000E+00  0.99999998245E-14  0.12500000000E+03  0.12500000000E+03 0.  0.
          5    1    1    0  501    0 -0.22074369980E+02  0.49424891988E+02  0.30887897986E+02  0.62500000000E+02  0.47000000000E+01 0. -1.
         -5    1    1    0    0  501  0.22074369980E+02 -0.49424891988E+02 -0.30887897986E+02  0.62500000000E+02  0.47000000000E+01 0. -1.
</event>
<event>
 3    0  0.4603569E-005  0.9118800E+02  0.7546771E-02  0.1235069E+00
         25   -1    0    0    0    0  0.00000000000E+00  0.00000000000E+00  0.99999998245E-14  0.12500000000E+03  0.12500000000E+03 0.  0.
          5    1    1    0  501    0  0.52441035987E+02 -0.26090844546E+02  0.21292383040E+02  0.62500000000E+02  0.47000000000E+01 0. -1.
         -5    1    1    0    0  501 -0.52441035987E+02  0.26090844546E+02 -0.21292383040E+02  0.62500000000E+02  0.47000000000E+01 0. -1.
</event>
<event>
 3    0  0.4603569E-005  0.9118800E+02  0.7546771E-02  0.1235069E+00
         25   -1    0    0    0    0  0.00000000000E+00  0.00000000000E+00  0.99999998245E-14  0.12500000000E+03  0.12500000000E+03 0.  0.
          5    1    1    0  501    0  0.32606699892E+02  0.10607566278E+02  0.52042700351E+02  0.62500000000E+02  0.47000000000E+01 0. -1.
         -5    1    1    0    0  501 -0.32606699892E+02 -0.10607566278E+02 -0.52042700351E+02  0.62500000000E+02  0.47000000000E+01 0. -1.
</event>
<event>
 3    0  0.4603569E-005  0.9118800E+02  0.7546771E-02  0.1235069E+00
         25   -1    0    0    0    0  0.00000000000E+00  0.00000000000E+00  0.99999998245E-14  0.12500000000E+03  0.12500000000E+03 0.  0.
          5    1    1    0  501    0  0.30192431865E+02  0.34367667860E+02 -0.42325411563E+02  0.62500000000E+02  0.47000000000E+01 0.  1.
         -5    1    1    0    0  501 -0.30192431865E+02 -0.34367667860E+02  0.42325411563E+02  0.62500000000E+02  0.47000000000E+01 0.  1.
</event>
<event>
 3    0  0.4603569E-005  0.9118800E+02  0.7546771E-02  0.1235069E+00
         25   -1    0    0    0    0  0.00000000000E+00  0.00000000000E+00  0.99999998245E-14  0.12500000000E+03  0.12500000000E+03 0.  0.
          5    1    1    0  501    0 -0.47786816418E+02  0.29935699737E+02  0.26541176649E+02  0.62500000000E+02  0.47000000000E+01 0. -1.
         -5    1    1    0    0  501  0.47786816418E+02 -0.29935699737E+02 -0.26541176649E+02  0.62500000000E+02  0.47000000000E+01 0. -1.
</event>
<event>
 3    0  0.4603569E-005  0.9118800E+02  0.7546771E-02  0.1235069E+00
         25   -1    0    0    0    0  0.00000000000E+00  0.00000000000E+00  0.99999998245E-14  0.12500000000E+03  0.12500000000E+03 0.  0.
          5    1    1    0  501    0  0.49996277768E+02  0.19410182792E+02 -0.31745503829E+02  0.62500000000E+02  0.47000000000E+01 0.  1.
         -5    1    1    0    0  501 -0.49996277768E+02 -0.19410182792E+02  0.31745503829E+02  0.62500000000E+02  0.47000000000E+01 0.  1.
</event>
<event>
 3    0  0.4603569E-005  0.9118800E+02  0.7546771E-02  0.1235069E+00
         25   -1    0    0    0    0  0.00000000000E+00  0.00000000000E+00  0.99999998245E-14  0.12500000000E+03  0.12500000000E+03 0.  0.
          5    1    1    0  501    0  0.51638290892E+02  0.30818483323E+02  0.16366673437E+02  0.62500000000E+02  0.47000000000E+01 0. -1.
         -5    1    1    0    0  501 -0.51638290892E+02 -0.30818483323E+02 -0.16366673437E+02  0.62500000000E+02  0.47000000000E+01 0. -1.
</event>
<event>
 3    0  0.4603569E-005  0.9118800E+02  0.7546771E-02  0.1235069E+00
         25   -1    0    0    0    0  0.00000000000E+00  0.00000000000E+00  0.99999998245E-14  0.12500000000E+03  0.12500000000E+03 0.  0.
          5    1    1    0  501    0  0.35922774661E+02 -0.68326106896E+01 -0.50468105689E+02  0.62500000000E+02  0.47000000000E+01 0. -1.
         -5    1    1    0    0  501 -0.35922774661E+02  0.68326106896E+01  0.50468105689E+02  0.62500000000E+02  0.47000000000E+01 0. -1.
</event>
<event>
 3    0  0.4603569E-005  0.9118800E+02  0.7546771E-02  0.1235069E+00
         25   -1    0    0    0    0  0.00000000000E+00  0.00000000000E+00  0.99999998245E-14  0.12500000000E+03  0.12500000000E+03 0.  0.
          5    1    1    0  501    0  0.34224322037E+02 -0.21217354859E+02  0.47567632208E+02  0.62500000000E+02  0.47000000000E+01 0.  1.
         -5    1    1    0    0  501 -0.34224322037E+02  0.21217354859E+02 -0.47567632208E+02  0.62500000000E+02  0.47000000000E+01 0.  1.
</event>
<event>
 3    0  0.4603569E-005  0.9118800E+02  0.7546771E-02  0.1235069E+00
         25   -1    0    0    0    0  0.00000000000E+00  0.00000000000E+00  0.99999998245E-14  0.12500000000E+03  0.12500000000E+03 0.  0.
          5    1    1    0  501    0 -0.44866047893E+02 -0.20149916128E+02 -0.38277651790E+02  0.62500000000E+02  0.47000000000E+01 0.  1.
         -5    1    1    0    0  501  0.44866047893E+02  0.20149916128E+02  0.38277651790E+02  0.62500000000E+02  0.47000000000E+01 0.  1.
</event>
<event>
 3    0  0.4603569E-005  0.9118800E+02  0.7546771E-02  0.1235069E+00
         25   -1    0    0    0    0  0.00000000000E+00  0.00000000000E+00  0.99999998245E-14  0.12500000000E+03  0.12500000000E+03 0.  0.
          5    1    1    0  501    0  0.17844335812E+02 -0.59709282511E+02  0.73570477319E+00  0.62500000000E+02  0.47000000000E+01 0.  1.
         -5    1    1    0    0  501 -0.17844335812E+02  0.59709282511E+02 -0.73570477319E+00  0.62500000000E+02  0.47000000000E+01 0.  1.
</event>
<event>
 3    0  0.4603569E-005  0.9118800E+02  0.7546771E-02  0.1235069E+00
         25   -1    0    0    0    0  0.00000000000E+00  0.00000000000E+00  0.99999998245E-14  0.12500000000E+03  0.12500000000E+03 0.  0.
          5    1    1    0  501    0  0.35769381031E+02  0.39354055392E+02  0.32495687480E+02  0.62500000000E+02  0.47000000000E+01 0.  1.
         -5    1    1    0    0  501 -0.35769381031E+02 -0.39354055392E+02 -0.32495687480E+02  0.62500000000E+02  0.47000000000E+01 0.  1.
</event>
<event>
 3    0  0.4603569E-005  0.9118800E+02  0.7546771E-02  0.1235069E+00
         25   -1    0    0    0    0  0.00000000000E+00  0.00000000000E+00  0.99999998245E-14  0.12500000000E+03  0.12500000000E+03 0.  0.
          5    1    1    0  501    0 -0.45748093928E+02 -0.22061962372E+02 -0.36118440142E+02  0.62500000000E+02  0.47000000000E+01 0.  1.
         -5    1    1    0    0  501  0.45748093928E+02  0.22061962372E+02  0.36118440142E+02  0.62500000000E+02  0.47000000000E+01 0.  1.
</event>
<event>
 3    0  0.4603569E-005  0.9118800E+02  0.7546771E-02  0.1235069E+00
         25   -1    0    0    0    0  0.00000000000E+00  0.00000000000E+00  0.99999998245E-14  0.12500000000E+03  0.12500000000E+03 0.  0.
          5    1    1    0  501    0  0.37531873952E+02 -0.10411989499E+02 -0.48652943512E+02  0.62500000000E+02  0.47000000000E+01 0.  1.
         -5    1    1    0    0  501 -0.37531873952E+02  0.10411989499E+02  0.48652943512E+02  0.62500000000E+02  0.47000000000E+01 0.  1.
</event>
<event>
 3    0  0.4603569E-005  0.9118800E+02  0.7546771E-02  0.1235069E+00
         25   -1    0    0    0    0  0.00000000000E+00  0.00000000000E+00  0.99999998245E-14  0.12500000000E+03  0.12500000000E+03 0.  0.
          5    1    1    0  501    0  0.56751432477E+02 -0.24970996200E+02  0.63153986905E+01  0.62500000000E+02  0.47000000000E+01 0.  1.
         -5    1    1    0    0  501 -0.56751432477E+02  0.24970996200E+02 -0.63153986905E+01  0.62500000000E+02  0.47000000000E+01 0.  1.
</event>
<event>
 3    0  0.4603569E-005  0.9118800E+02  0.7546771E-02  0.1235069E+00
         25   -1    0    0    0    0  0.00000000000E+00  0.00000000000E+00  0.99999998245E-14  0.12500000000E+03  0.12500000000E+03 0.  0.
          5    1    1    0  501    0 -0.30606600994E+02  0.16977639326E+02  0.51567002419E+02  0.62500000000E+02  0.47000000000E+01 0. -1.
         -5    1    1    0    0  501  0.30606600994E+02 -0.16977639326E+02 -0.51567002419E+02  0.62500000000E+02  0.47000000000E+01 0. -1.
</event>
<event>
 3    0  0.4603569E-005  0.9118800E+02  0.7546771E-02  0.1235069E+00
         25   -1    0    0    0    0  0.00000000000E+00  0.00000000000E+00  0.99999998245E-14  0.12500000000E+03  0.12500000000E+03 0.  0.
          5    1    1    0  501    0 -0.24907720307E+01 -0.94180446138E+01  0.61556936980E+02  0.62500000000E+02  0.47000000000E+01 0. -1.
         -5    1    1    0    0  501  0.24907720307E+01  0.94180446138E+01 -0.61556936980E+02  0.62500000000E+02  0.47000000000E+01 0. -1.
</event>
<event>
 3    0  0.4603569E-005  0.9118800E+02  0.7546771E-02  0.1235069E+00
         25   -1    0    0    0    0  0.00000000000E+00  0.00000000000E+00  0.99999998245E-14  0.12500000000E+03  0.12500000000E+03 0.  0.
          5    1    1    0  501    0 -0.47858753530E+01  0.46958426383E+02 -0.40695965264E+02  0.62500000000E+02  0.47000000000E+01 0. -1.
         -5    1    1    0    0  501  0.47858753530E+01 -0.46958426383E+02  0.40695965264E+02  0.62500000000E+02  0.47000000000E+01 0. -1.
</event>
<event>
 3    0  0.4603569E-005  0.9118800E+02  0.7546771E-02  0.1235069E+00
         25   -1    0    0    0    0  0.00000000000E+00  0.00000000000E+00  0.99999998245E-14  0.12500000000E+03  0.12500000000E+03 0.  0.
          5    1    1    0  501    0 -0.27153037520E+02 -0.47583151884E+02  0.29710540389E+02  0.62500000000E+02  0.47000000000E+01 0.  1.
         -5    1    1    0    0  501  0.27153037520E+02  0.47583151884E+02 -0.29710540389E+02  0.62500000000E+02  0.47000000000E+01 0.  1.
</event>
<event>
 3    0  0.4603569E-005  0.9118800E+02  0.7546771E-02  0.1235069E+00
         25   -1    0    0    0    0  0.00000000000E+00  0.00000000000E+00  0.99999998245E-14  0.12500000000E+03  0.12500000000E+03 0.  0.
          5    1    1    0  501    0 -0.45990813985E+02 -0.35801777480E+02  0.22073462762E+02  0.62500000000E+02  0.47000000000E+01 0.  1.
         -5    1    1    0    0  501  0.45990813985E+02  0.35801777480E+02 -0.22073462762E+02  0.62500000000E+02  0.47000000000E+01 0.  1.
</event>
<event>
 3    0  0.4603569E-005  0.9118800E+02  0.7546771E-02  0.1235069E+00
         25   -1    0    0    0    0  0.00000000000E+00  0.00000000000E+00  0.99999998245E-14  0.12500000000E+03  0.12500000000E+03 0.  0.
          5    1    1    0  501    0  0.24941472796E+02  0.46242365249E+01  0.56927140902E+02  0.62500000000E+02  0.47000000000E+01 0. -1.
         -5    1    1    0    0  501 -0.24941472796E+02 -0.46242365249E+01 -0.56927140902E+02  0.62500000000E+02  0.47000000000E+01 0. -1.
</event>
<event>
 3    0  0.4603569E-005  0.9118800E+02  0.7546771E-02  0.1235069E+00
         25   -1    0    0    0    0  0.00000000000E+00  0.00000000000E+00  0.99999998245E-14  0.12500000000E+03  0.12500000000E+03 0.  0.
          5    1    1    0  501    0  0.47787903668E+02 -0.26469577103E+02  0.29997295728E+02  0.62500000000E+02  0.47000000000E+01 0. -1.
         -5    1    1    0    0  501 -0.47787903668E+02  0.26469577103E+02 -0.29997295728E+02  0.62500000000E+02  0.47000000000E+01 0. -1.
</event>
<event>
 3    0  0.4603569E-005  0.9118800E+02  0.7546771E-02  0.1235069E+00
         25   -1    0    0    0    0  0.00000000000E+00  0.00000000000E+00  0.99999998245E-14  0.12500000000E+03  0.12500000000E+03 0.  0.
          5    1    1    0  501    0 -0.20242910324E+02 -0.55511357047E+02 -0.19821044886E+02  0.62500000000E+02  0.47000000000E+01 0.  1.
         -5    1    1    0    0  501  0.20242910324E+02  0.55511357047E+02  0.19821044886E+02  0.62500000000E+02  0.47000000000E+01 0.  1.
</event>
<event>
 3    0  0.4603569E-005  0.9118800E+02  0.7546771E-02  0.1235069E+00
         25   -1    0    0    0    0  0.00000000000E+00  0.00000000000E+00  0.99999998245E-14  0.12500000000E+03  0.12500000000E+03 0.  0.
          5    1    1    0  501    0  0.34288937492E+02 -0.47291598287E+02  0.21724030407E+02  0.62500000000E+02  0.47000000000E+01 0.  1.
         -5    1    1    0    0  501 -0.34288937492E+02  0.47291598287E+02 -0.21724030407E+02  0.62500000000E+02  0.47000000000E+01 0.  1.
</event>
<event>
 3    0  0.4603569E-005  0.9118800E+02  0.7546771E-02  0.1235069E+00
         25   -1    0    0    0    0  0.00000000000E+00  0.00000000000E+00  0.99999998245E-14  0.12500000000E+03  0.12500000000E+03 0.  0.
          5    1    1    0  501    0  0.23952653416E+02 -0.26169323360E+02  0.51240578736E+02  0.62500000000E+02  0.47000000000E+01 0. -1.
         -5    1    1    0    0  501 -0.23952653416E+02  0.26169323360E+02 -0.51240578736E+02  0.62500000000E+02  0.47000000000E+01 0. -1.
</event>
<event>
 3    0  0.4603569E-005  0.9118800E+02  0.7546771E-02  0.1235069E+00
         25   -1    0    0    0    0  0.00000000000E+00  0.00000000000E+00  0.99999998245E-14  0.12500000000E+03  0.12500000000E+03 0.  0.
          5    1    1    0  501    0  0.49445571812E+02 -0.18215040806E+02  0.33279238523E+02  0.62500000000E+02  0.47000000000E+01 0. -1.
         -5    1    1    0    0  501 -0.49445571812E+02  0.18215040806E+02 -0.33279238523E+02  0.62500000000E+02  0.47000000000E+01 0. -1.
</event>
<event>
 3    0  0.4603569E-005  0.9118800E+02  0.7546771E-02  0.1235069E+00
         25   -1    0    0    0    0  0.00000000000E+00  0.00000000000E+00  0.99999998245E-14  0.12500000000E+03  0.12500000000E+03 0.  0.
          5    1    1    0  501    0 -0.25868305535E+02 -0.13592293364E+02 -0.55047618748E+02  0.62500000000E+02  0.47000000000E+01 0. -1.
         -5    1    1    0    0  501  0.25868305535E+02  0.13592293364E+02  0.55047618748E+02  0.62500000000E+02  0.47000000000E+01 0. -1.
</event>
<event>
 3    0  0.4603569E-005  0.9118800E+02  0.7546771E-02  0.1235069E+00
         25   -1    0    0    0    0  0.00000000000E+00  0.00000000000E+00  0.99999998245E-14  0.12500000000E+03  0.12500000000E+03 0.  0.
          5    1    1    0  501    0  0.48224346832E+02 -0.17257825715E+02  0.35506898263E+02  0.62500000000E+02  0.47000000000E+01 0. -1.
         -5    1    1    0    0  501 -0.48224346832E+02  0.17257825715E+02 -0.35506898263E+02  0.62500000000E+02  0.47000000000E+01 0. -1.
</event>
<event>
 3    0  0.4603569E-005  0.9118800E+02  0.7546771E-02  0.1235069E+00
         25   -1    0    0    0    0  0.00000000000E+00  0.00000000000E+00  0.99999998245E-14  0.12500000000E+03  0.12500000000E+03 0.  0.
          5    1    1    0  501    0 -0.15288356455E+02 -0.25854884105E+02  0.54607244252E+02  0.62500000000E+02  0.47000000000E+01 0. -1.
         -5    1    1    0    0  501  0.15288356455E+02  0.25854884105E+02 -0.54607244252E+02  0.62500000000E+02  0.47000000000E+01 0. -1.
</event>
<event>
 3    0  0.4603569E-005  0.9118800E+02  0.7546771E-02  0.1235069E+00
         25   -1    0    0    0    0  0.00000000000E+00  0.00000000000E+00  0.99999998245E-14  0.12500000000E+03  0.12500000000E+03 0.  0.
          5    1    1    0  501    0  0.52527119440E+02  0.57073061398E+01 -0.33052811982E+02  0.62500000000E+02  0.47000000000E+01 0.  1.
         -5    1    1    0    0  501 -0.52527119440E+02 -0.57073061398E+01  0.33052811982E+02  0.62500000000E+02  0.47000000000E+01 0.  1.
</event>
<event>
 3    0  0.4603569E-005  0.9118800E+02  0.7546771E-02  0.1235069E+00
         25   -1    0    0    0    0  0.00000000000E+00  0.00000000000E+00  0.99999998245E-14  0.12500000000E+03  0.12500000000E+03 0.  0.
          5    1    1    0  501    0 -0.53031348889E+02 -0.19731277111E+02  0.26124944759E+02  0.62500000000E+02  0.47000000000E+01 0.  1.
         -5    1    1    0    0  501  0.53031348889E+02  0.19731277111E+02 -0.26124944759E+02  0.62500000000E+02  0.47000000000E+01 0.  1.
</event>
<event>
 3    0  0.4603569E-005  0.9118800E+02  0.7546771E-02  0.1235069E+00
         25   -1    0    0    0    0  0.00000000000E+00  0.00000000000E+00  0.99999998245E-14  0.12500000000E+03  0.12500000000E+03 0.  0.
          5    1    1    0  501    0 -0.51306702295E+02 -0.36968431280E+01 -0.35186867585E+02  0.62500000000E+02  0.47000000000E+01 0. -1.
         -5    1    1    0    0  501  0.51306702295E+02  0.36968431280E+01  0.35186867585E+02  0.62500000000E+02  0.47000000000E+01 0. -1.
</event>
<event>
 3    0  0.4603569E-005  0.9118800E+02  0.7546771E-02  0.1235069E+00
         25   -1    0    0    0    0  0.00000000000E+00  0.00000000000E+00  0.99999998245E-14  0.12500000000E+03  0.12500000000E+03 0.  0.
          5    1    1    0  501    0 -0.46426082567E+02  0.34786718403E+02 -0.22774175731E+02  0.62500000000E+02  0.47000000000E+01 0.  1.
         -5    1    1    0    0  501  0.46426082567E+02 -0.34786718403E+02  0.22774175731E+02  0.62500000000E+02  0.47000000000E+01 0.  1.
</event>
<event>
 3    0  0.4603569E-005  0.9118800E+02  0.7546771E-02  0.1235069E+00
         25   -1    0    0    0    0  0.00000000000E+00  0.00000000000E+00  0.99999998245E-14  0.12500000000E+03  0.12500000000E+03 0.  0.
          5    1    1    0  501    0  0.53332317088E+01  0.57227663394E+02 -0.24097949747E+02  0.62500000000E+02  0.47000000000E+01 0.  1.
         -5    1    1    0    0  501 -0.53332317088E+01 -0.57227663394E+02  0.24097949747E+02  0.62500000000E+02  0.47000000000E+01 0.  1.
</event>
<event>
 3    0  0.4603569E-005  0.9118800E+02  0.7546771E-02  0.1235069E+00
         25   -1    0    0    0    0  0.00000000000E+00  0.00000000000E+00  0.99999998245E-14  0.12500000000E+03  0.12500000000E+03 0.  0.
          5    1    1    0  501    0  0.26666177911E+02  0.28267832330E+02 -0.48723758178E+02  0.62500000000E+02  0.47000000000E+01 0.  1.
         -5    1    1    0    0  501 -0.26666177911E+02 -0.28267832330E+02  0.48723758178E+02  0.62500000000E+02  0.47000000000E+01 0.  1.
</event>
<event>
 3    0  0.4603569E-005  0.9118800E+02  0.7546771E-02  0.1235069E+00
         25   -1    0    0    0    0  0.00000000000E+00  0.00000000000E+00  0.99999998245E-14  0.12500000000E+03  0.12500000000E+03 0.  0.
          5    1    1    0  501    0  0.34442587584E+02  0.59287260346E+00 -0.51937622804E+02  0.62500000000E+02  0.47000000000E+01 0. -1.
         -5    1    1    0    0  501 -0.34442587584E+02 -0.59287260346E+00  0.51937622804E+02  0.62500000000E+02  0.47000000000E+01 0. -1.
</event>
<event>
 3    0  0.4603569E-005  0.9118800E+02  0.7546771E-02  0.1235069E+00
         25   -1    0    0    0    0  0.00000000000E+00  0.00000000000E+00  0.99999998245E-14  0.12500000000E+03  0.12500000000E+03 0.  0.
          5    1    1    0  501    0 -0.21304970985E+02  0.10763575887E+02  0.57570857605E+02  0.62500000000E+02  0.47000000000E+01 0. -1.
         -5    1    1    0    0  501  0.21304970985E+02 -0.10763575887E+02 -0.57570857605E+02  0.62500000000E+02  0.47000000000E+01 0. -1.
</event>
<event>
 3    0  0.4603569E-005  0.9118800E+02  0.7546771E-02  0.1235069E+00
         25   -1    0    0    0    0  0.00000000000E+00  0.00000000000E+00  0.99999998245E-14  0.12500000000E+03  0.12500000000E+03 0.  0.
          5    1    1    0  501    0 -0.52858765980E+02 -0.29658854674E+02 -0.14507349810E+02  0.62500000000E+02  0.47000000000E+01 0.  1.
         -5    1    1    0    0  501  0.52858765980E+02  0.29658854674E+02  0.14507349810E+02  0.62500000000E+02  0.47000000000E+01 0.  1.
</event>
<event>
 3    0  0.4603569E-005  0.9118800E+02  0.7546771E-02  0.1235069E+00
         25   -1    0    0    0    0  0.00000000000E+00  0.00000000000E+00  0.99999998245E-14  0.12500000000E+03  0.12500000000E+03 0.  0.
          5    1    1    0  501    0  0.21138613550E+01  0.61746363182E+02 -0.81901296710E+01  0.62500000000E+02  0.47000000000E+01 0. -1.
         -5    1    1    0    0  501 -0.21138613550E+01 -0.61746363182E+02  0.81901296710E+01  0.62500000000E+02  0.47000000000E+01 0. -1.
</event>
<event>
 3    0  0.4603569E-005  0.9118800E+02  0.7546771E-02  0.1235069E+00
         25   -1    0    0    0    0  0.00000000000E+00  0.00000000000E+00  0.99999998245E-14  0.12500000000E+03  0.12500000000E+03 0.  0.
          5    1    1    0  501    0  0.14251122471E+02  0.51896363419E+02  0.31429810248E+02  0.62500000000E+02  0.47000000000E+01 0.  1.
         -5    1    1    0    0  501 -0.14251122471E+02 -0.51896363419E+02 -0.31429810248E+02  0.62500000000E+02  0.47000000000E+01 0.  1.
</event>
<event>
 3    0  0.4603569E-005  0.9118800E+02  0.7546771E-02  0.1235069E+00
         25   -1    0    0    0    0  0.00000000000E+00  0.00000000000E+00  0.99999998245E-14  0.12500000000E+03  0.12500000000E+03 0.  0.
          5    1    1    0  501    0 -0.12330666275E+02 -0.60655558163E+02  0.72813414389E+01  0.62500000000E+02  0.47000000000E+01 0.  1.
         -5    1    1    0    0  501  0.12330666275E+02  0.60655558163E+02 -0.72813414389E+01  0.62500000000E+02  0.47000000000E+01 0.  1.
</event>
<event>
 3    0  0.4603569E-005  0.9118800E+02  0.7546771E-02  0.1235069E+00
         25   -1    0    0    0    0  0.00000000000E+00  0.00000000000E+00  0.99999998245E-14  0.12500000000E+03  0.12500000000E+03 0.  0.
          5    1    1    0  501    0  0.35105101742E+02 -0.32499665966E+02  0.39944505802E+02  0.62500000000E+02  0.47000000000E+01 0.  1.
         -5    1    1    0    0  501 -0.35105101742E+02  0.32499665966E+02 -0.39944505802E+02  0.62500000000E+02  0.47000000000E+01 0.  1.
</event>
<event>
 3    0  0.4603569E-005  0.9118800E+02  0.7546771E-02  0.1235069E+00
         25   -1    0    0    0    0  0.00000000000E+00  0.00000000000E+00  0.99999998245E-14  0.12500000000E+03  0.12500000000E+03 0.  0.
          5    1    1    0  501    0 -0.44452572085E+02  0.32926174461E+02  0.28705328258E+02  0.62500000000E+02  0.47000000000E+01 0. -1.
         -5    1    1    0    0  501  0.44452572085E+02 -0.32926174461E+02 -0.28705328258E+02  0.62500000000E+02  0.47000000000E+01 0. -1.
</event>
<event>
 3    0  0.4603569E-005  0.9118800E+02  0.7546771E-02  0.1235069E+00
         25   -1    0    0    0    0  0.00000000000E+00  0.00000000000E+00  0.99999998245E-14  0.12500000000E+03  0.12500000000E+03 0.  0.
          5    1    1    0  501    0  0.29709322816E+02 -0.28169282074E+02 -0.46989442275E+02  0.62500000000E+02  0.47000000000E+01 0. -1.
         -5    1    1    0    0  501 -0.29709322816E+02  0.28169282074E+02  0.46989442275E+02  0.62500000000E+02  0.47000000000E+01 0. -1.
</event>
<event>
 3    0  0.4603569E-005  0.9118800E+02  0.7546771E-02  0.1235069E+00
         25   -1    0    0    0    0  0.00000000000E+00  0.00000000000E+00  0.99999998245E-14  0.12500000000E+03  0.12500000000E+03 0.  0.
          5    1    1    0  501    0  0.46710194978E+02  0.33453858202E+02 -0.24148645025E+02  0.62500000000E+02  0.47000000000E+01 0. -1.
         -5    1    1    0    0  501 -0.46710194978E+02 -0.33453858202E+02  0.24148645025E+02  0.62500000000E+02  0.47000000000E+01 0. -1.
</event>
<event>
 3    0  0.4603569E-005  0.9118800E+02  0.7546771E-02  0.1235069E+00
         25   -1    0    0    0    0  0.00000000000E+00  0.00000000000E+00  0.99999998245E-14  0.12500000000E+03  0.12500000000E+03 0.  0.
          5    1    1    0  501    0 -0.16428202910E+02  0.45461867047E+02 -0.39338184932E+02  0.62500000000E+02  0.47000000000E+01 0. -1.
         -5    1    1    0    0  501  0.16428202910E+02 -0.45461867047E+02  0.39338184932E+02  0.62500000000E+02  0.47000000000E+01 0. -1.
</event>
<event>
 3    0  0.4603569E-005  0.9118800E+02  0.7546771E-02  0.1235069E+00
         25   -1    0    0    0    0  0.00000000000E+00  0.00000000000E+00  0.99999998245E-14  0.12500000000E+03  0.12500000000E+03 0.  0.
          5    1    1    0  501    0 -0.47855008991E+02 -0.13702183795E+02 -0.37500776975E+02  0.62500000000E+02  0.47000000000E+01 0. -1.
         -5    1    1    0    0  501  0.47855008991E+02  0.13702183795E+02  0.37500776975E+02  0.62500000000E+02  0.47000000000E+01 0. -1.
</event>
<event>
 3    0  0.4603569E-005  0.9118800E+02  0.7546771E-02  0.1235069E+00
         25   -1    0    0    0    0  0.00000000000E+00  0.00000000000E+00  0.99999998245E-14  0.12500000000E+03  0.12500000000E+03 0.  0.
          5    1    1    0  501    0 -0.20390830969E+02 -0.28495072553E+02 -0.51540322589E+02  0.62500000000E+02  0.47000000000E+01 0.  1.
         -5    1    1    0    0  501  0.20390830969E+02  0.28495072553E+02  0.51540322589E+02  0.62500000000E+02  0.47000000000E+01 0.  1.
</event>
<event>
 3    0  0.4603569E-005  0.9118800E+02  0.7546771E-02  0.1235069E+00
         25   -1    0    0    0    0  0.00000000000E+00  0.00000000000E+00  0.99999998245E-14  0.12500000000E+03  0.12500000000E+03 0.  0.
          5    1    1    0  501    0 -0.14312546823E+02  0.19583264786E+02  0.57409117253E+02  0.62500000000E+02  0.47000000000E+01 0. -1.
         -5    1    1    0    0  501  0.14312546823E+02 -0.19583264786E+02 -0.57409117253E+02  0.62500000000E+02  0.47000000000E+01 0. -1.
</event>
<event>
 3    0  0.4603569E-005  0.9118800E+02  0.7546771E-02  0.1235069E+00
         25   -1    0    0    0    0  0.00000000000E+00  0.00000000000E+00  0.99999998245E-14  0.12500000000E+03  0.12500000000E+03 0.  0.
          5    1    1    0  501    0  0.43978854978E+02  0.13033530028E+02  0.42191793157E+02  0.62500000000E+02  0.47000000000E+01 0.  1.
         -5    1    1    0    0  501 -0.43978854978E+02 -0.13033530028E+02 -0.42191793157E+02  0.62500000000E+02  0.47000000000E+01 0.  1.
</event>
<event>
 3    0  0.4603569E-005  0.9118800E+02  0.7546771E-02  0.1235069E+00
         25   -1    0    0    0    0  0.00000000000E+00  0.00000000000E+00  0.99999998245E-14  0.12500000000E+03  0.12500000000E+03 0.  0.
          5    1    1    0  501    0 -0.51833014248E+02 -0.27170370690E+02  0.21430576067E+02  0.62500000000E+02  0.47000000000E+01 0. -1.
         -5    1    1    0    0  501  0.51833014248E+02  0.27170370690E+02 -0.21430576067E+02  0.62500000000E+02  0.47000000000E+01 0. -1.
</event>
<event>
 3    0  0.4603569E-005  0.9118800E+02  0.7546771E-02  0.1235069E+00
         25   -1    0    0    0    0  0.00000000000E+00  0.00000000000E+00  0.99999998245E-14  0.12500000000E+03  0.12500000000E+03 0.  0.
          5    1    1    0  501    0 -0.13027101993E+02  0.39511709443E+02  0.46403442012E+02  0.62500000000E+02  0.47000000000E+01 0.  1.
         -5    1    1    0    0  501  0.13027101993E+02 -0.39511709443E+02 -0.46403442012E+02  0.62500000000E+02  0.47000000000E+01 0.  1.
</event>
<event>
 3    0  0.4603569E-005  0.9118800E+02  0.7546771E-02  0.1235069E+00
         25   -1    0    0    0    0  0.00000000000E+00  0.00000000000E+00  0.99999998245E-14  0.12500000000E+03  0.12500000000E+03 0.  0.
          5    1    1    0  501    0 -0.57476839876E+02  0.23090311626E+02  0.68855200872E+01  0.62500000000E+02  0.47000000000E+01 0. -1.
         -5    1    1    0    0  501  0.57476839876E+02 -0.23090311626E+02 -0.68855200872E+01  0.62500000000E+02  0.47000000000E+01 0. -1.
</event>
<event>
 3    0  0.4603569E-005  0.9118800E+02  0.7546771E-02  0.1235069E+00
         25   -1    0    0    0    0  0.00000000000E+00  0.00000000000E+00  0.99999998245E-14  0.12500000000E+03  0.12500000000E+03 0.  0.
          5    1    1    0  501    0 -0.33651612417E+02  0.49043327495E+02  0.18614000376E+02  0.62500000000E+02  0.47000000000E+01 0. -1.
         -5    1    1    0    0  501  0.33651612417E+02 -0.49043327495E+02 -0.18614000376E+02  0.62500000000E+02  0.47000000000E+01 0. -1.
</event>
<event>
 3    0  0.4603569E-005  0.9118800E+02  0.7546771E-02  0.1235069E+00
         25   -1    0    0    0    0  0.00000000000E+00  0.00000000000E+00  0.99999998245E-14  0.12500000000E+03  0.12500000000E+03 0.  0.
          5    1    1    0  501    0 -0.16197620100E+02  0.54742422781E+02 -0.25001284989E+02  0.62500000000E+02  0.47000000000E+01 0. -1.
         -5    1    1    0    0  501  0.16197620100E+02 -0.54742422781E+02  0.25001284989E+02  0.62500000000E+02  0.47000000000E+01 0. -1.
</event>
<event>
 3    0  0.4603569E-005  0.9118800E+02  0.7546771E-02  0.1235069E+00
         25   -1    0    0    0    0  0.00000000000E+00  0.00000000000E+00  0.99999998245E-14  0.12500000000E+03  0.12500000000E+03 0.  0.
          5    1    1    0  501    0  0.52038724588E+02 -0.32153014001E+02  0.11929578110E+02  0.62500000000E+02  0.47000000000E+01 0. -1.
         -5    1    1    0    0  501 -0.52038724588E+02  0.32153014001E+02 -0.11929578110E+02  0.62500000000E+02  0.47000000000E+01 0. -1.
</event>
<event>
 3    0  0.4603569E-005  0.9118800E+02  0.7546771E-02  0.1235069E+00
         25   -1    0    0    0    0  0.00000000000E+00  0.00000000000E+00  0.99999998245E-14  0.12500000000E+03  0.12500000000E+03 0.  0.
          5    1    1    0  501    0  0.31865317741E+02  0.34691202632E+02  0.40807866708E+02  0.62500000000E+02  0.47000000000E+01 0.  1.
         -5    1    1    0    0  501 -0.31865317741E+02 -0.34691202632E+02 -0.40807866708E+02  0.62500000000E+02  0.47000000000E+01 0.  1.
</event>
<event>
 3    0  0.4603569E-005  0.9118800E+02  0.7546771E-02  0.1235069E+00
         25   -1    0    0    0    0  0.00000000000E+00  0.00000000000E+00  0.99999998245E-14  0.12500000000E+03  0.12500000000E+03 0.  0.
          5    1    1    0  501    0 -0.18157969535E+02  0.58181787050E+02 -0.13012601511E+02  0.62500000000E+02  0.47000000000E+01 0. -1.
         -5    1    1    0    0  501  0.18157969535E+02 -0.58181787050E+02  0.13012601511E+02  0.62500000000E+02  0.47000000000E+01 0. -1.
</event>
<event>
 3    0  0.4603569E-005  0.9118800E+02  0.7546771E-02  0.1235069E+00
         25   -1    0    0    0    0  0.00000000000E+00  0.00000000000E+00  0.99999998245E-14  0.12500000000E+03  0.12500000000E+03 0.  0.
          5    1    1    0  501    0 -0.68503043232E+01 -0.47303763927E+01 -0.61764527602E+02  0.62500000000E+02  0.47000000000E+01 0. -1.
         -5    1    1    0    0  501  0.68503043232E+01  0.47303763927E+01  0.61764527602E+02  0.62500000000E+02  0.47000000000E+01 0. -1.
</event>
<event>
 3    0  0.4603569E-005  0.9118800E+02  0.7546771E-02  0.1235069E+00
         25   -1    0    0    0    0  0.00000000000E+00  0.00000000000E+00  0.99999998245E-14  0.12500000000E+03  0.12500000000E+03 0.  0.
          5    1    1    0  501    0  0.31859647039E+02  0.16894832992E+02  0.50829986315E+02  0.62500000000E+02  0.47000000000E+01 0.  1.
         -5    1    1    0    0  501 -0.31859647039E+02 -0.16894832992E+02 -0.50829986315E+02  0.62500000000E+02  0.47000000000E+01 0.  1.
</event>
<event>
 3    0  0.4603569E-005  0.9118800E+02  0.7546771E-02  0.1235069E+00
         25   -1    0    0    0    0  0.00000000000E+00  0.00000000000E+00  0.99999998245E-14  0.12500000000E+03  0.12500000000E+03 0.  0.
          5    1    1    0  501    0 -0.33368823437E+02  0.44981703936E+02 -0.27337299308E+02  0.62500000000E+02  0.47000000000E+01 0. -1.
         -5    1    1    0    0  501  0.33368823437E+02 -0.44981703936E+02  0.27337299308E+02  0.62500000000E+02  0.47000000000E+01 0. -1.
</event>
<event>
 3    0  0.4603569E-005  0.9118800E+02  0.7546771E-02  0.1235069E+00
         25   -1    0    0    0    0  0.00000000000E+00  0.00000000000E+00  0.99999998245E-14  0.12500000000E+03  0.12500000000E+03 0.  0.
          5    1    1    0  501    0 -0.11384011545E+02  0.15625984191E+02  0.59248568753E+02  0.62500000000E+02  0.47000000000E+01 0.  1.
         -5    1    1    0    0  501  0.11384011545E+02 -0.15625984191E+02 -0.59248568753E+02  0.62500000000E+02  0.47000000000E+01 0.  1.
</event>
<event>
 3    0  0.4603569E-005  0.9118800E+02  0.7546771E-02  0.1235069E+00
         25   -1    0    0    0    0  0.00000000000E+00  0.00000000000E+00  0.99999998245E-14  0.12500000000E+03  0.12500000000E+03 0.  0.
          5    1    1    0  501    0  0.57980704054E+01 -0.62039089878E+02  0.13014248718E+01  0.62500000000E+02  0.47000000000E+01 0.  1.
         -5    1    1    0    0  501 -0.57980704054E+01  0.62039089878E+02 -0.13014248718E+01  0.62500000000E+02  0.47000000000E+01 0.  1.
</event>
<event>
 3    0  0.4603569E-005  0.9118800E+02  0.7546771E-02  0.1235069E+00
         25   -1    0    0    0    0  0.00000000000E+00  0.00000000000E+00  0.99999998245E-14  0.12500000000E+03  0.12500000000E+03 0.  0.
          5    1    1    0  501    0  0.53862961155E+02  0.31034902922E+02 -0.44470457922E+01  0.62500000000E+02  0.47000000000E+01 0. -1.
         -5    1    1    0    0  501 -0.53862961155E+02 -0.31034902922E+02  0.44470457922E+01  0.62500000000E+02  0.47000000000E+01 0. -1.
</event>
<event>
 3    0  0.4603569E-005  0.9118800E+02  0.7546771E-02  0.1235069E+00
         25   -1    0    0    0    0  0.00000000000E+00  0.00000000000E+00  0.99999998245E-14  0.12500000000E+03  0.12500000000E+03 0.  0.
          5    1    1    0  501    0 -0.61459597277E+02 -0.18451099838E+01 -0.10172191097E+02  0.62500000000E+02  0.47000000000E+01 0.  1.
         -5    1    1    0    0  501  0.61459597277E+02  0.18451099838E+01  0.10172191097E+02  0.62500000000E+02  0.47000000000E+01 0.  1.
</event>
<event>
 3    0  0.4603569E-005  0.9118800E+02  0.7546771E-02  0.1235069E+00
         25   -1    0    0    0    0  0.00000000000E+00  0.00000000000E+00  0.99999998245E-14  0.12500000000E+03  0.12500000000E+03 0.  0.
          5    1    1    0  501    0 -0.77550611430E+01  0.58943834477E+02  0.18698754070E+02  0.62500000000E+02  0.47000000000E+01 0.  1.
         -5    1    1    0    0  501  0.77550611430E+01 -0.58943834477E+02 -0.18698754070E+02  0.62500000000E+02  0.47000000000E+01 0.  1.
</event>
<event>
 3    0  0.4603569E-005  0.9118800E+02  0.7546771E-02  0.1235069E+00
         25   -1    0    0    0    0  0.00000000000E+00  0.00000000000E+00  0.99999998245E-14  0.12500000000E+03  0.12500000000E+03 0.  0.
          5    1    1    0  501    0 -0.60257353602E+02 -0.98255595764E+00  0.15882251751E+02  0.62500000000E+02  0.47000000000E+01 0. -1.
         -5    1    1    0    0  501  0.60257353602E+02  0.98255595764E+00 -0.15882251751E+02  0.62500000000E+02  0.47000000000E+01 0. -1.
</event>
<event>
 3    0  0.4603569E-005  0.9118800E+02  0.7546771E-02  0.1235069E+00
         25   -1    0    0    0    0  0.00000000000E+00  0.00000000000E+00  0.99999998245E-14  0.12500000000E+03  0.12500000000E+03 0.  0.
          5    1    1    0  501    0 -0.58902339833E+02  0.10375818329E+02 -0.17521893624E+02  0.62500000000E+02  0.47000000000E+01 0.  1.
         -5    1    1    0    0  501  0.58902339833E+02 -0.10375818329E+02  0.17521893624E+02  0.62500000000E+02  0.47000000000E+01 0.  1.
</event>
<event>
 3    0  0.4603569E-005  0.9118800E+02  0.7546771E-02  0.1235069E+00
         25   -1    0    0    0    0  0.00000000000E+00  0.00000000000E+00  0.99999998245E-14  0.12500000000E+03  0.12500000000E+03 0.  0.
          5    1    1    0  501    0 -0.47044254014E+02 -0.35993635912E+02  0.19376695748E+02  0.62500000000E+02  0.47000000000E+01 0.  1.
         -5    1    1    0    0  501  0.47044254014E+02  0.35993635912E+02 -0.19376695748E+02  0.62500000000E+02  0.47000000000E+01 0.  1.
</event>
<event>
 3    0  0.4603569E-005  0.9118800E+02  0.7546771E-02  0.1235069E+00
         25   -1    0    0    0    0  0.00000000000E+00  0.00000000000E+00  0.99999998245E-14  0.12500000000E+03  0.12500000000E+03 0.  0.
          5    1    1    0  501    0 -0.34495635825E+02 -0.49920542381E+02 -0.14217966008E+02  0.62500000000E+02  0.47000000000E+01 0. -1.
         -5    1    1    0    0  501  0.34495635825E+02  0.49920542381E+02  0.14217966008E+02  0.62500000000E+02  0.47000000000E+01 0. -1.
</event>
<event>
 3    0  0.4603569E-005  0.9118800E+02  0.7546771E-02  0.1235069E+00
         25   -1    0    0    0    0  0.00000000000E+00  0.00000000000E+00  0.99999998245E-14  0.12500000000E+03  0.12500000000E+03 0.  0.
          5    1    1    0  501    0  0.21943965938E+02  0.10748510599E+02  0.57333165610E+02  0.62500000000E+02  0.47000000000E+01 0. -1.
         -5    1    1    0    0  501 -0.21943965938E+02 -0.10748510599E+02 -0.57333165610E+02  0.62500000000E+02  0.47000000000E+01 0. -1.
</event>
<event>
 3    0  0.4603569E-005  0.9118800E+02  0.7546771E-02  0.1235069E+00
         25   -1    0    0    0    0  0.00000000000E+00  0.00000000000E+00  0.99999998245E-14  0.12500000000E+03  0.12500000000E+03 0.  0.
          5    1    1    0  501    0 -0.26402415493E+02  0.42499938246E+02  0.37159490110E+02  0.62500000000E+02  0.47000000000E+01 0.  1.
         -5    1    1    0    0  501  0.26402415493E+02 -0.42499938246E+02 -0.37159490110E+02  0.62500000000E+02  0.47000000000E+01 0.  1.
</event>
<event>
 3    0  0.4603569E-005  0.9118800E+02  0.7546771E-02  0.1235069E+00
         25   -1    0    0    0    0  0.00000000000E+00  0.00000000000E+00  0.99999998245E-14  0.12500000000E+03  0.12500000000E+03 0.  0.
          5    1    1    0  501    0 -0.16006889415E+02  0.52328604865E+02 -0.29827111897E+02  0.62500000000E+02  0.47000000000E+01 0. -1.
         -5    1    1    0    0  501  0.16006889415E+02 -0.52328604865E+02  0.29827111897E+02  0.62500000000E+02  0.47000000000E+01 0. -1.
</event>
<event>
 3    0  0.4603569E-005  0.9118800E+02  0.7546771E-02  0.1235069E+00
         25   -1    0    0    0    0  0.00000000000E+00  0.00000000000E+00  0.99999998245E-14  0.12500000000E+03  0.12500000000E+03 0.  0.
          5    1    1    0  501    0  0.23112675944E+02 -0.42403599096E+02  0.39394149240E+02  0.62500000000E+02  0.47000000000E+01 0. -1.
         -5    1    1    0    0  501 -0.23112675944E+02  0.42403599096E+02 -0.39394149240E+02  0.62500000000E+02  0.47000000000E+01 0. -1.
</event>
<event>
 3    0  0.4603569E-005  0.9118800E+02  0.7546771E-02  0.1235069E+00
         25   -1    0    0    0    0  0.00000000000E+00  0.00000000000E+00  0.99999998245E-14  0.12500000000E+03  0.12500000000E+03 0.  0.
          5    1    1    0  501    0 -0.39000737032E+02 -0.45717462925E+02 -0.16523198679E+02  0.62500000000E+02  0.47000000000E+01 0. -1.
         -5    1    1    0    0  501  0.39000737032E+02  0.45717462925E+02  0.16523198679E+02  0.62500000000E+02  0.47000000000E+01 0. -1.
</event>
<event>
 3    0  0.4603569E-005  0.9118800E+02  0.7546771E-02  0.1235069E+00
         25   -1    0    0    0    0  0.00000000000E+00  0.00000000000E+00  0.99999998245E-14  0.12500000000E+03  0.12500000000E+03 0.  0.
          5    1    1    0  501    0 -0.32391819387E+02 -0.45646476341E+02  0.27410385521E+02  0.62500000000E+02  0.47000000000E+01 0.  1.
         -5    1    1    0    0  501  0.32391819387E+02  0.45646476341E+02 -0.27410385521E+02  0.62500000000E+02  0.47000000000E+01 0.  1.
</event>
<event>
 3    0  0.4603569E-005  0.9118800E+02  0.7546771E-02  0.1235069E+00
         25   -1    0    0    0    0  0.00000000000E+00  0.00000000000E+00  0.99999998245E-14  0.12500000000E+03  0.12500000000E+03 0.  0.
          5    1    1    0  501    0  0.34093540229E+02 -0.48942671756E+02  0.18066693001E+02  0.62500000000E+02  0.47000000000E+01 0.  1.
         -5    1    1    0    0  501 -0.34093540229E+02  0.48942671756E+02 -0.18066693001E+02  0.62500000000E+02  0.47000000000E+01 0.  1.
</event>
<event>
 3    0  0.4603569E-005  0.9118800E+02  0.7546771E-02  0.1235069E+00
         25   -1    0    0    0    0  0.00000000000E+00  0.00000000000E+00  0.99999998245E-14  0.12500000000E+03  0.12500000000E+03 0.  0.
          5    1    1    0  501    0 -0.24171702614E+02  0.46866638372E+02 -0.33217570659E+02  0.62500000000E+02  0.47000000000E+01 0. -1.
         -5    1    1    0    0  501  0.24171702614E+02 -0.46866638372E+02  0.33217570659E+02  0.62500000000E+02  0.47000000000E+01 0. -1.
</event>
<event>
 3    0  0.4603569E-005  0.9118800E+02  0.7546771E-02  0.1235069E+00
         25   -1    0    0    0    0  0.00000000000E+00  0.00000000000E+00  0.99999998245E-14  0.12500000000E+03  0.12500000000E+03 0.  0.
          5    1    1    0  501    0 -0.26136857699E+02 -0.50769375630E+02 -0.24969885216E+02  0.62500000000E+02  0.47000000000E+01 0.  1.
         -5    1    1    0    0  501  0.26136857699E+02  0.50769375630E+02  0.24969885216E+02  0.62500000000E+02  0.47000000000E+01 0.  1.
</event>
<event>
 3    0  0.4603569E-005  0.9118800E+02  0.7546771E-02  0.1235069E+00
         25   -1    0    0    0    0  0.00000000000E+00  0.00000000000E+00  0.99999998245E-14  0.12500000000E+03  0.12500000000E+03 0.  0.
          5    1    1    0  501    0 -0.22818142120E+02 -0.52922996890E+02  0.23720219020E+02  0.62500000000E+02  0.47000000000E+01 0.  1.
         -5    1    1    0    0  501  0.22818142120E+02  0.52922996890E+02 -0.23720219020E+02  0.62500000000E+02  0.47000000000E+01 0.  1.
</event>
<event>
 3    0  0.4603569E-005  0.9118800E+02  0.7546771E-02  0.1235069E+00
         25   -1    0    0    0    0  0.00000000000E+00  0.00000000000E+00  0.99999998245E-14  0.12500000000E+03  0.12500000000E+03 0.  0.
          5    1    1    0  501    0  0.56175285673E+02 -0.52846299601E+01 -0.26468282258E+02  0.62500000000E+02  0.47000000000E+01 0.  1.
         -5    1    1    0    0  501 -0.56175285673E+02  0.52846299601E+01  0.26468282258E+02  0.62500000000E+02  0.47000000000E+01 0.  1.
</event>
<event>
 3    0  0.4603569E-005  0.9118800E+02  0.7546771E-02  0.1235069E+00
         25   -1    0    0    0    0  0.00000000000E+00  0.00000000000E+00  0.99999998245E-14  0.12500000000E+03  0.12500000000E+03 0.  0.
          5    1    1    0  501    0  0.37101932212E+02 -0.44823907191E+02  0.22325410864E+02  0.62500000000E+02  0.47000000000E+01 0.  1.
         -5    1    1    0    0  501 -0.37101932212E+02  0.44823907191E+02 -0.22325410864E+02  0.62500000000E+02  0.47000000000E+01 0.  1.
</event>
<event>
 3    0  0.4603569E-005  0.9118800E+02  0.7546771E-02  0.1235069E+00
         25   -1    0    0    0    0  0.00000000000E+00  0.00000000000E+00  0.99999998245E-14  0.12500000000E+03  0.12500000000E+03 0.  0.
          5    1    1    0  501    0 -0.55240529393E+00 -0.62229565005E+02 -0.33669107018E+01  0.62500000000E+02  0.47000000000E+01 0.  1.
         -5    1    1    0    0  501  0.55240529393E+00  0.62229565005E+02  0.33669107018E+01  0.62500000000E+02  0.47000000000E+01 0.  1.
</event>
<event>
 3    0  0.4603569E-005  0.9118800E+02  0.7546771E-02  0.1235069E+00
         25   -1    0    0    0    0  0.00000000000E+00  0.00000000000E+00  0.99999998245E-14  0.12500000000E+03  0.12500000000E+03 0.  0.
          5    1    1    0  501    0 -0.66973681056E+00  0.41729283386E+02 -0.46285833261E+02  0.62500000000E+02  0.47000000000E+01 0. -1.
         -5    1    1    0    0  501  0.66973681056E+00 -0.41729283386E+02  0.46285833261E+02  0.62500000000E+02  0.47000000000E+01 0. -1.
</event>
<event>
 3    0  0.4603569E-005  0.9118800E+02  0.7546771E-02  0.1235069E+00
         25   -1    0    0    0    0  0.00000000000E+00  0.00000000000E+00  0.99999998245E-14  0.12500000000E+03  0.12500000000E+03 0.  0.
          5    1    1    0  501    0 -0.55187299415E+01  0.60558340426E+02 -0.13652509830E+02  0.62500000000E+02  0.47000000000E+01 0.  1.
         -5    1    1    0    0  501  0.55187299415E+01 -0.60558340426E+02  0.13652509830E+02  0.62500000000E+02  0.47000000000E+01 0.  1.
</event>
<event>
 3    0  0.4603569E-005  0.9118800E+02  0.7546771E-02  0.1235069E+00
         25   -1    0    0    0    0  0.00000000000E+00  0.00000000000E+00  0.99999998245E-14  0.12500000000E+03  0.12500000000E+03 0.  0.
          5    1    1    0  501    0 -0.56786463135E+01  0.24523565544E+02  0.57013223984E+02  0.62500000000E+02  0.47000000000E+01 0. -1.
         -5    1    1    0    0  501  0.56786463135E+01 -0.24523565544E+02 -0.57013223984E+02  0.62500000000E+02  0.47000000000E+01 0. -1.
</event>
<event>
 3    0  0.4603569E-005  0.9118800E+02  0.7546771E-02  0.1235069E+00
         25   -1    0    0    0    0  0.00000000000E+00  0.00000000000E+00  0.99999998245E-14  0.12500000000E+03  0.12500000000E+03 0.  0.
          5    1    1    0  501    0 -0.18079154577E+02  0.38644921111E+02 -0.45429882699E+02  0.62500000000E+02  0.47000000000E+01 0. -1.
         -5    1    1    0    0  501  0.18079154577E+02 -0.38644921111E+02  0.45429882699E+02  0.62500000000E+02  0.47000000000E+01 0. -1.
</event>
<event>
 3    0  0.4603569E-005  0.9118800E+02  0.7546771E-02  0.1235069E+00
         25   -1    0    0    0    0  0.00000000000E+00  0.00000000000E+00  0.99999998245E-14  0.12500000000E+03  0.12500000000E+03 0.  0.
          5    1    1    0  501    0  0.13302182386E+02  0.56749280164E+02 -0.22061984150E+02  0.62500000000E+02  0.47000000000E+01 0. -1.
         -5    1    1    0    0  501 -0.13302182386E+02 -0.56749280164E+02  0.22061984150E+02  0.62500000000E+02  0.47000000000E+01 0. -1.
</event>
<event>
 3    0  0.4603569E-005  0.9118800E+02  0.7546771E-02  0.1235069E+00
         25   -1    0    0    0    0  0.00000000000E+00  0.00000000000E+00  0.99999998245E-14  0.12500000000E+03  0.12500000000E+03 0.  0.
          5    1    1    0  501    0 -0.79427339548E+01 -0.56377376314E+02  0.25350826757E+02  0.62500000000E+02  0.47000000000E+01 0.  1.
         -5    1    1    0    0  501  0.79427339548E+01  0.56377376314E+02 -0.25350826757E+02  0.62500000000E+02  0.47000000000E+01 0.  1.
</event>
<event>
 3    0  0.4603569E-005  0.9118800E+02  0.7546771E-02  0.1235069E+00
         25   -1    0    0    0    0  0.00000000000E+00  0.00000000000E+00  0.99999998245E-14  0.12500000000E+03  0.12500000000E+03 0.  0.
          5    1    1    0  501    0  0.31242303703E+02 -0.17570171871E+02  0.50983992780E+02  0.62500000000E+02  0.47000000000E+01 0.  1.
         -5    1    1    0    0  501 -0.31242303703E+02  0.17570171871E+02 -0.50983992780E+02  0.62500000000E+02  0.47000000000E+01 0.  1.
</event>
<event>
 3    0  0.4603569E-005  0.9118800E+02  0.7546771E-02  0.1235069E+00
         25   -1    0    0    0    0  0.00000000000E+00  0.00000000000E+00  0.99999998245E-14  0.12500000000E+03  0.12500000000E+03 0.  0.
          5    1    1    0  501    0 -0.35662804404E+02 -0.15010375562E+02  0.48857067120E+02  0.62500000000E+02  0.47000000000E+01 0. -1.
         -5    1    1    0    0  501  0.35662804404E+02  0.15010375562E+02 -0.48857067120E+02  0.62500000000E+02  0.47000000000E+01 0. -1.
</event>
<event>
 3    0  0.4603569E-005  0.9118800E+02  0.7546771E-02  0.1235069E+00
         25   -1    0    0    0    0  0.00000000000E+00  0.00000000000E+00  0.99999998245E-14  0.12500000000E+03  0.12500000000E+03 0.  0.
          5    1    1    0  501    0  0.36557403452E+02 -0.46092775801E+02 -0.20571151445E+02  0.62500000000E+02  0.47000000000E+01 0. -1.
         -5    1    1    0    0  501 -0.36557403452E+02  0.46092775801E+02  0.20571151445E+02  0.62500000000E+02  0.47000000000E+01 0. -1.
</event>
<event>
 3    0  0.4603569E-005  0.9118800E+02  0.7546771E-02  0.1235069E+00
         25   -1    0    0    0    0  0.00000000000E+00  0.00000000000E+00  0.99999998245E-14  0.12500000000E+03  0.12500000000E+03 0.  0.
          5    1    1    0  501    0  0.10171369473E+02 -0.26362211598E+02  0.55549410822E+02  0.62500000000E+02  0.47000000000E+01 0.  1.
         -5    1    1    0    0  501 -0.10171369473E+02  0.26362211598E+02 -0.55549410822E+02  0.62500000000E+02  0.47000000000E+01 0.  1.
</event>
<event>
 3    0  0.4603569E-005  0.9118800E+02  0.7546771E-02  0.1235069E+00
         25   -1    0    0    0    0  0.00000000000E+00  0.00000000000E+00  0.99999998245E-14  0.12500000000E+03  0.12500000000E+03 0.  0.
          5    1    1    0  501    0  0.32973067333E+02 -0.43124971710E+02  0.30613291977E+02  0.62500000000E+02  0.47000000000E+01 0. -1.
         -5    1    1    0    0  501 -0.32973067333E+02  0.43124971710E+02 -0.30613291977E+02  0.62500000000E+02  0.47000000000E+01 0. -1.
</event>
<event>
 3    0  0.4603569E-005  0.9118800E+02  0.7546771E-02  0.1235069E+00
         25   -1    0    0    0    0  0.00000000000E+00  0.00000000000E+00  0.99999998245E-14  0.12500000000E+03  0.12500000000E+03 0.  0.
          5    1    1    0  501    0 -0.36248488747E+02  0.50693602543E+02 -0.60475179874E+00  0.62500000000E+02  0.47000000000E+01 0.  1.
         -5    1    1    0    0  501  0.36248488747E+02 -0.50693602543E+02  0.60475179874E+00  0.62500000000E+02  0.47000000000E+01 0.  1.
</event>
<event>
 3    0  0.4603569E-005  0.9118800E+02  0.7546771E-02  0.1235069E+00
         25   -1    0    0    0    0  0.00000000000E+00  0.00000000000E+00  0.99999998245E-14  0.12500000000E+03  0.12500000000E+03 0.  0.
          5    1    1    0  501    0  0.67216349358E+01 -0.13313042868E+02  0.60512333564E+02  0.62500000000E+02  0.47000000000E+01 0. -1.
         -5    1    1    0    0  501 -0.67216349358E+01  0.13313042868E+02 -0.60512333564E+02  0.62500000000E+02  0.47000000000E+01 0. -1.
</event>
<event>
 3    0  0.4603569E-005  0.9118800E+02  0.7546771E-02  0.1235069E+00
         25   -1    0    0    0    0  0.00000000000E+00  0.00000000000E+00  0.99999998245E-14  0.12500000000E+03  0.12500000000E+03 0.  0.
          5    1    1    0  501    0 -0.46650841829E+02  0.23818833237E+02 -0.33771617371E+02  0.62500000000E+02  0.47000000000E+01 0. -1.
         -5    1    1    0    0  501  0.46650841829E+02 -0.23818833237E+02  0.33771617371E+02  0.62500000000E+02  0.47000000000E+01 0. -1.
</event>
<event>
 3    0  0.4603569E-005  0.9118800E+02  0.7546771E-02  0.1235069E+00
         25   -1    0    0    0    0  0.00000000000E+00  0.00000000000E+00  0.99999998245E-14  0.12500000000E+03  0.12500000000E+03 0.  0.
          5    1    1    0  501    0 -0.39492230665E+02  0.41801460081E+02 -0.24024188898E+02  0.62500000000E+02  0.47000000000E+01 0.  1.
         -5    1    1    0    0  501  0.39492230665E+02 -0.41801460081E+02  0.24024188898E+02  0.62500000000E+02  0.47000000000E+01 0.  1.
</event>
<event>
 3    0  0.4603569E-005  0.9118800E+02  0.7546771E-02  0.1235069E+00
         25   -1    0    0    0    0  0.00000000000E+00  0.00000000000E+00  0.99999998245E-14  0.12500000000E+03  0.12500000000E+03 0.  0.
          5    1    1    0  501    0  0.53786098500E+02 -0.28307850741E+02  0.13779738550E+02  0.62500000000E+02  0.47000000000E+01 0.  1.
         -5    1    1    0    0  501 -0.53786098500E+02  0.28307850741E+02 -0.13779738550E+02  0.62500000000E+02  0.47000000000E+01 0.  1.
</event>
<event>
 3    0  0.4603569E-005  0.9118800E+02  0.7546771E-02  0.1235069E+00
         25   -1    0    0    0    0  0.00000000000E+00  0.00000000000E+00  0.99999998245E-14  0.12500000000E+03  0.12500000000E+03 0.  0.
          5    1    1    0  501    0 -0.26621097502E+02  0.56310844955E+02  0.21367986072E+01  0.62500000000E+02  0.47000000000E+01 0.  1.
         -5    1    1    0    0  501  0.26621097502E+02 -0.56310844955E+02 -0.21367986072E+01  0.62500000000E+02  0.47000000000E+01 0.  1.
</event>
<event>
 3    0  0.4603569E-005  0.9118800E+02  0.7546771E-02  0.1235069E+00
         25   -1    0    0    0    0  0.00000000000E+00  0.00000000000E+00  0.99999998245E-14  0.12500000000E+03  0.12500000000E+03 0.  0.
          5    1    1    0  501    0  0.53091198229E+02  0.29020458529E+02 -0.14943147506E+02  0.62500000000E+02  0.47000000000E+01 0. -1.
         -5    1    1    0    0  501 -0.53091198229E+02 -0.29020458529E+02  0.14943147506E+02  0.62500000000E+02  0.47000000000E+01 0. -1.
</event>
<event>
 3    0  0.4603569E-005  0.9118800E+02  0.7546771E-02  0.1235069E+00
         25   -1    0    0    0    0  0.00000000000E+00  0.00000000000E+00  0.99999998245E-14  0.12500000000E+03  0.12500000000E+03 0.  0.
          5    1    1    0  501    0  0.28939225238E+02 -0.35634040869E+02  0.42153248676E+02  0.62500000000E+02  0.47000000000E+01 0.  1.
         -5    1    1    0    0  501 -0.28939225238E+02  0.35634040869E+02 -0.42153248676E+02  0.62500000000E+02  0.47000000000E+01 0.  1.
</event>
<event>
 3    0  0.4603569E-005  0.9118800E+02  0.7546771E-02  0.1235069E+00
         25   -1    0    0    0    0  0.00000000000E+00  0.00000000000E+00  0.99999998245E-14  0.12500000000E+03  0.12500000000E+03 0.  0.
          5    1    1    0  501    0  0.24144049992E+02  0.21517855247E+02  0.53274822905E+02  0.62500000000E+02  0.47000000000E+01 0.  1.
         -5    1    1    0    0  501 -0.24144049992E+02 -0.21517855247E+02 -0.53274822905E+02  0.62500000000E+02  0.47000000000E+01 0.  1.
</event>
<event>
 3    0  0.4603569E-005  0.9118800E+02  0.7546771E-02  0.1235069E+00
         25   -1    0    0    0    0  0.00000000000E+00  0.00000000000E+00  0.99999998245E-14  0.12500000000E+03  0.12500000000E+03 0.  0.
          5    1    1    0  501    0  0.30887644768E+02 -0.51340972811E+02  0.17152781452E+02  0.62500000000E+02  0.47000000000E+01 0. -1.
         -5    1    1    0    0  501 -0.30887644768E+02  0.51340972811E+02 -0.17152781452E+02  0.62500000000E+02  0.47000000000E+01 0. -1.
</event>
<event>
 3    0  0.4603569E-005  0.9118800E+02  0.7546771E-02  0.1235069E+00
         25   -1    0    0    0    0  0.00000000000E+00  0.00000000000E+00  0.99999998245E-14  0.12500000000E+03  0.12500000000E+03 0.  0.
          5    1    1    0  501    0 -0.56526546465E+02 -0.11268003918E+02 -0.23705308107E+02  0.62500000000E+02  0.47000000000E+01 0. -1.
         -5    1    1    0    0  501  0.56526546465E+02  0.11268003918E+02  0.23705308107E+02  0.62500000000E+02  0.47000000000E+01 0. -1.
</event>
<event>
 3    0  0.4603569E-005  0.9118800E+02  0.7546771E-02  0.1235069E+00
         25   -1    0    0    0    0  0.00000000000E+00  0.00000000000E+00  0.99999998245E-14  0.12500000000E+03  0.12500000000E+03 0.  0.
          5    1    1    0  501    0  0.61885278546E+02  0.55519675641E+01 -0.48526235670E+01  0.62500000000E+02  0.47000000000E+01 0. -1.
         -5    1    1    0    0  501 -0.61885278546E+02 -0.55519675641E+01  0.48526235670E+01  0.62500000000E+02  0.47000000000E+01 0. -1.
</event>
<event>
 3    0  0.4603569E-005  0.9118800E+02  0.7546771E-02  0.1235069E+00
         25   -1    0    0    0    0  0.00000000000E+00  0.00000000000E+00  0.99999998245E-14  0.12500000000E+03  0.12500000000E+03 0.  0.
          5    1    1    0  501    0  0.25954691446E+02 -0.25028263678E+02  0.50834043801E+02  0.62500000000E+02  0.47000000000E+01 0.  1.
         -5    1    1    0    0  501 -0.25954691446E+02  0.25028263678E+02 -0.50834043801E+02  0.62500000000E+02  0.47000000000E+01 0.  1.
</event>
<event>
 3    0  0.4603569E-005  0.9118800E+02  0.7546771E-02  0.1235069E+00
         25   -1    0    0    0    0  0.00000000000E+00  0.00000000000E+00  0.99999998245E-14  0.12500000000E+03  0.12500000000E+03 0.  0.
          5    1    1    0  501    0 -0.52254592381E+02  0.11205885201E+02  0.32063151935E+02  0.62500000000E+02  0.47000000000E+01 0.  1.
         -5    1    1    0    0  501  0.52254592381E+02 -0.11205885201E+02 -0.32063151935E+02  0.62500000000E+02  0.47000000000E+01 0.  1.
</event>
<event>
 3    0  0.4603569E-005  0.9118800E+02  0.7546771E-02  0.1235069E+00
         25   -1    0    0    0    0  0.00000000000E+00  0.00000000000E+00  0.99999998245E-14  0.12500000000E+03  0.12500000000E+03 0.  0.
          5    1    1    0  501    0  0.43160763461E+02 -0.25795061536E+02  0.36822863792E+02  0.62500000000E+02  0.47000000000E+01 0.  1.
         -5    1    1    0    0  501 -0.43160763461E+02  0.25795061536E+02 -0.36822863792E+02  0.62500000000E+02  0.47000000000E+01 0.  1.
</event>
<event>
 3    0  0.4603569E-005  0.9118800E+02  0.7546771E-02  0.1235069E+00
         25   -1    0    0    0    0  0.00000000000E+00  0.00000000000E+00  0.99999998245E-14  0.12500000000E+03  0.12500000000E+03 0.  0.
          5    1    1    0  501    0  0.36929669403E+02  0.49254354118E+02  0.97143254113E+01  0.62500000000E+02  0.47000000000E+01 0.  1.
         -5    1    1    0    0  501 -0.36929669403E+02 -0.49254354118E+02 -0.97143254113E+01  0.62500000000E+02  0.47000000000E+01 0.  1.
</event>
<event>
 3    0  0.4603569E-005  0.9118800E+02  0.7546771E-02  0.1235069E+00
         25   -1    0    0    0    0  0.00000000000E+00  0.00000000000E+00  0.99999998245E-14  0.12500000000E+03  0.12500000000E+03 0.  0.
          5    1    1    0  501    0  0.52432538399E+02 -0.32904105405E+02  0.72324798285E+01  0.62500000000E+02  0.47000000000E+01 0. -1.
         -5    1    1    0    0  501 -0.52432538399E+02  0.32904105405E+02 -0.72324798285E+01  0.62500000000E+02  0.47000000000E+01 0. -1.
</event>
<event>
 3    0  0.4603569E-005  0.9118800E+02  0.7546771E-02  0.1235069E+00
         25   -1    0    0    0    0  0.00000000000E+00  0.00000000000E+00  0.99999998245E-14  0.12500000000E+03  0.12500000000E+03 0.  0.
          5    1    1    0  501    0 -0.23528314282E+02 -0.57700961871E+02 -0.10850926961E+01  0.62500000000E+02  0.47000000000E+01 0.  1.
         -5    1    1    0    0  501  0.23528314282E+02  0.57700961871E+02  0.10850926961E+01  0.62500000000E+02  0.47000000000E+01 0.  1.
</event>
<event>
 3    0  0.4603569E-005  0.9118800E+02  0.7546771E-02  0.1235069E+00
         25   -1    0    0    0    0  0.00000000000E+00  0.00000000000E+00  0.99999998245E-14  0.12500000000E+03  0.12500000000E+03 0.  0.
          5    1    1    0  501    0  0.10593733229E+01 -0.35612037727E+00  0.62313007522E+02  0.62500000000E+02  0.47000000000E+01 0.  1.
         -5    1    1    0    0  501 -0.10593733229E+01  0.35612037727E+00 -0.62313007522E+02  0.62500000000E+02  0.47000000000E+01 0.  1.
</event>
<event>
 3    0  0.4603569E-005  0.9118800E+02  0.7546771E-02  0.1235069E+00
         25   -1    0    0    0    0  0.00000000000E+00  0.00000000000E+00  0.99999998245E-14  0.12500000000E+03  0.12500000000E+03 0.  0.
          5    1    1    0  501    0 -0.45895929082E+01 -0.40563146337E+02  0.47092746747E+02  0.62500000000E+02  0.47000000000E+01 0.  1.
         -5    1    1    0    0  501  0.45895929082E+01  0.40563146337E+02 -0.47092746747E+02  0.62500000000E+02  0.47000000000E+01 0.  1.
</event>
<event>
 3    0  0.4603569E-005  0.9118800E+02  0.7546771E-02  0.1235069E+00
         25   -1    0    0    0    0  0.00000000000E+00  0.00000000000E+00  0.99999998245E-14  0.12500000000E+03  0.12500000000E+03 0.  0.
          5    1    1    0  501    0  0.56374617725E+02 -0.11512519219E+02  0.23948368997E+02  0.62500000000E+02  0.47000000000E+01 0.  1.
         -5    1    1    0    0  501 -0.56374617725E+02  0.11512519219E+02 -0.23948368997E+02  0.62500000000E+02  0.47000000000E+01 0.  1.
</event>
<event>
 3    0  0.4603569E-005  0.9118800E+02  0.7546771E-02  0.1235069E+00
         25   -1    0    0    0    0  0.00000000000E+00  0.00000000000E+00  0.99999998245E-14  0.12500000000E+03  0.12500000000E+03 0.  0.
          5    1    1    0  501    0  0.44484564337E+02  0.43245897720E+02  0.59224881744E+01  0.62500000000E+02  0.47000000000E+01 0.  1.
         -5    1    1    0    0  501 -0.44484564337E+02 -0.43245897720E+02 -0.59224881744E+01  0.62500000000E+02  0.47000000000E+01 0.  1.
</event>
<event>
 3    0  0.4603569E-005  0.9118800E+02  0.7546771E-02  0.1235069E+00
         25   -1    0    0    0    0  0.00000000000E+00  0.00000000000E+00  0.99999998245E-14  0.12500000000E+03  0.12500000000E+03 0.  0.
          5    1    1    0  501    0  0.57255420487E+00 -0.52985860055E+02  0.32807481096E+02  0.62500000000E+02  0.47000000000E+01 0.  1.
         -5    1    1    0    0  501 -0.57255420487E+00  0.52985860055E+02 -0.32807481096E+02  0.62500000000E+02  0.47000000000E+01 0.  1.
</event>
<event>
 3    0  0.4603569E-005  0.9118800E+02  0.7546771E-02  0.1235069E+00
         25   -1    0    0    0    0  0.00000000000E+00  0.00000000000E+00  0.99999998245E-14  0.12500000000E+03  0.12500000000E+03 0.  0.
          5    1    1    0  501    0 -0.54804309505E+02 -0.12301053696E+02 -0.27006142592E+02  0.62500000000E+02  0.47000000000E+01 0. -1.
         -5    1    1    0    0  501  0.54804309505E+02  0.12301053696E+02  0.27006142592E+02  0.62500000000E+02  0.47000000000E+01 0. -1.
</event>
<event>
 3    0  0.4603569E-005  0.9118800E+02  0.7546771E-02  0.1235069E+00
         25   -1    0    0    0    0  0.00000000000E+00  0.00000000000E+00  0.99999998245E-14  0.12500000000E+03  0.12500000000E+03 0.  0.
          5    1    1    0  501    0  0.59269087524E+02  0.17378243549E+02 -0.83265788453E+01  0.62500000000E+02  0.47000000000E+01 0. -1.
         -5    1    1    0    0  501 -0.59269087524E+02 -0.17378243549E+02  0.83265788453E+01  0.62500000000E+02  0.47000000000E+01 0. -1.
</event>
<event>
 3    0  0.4603569E-005  0.9118800E+02  0.7546771E-02  0.1235069E+00
         25   -1    0    0    0    0  0.00000000000E+00  0.00000000000E+00  0.99999998245E-14  0.12500000000E+03  0.12500000000E+03 0.  0.
          5    1    1    0  501    0  0.61529440239E+02  0.94514455502E+01  0.29930186871E+01  0.62500000000E+02  0.47000000000E+01 0.  1.
         -5    1    1    0    0  501 -0.61529440239E+02 -0.94514455502E+01 -0.29930186871E+01  0.62500000000E+02  0.47000000000E+01 0.  1.
</event>
<event>
 3    0  0.4603569E-005  0.9118800E+02  0.7546771E-02  0.1235069E+00
         25   -1    0    0    0    0  0.00000000000E+00  0.00000000000E+00  0.99999998245E-14  0.12500000000E+03  0.12500000000E+03 0.  0.
          5    1    1    0  501    0  0.13693439285E+02 -0.28384431743E+02  0.53767776178E+02  0.62500000000E+02  0.47000000000E+01 0.  1.
         -5    1    1    0    0  501 -0.13693439285E+02  0.28384431743E+02 -0.53767776178E+02  0.62500000000E+02  0.47000000000E+01 0.  1.
</event>
<event>
 3    0  0.4603569E-005  0.9118800E+02  0.7546771E-02  0.1235069E+00
         25   -1    0    0    0    0  0.00000000000E+00  0.00000000000E+00  0.99999998245E-14  0.12500000000E+03  0.12500000000E+03 0.  0.
          5    1    1    0  501    0 -0.79336331500E+01  0.55274298511E+02 -0.27676151993E+02  0.62500000000E+02  0.47000000000E+01 0.  1.
         -5    1    1    0    0  501  0.79336331500E+01 -0.55274298511E+02  0.27676151993E+02  0.62500000000E+02  0.47000000000E+01 0.  1.
</event>
<event>
 3    0  0.4603569E-005  0.9118800E+02  0.7546771E-02  0.1235069E+00
         25   -1    0    0    0    0  0.00000000000E+00  0.00000000000E+00  0.99999998245E-14  0.12500000000E+03  0.12500000000E+03 0.  0.
          5    1    1    0  501    0 -0.40618891930E+02  0.29088361477E+02  0.37257654850E+02  0.62500000000E+02  0.47000000000E+01 0. -1.
         -5    1    1    0    0  501  0.40618891930E+02 -0.29088361477E+02 -0.37257654850E+02  0.62500000000E+02  0.47000000000E+01 0. -1.
</event>
<event>
 3    0  0.4603569E-005  0.9118800E+02  0.7546771E-02  0.1235069E+00
         25   -1    0    0    0    0  0.00000000000E+00  0.00000000000E+00  0.99999998245E-14  0.12500000000E+03  0.12500000000E+03 0.  0.
          5    1    1    0  501    0 -0.61939091460E+02 -0.68425475625E+01 -0.94259851406E+00  0.62500000000E+02  0.47000000000E+01 0.  1.
         -5    1    1    0    0  501  0.61939091460E+02  0.68425475625E+01  0.94259851406E+00  0.62500000000E+02  0.47000000000E+01 0.  1.
</event>
<event>
 3    0  0.4603569E-005  0.9118800E+02  0.7546771E-02  0.1235069E+00
         25   -1    0    0    0    0  0.00000000000E+00  0.00000000000E+00  0.99999998245E-14  0.12500000000E+03  0.12500000000E+03 0.  0.
          5    1    1    0  501    0  0.57020448651E+02 -0.59404308182E+01  0.24444625531E+02  0.62500000000E+02  0.47000000000E+01 0. -1.
         -5    1    1    0    0  501 -0.57020448651E+02  0.59404308182E+01 -0.24444625531E+02  0.62500000000E+02  0.47000000000E+01 0. -1.
</event>
<event>
 3    0  0.4603569E-005  0.9118800E+02  0.7546771E-02  0.1235069E+00
         25   -1    0    0    0    0  0.00000000000E+00  0.00000000000E+00  0.99999998245E-14  0.12500000000E+03  0.12500000000E+03 0.  0.
          5    1    1    0  501    0 -0.29915326249E+01 -0.61739023594E+02  0.79689207680E+01  0.62500000000E+02  0.47000000000E+01 0. -1.
         -5    1    1    0    0  501  0.29915326249E+01  0.61739023594E+02 -0.79689207680E+01  0.62500000000E+02  0.47000000000E+01 0. -1.
</event>
<event>
 3    0  0.4603569E-005  0.9118800E+02  0.7546771E-02  0.1235069E+00
         25   -1    0    0    0    0  0.00000000000E+00  0.00000000000E+00  0.99999998245E-14  0.12500000000E+03  0.12500000000E+03 0.  0.
          5    1    1    0  501    0  0.42878377641E+02  0.50674991161E+01 -0.44943577779E+02  0.62500000000E+02  0.47000000000E+01 0. -1.
         -5    1    1    0    0  501 -0.42878377641E+02 -0.50674991161E+01  0.44943577779E+02  0.62500000000E+02  0.47000000000E+01 0. -1.
</event>
<event>
 3    0  0.4603569E-005  0.9118800E+02  0.7546771E-02  0.1235069E+00
         25   -1    0    0    0    0  0.00000000000E+00  0.00000000000E+00  0.99999998245E-14  0.12500000000E+03  0.12500000000E+03 0.  0.
          5    1    1    0  501    0  0.20716721024E+02  0.43180310519E+02 -0.39880299064E+02  0.62500000000E+02  0.47000000000E+01 0. -1.
         -5    1    1    0    0  501 -0.20716721024E+02 -0.43180310519E+02  0.39880299064E+02  0.62500000000E+02  0.47000000000E+01 0. -1.
</event>
<event>
 3    0  0.4603569E-005  0.9118800E+02  0.7546771E-02  0.1235069E+00
         25   -1    0    0    0    0  0.00000000000E+00  0.00000000000E+00  0.99999998245E-14  0.12500000000E+03  0.12500000000E+03 0.  0.
          5    1    1    0  501    0 -0.14253082712E+02 -0.60301580184E+02 -0.66879788098E+01  0.62500000000E+02  0.47000000000E+01 0. -1.
         -5    1    1    0    0  501  0.14253082712E+02  0.60301580184E+02  0.66879788098E+01  0.62500000000E+02  0.47000000000E+01 0. -1.
</event>
<event>
 3    0  0.4603569E-005  0.9118800E+02  0.7546771E-02  0.1235069E+00
         25   -1    0    0    0    0  0.00000000000E+00  0.00000000000E+00  0.99999998245E-14  0.12500000000E+03  0.12500000000E+03 0.  0.
          5    1    1    0  501    0 -0.22902764988E+02  0.55570939078E+02  0.16477077589E+02  0.62500000000E+02  0.47000000000E+01 0. -1.
         -5    1    1    0    0  501  0.22902764988E+02 -0.55570939078E+02 -0.16477077589E+02  0.62500000000E+02  0.47000000000E+01 0. -1.
</event>
<event>
 3    0  0.4603569E-005  0.9118800E+02  0.7546771E-02  0.1235069E+00
         25   -1    0    0    0    0  0.00000000000E+00  0.00000000000E+00  0.99999998245E-14  0.12500000000E+03  0.12500000000E+03 0.  0.
          5    1    1    0  501    0  0.32961893204E+02 -0.18722350224E+02  0.49468648642E+02  0.62500000000E+02  0.47000000000E+01 0. -1.
         -5    1    1    0    0  501 -0.32961893204E+02  0.18722350224E+02 -0.49468648642E+02  0.62500000000E+02  0.47000000000E+01 0. -1.
</event>
<event>
 3    0  0.4603569E-005  0.9118800E+02  0.7546771E-02  0.1235069E+00
         25   -1    0    0    0    0  0.00000000000E+00  0.00000000000E+00  0.99999998245E-14  0.12500000000E+03  0.12500000000E+03 0.  0.
          5    1    1    0  501    0 -0.26510318858E+01  0.24712108420E+01 -0.62217563010E+02  0.62500000000E+02  0.47000000000E+01 0. -1.
         -5    1    1    0    0  501  0.26510318858E+01 -0.24712108420E+01  0.62217563010E+02  0.62500000000E+02  0.47000000000E+01 0. -1.
</event>
<event>
 3    0  0.4603569E-005  0.9118800E+02  0.7546771E-02  0.1235069E+00
         25   -1    0    0    0    0  0.00000000000E+00  0.00000000000E+00  0.99999998245E-14  0.12500000000E+03  0.12500000000E+03 0.  0.
          5    1    1    0  501    0 -0.43308452653E+02 -0.36194751271E+02  0.26428732645E+02  0.62500000000E+02  0.47000000000E+01 0. -1.
         -5    1    1    0    0  501  0.43308452653E+02  0.36194751271E+02 -0.26428732645E+02  0.62500000000E+02  0.47000000000E+01 0. -1.
</event>
<event>
 3    0  0.4603569E-005  0.9118800E+02  0.7546771E-02  0.1235069E+00
         25   -1    0    0    0    0  0.00000000000E+00  0.00000000000E+00  0.99999998245E-14  0.12500000000E+03  0.12500000000E+03 0.  0.
          5    1    1    0  501    0  0.10604787535E+02 -0.11964960444E+01  0.61402498960E+02  0.62500000000E+02  0.47000000000E+01 0.  1.
         -5    1    1    0    0  501 -0.10604787535E+02  0.11964960444E+01 -0.61402498960E+02  0.62500000000E+02  0.47000000000E+01 0.  1.
</event>
<event>
 3    0  0.4603569E-005  0.9118800E+02  0.7546771E-02  0.1235069E+00
         25   -1    0    0    0    0  0.00000000000E+00  0.00000000000E+00  0.99999998245E-14  0.12500000000E+03  0.12500000000E+03 0.  0.
          5    1    1    0  501    0 -0.21846072757E+02  0.66891790418E+01  0.57984170157E+02  0.62500000000E+02  0.47000000000E+01 0. -1.
         -5    1    1    0    0  501  0.21846072757E+02 -0.66891790418E+01 -0.57984170157E+02  0.62500000000E+02  0.47000000000E+01 0. -1.
</event>
<event>
 3    0  0.4603569E-005  0.9118800E+02  0.7546771E-02  0.1235069E+00
         25   -1    0    0    0    0  0.00000000000E+00  0.00000000000E+00  0.99999998245E-14  0.12500000000E+03  0.12500000000E+03 0.  0.
          5    1    1    0  501    0  0.17200197468E+02  0.29163431186E+02  0.52324062233E+02  0.62500000000E+02  0.47000000000E+01 0.  1.
         -5    1    1    0    0  501 -0.17200197468E+02 -0.29163431186E+02 -0.52324062233E+02  0.62500000000E+02  0.47000000000E+01 0.  1.
</event>
<event>
 3    0  0.4603569E-005  0.9118800E+02  0.7546771E-02  0.1235069E+00
         25   -1    0    0    0    0  0.00000000000E+00  0.00000000000E+00  0.99999998245E-14  0.12500000000E+03  0.12500000000E+03 0.  0.
          5    1    1    0  501    0 -0.27739104106E+02  0.11194486553E+01  0.55798287950E+02  0.62500000000E+02  0.47000000000E+01 0. -1.
         -5    1    1    0    0  501  0.27739104106E+02 -0.11194486553E+01 -0.55798287950E+02  0.62500000000E+02  0.47000000000E+01 0. -1.
</event>
<event>
 3    0  0.4603569E-005  0.9118800E+02  0.7546771E-02  0.1235069E+00
         25   -1    0    0    0    0  0.00000000000E+00  0.00000000000E+00  0.99999998245E-14  0.12500000000E+03  0.12500000000E+03 0.  0.
          5    1    1    0  501    0  0.29110057440E+02 -0.43006739503E+02  0.34455549816E+02  0.62500000000E+02  0.47000000000E+01 0. -1.
         -5    1    1    0    0  501 -0.29110057440E+02  0.43006739503E+02 -0.34455549816E+02  0.62500000000E+02  0.47000000000E+01 0. -1.
</event>
<event>
 3    0  0.4603569E-005  0.9118800E+02  0.7546771E-02  0.1235069E+00
         25   -1    0    0    0    0  0.00000000000E+00  0.00000000000E+00  0.99999998245E-14  0.12500000000E+03  0.12500000000E+03 0.  0.
          5    1    1    0  501    0 -0.62280711691E+02 -0.19975763159E+01  0.11325370294E+01  0.62500000000E+02  0.47000000000E+01 0. -1.
         -5    1    1    0    0  501  0.62280711691E+02  0.19975763159E+01 -0.11325370294E+01  0.62500000000E+02  0.47000000000E+01 0. -1.
</event>
<event>
 3    0  0.4603569E-005  0.9118800E+02  0.7546771E-02  0.1235069E+00
         25   -1    0    0    0    0  0.00000000000E+00  0.00000000000E+00  0.99999998245E-14  0.12500000000E+03  0.12500000000E+03 0.  0.
          5    1    1    0  501    0 -0.56617439115E+02  0.25521896650E+02  0.52209557973E+01  0.62500000000E+02  0.47000000000E+01 0. -1.
         -5    1    1    0    0  501  0.56617439115E+02 -0.25521896650E+02 -0.52209557973E+01  0.62500000000E+02  0.47000000000E+01 0. -1.
</event>
<event>
 3    0  0.4603569E-005  0.9118800E+02  0.7546771E-02  0.1235069E+00
         25   -1    0    0    0    0  0.00000000000E+00  0.00000000000E+00  0.99999998245E-14  0.12500000000E+03  0.12500000000E+03 0.  0.
          5    1    1    0  501    0  0.62218070334E+02  0.33637188938E+01 -0.13255636872E+01  0.62500000000E+02  0.47000000000E+01 0.  1.
         -5    1    1    0    0  501 -0.62218070334E+02 -0.33637188938E+01  0.13255636872E+01  0.62500000000E+02  0.47000000000E+01 0.  1.
</event>
<event>
 3    0  0.4603569E-005  0.9118800E+02  0.7546771E-02  0.1235069E+00
         25   -1    0    0    0    0  0.00000000000E+00  0.00000000000E+00  0.99999998245E-14  0.12500000000E+03  0.12500000000E+03 0.  0.
          5    1    1    0  501    0 -0.18732908576E+02  0.52612127037E+02 -0.27662288859E+02  0.62500000000E+02  0.47000000000E+01 0.  1.
         -5    1    1    0    0  501  0.18732908576E+02 -0.52612127037E+02  0.27662288859E+02  0.62500000000E+02  0.47000000000E+01 0.  1.
</event>
<event>
 3    0  0.4603569E-005  0.9118800E+02  0.7546771E-02  0.1235069E+00
         25   -1    0    0    0    0  0.00000000000E+00  0.00000000000E+00  0.99999998245E-14  0.12500000000E+03  0.12500000000E+03 0.  0.
          5    1    1    0  501    0 -0.43020430111E+02  0.17132280069E+02 -0.41711959589E+02  0.62500000000E+02  0.47000000000E+01 0.  1.
         -5    1    1    0    0  501  0.43020430111E+02 -0.17132280069E+02  0.41711959589E+02  0.62500000000E+02  0.47000000000E+01 0.  1.
</event>
<event>
 3    0  0.4603569E-005  0.9118800E+02  0.7546771E-02  0.1235069E+00
         25   -1    0    0    0    0  0.00000000000E+00  0.00000000000E+00  0.99999998245E-14  0.12500000000E+03  0.12500000000E+03 0.  0.
          5    1    1    0  501    0  0.56850384465E+02  0.23603066742E+02 -0.97513602394E+01  0.62500000000E+02  0.47000000000E+01 0. -1.
         -5    1    1    0    0  501 -0.56850384465E+02 -0.23603066742E+02  0.97513602394E+01  0.62500000000E+02  0.47000000000E+01 0. -1.
</event>
<event>
 3    0  0.4603569E-005  0.9118800E+02  0.7546771E-02  0.1235069E+00
         25   -1    0    0    0    0  0.00000000000E+00  0.00000000000E+00  0.99999998245E-14  0.12500000000E+03  0.12500000000E+03 0.  0.
          5    1    1    0  501    0  0.11020706386E+02  0.50709496634E+02  0.34514503935E+02  0.62500000000E+02  0.47000000000E+01 0.  1.
         -5    1    1    0    0  501 -0.11020706386E+02 -0.50709496634E+02 -0.34514503935E+02  0.62500000000E+02  0.47000000000E+01 0.  1.
</event>
<event>
 3    0  0.4603569E-005  0.9118800E+02  0.7546771E-02  0.1235069E+00
         25   -1    0    0    0    0  0.00000000000E+00  0.00000000000E+00  0.99999998245E-14  0.12500000000E+03  0.12500000000E+03 0.  0.
          5    1    1    0  501    0 -0.40410667831E+02 -0.44200492227E+02  0.17246866741E+02  0.62500000000E+02  0.47000000000E+01 0.  1.
         -5    1    1    0    0  501  0.40410667831E+02  0.44200492227E+02 -0.17246866741E+02  0.62500000000E+02  0.47000000000E+01 0.  1.
</event>
<event>
 3    0  0.4603569E-005  0.9118800E+02  0.7546771E-02  0.1235069E+00
         25   -1    0    0    0    0  0.00000000000E+00  0.00000000000E+00  0.99999998245E-14  0.12500000000E+03  0.12500000000E+03 0.  0.
          5    1    1    0  501    0 -0.85743788462E+01  0.42083173860E+02 -0.45162445741E+02  0.62500000000E+02  0.47000000000E+01 0.  1.
         -5    1    1    0    0  501  0.85743788462E+01 -0.42083173860E+02  0.45162445741E+02  0.62500000000E+02  0.47000000000E+01 0.  1.
</event>
<event>
 3    0  0.4603569E-005  0.9118800E+02  0.7546771E-02  0.1235069E+00
         25   -1    0    0    0    0  0.00000000000E+00  0.00000000000E+00  0.99999998245E-14  0.12500000000E+03  0.12500000000E+03 0.  0.
          5    1    1    0  501    0 -0.60279239746E+02 -0.13595912750E+02  0.81070594042E+01  0.62500000000E+02  0.47000000000E+01 0. -1.
         -5    1    1    0    0  501  0.60279239746E+02  0.13595912750E+02 -0.81070594042E+01  0.62500000000E+02  0.47000000000E+01 0. -1.
</event>
<event>
 3    0  0.4603569E-005  0.9118800E+02  0.7546771E-02  0.1235069E+00
         25   -1    0    0    0    0  0.00000000000E+00  0.00000000000E+00  0.99999998245E-14  0.12500000000E+03  0.12500000000E+03 0.  0.
          5    1    1    0  501    0  0.76983967952E+01 -0.27556879755E+02 -0.55367075640E+02  0.62500000000E+02  0.47000000000E+01 0.  1.
         -5    1    1    0    0  501 -0.76983967952E+01  0.27556879755E+02  0.55367075640E+02  0.62500000000E+02  0.47000000000E+01 0.  1.
</event>
<event>
 3    0  0.4603569E-005  0.9118800E+02  0.7546771E-02  0.1235069E+00
         25   -1    0    0    0    0  0.00000000000E+00  0.00000000000E+00  0.99999998245E-14  0.12500000000E+03  0.12500000000E+03 0.  0.
          5    1    1    0  501    0  0.37016201682E+02 -0.40403682176E+02  0.29690120911E+02  0.62500000000E+02  0.47000000000E+01 0. -1.
         -5    1    1    0    0  501 -0.37016201682E+02  0.40403682176E+02 -0.29690120911E+02  0.62500000000E+02  0.47000000000E+01 0. -1.
</event>
<event>
 3    0  0.4603569E-005  0.9118800E+02  0.7546771E-02  0.1235069E+00
         25   -1    0    0    0    0  0.00000000000E+00  0.00000000000E+00  0.99999998245E-14  0.12500000000E+03  0.12500000000E+03 0.  0.
          5    1    1    0  501    0  0.58157182946E+02 -0.19582685362E+02 -0.10882118626E+02  0.62500000000E+02  0.47000000000E+01 0. -1.
         -5    1    1    0    0  501 -0.58157182946E+02  0.19582685362E+02  0.10882118626E+02  0.62500000000E+02  0.47000000000E+01 0. -1.
</event>
<event>
 3    0  0.4603569E-005  0.9118800E+02  0.7546771E-02  0.1235069E+00
         25   -1    0    0    0    0  0.00000000000E+00  0.00000000000E+00  0.99999998245E-14  0.12500000000E+03  0.12500000000E+03 0.  0.
          5    1    1    0  501    0  0.13268576891E+02  0.26678510233E+02 -0.54739035057E+02  0.62500000000E+02  0.47000000000E+01 0. -1.
         -5    1    1    0    0  501 -0.13268576891E+02 -0.26678510233E+02  0.54739035057E+02  0.62500000000E+02  0.47000000000E+01 0. -1.
</event>
<event>
 3    0  0.4603569E-005  0.9118800E+02  0.7546771E-02  0.1235069E+00
         25   -1    0    0    0    0  0.00000000000E+00  0.00000000000E+00  0.99999998245E-14  0.12500000000E+03  0.12500000000E+03 0.  0.
          5    1    1    0  501    0  0.14901191549E+02 -0.31762134719E+02 -0.51510011536E+02  0.62500000000E+02  0.47000000000E+01 0. -1.
         -5    1    1    0    0  501 -0.14901191549E+02  0.31762134719E+02  0.51510011536E+02  0.62500000000E+02  0.47000000000E+01 0. -1.
</event>
<event>
 3    0  0.4603569E-005  0.9118800E+02  0.7546771E-02  0.1235069E+00
         25   -1    0    0    0    0  0.00000000000E+00  0.00000000000E+00  0.99999998245E-14  0.12500000000E+03  0.12500000000E+03 0.  0.
          5    1    1    0  501    0 -0.24015998852E+02 -0.56739740611E+02  0.93804922324E+01  0.62500000000E+02  0.47000000000E+01 0. -1.
         -5    1    1    0    0  501  0.24015998852E+02  0.56739740611E+02 -0.93804922324E+01  0.62500000000E+02  0.47000000000E+01 0. -1.
</event>
<event>
 3    0  0.4603569E-005  0.9118800E+02  0.7546771E-02  0.1235069E+00
         25   -1    0    0    0    0  0.00000000000E+00  0.00000000000E+00  0.99999998245E-14  0.12500000000E+03  0.12500000000E+03 0.  0.
          5    1    1    0  501    0  0.48504496434E+02 -0.78711944791E+01 -0.38334294348E+02  0.62500000000E+02  0.47000000000E+01 0. -1.
         -5    1    1    0    0  501 -0.48504496434E+02  0.78711944791E+01  0.38334294348E+02  0.62500000000E+02  0.47000000000E+01 0. -1.
</event>
<event>
 3    0  0.4603569E-005  0.9118800E+02  0.7546771E-02  0.1235069E+00
         25   -1    0    0    0    0  0.00000000000E+00  0.00000000000E+00  0.99999998245E-14  0.12500000000E+03  0.12500000000E+03 0.  0.
          5    1    1    0  501    0  0.30766349589E+02  0.11440032318E+02 -0.52978461600E+02  0.62500000000E+02  0.47000000000E+01 0.  1.
         -5    1    1    0    0  501 -0.30766349589E+02 -0.11440032318E+02  0.52978461600E+02  0.62500000000E+02  0.47000000000E+01 0.  1.
</event>
<event>
 3    0  0.4603569E-005  0.9118800E+02  0.7546771E-02  0.1235069E+00
         25   -1    0    0    0    0  0.00000000000E+00  0.00000000000E+00  0.99999998245E-14  0.12500000000E+03  0.12500000000E+03 0.  0.
          5    1    1    0  501    0  0.58925465246E+02 -0.20074843443E+02  0.29916895333E+01  0.62500000000E+02  0.47000000000E+01 0. -1.
         -5    1    1    0    0  501 -0.58925465246E+02  0.20074843443E+02 -0.29916895333E+01  0.62500000000E+02  0.47000000000E+01 0. -1.
</event>
<event>
 3    0  0.4603569E-005  0.9118800E+02  0.7546771E-02  0.1235069E+00
         25   -1    0    0    0    0  0.00000000000E+00  0.00000000000E+00  0.99999998245E-14  0.12500000000E+03  0.12500000000E+03 0.  0.
          5    1    1    0  501    0  0.28128070817E+01  0.55549497104E+02  0.28115858297E+02  0.62500000000E+02  0.47000000000E+01 0. -1.
         -5    1    1    0    0  501 -0.28128070817E+01 -0.55549497104E+02 -0.28115858297E+02  0.62500000000E+02  0.47000000000E+01 0. -1.
</event>
<event>
 3    0  0.4603569E-005  0.9118800E+02  0.7546771E-02  0.1235069E+00
         25   -1    0    0    0    0  0.00000000000E+00  0.00000000000E+00  0.99999998245E-14  0.12500000000E+03  0.12500000000E+03 0.  0.
          5    1    1    0  501    0 -0.20372144861E+02  0.56893531194E+02 -0.15240138518E+02  0.62500000000E+02  0.47000000000E+01 0. -1.
         -5    1    1    0    0  501  0.20372144861E+02 -0.56893531194E+02  0.15240138518E+02  0.62500000000E+02  0.47000000000E+01 0. -1.
</event>
<event>
 3    0  0.4603569E-005  0.9118800E+02  0.7546771E-02  0.1235069E+00
         25   -1    0    0    0    0  0.00000000000E+00  0.00000000000E+00  0.99999998245E-14  0.12500000000E+03  0.12500000000E+03 0.  0.
          5    1    1    0  501    0  0.30884107348E+02 -0.53346199209E+02 -0.91932009279E+01  0.62500000000E+02  0.47000000000E+01 0.  1.
         -5    1    1    0    0  501 -0.30884107348E+02  0.53346199209E+02  0.91932009279E+01  0.62500000000E+02  0.47000000000E+01 0.  1.
</event>
<event>
 3    0  0.4603569E-005  0.9118800E+02  0.7546771E-02  0.1235069E+00
         25   -1    0    0    0    0  0.00000000000E+00  0.00000000000E+00  0.99999998245E-14  0.12500000000E+03  0.12500000000E+03 0.  0.
          5    1    1    0  501    0  0.36291929278E+02 -0.38466742459E+02 -0.32975226973E+02  0.62500000000E+02  0.47000000000E+01 0.  1.
         -5    1    1    0    0  501 -0.36291929278E+02  0.38466742459E+02  0.32975226973E+02  0.62500000000E+02  0.47000000000E+01 0.  1.
</event>
<event>
 3    0  0.4603569E-005  0.9118800E+02  0.7546771E-02  0.1235069E+00
         25   -1    0    0    0    0  0.00000000000E+00  0.00000000000E+00  0.99999998245E-14  0.12500000000E+03  0.12500000000E+03 0.  0.
          5    1    1    0  501    0 -0.38682553315E+02  0.39317404428E+02 -0.29016577642E+02  0.62500000000E+02  0.47000000000E+01 0. -1.
         -5    1    1    0    0  501  0.38682553315E+02 -0.39317404428E+02  0.29016577642E+02  0.62500000000E+02  0.47000000000E+01 0. -1.
</event>
<event>
 3    0  0.4603569E-005  0.9118800E+02  0.7546771E-02  0.1235069E+00
         25   -1    0    0    0    0  0.00000000000E+00  0.00000000000E+00  0.99999998245E-14  0.12500000000E+03  0.12500000000E+03 0.  0.
          5    1    1    0  501    0 -0.58610763029E+02  0.68492539959E+01 -0.20050590436E+02  0.62500000000E+02  0.47000000000E+01 0. -1.
         -5    1    1    0    0  501  0.58610763029E+02 -0.68492539959E+01  0.20050590436E+02  0.62500000000E+02  0.47000000000E+01 0. -1.
</event>
<event>
 3    0  0.4603569E-005  0.9118800E+02  0.7546771E-02  0.1235069E+00
         25   -1    0    0    0    0  0.00000000000E+00  0.00000000000E+00  0.99999998245E-14  0.12500000000E+03  0.12500000000E+03 0.  0.
          5    1    1    0  501    0 -0.27267251147E+02 -0.55762070896E+02  0.55900325762E+01  0.62500000000E+02  0.47000000000E+01 0.  1.
         -5    1    1    0    0  501  0.27267251147E+02  0.55762070896E+02 -0.55900325762E+01  0.62500000000E+02  0.47000000000E+01 0.  1.
</event>
<event>
 3    0  0.4603569E-005  0.9118800E+02  0.7546771E-02  0.1235069E+00
         25   -1    0    0    0    0  0.00000000000E+00  0.00000000000E+00  0.99999998245E-14  0.12500000000E+03  0.12500000000E+03 0.  0.
          5    1    1    0  501    0  0.38742954455E+02  0.24906969392E+02  0.41985549369E+02  0.62500000000E+02  0.47000000000E+01 0. -1.
         -5    1    1    0    0  501 -0.38742954455E+02 -0.24906969392E+02 -0.41985549369E+02  0.62500000000E+02  0.47000000000E+01 0. -1.
</event>
<event>
 3    0  0.4603569E-005  0.9118800E+02  0.7546771E-02  0.1235069E+00
         25   -1    0    0    0    0  0.00000000000E+00  0.00000000000E+00  0.99999998245E-14  0.12500000000E+03  0.12500000000E+03 0.  0.
          5    1    1    0  501    0  0.44404960523E+02 -0.35077670213E+02 -0.26113531615E+02  0.62500000000E+02  0.47000000000E+01 0.  1.
         -5    1    1    0    0  501 -0.44404960523E+02  0.35077670213E+02  0.26113531615E+02  0.62500000000E+02  0.47000000000E+01 0.  1.
</event>
<event>
 3    0  0.4603569E-005  0.9118800E+02  0.7546771E-02  0.1235069E+00
         25   -1    0    0    0    0  0.00000000000E+00  0.00000000000E+00  0.99999998245E-14  0.12500000000E+03  0.12500000000E+03 0.  0.
          5    1    1    0  501    0 -0.31726445262E+02 -0.40935151740E+02 -0.34668516309E+02  0.62500000000E+02  0.47000000000E+01 0. -1.
         -5    1    1    0    0  501  0.31726445262E+02  0.40935151740E+02  0.34668516309E+02  0.62500000000E+02  0.47000000000E+01 0. -1.
</event>
<event>
 3    0  0.4603569E-005  0.9118800E+02  0.7546771E-02  0.1235069E+00
         25   -1    0    0    0    0  0.00000000000E+00  0.00000000000E+00  0.99999998245E-14  0.12500000000E+03  0.12500000000E+03 0.  0.
          5    1    1    0  501    0  0.82528298672E+01  0.60760381404E+02  0.11145709976E+02  0.62500000000E+02  0.47000000000E+01 0.  1.
         -5    1    1    0    0  501 -0.82528298672E+01 -0.60760381404E+02 -0.11145709976E+02  0.62500000000E+02  0.47000000000E+01 0.  1.
</event>
<event>
 3    0  0.4603569E-005  0.9118800E+02  0.7546771E-02  0.1235069E+00
         25   -1    0    0    0    0  0.00000000000E+00  0.00000000000E+00  0.99999998245E-14  0.12500000000E+03  0.12500000000E+03 0.  0.
          5    1    1    0  501    0 -0.43292908751E+02 -0.18913308181E+02 -0.40646904255E+02  0.62500000000E+02  0.47000000000E+01 0.  1.
         -5    1    1    0    0  501  0.43292908751E+02  0.18913308181E+02  0.40646904255E+02  0.62500000000E+02  0.47000000000E+01 0.  1.
</event>
<event>
 3    0  0.4603569E-005  0.9118800E+02  0.7546771E-02  0.1235069E+00
         25   -1    0    0    0    0  0.00000000000E+00  0.00000000000E+00  0.99999998245E-14  0.12500000000E+03  0.12500000000E+03 0.  0.
          5    1    1    0  501    0 -0.22527304979E+02  0.38226472056E+02 -0.43765481427E+02  0.62500000000E+02  0.47000000000E+01 0. -1.
         -5    1    1    0    0  501  0.22527304979E+02 -0.38226472056E+02  0.43765481427E+02  0.62500000000E+02  0.47000000000E+01 0. -1.
</event>
<event>
 3    0  0.4603569E-005  0.9118800E+02  0.7546771E-02  0.1235069E+00
         25   -1    0    0    0    0  0.00000000000E+00  0.00000000000E+00  0.99999998245E-14  0.12500000000E+03  0.12500000000E+03 0.  0.
          5    1    1    0  501    0  0.36943250186E+02  0.46020118579E+02 -0.20037588470E+02  0.62500000000E+02  0.47000000000E+01 0.  1.
         -5    1    1    0    0  501 -0.36943250186E+02 -0.46020118579E+02  0.20037588470E+02  0.62500000000E+02  0.47000000000E+01 0.  1.
</event>
<event>
 3    0  0.4603569E-005  0.9118800E+02  0.7546771E-02  0.1235069E+00
         25   -1    0    0    0    0  0.00000000000E+00  0.00000000000E+00  0.99999998245E-14  0.12500000000E+03  0.12500000000E+03 0.  0.
          5    1    1    0  501    0  0.59838174200E+02 -0.13674400540E+02  0.10796466008E+02  0.62500000000E+02  0.47000000000E+01 0. -1.
         -5    1    1    0    0  501 -0.59838174200E+02  0.13674400540E+02 -0.10796466008E+02  0.62500000000E+02  0.47000000000E+01 0. -1.
</event>
<event>
 3    0  0.4603569E-005  0.9118800E+02  0.7546771E-02  0.1235069E+00
         25   -1    0    0    0    0  0.00000000000E+00  0.00000000000E+00  0.99999998245E-14  0.12500000000E+03  0.12500000000E+03 0.  0.
          5    1    1    0  501    0  0.53469875264E+02  0.27268172859E+02 -0.16780321458E+02  0.62500000000E+02  0.47000000000E+01 0. -1.
         -5    1    1    0    0  501 -0.53469875264E+02 -0.27268172859E+02  0.16780321458E+02  0.62500000000E+02  0.47000000000E+01 0. -1.
</event>
<event>
 3    0  0.4603569E-005  0.9118800E+02  0.7546771E-02  0.1235069E+00
         25   -1    0    0    0    0  0.00000000000E+00  0.00000000000E+00  0.99999998245E-14  0.12500000000E+03  0.12500000000E+03 0.  0.
          5    1    1    0  501    0  0.36630258046E+02 -0.49579260343E+02  0.91804759834E+01  0.62500000000E+02  0.47000000000E+01 0. -1.
         -5    1    1    0    0  501 -0.36630258046E+02  0.49579260343E+02 -0.91804759834E+01  0.62500000000E+02  0.47000000000E+01 0. -1.
</event>
<event>
 3    0  0.4603569E-005  0.9118800E+02  0.7546771E-02  0.1235069E+00
         25   -1    0    0    0    0  0.00000000000E+00  0.00000000000E+00  0.99999998245E-14  0.12500000000E+03  0.12500000000E+03 0.  0.
          5    1    1    0  501    0 -0.37217627019E+02 -0.37512939532E+02  0.33042209471E+02  0.62500000000E+02  0.47000000000E+01 0. -1.
         -5    1    1    0    0  501  0.37217627019E+02  0.37512939532E+02 -0.33042209471E+02  0.62500000000E+02  0.47000000000E+01 0. -1.
</event>
<event>
 3    0  0.4603569E-005  0.9118800E+02  0.7546771E-02  0.1235069E+00
         25   -1    0    0    0    0  0.00000000000E+00  0.00000000000E+00  0.99999998245E-14  0.12500000000E+03  0.12500000000E+03 0.  0.
          5    1    1    0  501    0  0.13942104683E+02 -0.46758001782E+02 -0.38774566231E+02  0.62500000000E+02  0.47000000000E+01 0.  1.
         -5    1    1    0    0  501 -0.13942104683E+02  0.46758001782E+02  0.38774566231E+02  0.62500000000E+02  0.47000000000E+01 0.  1.
</event>
<event>
 3    0  0.4603569E-005  0.9118800E+02  0.7546771E-02  0.1235069E+00
         25   -1    0    0    0    0  0.00000000000E+00  0.00000000000E+00  0.99999998245E-14  0.12500000000E+03  0.12500000000E+03 0.  0.
          5    1    1    0  501    0 -0.11636841079E+02 -0.36603039188E+02  0.49081172071E+02  0.62500000000E+02  0.47000000000E+01 0. -1.
         -5    1    1    0    0  501  0.11636841079E+02  0.36603039188E+02 -0.49081172071E+02  0.62500000000E+02  0.47000000000E+01 0. -1.
</event>
<event>
 3    0  0.4603569E-005  0.9118800E+02  0.7546771E-02  0.1235069E+00
         25   -1    0    0    0    0  0.00000000000E+00  0.00000000000E+00  0.99999998245E-14  0.12500000000E+03  0.12500000000E+03 0.  0.
          5    1    1    0  501    0 -0.55572904601E+02 -0.19934753387E+02 -0.19960407851E+02  0.62500000000E+02  0.47000000000E+01 0.  1.
         -5    1    1    0    0  501  0.55572904601E+02  0.19934753387E+02  0.19960407851E+02  0.62500000000E+02  0.47000000000E+01 0.  1.
</event>
<event>
 3    0  0.4603569E-005  0.9118800E+02  0.7546771E-02  0.1235069E+00
         25   -1    0    0    0    0  0.00000000000E+00  0.00000000000E+00  0.99999998245E-14  0.12500000000E+03  0.12500000000E+03 0.  0.
          5    1    1    0  501    0  0.14243638779E+02  0.16807506903E+02  0.58299112052E+02  0.62500000000E+02  0.47000000000E+01 0.  1.
         -5    1    1    0    0  501 -0.14243638779E+02 -0.16807506903E+02 -0.58299112052E+02  0.62500000000E+02  0.47000000000E+01 0.  1.
</event>
<event>
 3    0  0.4603569E-005  0.9118800E+02  0.7546771E-02  0.1235069E+00
         25   -1    0    0    0    0  0.00000000000E+00  0.00000000000E+00  0.99999998245E-14  0.12500000000E+03  0.12500000000E+03 0.  0.
          5    1    1    0  501    0  0.24024552719E+02  0.23626782447E+02 -0.52428580163E+02  0.62500000000E+02  0.47000000000E+01 0. -1.
         -5    1    1    0    0  501 -0.24024552719E+02 -0.23626782447E+02  0.52428580163E+02  0.62500000000E+02  0.47000000000E+01 0. -1.
</event>
<event>
 3    0  0.4603569E-005  0.9118800E+02  0.7546771E-02  0.1235069E+00
         25   -1    0    0    0    0  0.00000000000E+00  0.00000000000E+00  0.99999998245E-14  0.12500000000E+03  0.12500000000E+03 0.  0.
          5    1    1    0  501    0  0.17624335101E+02 -0.49178608434E+02 -0.33985398110E+02  0.62500000000E+02  0.47000000000E+01 0. -1.
         -5    1    1    0    0  501 -0.17624335101E+02  0.49178608434E+02  0.33985398110E+02  0.62500000000E+02  0.47000000000E+01 0. -1.
</event>
<event>
 3    0  0.4603569E-005  0.9118800E+02  0.7546771E-02  0.1235069E+00
         25   -1    0    0    0    0  0.00000000000E+00  0.00000000000E+00  0.99999998245E-14  0.12500000000E+03  0.12500000000E+03 0.  0.
          5    1    1    0  501    0  0.32805944344E+02 -0.44807970658E+02 -0.28287378479E+02  0.62500000000E+02  0.47000000000E+01 0. -1.
         -5    1    1    0    0  501 -0.32805944344E+02  0.44807970658E+02  0.28287378479E+02  0.62500000000E+02  0.47000000000E+01 0. -1.
</event>
<event>
 3    0  0.4603569E-005  0.9118800E+02  0.7546771E-02  0.1235069E+00
         25   -1    0    0    0    0  0.00000000000E+00  0.00000000000E+00  0.99999998245E-14  0.12500000000E+03  0.12500000000E+03 0.  0.
          5    1    1    0  501    0  0.42706302199E+02 -0.38447756052E+02  0.24126786091E+02  0.62500000000E+02  0.47000000000E+01 0.  1.
         -5    1    1    0    0  501 -0.42706302199E+02  0.38447756052E+02 -0.24126786091E+02  0.62500000000E+02  0.47000000000E+01 0.  1.
</event>
<event>
 3    0  0.4603569E-005  0.9118800E+02  0.7546771E-02  0.1235069E+00
         25   -1    0    0    0    0  0.00000000000E+00  0.00000000000E+00  0.99999998245E-14  0.12500000000E+03  0.12500000000E+03 0.  0.
          5    1    1    0  501    0  0.56554854985E+02 -0.25324606558E+02  0.66612821849E+01  0.62500000000E+02  0.47000000000E+01 0. -1.
         -5    1    1    0    0  501 -0.56554854985E+02  0.25324606558E+02 -0.66612821849E+01  0.62500000000E+02  0.47000000000E+01 0. -1.
</event>
<event>
 3    0  0.4603569E-005  0.9118800E+02  0.7546771E-02  0.1235069E+00
         25   -1    0    0    0    0  0.00000000000E+00  0.00000000000E+00  0.99999998245E-14  0.12500000000E+03  0.12500000000E+03 0.  0.
          5    1    1    0  501    0  0.26737526071E+01  0.66166566024E+01 -0.61913091527E+02  0.62500000000E+02  0.47000000000E+01 0. -1.
         -5    1    1    0    0  501 -0.26737526071E+01 -0.66166566024E+01  0.61913091527E+02  0.62500000000E+02  0.47000000000E+01 0. -1.
</event>
<event>
 3    0  0.4603569E-005  0.9118800E+02  0.7546771E-02  0.1235069E+00
         25   -1    0    0    0    0  0.00000000000E+00  0.00000000000E+00  0.99999998245E-14  0.12500000000E+03  0.12500000000E+03 0.  0.
          5    1    1    0  501    0  0.47421316846E+02  0.33679134909E+02  0.22385141955E+02  0.62500000000E+02  0.47000000000E+01 0. -1.
         -5    1    1    0    0  501 -0.47421316846E+02 -0.33679134909E+02 -0.22385141955E+02  0.62500000000E+02  0.47000000000E+01 0. -1.
</event>
<event>
 3    0  0.4603569E-005  0.9118800E+02  0.7546771E-02  0.1235069E+00
         25   -1    0    0    0    0  0.00000000000E+00  0.00000000000E+00  0.99999998245E-14  0.12500000000E+03  0.12500000000E+03 0.  0.
          5    1    1    0  501    0 -0.50572551305E+02  0.34615354350E+02 -0.11329355573E+02  0.62500000000E+02  0.47000000000E+01 0.  1.
         -5    1    1    0    0  501  0.50572551305E+02 -0.34615354350E+02  0.11329355573E+02  0.62500000000E+02  0.47000000000E+01 0.  1.
</event>
<event>
 3    0  0.4603569E-005  0.9118800E+02  0.7546771E-02  0.1235069E+00
         25   -1    0    0    0    0  0.00000000000E+00  0.00000000000E+00  0.99999998245E-14  0.12500000000E+03  0.12500000000E+03 0.  0.
          5    1    1    0  501    0 -0.95254234423E+01  0.36130423595E+02  0.49880044097E+02  0.62500000000E+02  0.47000000000E+01 0. -1.
         -5    1    1    0    0  501  0.95254234423E+01 -0.36130423595E+02 -0.49880044097E+02  0.62500000000E+02  0.47000000000E+01 0. -1.
</event>
<event>
 3    0  0.4603569E-005  0.9118800E+02  0.7546771E-02  0.1235069E+00
         25   -1    0    0    0    0  0.00000000000E+00  0.00000000000E+00  0.99999998245E-14  0.12500000000E+03  0.12500000000E+03 0.  0.
          5    1    1    0  501    0 -0.59921519415E+02  0.17132159487E+02 -0.24621589630E+00  0.62500000000E+02  0.47000000000E+01 0. -1.
         -5    1    1    0    0  501  0.59921519415E+02 -0.17132159487E+02  0.24621589630E+00  0.62500000000E+02  0.47000000000E+01 0. -1.
</event>
<event>
 3    0  0.4603569E-005  0.9118800E+02  0.7546771E-02  0.1235069E+00
         25   -1    0    0    0    0  0.00000000000E+00  0.00000000000E+00  0.99999998245E-14  0.12500000000E+03  0.12500000000E+03 0.  0.
          5    1    1    0  501    0 -0.51243520025E+02 -0.24949019832E+01  0.35384136552E+02  0.62500000000E+02  0.47000000000E+01 0. -1.
         -5    1    1    0    0  501  0.51243520025E+02  0.24949019832E+01 -0.35384136552E+02  0.62500000000E+02  0.47000000000E+01 0. -1.
</event>
<event>
 3    0  0.4603569E-005  0.9118800E+02  0.7546771E-02  0.1235069E+00
         25   -1    0    0    0    0  0.00000000000E+00  0.00000000000E+00  0.99999998245E-14  0.12500000000E+03  0.12500000000E+03 0.  0.
          5    1    1    0  501    0 -0.24985954836E+02  0.23705618260E+02 -0.51941368136E+02  0.62500000000E+02  0.47000000000E+01 0. -1.
         -5    1    1    0    0  501  0.24985954836E+02 -0.23705618260E+02  0.51941368136E+02  0.62500000000E+02  0.47000000000E+01 0. -1.
</event>
<event>
 3    0  0.4603569E-005  0.9118800E+02  0.7546771E-02  0.1235069E+00
         25   -1    0    0    0    0  0.00000000000E+00  0.00000000000E+00  0.99999998245E-14  0.12500000000E+03  0.12500000000E+03 0.  0.
          5    1    1    0  501    0  0.36196012619E+02 -0.19780871430E+02  0.46719651068E+02  0.62500000000E+02  0.47000000000E+01 0. -1.
         -5    1    1    0    0  501 -0.36196012619E+02  0.19780871430E+02 -0.46719651068E+02  0.62500000000E+02  0.47000000000E+01 0. -1.
</event>
<event>
 3    0  0.4603569E-005  0.9118800E+02  0.7546771E-02  0.1235069E+00
         25   -1    0    0    0    0  0.00000000000E+00  0.00000000000E+00  0.99999998245E-14  0.12500000000E+03  0.12500000000E+03 0.  0.
          5    1    1    0  501    0  0.50184302225E+02  0.20195343341E+02  0.30949053580E+02  0.62500000000E+02  0.47000000000E+01 0. -1.
         -5    1    1    0    0  501 -0.50184302225E+02 -0.20195343341E+02 -0.30949053580E+02  0.62500000000E+02  0.47000000000E+01 0. -1.
</event>
<event>
 3    0  0.4603569E-005  0.9118800E+02  0.7546771E-02  0.1235069E+00
         25   -1    0    0    0    0  0.00000000000E+00  0.00000000000E+00  0.99999998245E-14  0.12500000000E+03  0.12500000000E+03 0.  0.
          5    1    1    0  501    0  0.31032949165E+01 -0.18329682227E+02 -0.59485731988E+02  0.62500000000E+02  0.47000000000E+01 0.  1.
         -5    1    1    0    0  501 -0.31032949165E+01  0.18329682227E+02  0.59485731988E+02  0.62500000000E+02  0.47000000000E+01 0.  1.
</event>
<event>
 3    0  0.4603569E-005  0.9118800E+02  0.7546771E-02  0.1235069E+00
         25   -1    0    0    0    0  0.00000000000E+00  0.00000000000E+00  0.99999998245E-14  0.12500000000E+03  0.12500000000E+03 0.  0.
          5    1    1    0  501    0  0.90220814953E+01 -0.11514472224E+02  0.60582002071E+02  0.62500000000E+02  0.47000000000E+01 0. -1.
         -5    1    1    0    0  501 -0.90220814953E+01  0.11514472224E+02 -0.60582002071E+02  0.62500000000E+02  0.47000000000E+01 0. -1.
</event>
<event>
 3    0  0.4603569E-005  0.9118800E+02  0.7546771E-02  0.1235069E+00
         25   -1    0    0    0    0  0.00000000000E+00  0.00000000000E+00  0.99999998245E-14  0.12500000000E+03  0.12500000000E+03 0.  0.
          5    1    1    0  501    0  0.46445672101E+02 -0.22304607490E+02 -0.35063713833E+02  0.62500000000E+02  0.47000000000E+01 0.  1.
         -5    1    1    0    0  501 -0.46445672101E+02  0.22304607490E+02  0.35063713833E+02  0.62500000000E+02  0.47000000000E+01 0.  1.
</event>
<event>
 3    0  0.4603569E-005  0.9118800E+02  0.7546771E-02  0.1235069E+00
         25   -1    0    0    0    0  0.00000000000E+00  0.00000000000E+00  0.99999998245E-14  0.12500000000E+03  0.12500000000E+03 0.  0.
          5    1    1    0  501    0 -0.51251595884E+02  0.16230172103E+02  0.31528010290E+02  0.62500000000E+02  0.47000000000E+01 0. -1.
         -5    1    1    0    0  501  0.51251595884E+02 -0.16230172103E+02 -0.31528010290E+02  0.62500000000E+02  0.47000000000E+01 0. -1.
</event>
<event>
 3    0  0.4603569E-005  0.9118800E+02  0.7546771E-02  0.1235069E+00
         25   -1    0    0    0    0  0.00000000000E+00  0.00000000000E+00  0.99999998245E-14  0.12500000000E+03  0.12500000000E+03 0.  0.
          5    1    1    0  501    0  0.57964029049E+02 -0.19190992583E+02  0.12491482700E+02  0.62500000000E+02  0.47000000000E+01 0.  1.
         -5    1    1    0    0  501 -0.57964029049E+02  0.19190992583E+02 -0.12491482700E+02  0.62500000000E+02  0.47000000000E+01 0.  1.
</event>
<event>
 3    0  0.4603569E-005  0.9118800E+02  0.7546771E-02  0.1235069E+00
         25   -1    0    0    0    0  0.00000000000E+00  0.00000000000E+00  0.99999998245E-14  0.12500000000E+03  0.12500000000E+03 0.  0.
          5    1    1    0  501    0  0.53469377665E+02  0.30469911796E+02 -0.98371808621E+01  0.62500000000E+02  0.47000000000E+01 0.  1.
         -5    1    1    0    0  501 -0.53469377665E+02 -0.30469911796E+02  0.98371808621E+01  0.62500000000E+02  0.47000000000E+01 0.  1.
</event>
<event>
 3    0  0.4603569E-005  0.9118800E+02  0.7546771E-02  0.1235069E+00
         25   -1    0    0    0    0  0.00000000000E+00  0.00000000000E+00  0.99999998245E-14  0.12500000000E+03  0.12500000000E+03 0.  0.
          5    1    1    0  501    0  0.22747963576E+02 -0.43464543184E+02  0.38438569678E+02  0.62500000000E+02  0.47000000000E+01 0.  1.
         -5    1    1    0    0  501 -0.22747963576E+02  0.43464543184E+02 -0.38438569678E+02  0.62500000000E+02  0.47000000000E+01 0.  1.
</event>
<event>
 3    0  0.4603569E-005  0.9118800E+02  0.7546771E-02  0.1235069E+00
         25   -1    0    0    0    0  0.00000000000E+00  0.00000000000E+00  0.99999998245E-14  0.12500000000E+03  0.12500000000E+03 0.  0.
          5    1    1    0  501    0 -0.52314003334E+01 -0.62004717822E+02  0.34939116157E+01  0.62500000000E+02  0.47000000000E+01 0. -1.
         -5    1    1    0    0  501  0.52314003334E+01  0.62004717822E+02 -0.34939116157E+01  0.62500000000E+02  0.47000000000E+01 0. -1.
</event>
<event>
 3    0  0.4603569E-005  0.9118800E+02  0.7546771E-02  0.1235069E+00
         25   -1    0    0    0    0  0.00000000000E+00  0.00000000000E+00  0.99999998245E-14  0.12500000000E+03  0.12500000000E+03 0.  0.
          5    1    1    0  501    0  0.25667340130E+02 -0.17993232642E+02  0.53866420242E+02  0.62500000000E+02  0.47000000000E+01 0. -1.
         -5    1    1    0    0  501 -0.25667340130E+02  0.17993232642E+02 -0.53866420242E+02  0.62500000000E+02  0.47000000000E+01 0. -1.
</event>
<event>
 3    0  0.4603569E-005  0.9118800E+02  0.7546771E-02  0.1235069E+00
         25   -1    0    0    0    0  0.00000000000E+00  0.00000000000E+00  0.99999998245E-14  0.12500000000E+03  0.12500000000E+03 0.  0.
          5    1    1    0  501    0  0.27593311855E+02  0.50495981084E+02 -0.23935852507E+02  0.62500000000E+02  0.47000000000E+01 0. -1.
         -5    1    1    0    0  501 -0.27593311855E+02 -0.50495981084E+02  0.23935852507E+02  0.62500000000E+02  0.47000000000E+01 0. -1.
</event>
<event>
 3    0  0.4603569E-005  0.9118800E+02  0.7546771E-02  0.1235069E+00
         25   -1    0    0    0    0  0.00000000000E+00  0.00000000000E+00  0.99999998245E-14  0.12500000000E+03  0.12500000000E+03 0.  0.
          5    1    1    0  501    0  0.37061760075E+01 -0.18359365735E+02 -0.59442055392E+02  0.62500000000E+02  0.47000000000E+01 0. -1.
         -5    1    1    0    0  501 -0.37061760075E+01  0.18359365735E+02  0.59442055392E+02  0.62500000000E+02  0.47000000000E+01 0. -1.
</event>
<event>
 3    0  0.4603569E-005  0.9118800E+02  0.7546771E-02  0.1235069E+00
         25   -1    0    0    0    0  0.00000000000E+00  0.00000000000E+00  0.99999998245E-14  0.12500000000E+03  0.12500000000E+03 0.  0.
          5    1    1    0  501    0 -0.15010456947E+02 -0.60357809186E+02 -0.39725372941E+01  0.62500000000E+02  0.47000000000E+01 0.  1.
         -5    1    1    0    0  501  0.15010456947E+02  0.60357809186E+02  0.39725372941E+01  0.62500000000E+02  0.47000000000E+01 0.  1.
</event>
<event>
 3    0  0.4603569E-005  0.9118800E+02  0.7546771E-02  0.1235069E+00
         25   -1    0    0    0    0  0.00000000000E+00  0.00000000000E+00  0.99999998245E-14  0.12500000000E+03  0.12500000000E+03 0.  0.
          5    1    1    0  501    0 -0.29801971439E+02 -0.29142243897E+02  0.46332840610E+02  0.62500000000E+02  0.47000000000E+01 0. -1.
         -5    1    1    0    0  501  0.29801971439E+02  0.29142243897E+02 -0.46332840610E+02  0.62500000000E+02  0.47000000000E+01 0. -1.
</event>
<event>
 3    0  0.4603569E-005  0.9118800E+02  0.7546771E-02  0.1235069E+00
         25   -1    0    0    0    0  0.00000000000E+00  0.00000000000E+00  0.99999998245E-14  0.12500000000E+03  0.12500000000E+03 0.  0.
          5    1    1    0  501    0  0.14674606490E+02 -0.43807542882E+02 -0.41829596113E+02  0.62500000000E+02  0.47000000000E+01 0. -1.
         -5    1    1    0    0  501 -0.14674606490E+02  0.43807542882E+02  0.41829596113E+02  0.62500000000E+02  0.47000000000E+01 0. -1.
</event>
<event>
 3    0  0.4603569E-005  0.9118800E+02  0.7546771E-02  0.1235069E+00
         25   -1    0    0    0    0  0.00000000000E+00  0.00000000000E+00  0.99999998245E-14  0.12500000000E+03  0.12500000000E+03 0.  0.
          5    1    1    0  501    0 -0.30093488449E+02  0.87109600540E+01 -0.53876350358E+02  0.62500000000E+02  0.47000000000E+01 0.  1.
         -5    1    1    0    0  501  0.30093488449E+02 -0.87109600540E+01  0.53876350358E+02  0.62500000000E+02  0.47000000000E+01 0.  1.
</event>
<event>
 3    0  0.4603569E-005  0.9118800E+02  0.7546771E-02  0.1235069E+00
         25   -1    0    0    0    0  0.00000000000E+00  0.00000000000E+00  0.99999998245E-14  0.12500000000E+03  0.12500000000E+03 0.  0.
          5    1    1    0  501    0  0.14830752161E+02  0.60339393375E+02  0.48338801610E+01  0.62500000000E+02  0.47000000000E+01 0.  1.
         -5    1    1    0    0  501 -0.14830752161E+02 -0.60339393375E+02 -0.48338801610E+01  0.62500000000E+02  0.47000000000E+01 0.  1.
</event>
<event>
 3    0  0.4603569E-005  0.9118800E+02  0.7546771E-02  0.1235069E+00
         25   -1    0    0    0    0  0.00000000000E+00  0.00000000000E+00  0.99999998245E-14  0.12500000000E+03  0.12500000000E+03 0.  0.
          5    1    1    0  501    0 -0.47464236742E+02  0.39832969678E+02 -0.66813738969E+01  0.62500000000E+02  0.47000000000E+01 0. -1.
         -5    1    1    0    0  501  0.47464236742E+02 -0.39832969678E+02  0.66813738969E+01  0.62500000000E+02  0.47000000000E+01 0. -1.
</event>
<event>
 3    0  0.4603569E-005  0.9118800E+02  0.7546771E-02  0.1235069E+00
         25   -1    0    0    0    0  0.00000000000E+00  0.00000000000E+00  0.99999998245E-14  0.12500000000E+03  0.12500000000E+03 0.  0.
          5    1    1    0  501    0 -0.51008640326E+02 -0.32330404530E+02 -0.15395569330E+02  0.62500000000E+02  0.47000000000E+01 0. -1.
         -5    1    1    0    0  501  0.51008640326E+02  0.32330404530E+02  0.15395569330E+02  0.62500000000E+02  0.47000000000E+01 0. -1.
</event>
<event>
 3    0  0.4603569E-005  0.9118800E+02  0.7546771E-02  0.1235069E+00
         25   -1    0    0    0    0  0.00000000000E+00  0.00000000000E+00  0.99999998245E-14  0.12500000000E+03  0.12500000000E+03 0.  0.
          5    1    1    0  501    0 -0.61702752335E+02 -0.86600110902E+01  0.13908854106E+01  0.62500000000E+02  0.47000000000E+01 0. -1.
         -5    1    1    0    0  501  0.61702752335E+02  0.86600110902E+01 -0.13908854106E+01  0.62500000000E+02  0.47000000000E+01 0. -1.
</event>
<event>
 3    0  0.4603569E-005  0.9118800E+02  0.7546771E-02  0.1235069E+00
         25   -1    0    0    0    0  0.00000000000E+00  0.00000000000E+00  0.99999998245E-14  0.12500000000E+03  0.12500000000E+03 0.  0.
          5    1    1    0  501    0 -0.43361129305E+02 -0.30007990915E+02  0.33218864319E+02  0.62500000000E+02  0.47000000000E+01 0.  1.
         -5    1    1    0    0  501  0.43361129305E+02  0.30007990915E+02 -0.33218864319E+02  0.62500000000E+02  0.47000000000E+01 0.  1.
</event>
<event>
 3    0  0.4603569E-005  0.9118800E+02  0.7546771E-02  0.1235069E+00
         25   -1    0    0    0    0  0.00000000000E+00  0.00000000000E+00  0.99999998245E-14  0.12500000000E+03  0.12500000000E+03 0.  0.
          5    1    1    0  501    0 -0.70065272439E+01 -0.85783865759E+01 -0.61330904606E+02  0.62500000000E+02  0.47000000000E+01 0. -1.
         -5    1    1    0    0  501  0.70065272439E+01  0.85783865759E+01  0.61330904606E+02  0.62500000000E+02  0.47000000000E+01 0. -1.
</event>
<event>
 3    0  0.4603569E-005  0.9118800E+02  0.7546771E-02  0.1235069E+00
         25   -1    0    0    0    0  0.00000000000E+00  0.00000000000E+00  0.99999998245E-14  0.12500000000E+03  0.12500000000E+03 0.  0.
          5    1    1    0  501    0 -0.46417629418E+02 -0.25650976780E+02  0.32735165639E+02  0.62500000000E+02  0.47000000000E+01 0.  1.
         -5    1    1    0    0  501  0.46417629418E+02  0.25650976780E+02 -0.32735165639E+02  0.62500000000E+02  0.47000000000E+01 0.  1.
</event>
<event>
 3    0  0.4603569E-005  0.9118800E+02  0.7546771E-02  0.1235069E+00
         25   -1    0    0    0    0  0.00000000000E+00  0.00000000000E+00  0.99999998245E-14  0.12500000000E+03  0.12500000000E+03 0.  0.
          5    1    1    0  501    0  0.40772849882E+02 -0.28301006866E+02 -0.37693337911E+02  0.62500000000E+02  0.47000000000E+01 0. -1.
         -5    1    1    0    0  501 -0.40772849882E+02  0.28301006866E+02  0.37693337911E+02  0.62500000000E+02  0.47000000000E+01 0. -1.
</event>
<event>
 3    0  0.4603569E-005  0.9118800E+02  0.7546771E-02  0.1235069E+00
         25   -1    0    0    0    0  0.00000000000E+00  0.00000000000E+00  0.99999998245E-14  0.12500000000E+03  0.12500000000E+03 0.  0.
          5    1    1    0  501    0  0.17846895135E+02 -0.42998481156E+02  0.41434031330E+02  0.62500000000E+02  0.47000000000E+01 0.  1.
         -5    1    1    0    0  501 -0.17846895135E+02  0.42998481156E+02 -0.41434031330E+02  0.62500000000E+02  0.47000000000E+01 0.  1.
</event>
<event>
 3    0  0.4603569E-005  0.9118800E+02  0.7546771E-02  0.1235069E+00
         25   -1    0    0    0    0  0.00000000000E+00  0.00000000000E+00  0.99999998245E-14  0.12500000000E+03  0.12500000000E+03 0.  0.
          5    1    1    0  501    0  0.90850028624E+01  0.60841712256E+02 -0.99954375947E+01  0.62500000000E+02  0.47000000000E+01 0.  1.
         -5    1    1    0    0  501 -0.90850028624E+01 -0.60841712256E+02  0.99954375947E+01  0.62500000000E+02  0.47000000000E+01 0.  1.
</event>
<event>
 3    0  0.4603569E-005  0.9118800E+02  0.7546771E-02  0.1235069E+00
         25   -1    0    0    0    0  0.00000000000E+00  0.00000000000E+00  0.99999998245E-14  0.12500000000E+03  0.12500000000E+03 0.  0.
          5    1    1    0  501    0 -0.23808679190E+02 -0.24593277578E+02  0.52081450567E+02  0.62500000000E+02  0.47000000000E+01 0.  1.
         -5    1    1    0    0  501  0.23808679190E+02  0.24593277578E+02 -0.52081450567E+02  0.62500000000E+02  0.47000000000E+01 0.  1.
</event>
<event>
 3    0  0.4603569E-005  0.9118800E+02  0.7546771E-02  0.1235069E+00
         25   -1    0    0    0    0  0.00000000000E+00  0.00000000000E+00  0.99999998245E-14  0.12500000000E+03  0.12500000000E+03 0.  0.
          5    1    1    0  501    0  0.57850012391E+02  0.21761444914E+01 -0.23082470872E+02  0.62500000000E+02  0.47000000000E+01 0.  1.
         -5    1    1    0    0  501 -0.57850012391E+02 -0.21761444914E+01  0.23082470872E+02  0.62500000000E+02  0.47000000000E+01 0.  1.
</event>
<event>
 3    0  0.4603569E-005  0.9118800E+02  0.7546771E-02  0.1235069E+00
         25   -1    0    0    0    0  0.00000000000E+00  0.00000000000E+00  0.99999998245E-14  0.12500000000E+03  0.12500000000E+03 0.  0.
          5    1    1    0  501    0 -0.35714621402E+02 -0.27958737972E+02  0.42742657722E+02  0.62500000000E+02  0.47000000000E+01 0. -1.
         -5    1    1    0    0  501  0.35714621402E+02  0.27958737972E+02 -0.42742657722E+02  0.62500000000E+02  0.47000000000E+01 0. -1.
</event>
<event>
 3    0  0.4603569E-005  0.9118800E+02  0.7546771E-02  0.1235069E+00
         25   -1    0    0    0    0  0.00000000000E+00  0.00000000000E+00  0.99999998245E-14  0.12500000000E+03  0.12500000000E+03 0.  0.
          5    1    1    0  501    0  0.61537163641E+02 -0.45878490715E+01 -0.87343650005E+01  0.62500000000E+02  0.47000000000E+01 0. -1.
         -5    1    1    0    0  501 -0.61537163641E+02  0.45878490715E+01  0.87343650005E+01  0.62500000000E+02  0.47000000000E+01 0. -1.
</event>
<event>
 3    0  0.4603569E-005  0.9118800E+02  0.7546771E-02  0.1235069E+00
         25   -1    0    0    0    0  0.00000000000E+00  0.00000000000E+00  0.99999998245E-14  0.12500000000E+03  0.12500000000E+03 0.  0.
          5    1    1    0  501    0 -0.37047655672E+02 -0.14127222699E+02  0.48083810040E+02  0.62500000000E+02  0.47000000000E+01 0. -1.
         -5    1    1    0    0  501  0.37047655672E+02  0.14127222699E+02 -0.48083810040E+02  0.62500000000E+02  0.47000000000E+01 0. -1.
</event>
<event>
 3    0  0.4603569E-005  0.9118800E+02  0.7546771E-02  0.1235069E+00
         25   -1    0    0    0    0  0.00000000000E+00  0.00000000000E+00  0.99999998245E-14  0.12500000000E+03  0.12500000000E+03 0.  0.
          5    1    1    0  501    0  0.14412766217E+02  0.51049667914E+02  0.32716411415E+02  0.62500000000E+02  0.47000000000E+01 0.  1.
         -5    1    1    0    0  501 -0.14412766217E+02 -0.51049667914E+02 -0.32716411415E+02  0.62500000000E+02  0.47000000000E+01 0.  1.
</event>
<event>
 3    0  0.4603569E-005  0.9118800E+02  0.7546771E-02  0.1235069E+00
         25   -1    0    0    0    0  0.00000000000E+00  0.00000000000E+00  0.99999998245E-14  0.12500000000E+03  0.12500000000E+03 0.  0.
          5    1    1    0  501    0 -0.31371163850E+02 -0.27682742980E+02 -0.46191728911E+02  0.62500000000E+02  0.47000000000E+01 0.  1.
         -5    1    1    0    0  501  0.31371163850E+02  0.27682742980E+02  0.46191728911E+02  0.62500000000E+02  0.47000000000E+01 0.  1.
</event>
<event>
 3    0  0.4603569E-005  0.9118800E+02  0.7546771E-02  0.1235069E+00
         25   -1    0    0    0    0  0.00000000000E+00  0.00000000000E+00  0.99999998245E-14  0.12500000000E+03  0.12500000000E+03 0.  0.
          5    1    1    0  501    0  0.42342805475E+02  0.42995545025E+02  0.15576582824E+02  0.62500000000E+02  0.47000000000E+01 0.  1.
         -5    1    1    0    0  501 -0.42342805475E+02 -0.42995545025E+02 -0.15576582824E+02  0.62500000000E+02  0.47000000000E+01 0.  1.
</event>
<event>
 3    0  0.4603569E-005  0.9118800E+02  0.7546771E-02  0.1235069E+00
         25   -1    0    0    0    0  0.00000000000E+00  0.00000000000E+00  0.99999998245E-14  0.12500000000E+03  0.12500000000E+03 0.  0.
          5    1    1    0  501    0 -0.18303671167E+02  0.54995100170E+02 -0.22905776107E+02  0.62500000000E+02  0.47000000000E+01 0. -1.
         -5    1    1    0    0  501  0.18303671167E+02 -0.54995100170E+02  0.22905776107E+02  0.62500000000E+02  0.47000000000E+01 0. -1.
</event>
<event>
 3    0  0.4603569E-005  0.9118800E+02  0.7546771E-02  0.1235069E+00
         25   -1    0    0    0    0  0.00000000000E+00  0.00000000000E+00  0.99999998245E-14  0.12500000000E+03  0.12500000000E+03 0.  0.
          5    1    1    0  501    0 -0.53422822554E+02  0.10072442159E+02 -0.30474709831E+02  0.62500000000E+02  0.47000000000E+01 0. -1.
         -5    1    1    0    0  501  0.53422822554E+02 -0.10072442159E+02  0.30474709831E+02  0.62500000000E+02  0.47000000000E+01 0. -1.
</event>
<event>
 3    0  0.4603569E-005  0.9118800E+02  0.7546771E-02  0.1235069E+00
         25   -1    0    0    0    0  0.00000000000E+00  0.00000000000E+00  0.99999998245E-14  0.12500000000E+03  0.12500000000E+03 0.  0.
          5    1    1    0  501    0 -0.20348413659E+02  0.33175983979E+02 -0.48677059778E+02  0.62500000000E+02  0.47000000000E+01 0.  1.
         -5    1    1    0    0  501  0.20348413659E+02 -0.33175983979E+02  0.48677059778E+02  0.62500000000E+02  0.47000000000E+01 0.  1.
</event>
<event>
 3    0  0.4603569E-005  0.9118800E+02  0.7546771E-02  0.1235069E+00
         25   -1    0    0    0    0  0.00000000000E+00  0.00000000000E+00  0.99999998245E-14  0.12500000000E+03  0.12500000000E+03 0.  0.
          5    1    1    0  501    0 -0.53159089667E+02  0.32487535260E+02  0.16826284350E+01  0.62500000000E+02  0.47000000000E+01 0.  1.
         -5    1    1    0    0  501  0.53159089667E+02 -0.32487535260E+02 -0.16826284350E+01  0.62500000000E+02  0.47000000000E+01 0.  1.
</event>
<event>
 3    0  0.4603569E-005  0.9118800E+02  0.7546771E-02  0.1235069E+00
         25   -1    0    0    0    0  0.00000000000E+00  0.00000000000E+00  0.99999998245E-14  0.12500000000E+03  0.12500000000E+03 0.  0.
          5    1    1    0  501    0 -0.49730576124E+02 -0.28108474424E+02 -0.24918737205E+02  0.62500000000E+02  0.47000000000E+01 0. -1.
         -5    1    1    0    0  501  0.49730576124E+02  0.28108474424E+02  0.24918737205E+02  0.62500000000E+02  0.47000000000E+01 0. -1.
</event>
<event>
 3    0  0.4603569E-005  0.9118800E+02  0.7546771E-02  0.1235069E+00
         25   -1    0    0    0    0  0.00000000000E+00  0.00000000000E+00  0.99999998245E-14  0.12500000000E+03  0.12500000000E+03 0.  0.
          5    1    1    0  501    0  0.68482560328E+01  0.56528020925E+02 -0.25334645046E+02  0.62500000000E+02  0.47000000000E+01 0. -1.
         -5    1    1    0    0  501 -0.68482560328E+01 -0.56528020925E+02  0.25334645046E+02  0.62500000000E+02  0.47000000000E+01 0. -1.
</event>
<event>
 3    0  0.4603569E-005  0.9118800E+02  0.7546771E-02  0.1235069E+00
         25   -1    0    0    0    0  0.00000000000E+00  0.00000000000E+00  0.99999998245E-14  0.12500000000E+03  0.12500000000E+03 0.  0.
          5    1    1    0  501    0 -0.35137338670E+02 -0.61979372952E+01 -0.51099050915E+02  0.62500000000E+02  0.47000000000E+01 0. -1.
         -5    1    1    0    0  501  0.35137338670E+02  0.61979372952E+01  0.51099050915E+02  0.62500000000E+02  0.47000000000E+01 0. -1.
</event>
<event>
 3    0  0.4603569E-005  0.9118800E+02  0.7546771E-02  0.1235069E+00
         25   -1    0    0    0    0  0.00000000000E+00  0.00000000000E+00  0.99999998245E-14  0.12500000000E+03  0.12500000000E+03 0.  0.
          5    1    1    0  501    0  0.44399228421E+02  0.43731738538E+02  0.63526370983E+00  0.62500000000E+02  0.47000000000E+01 0. -1.
         -5    1    1    0    0  501 -0.44399228421E+02 -0.43731738538E+02 -0.63526370983E+00  0.62500000000E+02  0.47000000000E+01 0. -1.
</event>
<event>
 3    0  0.4603569E-005  0.9118800E+02  0.7546771E-02  0.1235069E+00
         25   -1    0    0    0    0  0.00000000000E+00  0.00000000000E+00  0.99999998245E-14  0.12500000000E+03  0.12500000000E+03 0.  0.
          5    1    1    0  501    0 -0.42631719169E+02  0.65119436609E+01 -0.44992122760E+02  0.62500000000E+02  0.47000000000E+01 0.  1.
         -5    1    1    0    0  501  0.42631719169E+02 -0.65119436609E+01  0.44992122760E+02  0.62500000000E+02  0.47000000000E+01 0.  1.
</event>
<event>
 3    0  0.4603569E-005  0.9118800E+02  0.7546771E-02  0.1235069E+00
         25   -1    0    0    0    0  0.00000000000E+00  0.00000000000E+00  0.99999998245E-14  0.12500000000E+03  0.12500000000E+03 0.  0.
          5    1    1    0  501    0 -0.19084936625E+02  0.37942736824E+02  0.45610019911E+02  0.62500000000E+02  0.47000000000E+01 0. -1.
         -5    1    1    0    0  501  0.19084936625E+02 -0.37942736824E+02 -0.45610019911E+02  0.62500000000E+02  0.47000000000E+01 0. -1.
</event>
<event>
 3    0  0.4603569E-005  0.9118800E+02  0.7546771E-02  0.1235069E+00
         25   -1    0    0    0    0  0.00000000000E+00  0.00000000000E+00  0.99999998245E-14  0.12500000000E+03  0.12500000000E+03 0.  0.
          5    1    1    0  501    0  0.31319094043E+02 -0.27585226752E+02 -0.46285306668E+02  0.62500000000E+02  0.47000000000E+01 0. -1.
         -5    1    1    0    0  501 -0.31319094043E+02  0.27585226752E+02  0.46285306668E+02  0.62500000000E+02  0.47000000000E+01 0. -1.
</event>
<event>
 3    0  0.4603569E-005  0.9118800E+02  0.7546771E-02  0.1235069E+00
         25   -1    0    0    0    0  0.00000000000E+00  0.00000000000E+00  0.99999998245E-14  0.12500000000E+03  0.12500000000E+03 0.  0.
          5    1    1    0  501    0 -0.12491454445E+02  0.29374561634E+02 -0.53528111256E+02  0.62500000000E+02  0.47000000000E+01 0. -1.
         -5    1    1    0    0  501  0.12491454445E+02 -0.29374561634E+02  0.53528111256E+02  0.62500000000E+02  0.47000000000E+01 0. -1.
</event>
<event>
 3    0  0.4603569E-005  0.9118800E+02  0.7546771E-02  0.1235069E+00
         25   -1    0    0    0    0  0.00000000000E+00  0.00000000000E+00  0.99999998245E-14  0.12500000000E+03  0.12500000000E+03 0.  0.
          5    1    1    0  501    0 -0.42978652446E+02  0.27507389320E+02  0.35781824530E+02  0.62500000000E+02  0.47000000000E+01 0. -1.
         -5    1    1    0    0  501  0.42978652446E+02 -0.27507389320E+02 -0.35781824530E+02  0.62500000000E+02  0.47000000000E+01 0. -1.
</event>
<event>
 3    0  0.4603569E-005  0.9118800E+02  0.7546771E-02  0.1235069E+00
         25   -1    0    0    0    0  0.00000000000E+00  0.00000000000E+00  0.99999998245E-14  0.12500000000E+03  0.12500000000E+03 0.  0.
          5    1    1    0  501    0  0.25723506564E+02 -0.20496424107E+02  0.52937300733E+02  0.62500000000E+02  0.47000000000E+01 0. -1.
         -5    1    1    0    0  501 -0.25723506564E+02  0.20496424107E+02 -0.52937300733E+02  0.62500000000E+02  0.47000000000E+01 0. -1.
</event>
<event>
 3    0  0.4603569E-005  0.9118800E+02  0.7546771E-02  0.1235069E+00
         25   -1    0    0    0    0  0.00000000000E+00  0.00000000000E+00  0.99999998245E-14  0.12500000000E+03  0.12500000000E+03 0.  0.
          5    1    1    0  501    0  0.22252479868E+02  0.26285528028E+02  0.51942835464E+02  0.62500000000E+02  0.47000000000E+01 0. -1.
         -5    1    1    0    0  501 -0.22252479868E+02 -0.26285528028E+02 -0.51942835464E+02  0.62500000000E+02  0.47000000000E+01 0. -1.
</event>
<event>
 3    0  0.4603569E-005  0.9118800E+02  0.7546771E-02  0.1235069E+00
         25   -1    0    0    0    0  0.00000000000E+00  0.00000000000E+00  0.99999998245E-14  0.12500000000E+03  0.12500000000E+03 0.  0.
          5    1    1    0  501    0  0.18472597300E+02 -0.46614042481E+02  0.37014243104E+02  0.62500000000E+02  0.47000000000E+01 0. -1.
         -5    1    1    0    0  501 -0.18472597300E+02  0.46614042481E+02 -0.37014243104E+02  0.62500000000E+02  0.47000000000E+01 0. -1.
</event>
<event>
 3    0  0.4603569E-005  0.9118800E+02  0.7546771E-02  0.1235069E+00
         25   -1    0    0    0    0  0.00000000000E+00  0.00000000000E+00  0.99999998245E-14  0.12500000000E+03  0.12500000000E+03 0.  0.
          5    1    1    0  501    0  0.34188039931E+02 -0.50625797926E+02 -0.12343683002E+02  0.62500000000E+02  0.47000000000E+01 0.  1.
         -5    1    1    0    0  501 -0.34188039931E+02  0.50625797926E+02  0.12343683002E+02  0.62500000000E+02  0.47000000000E+01 0.  1.
</event>
<event>
 3    0  0.4603569E-005  0.9118800E+02  0.7546771E-02  0.1235069E+00
         25   -1    0    0    0    0  0.00000000000E+00  0.00000000000E+00  0.99999998245E-14  0.12500000000E+03  0.12500000000E+03 0.  0.
          5    1    1    0  501    0  0.27963659156E+02 -0.23651213347E+02  0.50426321240E+02  0.62500000000E+02  0.47000000000E+01 0. -1.
         -5    1    1    0    0  501 -0.27963659156E+02  0.23651213347E+02 -0.50426321240E+02  0.62500000000E+02  0.47000000000E+01 0. -1.
</event>
<event>
 3    0  0.4603569E-005  0.9118800E+02  0.7546771E-02  0.1235069E+00
         25   -1    0    0    0    0  0.00000000000E+00  0.00000000000E+00  0.99999998245E-14  0.12500000000E+03  0.12500000000E+03 0.  0.
          5    1    1    0  501    0  0.38223324908E+02 -0.46601134717E+02  0.15857858496E+02  0.62500000000E+02  0.47000000000E+01 0. -1.
         -5    1    1    0    0  501 -0.38223324908E+02  0.46601134717E+02 -0.15857858496E+02  0.62500000000E+02  0.47000000000E+01 0. -1.
</event>
<event>
 3    0  0.4603569E-005  0.9118800E+02  0.7546771E-02  0.1235069E+00
         25   -1    0    0    0    0  0.00000000000E+00  0.00000000000E+00  0.99999998245E-14  0.12500000000E+03  0.12500000000E+03 0.  0.
          5    1    1    0  501    0  0.20268551622E+02  0.53709965854E+02  0.24260778699E+02  0.62500000000E+02  0.47000000000E+01 0. -1.
         -5    1    1    0    0  501 -0.20268551622E+02 -0.53709965854E+02 -0.24260778699E+02  0.62500000000E+02  0.47000000000E+01 0. -1.
</event>
<event>
 3    0  0.4603569E-005  0.9118800E+02  0.7546771E-02  0.1235069E+00
         25   -1    0    0    0    0  0.00000000000E+00  0.00000000000E+00  0.99999998245E-14  0.12500000000E+03  0.12500000000E+03 0.  0.
          5    1    1    0  501    0 -0.37333985769E+02 -0.33237559499E+02 -0.37223623482E+02  0.62500000000E+02  0.47000000000E+01 0.  1.
         -5    1    1    0    0  501  0.37333985769E+02  0.33237559499E+02  0.37223623482E+02  0.62500000000E+02  0.47000000000E+01 0.  1.
</event>
<event>
 3    0  0.4603569E-005  0.9118800E+02  0.7546771E-02  0.1235069E+00
         25   -1    0    0    0    0  0.00000000000E+00  0.00000000000E+00  0.99999998245E-14  0.12500000000E+03  0.12500000000E+03 0.  0.
          5    1    1    0  501    0 -0.32127578037E+02  0.53228951379E+02 -0.43194287299E+01  0.62500000000E+02  0.47000000000E+01 0. -1.
         -5    1    1    0    0  501  0.32127578037E+02 -0.53228951379E+02  0.43194287299E+01  0.62500000000E+02  0.47000000000E+01 0. -1.
</event>
<event>
 3    0  0.4603569E-005  0.9118800E+02  0.7546771E-02  0.1235069E+00
         25   -1    0    0    0    0  0.00000000000E+00  0.00000000000E+00  0.99999998245E-14  0.12500000000E+03  0.12500000000E+03 0.  0.
          5    1    1    0  501    0 -0.24816213950E+02  0.57038621122E+02 -0.38615056286E+01  0.62500000000E+02  0.47000000000E+01 0. -1.
         -5    1    1    0    0  501  0.24816213950E+02 -0.57038621122E+02  0.38615056286E+01  0.62500000000E+02  0.47000000000E+01 0. -1.
</event>
<event>
 3    0  0.4603569E-005  0.9118800E+02  0.7546771E-02  0.1235069E+00
         25   -1    0    0    0    0  0.00000000000E+00  0.00000000000E+00  0.99999998245E-14  0.12500000000E+03  0.12500000000E+03 0.  0.
          5    1    1    0  501    0 -0.53428926211E+02 -0.31457705417E+02  0.63184344491E+01  0.62500000000E+02  0.47000000000E+01 0.  1.
         -5    1    1    0    0  501  0.53428926211E+02  0.31457705417E+02 -0.63184344491E+01  0.62500000000E+02  0.47000000000E+01 0.  1.
</event>
<event>
 3    0  0.4603569E-005  0.9118800E+02  0.7546771E-02  0.1235069E+00
         25   -1    0    0    0    0  0.00000000000E+00  0.00000000000E+00  0.99999998245E-14  0.12500000000E+03  0.12500000000E+03 0.  0.
          5    1    1    0  501    0 -0.57238252667E+02  0.72463358523E+01 -0.23567627126E+02  0.62500000000E+02  0.47000000000E+01 0.  1.
         -5    1    1    0    0  501  0.57238252667E+02 -0.72463358523E+01  0.23567627126E+02  0.62500000000E+02  0.47000000000E+01 0.  1.
</event>
<event>
 3    0  0.4603569E-005  0.9118800E+02  0.7546771E-02  0.1235069E+00
         25   -1    0    0    0    0  0.00000000000E+00  0.00000000000E+00  0.99999998245E-14  0.12500000000E+03  0.12500000000E+03 0.  0.
          5    1    1    0  501    0 -0.19155666269E+02 -0.59290115136E+02  0.13793828112E+01  0.62500000000E+02  0.47000000000E+01 0.  1.
         -5    1    1    0    0  501  0.19155666269E+02  0.59290115136E+02 -0.13793828112E+01  0.62500000000E+02  0.47000000000E+01 0.  1.
</event>
<event>
 3    0  0.4603569E-005  0.9118800E+02  0.7546771E-02  0.1235069E+00
         25   -1    0    0    0    0  0.00000000000E+00  0.00000000000E+00  0.99999998245E-14  0.12500000000E+03  0.12500000000E+03 0.  0.
          5    1    1    0  501    0 -0.38907871680E+02  0.37694345469E+02  0.30813533406E+02  0.62500000000E+02  0.47000000000E+01 0.  1.
         -5    1    1    0    0  501  0.38907871680E+02 -0.37694345469E+02 -0.30813533406E+02  0.62500000000E+02  0.47000000000E+01 0.  1.
</event>
<event>
 3    0  0.4603569E-005  0.9118800E+02  0.7546771E-02  0.1235069E+00
         25   -1    0    0    0    0  0.00000000000E+00  0.00000000000E+00  0.99999998245E-14  0.12500000000E+03  0.12500000000E+03 0.  0.
          5    1    1    0  501    0 -0.20020908194E+02  0.24446578051E+01 -0.58969033257E+02  0.62500000000E+02  0.47000000000E+01 0.  1.
         -5    1    1    0    0  501  0.20020908194E+02 -0.24446578051E+01  0.58969033257E+02  0.62500000000E+02  0.47000000000E+01 0.  1.
</event>
<event>
 3    0  0.4603569E-005  0.9118800E+02  0.7546771E-02  0.1235069E+00
         25   -1    0    0    0    0  0.00000000000E+00  0.00000000000E+00  0.99999998245E-14  0.12500000000E+03  0.12500000000E+03 0.  0.
          5    1    1    0  501    0 -0.83459067832E+01 -0.43990352258E+02 -0.43351525327E+02  0.62500000000E+02  0.47000000000E+01 0.  1.
         -5    1    1    0    0  501  0.83459067832E+01  0.43990352258E+02  0.43351525327E+02  0.62500000000E+02  0.47000000000E+01 0.  1.
</event>
<event>
 3    0  0.4603569E-005  0.9118800E+02  0.7546771E-02  0.1235069E+00
         25   -1    0    0    0    0  0.00000000000E+00  0.00000000000E+00  0.99999998245E-14  0.12500000000E+03  0.12500000000E+03 0.  0.
          5    1    1    0  501    0 -0.52637494083E+02  0.56484813927E+01 -0.32886910385E+02  0.62500000000E+02  0.47000000000E+01 0.  1.
         -5    1    1    0    0  501  0.52637494083E+02 -0.56484813927E+01  0.32886910385E+02  0.62500000000E+02  0.47000000000E+01 0.  1.
</event>
<event>
 3    0  0.4603569E-005  0.9118800E+02  0.7546771E-02  0.1235069E+00
         25   -1    0    0    0    0  0.00000000000E+00  0.00000000000E+00  0.99999998245E-14  0.12500000000E+03  0.12500000000E+03 0.  0.
          5    1    1    0  501    0  0.26416218086E+02  0.50620718958E+02 -0.24977714751E+02  0.62500000000E+02  0.47000000000E+01 0. -1.
         -5    1    1    0    0  501 -0.26416218086E+02 -0.50620718958E+02  0.24977714751E+02  0.62500000000E+02  0.47000000000E+01 0. -1.
</event>
<event>
 3    0  0.4603569E-005  0.9118800E+02  0.7546771E-02  0.1235069E+00
         25   -1    0    0    0    0  0.00000000000E+00  0.00000000000E+00  0.99999998245E-14  0.12500000000E+03  0.12500000000E+03 0.  0.
          5    1    1    0  501    0 -0.56547997722E+02 -0.25926542488E+02 -0.37813156803E+01  0.62500000000E+02  0.47000000000E+01 0.  1.
         -5    1    1    0    0  501  0.56547997722E+02  0.25926542488E+02  0.37813156803E+01  0.62500000000E+02  0.47000000000E+01 0.  1.
</event>
<event>
 3    0  0.4603569E-005  0.9118800E+02  0.7546771E-02  0.1235069E+00
         25   -1    0    0    0    0  0.00000000000E+00  0.00000000000E+00  0.99999998245E-14  0.12500000000E+03  0.12500000000E+03 0.  0.
          5    1    1    0  501    0  0.58915595565E+02 -0.18857525077E+02  0.75832939522E+01  0.62500000000E+02  0.47000000000E+01 0. -1.
         -5    1    1    0    0  501 -0.58915595565E+02  0.18857525077E+02 -0.75832939522E+01  0.62500000000E+02  0.47000000000E+01 0. -1.
</event>
<event>
 3    0  0.4603569E-005  0.9118800E+02  0.7546771E-02  0.1235069E+00
         25   -1    0    0    0    0  0.00000000000E+00  0.00000000000E+00  0.99999998245E-14  0.12500000000E+03  0.12500000000E+03 0.  0.
          5    1    1    0  501    0  0.83603180960E+01  0.43792853063E+02  0.43548261755E+02  0.62500000000E+02  0.47000000000E+01 0.  1.
         -5    1    1    0    0  501 -0.83603180960E+01 -0.43792853063E+02 -0.43548261755E+02  0.62500000000E+02  0.47000000000E+01 0.  1.
</event>
<event>
 3    0  0.4603569E-005  0.9118800E+02  0.7546771E-02  0.1235069E+00
         25   -1    0    0    0    0  0.00000000000E+00  0.00000000000E+00  0.99999998245E-14  0.12500000000E+03  0.12500000000E+03 0.  0.
          5    1    1    0  501    0 -0.56036314257E+02  0.12861213436E+02  0.24055782538E+02  0.62500000000E+02  0.47000000000E+01 0. -1.
         -5    1    1    0    0  501  0.56036314257E+02 -0.12861213436E+02 -0.24055782538E+02  0.62500000000E+02  0.47000000000E+01 0. -1.
</event>
<event>
 3    0  0.4603569E-005  0.9118800E+02  0.7546771E-02  0.1235069E+00
         25   -1    0    0    0    0  0.00000000000E+00  0.00000000000E+00  0.99999998245E-14  0.12500000000E+03  0.12500000000E+03 0.  0.
          5    1    1    0  501    0 -0.47638258173E+02 -0.38028820752E+02  0.12983264247E+02  0.62500000000E+02  0.47000000000E+01 0. -1.
         -5    1    1    0    0  501  0.47638258173E+02  0.38028820752E+02 -0.12983264247E+02  0.62500000000E+02  0.47000000000E+01 0. -1.
</event>
<event>
 3    0  0.4603569E-005  0.9118800E+02  0.7546771E-02  0.1235069E+00
         25   -1    0    0    0    0  0.00000000000E+00  0.00000000000E+00  0.99999998245E-14  0.12500000000E+03  0.12500000000E+03 0.  0.
          5    1    1    0  501    0  0.26208423770E+02 -0.56518245026E+02 -0.17223538088E+01  0.62500000000E+02  0.47000000000E+01 0.  1.
         -5    1    1    0    0  501 -0.26208423770E+02  0.56518245026E+02  0.17223538088E+01  0.62500000000E+02  0.47000000000E+01 0.  1.
</event>
<event>
 3    0  0.4603569E-005  0.9118800E+02  0.7546771E-02  0.1235069E+00
         25   -1    0    0    0    0  0.00000000000E+00  0.00000000000E+00  0.99999998245E-14  0.12500000000E+03  0.12500000000E+03 0.  0.
          5    1    1    0  501    0 -0.37370377478E+02 -0.46135436113E+02  0.18950895013E+02  0.62500000000E+02  0.47000000000E+01 0.  1.
         -5    1    1    0    0  501  0.37370377478E+02  0.46135436113E+02 -0.18950895013E+02  0.62500000000E+02  0.47000000000E+01 0.  1.
</event>
<event>
 3    0  0.4603569E-005  0.9118800E+02  0.7546771E-02  0.1235069E+00
         25   -1    0    0    0    0  0.00000000000E+00  0.00000000000E+00  0.99999998245E-14  0.12500000000E+03  0.12500000000E+03 0.  0.
          5    1    1    0  501    0 -0.57595689631E+01  0.42941838537E+02  0.44799395849E+02  0.62500000000E+02  0.47000000000E+01 0.  1.
         -5    1    1    0    0  501  0.57595689631E+01 -0.42941838537E+02 -0.44799395849E+02  0.62500000000E+02  0.47000000000E+01 0.  1.
</event>
<event>
 3    0  0.4603569E-005  0.9118800E+02  0.7546771E-02  0.1235069E+00
         25   -1    0    0    0    0  0.00000000000E+00  0.00000000000E+00  0.99999998245E-14  0.12500000000E+03  0.12500000000E+03 0.  0.
          5    1    1    0  501    0 -0.55335850190E+02 -0.27964759152E+02  0.63305552162E+01  0.62500000000E+02  0.47000000000E+01 0. -1.
         -5    1    1    0    0  501  0.55335850190E+02  0.27964759152E+02 -0.63305552162E+01  0.62500000000E+02  0.47000000000E+01 0. -1.
</event>
<event>
 3    0  0.4603569E-005  0.9118800E+02  0.7546771E-02  0.1235069E+00
         25   -1    0    0    0    0  0.00000000000E+00  0.00000000000E+00  0.99999998245E-14  0.12500000000E+03  0.12500000000E+03 0.  0.
          5    1    1    0  501    0  0.31071767202E+02  0.23788621036E+02  0.48505739786E+02  0.62500000000E+02  0.47000000000E+01 0. -1.
         -5    1    1    0    0  501 -0.31071767202E+02 -0.23788621036E+02 -0.48505739786E+02  0.62500000000E+02  0.47000000000E+01 0. -1.
</event>
<event>
 3    0  0.4603569E-005  0.9118800E+02  0.7546771E-02  0.1235069E+00
         25   -1    0    0    0    0  0.00000000000E+00  0.00000000000E+00  0.99999998245E-14  0.12500000000E+03  0.12500000000E+03 0.  0.
          5    1    1    0  501    0  0.12875480520E+02 -0.43231259230E+02 -0.43005118611E+02  0.62500000000E+02  0.47000000000E+01 0. -1.
         -5    1    1    0    0  501 -0.12875480520E+02  0.43231259230E+02  0.43005118611E+02  0.62500000000E+02  0.47000000000E+01 0. -1.
</event>
<event>
 3    0  0.4603569E-005  0.9118800E+02  0.7546771E-02  0.1235069E+00
         25   -1    0    0    0    0  0.00000000000E+00  0.00000000000E+00  0.99999998245E-14  0.12500000000E+03  0.12500000000E+03 0.  0.
          5    1    1    0  501    0 -0.20123774881E+02 -0.30285644438E+02  0.50615940429E+02  0.62500000000E+02  0.47000000000E+01 0.  1.
         -5    1    1    0    0  501  0.20123774881E+02  0.30285644438E+02 -0.50615940429E+02  0.62500000000E+02  0.47000000000E+01 0.  1.
</event>
<event>
 3    0  0.4603569E-005  0.9118800E+02  0.7546771E-02  0.1235069E+00
         25   -1    0    0    0    0  0.00000000000E+00  0.00000000000E+00  0.99999998245E-14  0.12500000000E+03  0.12500000000E+03 0.  0.
          5    1    1    0  501    0 -0.23817922704E+00 -0.53796211658E+02 -0.31465391812E+02  0.62500000000E+02  0.47000000000E+01 0. -1.
         -5    1    1    0    0  501  0.23817922704E+00  0.53796211658E+02  0.31465391812E+02  0.62500000000E+02  0.47000000000E+01 0. -1.
</event>
<event>
 3    0  0.4603569E-005  0.9118800E+02  0.7546771E-02  0.1235069E+00
         25   -1    0    0    0    0  0.00000000000E+00  0.00000000000E+00  0.99999998245E-14  0.12500000000E+03  0.12500000000E+03 0.  0.
          5    1    1    0  501    0 -0.52501783568E+02  0.10886884466E+02  0.31767884235E+02  0.62500000000E+02  0.47000000000E+01 0. -1.
         -5    1    1    0    0  501  0.52501783568E+02 -0.10886884466E+02 -0.31767884235E+02  0.62500000000E+02  0.47000000000E+01 0. -1.
</event>
<event>
 3    0  0.4603569E-005  0.9118800E+02  0.7546771E-02  0.1235069E+00
         25   -1    0    0    0    0  0.00000000000E+00  0.00000000000E+00  0.99999998245E-14  0.12500000000E+03  0.12500000000E+03 0.  0.
          5    1    1    0  501    0  0.13579637894E+02 -0.33479012034E+02 -0.50782961591E+02  0.62500000000E+02  0.47000000000E+01 0.  1.
         -5    1    1    0    0  501 -0.13579637894E+02  0.33479012034E+02  0.50782961591E+02  0.62500000000E+02  0.47000000000E+01 0.  1.
</event>
<event>
 3    0  0.4603569E-005  0.9118800E+02  0.7546771E-02  0.1235069E+00
         25   -1    0    0    0    0  0.00000000000E+00  0.00000000000E+00  0.99999998245E-14  0.12500000000E+03  0.12500000000E+03 0.  0.
          5    1    1    0  501    0 -0.47402149120E+02  0.39843757875E+02  0.70477810115E+01  0.62500000000E+02  0.47000000000E+01 0.  1.
         -5    1    1    0    0  501  0.47402149120E+02 -0.39843757875E+02 -0.70477810115E+01  0.62500000000E+02  0.47000000000E+01 0.  1.
</event>
<event>
 3    0  0.4603569E-005  0.9118800E+02  0.7546771E-02  0.1235069E+00
         25   -1    0    0    0    0  0.00000000000E+00  0.00000000000E+00  0.99999998245E-14  0.12500000000E+03  0.12500000000E+03 0.  0.
          5    1    1    0  501    0  0.19762760333E+01  0.48589771892E+02 -0.38978050240E+02  0.62500000000E+02  0.47000000000E+01 0.  1.
         -5    1    1    0    0  501 -0.19762760333E+01 -0.48589771892E+02  0.38978050240E+02  0.62500000000E+02  0.47000000000E+01 0.  1.
</event>
<event>
 3    0  0.4603569E-005  0.9118800E+02  0.7546771E-02  0.1235069E+00
         25   -1    0    0    0    0  0.00000000000E+00  0.00000000000E+00  0.99999998245E-14  0.12500000000E+03  0.12500000000E+03 0.  0.
          5    1    1    0  501    0  0.39120266169E+02 -0.44963265407E+02 -0.18222775276E+02  0.62500000000E+02  0.47000000000E+01 0.  1.
         -5    1    1    0    0  501 -0.39120266169E+02  0.44963265407E+02  0.18222775276E+02  0.62500000000E+02  0.47000000000E+01 0.  1.
</event>
<event>
 3    0  0.4603569E-005  0.9118800E+02  0.7546771E-02  0.1235069E+00
         25   -1    0    0    0    0  0.00000000000E+00  0.00000000000E+00  0.99999998245E-14  0.12500000000E+03  0.12500000000E+03 0.  0.
          5    1    1    0  501    0  0.28866051203E+01 -0.27738720422E+02  0.55735006057E+02  0.62500000000E+02  0.47000000000E+01 0. -1.
         -5    1    1    0    0  501 -0.28866051203E+01  0.27738720422E+02 -0.55735006057E+02  0.62500000000E+02  0.47000000000E+01 0. -1.
</event>
<event>
 3    0  0.4603569E-005  0.9118800E+02  0.7546771E-02  0.1235069E+00
         25   -1    0    0    0    0  0.00000000000E+00  0.00000000000E+00  0.99999998245E-14  0.12500000000E+03  0.12500000000E+03 0.  0.
          5    1    1    0  501    0  0.43019513837E+02  0.22423547964E+02 -0.39123725870E+02  0.62500000000E+02  0.47000000000E+01 0.  1.
         -5    1    1    0    0  501 -0.43019513837E+02 -0.22423547964E+02  0.39123725870E+02  0.62500000000E+02  0.47000000000E+01 0.  1.
</event>
<event>
 3    0  0.4603569E-005  0.9118800E+02  0.7546771E-02  0.1235069E+00
         25   -1    0    0    0    0  0.00000000000E+00  0.00000000000E+00  0.99999998245E-14  0.12500000000E+03  0.12500000000E+03 0.  0.
          5    1    1    0  501    0 -0.15924082162E+02  0.72093414346E+01 -0.59821476105E+02  0.62500000000E+02  0.47000000000E+01 0. -1.
         -5    1    1    0    0  501  0.15924082162E+02 -0.72093414346E+01  0.59821476105E+02  0.62500000000E+02  0.47000000000E+01 0. -1.
</event>
<event>
 3    0  0.4603569E-005  0.9118800E+02  0.7546771E-02  0.1235069E+00
         25   -1    0    0    0    0  0.00000000000E+00  0.00000000000E+00  0.99999998245E-14  0.12500000000E+03  0.12500000000E+03 0.  0.
          5    1    1    0  501    0 -0.11713025792E+01  0.61557456317E+02 -0.96678654308E+01  0.62500000000E+02  0.47000000000E+01 0.  1.
         -5    1    1    0    0  501  0.11713025792E+01 -0.61557456317E+02  0.96678654308E+01  0.62500000000E+02  0.47000000000E+01 0.  1.
</event>
<event>
 3    0  0.4603569E-005  0.9118800E+02  0.7546771E-02  0.1235069E+00
         25   -1    0    0    0    0  0.00000000000E+00  0.00000000000E+00  0.99999998245E-14  0.12500000000E+03  0.12500000000E+03 0.  0.
          5    1    1    0  501    0 -0.26519024488E+02 -0.39581374543E+02 -0.40177308639E+02  0.62500000000E+02  0.47000000000E+01 0. -1.
         -5    1    1    0    0  501  0.26519024488E+02  0.39581374543E+02  0.40177308639E+02  0.62500000000E+02  0.47000000000E+01 0. -1.
</event>
<event>
 3    0  0.4603569E-005  0.9118800E+02  0.7546771E-02  0.1235069E+00
         25   -1    0    0    0    0  0.00000000000E+00  0.00000000000E+00  0.99999998245E-14  0.12500000000E+03  0.12500000000E+03 0.  0.
          5    1    1    0  501    0 -0.52623222278E+02  0.32350926266E+01  0.33233878088E+02  0.62500000000E+02  0.47000000000E+01 0.  1.
         -5    1    1    0    0  501  0.52623222278E+02 -0.32350926266E+01 -0.33233878088E+02  0.62500000000E+02  0.47000000000E+01 0.  1.
</event>
<event>
 3    0  0.4603569E-005  0.9118800E+02  0.7546771E-02  0.1235069E+00
         25   -1    0    0    0    0  0.00000000000E+00  0.00000000000E+00  0.99999998245E-14  0.12500000000E+03  0.12500000000E+03 0.  0.
          5    1    1    0  501    0  0.32951485299E+02  0.50363244745E+02  0.16183423472E+02  0.62500000000E+02  0.47000000000E+01 0. -1.
         -5    1    1    0    0  501 -0.32951485299E+02 -0.50363244745E+02 -0.16183423472E+02  0.62500000000E+02  0.47000000000E+01 0. -1.
</event>
<event>
 3    0  0.4603569E-005  0.9118800E+02  0.7546771E-02  0.1235069E+00
         25   -1    0    0    0    0  0.00000000000E+00  0.00000000000E+00  0.99999998245E-14  0.12500000000E+03  0.12500000000E+03 0.  0.
          5    1    1    0  501    0 -0.44829521554E+02 -0.42709927289E+02  0.70947944461E+01  0.62500000000E+02  0.47000000000E+01 0.  1.
         -5    1    1    0    0  501  0.44829521554E+02  0.42709927289E+02 -0.70947944461E+01  0.62500000000E+02  0.47000000000E+01 0.  1.
</event>
<event>
 3    0  0.4603569E-005  0.9118800E+02  0.7546771E-02  0.1235069E+00
         25   -1    0    0    0    0  0.00000000000E+00  0.00000000000E+00  0.99999998245E-14  0.12500000000E+03  0.12500000000E+03 0.  0.
          5    1    1    0  501    0 -0.14117402019E+02 -0.53952227798E+02  0.27821144403E+02  0.62500000000E+02  0.47000000000E+01 0.  1.
         -5    1    1    0    0  501  0.14117402019E+02  0.53952227798E+02 -0.27821144403E+02  0.62500000000E+02  0.47000000000E+01 0.  1.
</event>
<event>
 3    0  0.4603569E-005  0.9118800E+02  0.7546771E-02  0.1235069E+00
         25   -1    0    0    0    0  0.00000000000E+00  0.00000000000E+00  0.99999998245E-14  0.12500000000E+03  0.12500000000E+03 0.  0.
          5    1    1    0  501    0  0.27733858123E+02  0.32272918407E+02 -0.45535171583E+02  0.62500000000E+02  0.47000000000E+01 0.  1.
         -5    1    1    0    0  501 -0.27733858123E+02 -0.32272918407E+02  0.45535171583E+02  0.62500000000E+02  0.47000000000E+01 0.  1.
</event>
<event>
 3    0  0.4603569E-005  0.9118800E+02  0.7546771E-02  0.1235069E+00
         25   -1    0    0    0    0  0.00000000000E+00  0.00000000000E+00  0.99999998245E-14  0.12500000000E+03  0.12500000000E+03 0.  0.
          5    1    1    0  501    0 -0.46168689783E+02 -0.51018439498E+01 -0.41552175298E+02  0.62500000000E+02  0.47000000000E+01 0. -1.
         -5    1    1    0    0  501  0.46168689783E+02  0.51018439498E+01  0.41552175298E+02  0.62500000000E+02  0.47000000000E+01 0. -1.
</event>
<event>
 3    0  0.4603569E-005  0.9118800E+02  0.7546771E-02  0.1235069E+00
         25   -1    0    0    0    0  0.00000000000E+00  0.00000000000E+00  0.99999998245E-14  0.12500000000E+03  0.12500000000E+03 0.  0.
          5    1    1    0  501    0 -0.19947137837E+02 -0.98969958311E+01  0.58209287624E+02  0.62500000000E+02  0.47000000000E+01 0. -1.
         -5    1    1    0    0  501  0.19947137837E+02  0.98969958311E+01 -0.58209287624E+02  0.62500000000E+02  0.47000000000E+01 0. -1.
</event>
<event>
 3    0  0.4603569E-005  0.9118800E+02  0.7546771E-02  0.1235069E+00
         25   -1    0    0    0    0  0.00000000000E+00  0.00000000000E+00  0.99999998245E-14  0.12500000000E+03  0.12500000000E+03 0.  0.
          5    1    1    0  501    0  0.32928804320E+02 -0.48670112341E+02 -0.20762321901E+02  0.62500000000E+02  0.47000000000E+01 0.  1.
         -5    1    1    0    0  501 -0.32928804320E+02  0.48670112341E+02  0.20762321901E+02  0.62500000000E+02  0.47000000000E+01 0.  1.
</event>
<event>
 3    0  0.4603569E-005  0.9118800E+02  0.7546771E-02  0.1235069E+00
         25   -1    0    0    0    0  0.00000000000E+00  0.00000000000E+00  0.99999998245E-14  0.12500000000E+03  0.12500000000E+03 0.  0.
          5    1    1    0  501    0 -0.21081755490E+02  0.44409556816E+02 -0.38308104219E+02  0.62500000000E+02  0.47000000000E+01 0. -1.
         -5    1    1    0    0  501  0.21081755490E+02 -0.44409556816E+02  0.38308104219E+02  0.62500000000E+02  0.47000000000E+01 0. -1.
</event>
<event>
 3    0  0.4603569E-005  0.9118800E+02  0.7546771E-02  0.1235069E+00
         25   -1    0    0    0    0  0.00000000000E+00  0.00000000000E+00  0.99999998245E-14  0.12500000000E+03  0.12500000000E+03 0.  0.
          5    1    1    0  501    0 -0.64252838474E+01  0.72338326587E+01 -0.61567421519E+02  0.62500000000E+02  0.47000000000E+01 0.  1.
         -5    1    1    0    0  501  0.64252838474E+01 -0.72338326587E+01  0.61567421519E+02  0.62500000000E+02  0.47000000000E+01 0.  1.
</event>
<event>
 3    0  0.4603569E-005  0.9118800E+02  0.7546771E-02  0.1235069E+00
         25   -1    0    0    0    0  0.00000000000E+00  0.00000000000E+00  0.99999998245E-14  0.12500000000E+03  0.12500000000E+03 0.  0.
          5    1    1    0  501    0 -0.56711947857E+02 -0.73311962989E+00  0.25833650650E+02  0.62500000000E+02  0.47000000000E+01 0. -1.
         -5    1    1    0    0  501  0.56711947857E+02  0.73311962989E+00 -0.25833650650E+02  0.62500000000E+02  0.47000000000E+01 0. -1.
</event>
<event>
 3    0  0.4603569E-005  0.9118800E+02  0.7546771E-02  0.1235069E+00
         25   -1    0    0    0    0  0.00000000000E+00  0.00000000000E+00  0.99999998245E-14  0.12500000000E+03  0.12500000000E+03 0.  0.
          5    1    1    0  501    0  0.13474110176E+02  0.49408089479E+02 -0.35516883999E+02  0.62500000000E+02  0.47000000000E+01 0. -1.
         -5    1    1    0    0  501 -0.13474110176E+02 -0.49408089479E+02  0.35516883999E+02  0.62500000000E+02  0.47000000000E+01 0. -1.
</event>
<event>
 3    0  0.4603569E-005  0.9118800E+02  0.7546771E-02  0.1235069E+00
         25   -1    0    0    0    0  0.00000000000E+00  0.00000000000E+00  0.99999998245E-14  0.12500000000E+03  0.12500000000E+03 0.  0.
          5    1    1    0  501    0 -0.16012956865E+02  0.50832295344E+02  0.32308249140E+02  0.62500000000E+02  0.47000000000E+01 0. -1.
         -5    1    1    0    0  501  0.16012956865E+02 -0.50832295344E+02 -0.32308249140E+02  0.62500000000E+02  0.47000000000E+01 0. -1.
</event>
<event>
 3    0  0.4603569E-005  0.9118800E+02  0.7546771E-02  0.1235069E+00
         25   -1    0    0    0    0  0.00000000000E+00  0.00000000000E+00  0.99999998245E-14  0.12500000000E+03  0.12500000000E+03 0.  0.
          5    1    1    0  501    0 -0.10414458263E+02  0.61318072941E+02  0.39740394867E+01  0.62500000000E+02  0.47000000000E+01 0. -1.
         -5    1    1    0    0  501  0.10414458263E+02 -0.61318072941E+02 -0.39740394867E+01  0.62500000000E+02  0.47000000000E+01 0. -1.
</event>
<event>
 3    0  0.4603569E-005  0.9118800E+02  0.7546771E-02  0.1235069E+00
         25   -1    0    0    0    0  0.00000000000E+00  0.00000000000E+00  0.99999998245E-14  0.12500000000E+03  0.12500000000E+03 0.  0.
          5    1    1    0  501    0 -0.25860009744E+02  0.51601309122E+02  0.23510099808E+02  0.62500000000E+02  0.47000000000E+01 0.  1.
         -5    1    1    0    0  501  0.25860009744E+02 -0.51601309122E+02 -0.23510099808E+02  0.62500000000E+02  0.47000000000E+01 0.  1.
</event>
<event>
 3    0  0.4603569E-005  0.9118800E+02  0.7546771E-02  0.1235069E+00
         25   -1    0    0    0    0  0.00000000000E+00  0.00000000000E+00  0.99999998245E-14  0.12500000000E+03  0.12500000000E+03 0.  0.
          5    1    1    0  501    0  0.72789886239E+01 -0.52471463646E+02  0.32831719837E+02  0.62500000000E+02  0.47000000000E+01 0.  1.
         -5    1    1    0    0  501 -0.72789886239E+01  0.52471463646E+02 -0.32831719837E+02  0.62500000000E+02  0.47000000000E+01 0.  1.
</event>
<event>
 3    0  0.4603569E-005  0.9118800E+02  0.7546771E-02  0.1235069E+00
         25   -1    0    0    0    0  0.00000000000E+00  0.00000000000E+00  0.99999998245E-14  0.12500000000E+03  0.12500000000E+03 0.  0.
          5    1    1    0  501    0  0.35263636610E+02 -0.42685696075E+02  0.28610614876E+02  0.62500000000E+02  0.47000000000E+01 0.  1.
         -5    1    1    0    0  501 -0.35263636610E+02  0.42685696075E+02 -0.28610614876E+02  0.62500000000E+02  0.47000000000E+01 0.  1.
</event>
<event>
 3    0  0.4603569E-005  0.9118800E+02  0.7546771E-02  0.1235069E+00
         25   -1    0    0    0    0  0.00000000000E+00  0.00000000000E+00  0.99999998245E-14  0.12500000000E+03  0.12500000000E+03 0.  0.
          5    1    1    0  501    0  0.40632719166E+02  0.73758616210E+01  0.46676962182E+02  0.62500000000E+02  0.47000000000E+01 0. -1.
         -5    1    1    0    0  501 -0.40632719166E+02 -0.73758616210E+01 -0.46676962182E+02  0.62500000000E+02  0.47000000000E+01 0. -1.
</event>
<event>
 3    0  0.4603569E-005  0.9118800E+02  0.7546771E-02  0.1235069E+00
         25   -1    0    0    0    0  0.00000000000E+00  0.00000000000E+00  0.99999998245E-14  0.12500000000E+03  0.12500000000E+03 0.  0.
          5    1    1    0  501    0 -0.11956152053E+02 -0.60891223679E+02  0.57852663692E+01  0.62500000000E+02  0.47000000000E+01 0. -1.
         -5    1    1    0    0  501  0.11956152053E+02  0.60891223679E+02 -0.57852663692E+01  0.62500000000E+02  0.47000000000E+01 0. -1.
</event>
<event>
 3    0  0.4603569E-005  0.9118800E+02  0.7546771E-02  0.1235069E+00
         25   -1    0    0    0    0  0.00000000000E+00  0.00000000000E+00  0.99999998245E-14  0.12500000000E+03  0.12500000000E+03 0.  0.
          5    1    1    0  501    0 -0.55143765820E+02 -0.16189983186E+02 -0.24108287695E+02  0.62500000000E+02  0.47000000000E+01 0. -1.
         -5    1    1    0    0  501  0.55143765820E+02  0.16189983186E+02  0.24108287695E+02  0.62500000000E+02  0.47000000000E+01 0. -1.
</event>
<event>
 3    0  0.4603569E-005  0.9118800E+02  0.7546771E-02  0.1235069E+00
         25   -1    0    0    0    0  0.00000000000E+00  0.00000000000E+00  0.99999998245E-14  0.12500000000E+03  0.12500000000E+03 0.  0.
          5    1    1    0  501    0  0.16050954578E+02  0.13074757541E+02 -0.58784160897E+02  0.62500000000E+02  0.47000000000E+01 0.  1.
         -5    1    1    0    0  501 -0.16050954578E+02 -0.13074757541E+02  0.58784160897E+02  0.62500000000E+02  0.47000000000E+01 0.  1.
</event>
<event>
 3    0  0.4603569E-005  0.9118800E+02  0.7546771E-02  0.1235069E+00
         25   -1    0    0    0    0  0.00000000000E+00  0.00000000000E+00  0.99999998245E-14  0.12500000000E+03  0.12500000000E+03 0.  0.
          5    1    1    0  501    0  0.58114754291E+02 -0.94649704186E+01 -0.20426690107E+02  0.62500000000E+02  0.47000000000E+01 0. -1.
         -5    1    1    0    0  501 -0.58114754291E+02  0.94649704186E+01  0.20426690107E+02  0.62500000000E+02  0.47000000000E+01 0. -1.
</event>
<event>
 3    0  0.4603569E-005  0.9118800E+02  0.7546771E-02  0.1235069E+00
         25   -1    0    0    0    0  0.00000000000E+00  0.00000000000E+00  0.99999998245E-14  0.12500000000E+03  0.12500000000E+03 0.  0.
          5    1    1    0  501    0  0.29775374529E+01  0.58735701020E+02  0.20625510815E+02  0.62500000000E+02  0.47000000000E+01 0.  1.
         -5    1    1    0    0  501 -0.29775374529E+01 -0.58735701020E+02 -0.20625510815E+02  0.62500000000E+02  0.47000000000E+01 0.  1.
</event>
<event>
 3    0  0.4603569E-005  0.9118800E+02  0.7546771E-02  0.1235069E+00
         25   -1    0    0    0    0  0.00000000000E+00  0.00000000000E+00  0.99999998245E-14  0.12500000000E+03  0.12500000000E+03 0.  0.
          5    1    1    0  501    0 -0.24845058452E+02 -0.33730914380E+02  0.46142263551E+02  0.62500000000E+02  0.47000000000E+01 0. -1.
         -5    1    1    0    0  501  0.24845058452E+02  0.33730914380E+02 -0.46142263551E+02  0.62500000000E+02  0.47000000000E+01 0. -1.
</event>
<event>
 3    0  0.4603569E-005  0.9118800E+02  0.7546771E-02  0.1235069E+00
         25   -1    0    0    0    0  0.00000000000E+00  0.00000000000E+00  0.99999998245E-14  0.12500000000E+03  0.12500000000E+03 0.  0.
          5    1    1    0  501    0 -0.93722854295E+01 -0.42593318012E+02 -0.44521113268E+02  0.62500000000E+02  0.47000000000E+01 0.  1.
         -5    1    1    0    0  501  0.93722854295E+01  0.42593318012E+02  0.44521113268E+02  0.62500000000E+02  0.47000000000E+01 0.  1.
</event>
<event>
 3    0  0.4603569E-005  0.9118800E+02  0.7546771E-02  0.1235069E+00
         25   -1    0    0    0    0  0.00000000000E+00  0.00000000000E+00  0.99999998245E-14  0.12500000000E+03  0.12500000000E+03 0.  0.
          5    1    1    0  501    0 -0.16741012771E+02  0.17587041939E+01 -0.60006711716E+02  0.62500000000E+02  0.47000000000E+01 0. -1.
         -5    1    1    0    0  501  0.16741012771E+02 -0.17587041939E+01  0.60006711716E+02  0.62500000000E+02  0.47000000000E+01 0. -1.
</event>
<event>
 3    0  0.4603569E-005  0.9118800E+02  0.7546771E-02  0.1235069E+00
         25   -1    0    0    0    0  0.00000000000E+00  0.00000000000E+00  0.99999998245E-14  0.12500000000E+03  0.12500000000E+03 0.  0.
          5    1    1    0  501    0  0.35091036007E+02 -0.48577869073E+02 -0.17116361420E+02  0.62500000000E+02  0.47000000000E+01 0. -1.
         -5    1    1    0    0  501 -0.35091036007E+02  0.48577869073E+02  0.17116361420E+02  0.62500000000E+02  0.47000000000E+01 0. -1.
</event>
<event>
 3    0  0.4603569E-005  0.9118800E+02  0.7546771E-02  0.1235069E+00
         25   -1    0    0    0    0  0.00000000000E+00  0.00000000000E+00  0.99999998245E-14  0.12500000000E+03  0.12500000000E+03 0.  0.
          5    1    1    0  501    0 -0.32462129900E+02  0.51231168426E+02 -0.14343552700E+02  0.62500000000E+02  0.47000000000E+01 0.  1.
         -5    1    1    0    0  501  0.32462129900E+02 -0.51231168426E+02  0.14343552700E+02  0.62500000000E+02  0.47000000000E+01 0.  1.
</event>
<event>
 3    0  0.4603569E-005  0.9118800E+02  0.7546771E-02  0.1235069E+00
         25   -1    0    0    0    0  0.00000000000E+00  0.00000000000E+00  0.99999998245E-14  0.12500000000E+03  0.12500000000E+03 0.  0.
          5    1    1    0  501    0  0.25333661789E+02 -0.36375057890E+02  0.43808911694E+02  0.62500000000E+02  0.47000000000E+01 0.  1.
         -5    1    1    0    0  501 -0.25333661789E+02  0.36375057890E+02 -0.43808911694E+02  0.62500000000E+02  0.47000000000E+01 0.  1.
</event>
<event>
 3    0  0.4603569E-005  0.9118800E+02  0.7546771E-02  0.1235069E+00
         25   -1    0    0    0    0  0.00000000000E+00  0.00000000000E+00  0.99999998245E-14  0.12500000000E+03  0.12500000000E+03 0.  0.
          5    1    1    0  501    0  0.38340733142E+02 -0.34875890350E+02 -0.34609542824E+02  0.62500000000E+02  0.47000000000E+01 0.  1.
         -5    1    1    0    0  501 -0.38340733142E+02  0.34875890350E+02  0.34609542824E+02  0.62500000000E+02  0.47000000000E+01 0.  1.
</event>
<event>
 3    0  0.4603569E-005  0.9118800E+02  0.7546771E-02  0.1235069E+00
         25   -1    0    0    0    0  0.00000000000E+00  0.00000000000E+00  0.99999998245E-14  0.12500000000E+03  0.12500000000E+03 0.  0.
          5    1    1    0  501    0 -0.15154728884E+02 -0.39461799902E+02 -0.45795857246E+02  0.62500000000E+02  0.47000000000E+01 0. -1.
         -5    1    1    0    0  501  0.15154728884E+02  0.39461799902E+02  0.45795857246E+02  0.62500000000E+02  0.47000000000E+01 0. -1.
</event>
<event>
 3    0  0.4603569E-005  0.9118800E+02  0.7546771E-02  0.1235069E+00
         25   -1    0    0    0    0  0.00000000000E+00  0.00000000000E+00  0.99999998245E-14  0.12500000000E+03  0.12500000000E+03 0.  0.
          5    1    1    0  501    0  0.38837339122E+02  0.40425671223E+02  0.27232080275E+02  0.62500000000E+02  0.47000000000E+01 0. -1.
         -5    1    1    0    0  501 -0.38837339122E+02 -0.40425671223E+02 -0.27232080275E+02  0.62500000000E+02  0.47000000000E+01 0. -1.
</event>
<event>
 3    0  0.4603569E-005  0.9118800E+02  0.7546771E-02  0.1235069E+00
         25   -1    0    0    0    0  0.00000000000E+00  0.00000000000E+00  0.99999998245E-14  0.12500000000E+03  0.12500000000E+03 0.  0.
          5    1    1    0  501    0  0.39990694472E+02 -0.23043862867E+02 -0.41879407109E+02  0.62500000000E+02  0.47000000000E+01 0.  1.
         -5    1    1    0    0  501 -0.39990694472E+02  0.23043862867E+02  0.41879407109E+02  0.62500000000E+02  0.47000000000E+01 0.  1.
</event>
<event>
 3    0  0.4603569E-005  0.9118800E+02  0.7546771E-02  0.1235069E+00
         25   -1    0    0    0    0  0.00000000000E+00  0.00000000000E+00  0.99999998245E-14  0.12500000000E+03  0.12500000000E+03 0.  0.
          5    1    1    0  501    0  0.51674047269E+02 -0.10100921828E+02  0.33345527692E+02  0.62500000000E+02  0.47000000000E+01 0.  1.
         -5    1    1    0    0  501 -0.51674047269E+02  0.10100921828E+02 -0.33345527692E+02  0.62500000000E+02  0.47000000000E+01 0.  1.
</event>
<event>
 3    0  0.4603569E-005  0.9118800E+02  0.7546771E-02  0.1235069E+00
         25   -1    0    0    0    0  0.00000000000E+00  0.00000000000E+00  0.99999998245E-14  0.12500000000E+03  0.12500000000E+03 0.  0.
          5    1    1    0  501    0 -0.28375777161E+02 -0.23081500706E+02 -0.50460079228E+02  0.62500000000E+02  0.47000000000E+01 0. -1.
         -5    1    1    0    0  501  0.28375777161E+02  0.23081500706E+02  0.50460079228E+02  0.62500000000E+02  0.47000000000E+01 0. -1.
</event>
<event>
 3    0  0.4603569E-005  0.9118800E+02  0.7546771E-02  0.1235069E+00
         25   -1    0    0    0    0  0.00000000000E+00  0.00000000000E+00  0.99999998245E-14  0.12500000000E+03  0.12500000000E+03 0.  0.
          5    1    1    0  501    0  0.16551224681E+02 -0.93982767732E+01 -0.59345508299E+02  0.62500000000E+02  0.47000000000E+01 0.  1.
         -5    1    1    0    0  501 -0.16551224681E+02  0.93982767732E+01  0.59345508299E+02  0.62500000000E+02  0.47000000000E+01 0.  1.
</event>
<event>
 3    0  0.4603569E-005  0.9118800E+02  0.7546771E-02  0.1235069E+00
         25   -1    0    0    0    0  0.00000000000E+00  0.00000000000E+00  0.99999998245E-14  0.12500000000E+03  0.12500000000E+03 0.  0.
          5    1    1    0  501    0  0.19366663280E+01 -0.62112587255E+02 -0.47366473427E+01  0.62500000000E+02  0.47000000000E+01 0. -1.
         -5    1    1    0    0  501 -0.19366663280E+01  0.62112587255E+02  0.47366473427E+01  0.62500000000E+02  0.47000000000E+01 0. -1.
</event>
<event>
 3    0  0.4603569E-005  0.9118800E+02  0.7546771E-02  0.1235069E+00
         25   -1    0    0    0    0  0.00000000000E+00  0.00000000000E+00  0.99999998245E-14  0.12500000000E+03  0.12500000000E+03 0.  0.
          5    1    1    0  501    0 -0.45344797197E+02 -0.42193378356E+02  0.69085591938E+01  0.62500000000E+02  0.47000000000E+01 0.  1.
         -5    1    1    0    0  501  0.45344797197E+02  0.42193378356E+02 -0.69085591938E+01  0.62500000000E+02  0.47000000000E+01 0.  1.
</event>
<event>
 3    0  0.4603569E-005  0.9118800E+02  0.7546771E-02  0.1235069E+00
         25   -1    0    0    0    0  0.00000000000E+00  0.00000000000E+00  0.99999998245E-14  0.12500000000E+03  0.12500000000E+03 0.  0.
          5    1    1    0  501    0 -0.62080027222E+02 -0.54864572505E+01 -0.35917529828E+00  0.62500000000E+02  0.47000000000E+01 0.  1.
         -5    1    1    0    0  501  0.62080027222E+02  0.54864572505E+01  0.35917529828E+00  0.62500000000E+02  0.47000000000E+01 0.  1.
</event>
<event>
 3    0  0.4603569E-005  0.9118800E+02  0.7546771E-02  0.1235069E+00
         25   -1    0    0    0    0  0.00000000000E+00  0.00000000000E+00  0.99999998245E-14  0.12500000000E+03  0.12500000000E+03 0.  0.
          5    1    1    0  501    0  0.60240751330E+02  0.10143914264E+02 -0.12341510550E+02  0.62500000000E+02  0.47000000000E+01 0.  1.
         -5    1    1    0    0  501 -0.60240751330E+02 -0.10143914264E+02  0.12341510550E+02  0.62500000000E+02  0.47000000000E+01 0.  1.
</event>
<event>
 3    0  0.4603569E-005  0.9118800E+02  0.7546771E-02  0.1235069E+00
         25   -1    0    0    0    0  0.00000000000E+00  0.00000000000E+00  0.99999998245E-14  0.12500000000E+03  0.12500000000E+03 0.  0.
          5    1    1    0  501    0  0.22908547718E+02  0.32413539577E+02  0.48049150810E+02  0.62500000000E+02  0.47000000000E+01 0.  1.
         -5    1    1    0    0  501 -0.22908547718E+02 -0.32413539577E+02 -0.48049150810E+02  0.62500000000E+02  0.47000000000E+01 0.  1.
</event>
<event>
 3    0  0.4603569E-005  0.9118800E+02  0.7546771E-02  0.1235069E+00
         25   -1    0    0    0    0  0.00000000000E+00  0.00000000000E+00  0.99999998245E-14  0.12500000000E+03  0.12500000000E+03 0.  0.
          5    1    1    0  501    0 -0.15430851618E+02 -0.58101316375E+02  0.16440372680E+02  0.62500000000E+02  0.47000000000E+01 0. -1.
         -5    1    1    0    0  501  0.15430851618E+02  0.58101316375E+02 -0.16440372680E+02  0.62500000000E+02  0.47000000000E+01 0. -1.
</event>
<event>
 3    0  0.4603569E-005  0.9118800E+02  0.7546771E-02  0.1235069E+00
         25   -1    0    0    0    0  0.00000000000E+00  0.00000000000E+00  0.99999998245E-14  0.12500000000E+03  0.12500000000E+03 0.  0.
          5    1    1    0  501    0  0.38346247416E+02 -0.20247566806E+02 -0.44763392940E+02  0.62500000000E+02  0.47000000000E+01 0.  1.
         -5    1    1    0    0  501 -0.38346247416E+02  0.20247566806E+02  0.44763392940E+02  0.62500000000E+02  0.47000000000E+01 0.  1.
</event>
<event>
 3    0  0.4603569E-005  0.9118800E+02  0.7546771E-02  0.1235069E+00
         25   -1    0    0    0    0  0.00000000000E+00  0.00000000000E+00  0.99999998245E-14  0.12500000000E+03  0.12500000000E+03 0.  0.
          5    1    1    0  501    0 -0.46800208594E+02 -0.13419446070E+02 -0.38907826240E+02  0.62500000000E+02  0.47000000000E+01 0. -1.
         -5    1    1    0    0  501  0.46800208594E+02  0.13419446070E+02  0.38907826240E+02  0.62500000000E+02  0.47000000000E+01 0. -1.
</event>
<event>
 3    0  0.4603569E-005  0.9118800E+02  0.7546771E-02  0.1235069E+00
         25   -1    0    0    0    0  0.00000000000E+00  0.00000000000E+00  0.99999998245E-14  0.12500000000E+03  0.12500000000E+03 0.  0.
          5    1    1    0  501    0  0.40177513107E+02 -0.19609959338E+02  0.43420927388E+02  0.62500000000E+02  0.47000000000E+01 0.  1.
         -5    1    1    0    0  501 -0.40177513107E+02  0.19609959338E+02 -0.43420927388E+02  0.62500000000E+02  0.47000000000E+01 0.  1.
</event>
<event>
 3    0  0.4603569E-005  0.9118800E+02  0.7546771E-02  0.1235069E+00
         25   -1    0    0    0    0  0.00000000000E+00  0.00000000000E+00  0.99999998245E-14  0.12500000000E+03  0.12500000000E+03 0.  0.
          5    1    1    0  501    0 -0.17275501202E+02  0.94222912967E+01  0.59134909190E+02  0.62500000000E+02  0.47000000000E+01 0. -1.
         -5    1    1    0    0  501  0.17275501202E+02 -0.94222912967E+01 -0.59134909190E+02  0.62500000000E+02  0.47000000000E+01 0. -1.
</event>
<event>
 3    0  0.4603569E-005  0.9118800E+02  0.7546771E-02  0.1235069E+00
         25   -1    0    0    0    0  0.00000000000E+00  0.00000000000E+00  0.99999998245E-14  0.12500000000E+03  0.12500000000E+03 0.  0.
          5    1    1    0  501    0  0.33436412093E+02 -0.47770912922E+02 -0.22002414070E+02  0.62500000000E+02  0.47000000000E+01 0. -1.
         -5    1    1    0    0  501 -0.33436412093E+02  0.47770912922E+02  0.22002414070E+02  0.62500000000E+02  0.47000000000E+01 0. -1.
</event>
<event>
 3    0  0.4603569E-005  0.9118800E+02  0.7546771E-02  0.1235069E+00
         25   -1    0    0    0    0  0.00000000000E+00  0.00000000000E+00  0.99999998245E-14  0.12500000000E+03  0.12500000000E+03 0.  0.
          5    1    1    0  501    0 -0.61731831664E+01 -0.41418539757E+02  0.46157950279E+02  0.62500000000E+02  0.47000000000E+01 0. -1.
         -5    1    1    0    0  501  0.61731831664E+01  0.41418539757E+02 -0.46157950279E+02  0.62500000000E+02  0.47000000000E+01 0. -1.
</event>
<event>
 3    0  0.4603569E-005  0.9118800E+02  0.7546771E-02  0.1235069E+00
         25   -1    0    0    0    0  0.00000000000E+00  0.00000000000E+00  0.99999998245E-14  0.12500000000E+03  0.12500000000E+03 0.  0.
          5    1    1    0  501    0 -0.34231299281E+01  0.35224766341E+02 -0.51299688281E+02  0.62500000000E+02  0.47000000000E+01 0.  1.
         -5    1    1    0    0  501  0.34231299281E+01 -0.35224766341E+02  0.51299688281E+02  0.62500000000E+02  0.47000000000E+01 0.  1.
</event>
<event>
 3    0  0.4603569E-005  0.9118800E+02  0.7546771E-02  0.1235069E+00
         25   -1    0    0    0    0  0.00000000000E+00  0.00000000000E+00  0.99999998245E-14  0.12500000000E+03  0.12500000000E+03 0.  0.
          5    1    1    0  501    0  0.57894003031E+02  0.17529021585E+02 -0.15005926007E+02  0.62500000000E+02  0.47000000000E+01 0.  1.
         -5    1    1    0    0  501 -0.57894003031E+02 -0.17529021585E+02  0.15005926007E+02  0.62500000000E+02  0.47000000000E+01 0.  1.
</event>
<event>
 3    0  0.4603569E-005  0.9118800E+02  0.7546771E-02  0.1235069E+00
         25   -1    0    0    0    0  0.00000000000E+00  0.00000000000E+00  0.99999998245E-14  0.12500000000E+03  0.12500000000E+03 0.  0.
          5    1    1    0  501    0  0.50874581267E+02 -0.25910813544E+02 -0.24991332946E+02  0.62500000000E+02  0.47000000000E+01 0. -1.
         -5    1    1    0    0  501 -0.50874581267E+02  0.25910813544E+02  0.24991332946E+02  0.62500000000E+02  0.47000000000E+01 0. -1.
</event>
<event>
 3    0  0.4603569E-005  0.9118800E+02  0.7546771E-02  0.1235069E+00
         25   -1    0    0    0    0  0.00000000000E+00  0.00000000000E+00  0.99999998245E-14  0.12500000000E+03  0.12500000000E+03 0.  0.
          5    1    1    0  501    0  0.14591115370E+02  0.95905756396E+01 -0.59827085932E+02  0.62500000000E+02  0.47000000000E+01 0. -1.
         -5    1    1    0    0  501 -0.14591115370E+02 -0.95905756396E+01  0.59827085932E+02  0.62500000000E+02  0.47000000000E+01 0. -1.
</event>
<event>
 3    0  0.4603569E-005  0.9118800E+02  0.7546771E-02  0.1235069E+00
         25   -1    0    0    0    0  0.00000000000E+00  0.00000000000E+00  0.99999998245E-14  0.12500000000E+03  0.12500000000E+03 0.  0.
          5    1    1    0  501    0  0.18131853846E+02 -0.23746884125E+02 -0.54694436376E+02  0.62500000000E+02  0.47000000000E+01 0.  1.
         -5    1    1    0    0  501 -0.18131853846E+02  0.23746884125E+02  0.54694436376E+02  0.62500000000E+02  0.47000000000E+01 0.  1.
</event>
<event>
 3    0  0.4603569E-005  0.9118800E+02  0.7546771E-02  0.1235069E+00
         25   -1    0    0    0    0  0.00000000000E+00  0.00000000000E+00  0.99999998245E-14  0.12500000000E+03  0.12500000000E+03 0.  0.
          5    1    1    0  501    0  0.53615492963E+02  0.15050565361E+02  0.27982483747E+02  0.62500000000E+02  0.47000000000E+01 0.  1.
         -5    1    1    0    0  501 -0.53615492963E+02 -0.15050565361E+02 -0.27982483747E+02  0.62500000000E+02  0.47000000000E+01 0.  1.
</event>
<event>
 3    0  0.4603569E-005  0.9118800E+02  0.7546771E-02  0.1235069E+00
         25   -1    0    0    0    0  0.00000000000E+00  0.00000000000E+00  0.99999998245E-14  0.12500000000E+03  0.12500000000E+03 0.  0.
          5    1    1    0  501    0  0.53097444014E+02 -0.30443032165E+02 -0.11749180048E+02  0.62500000000E+02  0.47000000000E+01 0. -1.
         -5    1    1    0    0  501 -0.53097444014E+02  0.30443032165E+02  0.11749180048E+02  0.62500000000E+02  0.47000000000E+01 0. -1.
</event>
<event>
 3    0  0.4603569E-005  0.9118800E+02  0.7546771E-02  0.1235069E+00
         25   -1    0    0    0    0  0.00000000000E+00  0.00000000000E+00  0.99999998245E-14  0.12500000000E+03  0.12500000000E+03 0.  0.
          5    1    1    0  501    0  0.51123859145E+02  0.21532632246E+02 -0.28405224426E+02  0.62500000000E+02  0.47000000000E+01 0.  1.
         -5    1    1    0    0  501 -0.51123859145E+02 -0.21532632246E+02  0.28405224426E+02  0.62500000000E+02  0.47000000000E+01 0.  1.
</event>
<event>
 3    0  0.4603569E-005  0.9118800E+02  0.7546771E-02  0.1235069E+00
         25   -1    0    0    0    0  0.00000000000E+00  0.00000000000E+00  0.99999998245E-14  0.12500000000E+03  0.12500000000E+03 0.  0.
          5    1    1    0  501    0  0.44108632937E+02 -0.11744193753E+02  0.42434212771E+02  0.62500000000E+02  0.47000000000E+01 0. -1.
         -5    1    1    0    0  501 -0.44108632937E+02  0.11744193753E+02 -0.42434212771E+02  0.62500000000E+02  0.47000000000E+01 0. -1.
</event>
<event>
 3    0  0.4603569E-005  0.9118800E+02  0.7546771E-02  0.1235069E+00
         25   -1    0    0    0    0  0.00000000000E+00  0.00000000000E+00  0.99999998245E-14  0.12500000000E+03  0.12500000000E+03 0.  0.
          5    1    1    0  501    0  0.24753278866E+01 -0.62211490274E+02  0.27862573057E+01  0.62500000000E+02  0.47000000000E+01 0. -1.
         -5    1    1    0    0  501 -0.24753278866E+01  0.62211490274E+02 -0.27862573057E+01  0.62500000000E+02  0.47000000000E+01 0. -1.
</event>
<event>
 3    0  0.4603569E-005  0.9118800E+02  0.7546771E-02  0.1235069E+00
         25   -1    0    0    0    0  0.00000000000E+00  0.00000000000E+00  0.99999998245E-14  0.12500000000E+03  0.12500000000E+03 0.  0.
          5    1    1    0  501    0  0.34834035779E+02  0.50574386639E+02  0.10629269375E+02  0.62500000000E+02  0.47000000000E+01 0.  1.
         -5    1    1    0    0  501 -0.34834035779E+02 -0.50574386639E+02 -0.10629269375E+02  0.62500000000E+02  0.47000000000E+01 0.  1.
</event>
<event>
 3    0  0.4603569E-005  0.9118800E+02  0.7546771E-02  0.1235069E+00
         25   -1    0    0    0    0  0.00000000000E+00  0.00000000000E+00  0.99999998245E-14  0.12500000000E+03  0.12500000000E+03 0.  0.
          5    1    1    0  501    0 -0.58074214902E+02  0.22465471295E+02 -0.26168995114E+01  0.62500000000E+02  0.47000000000E+01 0.  1.
         -5    1    1    0    0  501  0.58074214902E+02 -0.22465471295E+02  0.26168995114E+01  0.62500000000E+02  0.47000000000E+01 0.  1.
</event>
<event>
 3    0  0.4603569E-005  0.9118800E+02  0.7546771E-02  0.1235069E+00
         25   -1    0    0    0    0  0.00000000000E+00  0.00000000000E+00  0.99999998245E-14  0.12500000000E+03  0.12500000000E+03 0.  0.
          5    1    1    0  501    0 -0.77464297470E+01  0.60132213663E+02 -0.14431552453E+02  0.62500000000E+02  0.47000000000E+01 0. -1.
         -5    1    1    0    0  501  0.77464297470E+01 -0.60132213663E+02  0.14431552453E+02  0.62500000000E+02  0.47000000000E+01 0. -1.
</event>
<event>
 3    0  0.4603569E-005  0.9118800E+02  0.7546771E-02  0.1235069E+00
         25   -1    0    0    0    0  0.00000000000E+00  0.00000000000E+00  0.99999998245E-14  0.12500000000E+03  0.12500000000E+03 0.  0.
          5    1    1    0  501    0  0.57790168798E+02  0.18671737859E+02  0.13993662695E+02  0.62500000000E+02  0.47000000000E+01 0.  1.
         -5    1    1    0    0  501 -0.57790168798E+02 -0.18671737859E+02 -0.13993662695E+02  0.62500000000E+02  0.47000000000E+01 0.  1.
</event>
<event>
 3    0  0.4603569E-005  0.9118800E+02  0.7546771E-02  0.1235069E+00
         25   -1    0    0    0    0  0.00000000000E+00  0.00000000000E+00  0.99999998245E-14  0.12500000000E+03  0.12500000000E+03 0.  0.
          5    1    1    0  501    0 -0.60624129803E+02 -0.14148924716E+02  0.29466616641E+01  0.62500000000E+02  0.47000000000E+01 0.  1.
         -5    1    1    0    0  501  0.60624129803E+02  0.14148924716E+02 -0.29466616641E+01  0.62500000000E+02  0.47000000000E+01 0.  1.
</event>
<event>
 3    0  0.4603569E-005  0.9118800E+02  0.7546771E-02  0.1235069E+00
         25   -1    0    0    0    0  0.00000000000E+00  0.00000000000E+00  0.99999998245E-14  0.12500000000E+03  0.12500000000E+03 0.  0.
          5    1    1    0  501    0  0.90585762377E+00  0.51379733311E+02  0.35262762609E+02  0.62500000000E+02  0.47000000000E+01 0. -1.
         -5    1    1    0    0  501 -0.90585762377E+00 -0.51379733311E+02 -0.35262762609E+02  0.62500000000E+02  0.47000000000E+01 0. -1.
</event>
<event>
 3    0  0.4603569E-005  0.9118800E+02  0.7546771E-02  0.1235069E+00
         25   -1    0    0    0    0  0.00000000000E+00  0.00000000000E+00  0.99999998245E-14  0.12500000000E+03  0.12500000000E+03 0.  0.
          5    1    1    0  501    0  0.21863787678E+02 -0.51093025182E+02  0.28207048164E+02  0.62500000000E+02  0.47000000000E+01 0. -1.
         -5    1    1    0    0  501 -0.21863787678E+02  0.51093025182E+02 -0.28207048164E+02  0.62500000000E+02  0.47000000000E+01 0. -1.
</event>
<event>
 3    0  0.4603569E-005  0.9118800E+02  0.7546771E-02  0.1235069E+00
         25   -1    0    0    0    0  0.00000000000E+00  0.00000000000E+00  0.99999998245E-14  0.12500000000E+03  0.12500000000E+03 0.  0.
          5    1    1    0  501    0  0.43374515317E+02 -0.36117093619E+02 -0.26426633715E+02  0.62500000000E+02  0.47000000000E+01 0. -1.
         -5    1    1    0    0  501 -0.43374515317E+02  0.36117093619E+02  0.26426633715E+02  0.62500000000E+02  0.47000000000E+01 0. -1.
</event>
<event>
 3    0  0.4603569E-005  0.9118800E+02  0.7546771E-02  0.1235069E+00
         25   -1    0    0    0    0  0.00000000000E+00  0.00000000000E+00  0.99999998245E-14  0.12500000000E+03  0.12500000000E+03 0.  0.
          5    1    1    0  501    0  0.38649243287E+02 -0.44392543140E+02 -0.20486534771E+02  0.62500000000E+02  0.47000000000E+01 0.  1.
         -5    1    1    0    0  501 -0.38649243287E+02  0.44392543140E+02  0.20486534771E+02  0.62500000000E+02  0.47000000000E+01 0.  1.
</event>
<event>
 3    0  0.4603569E-005  0.9118800E+02  0.7546771E-02  0.1235069E+00
         25   -1    0    0    0    0  0.00000000000E+00  0.00000000000E+00  0.99999998245E-14  0.12500000000E+03  0.12500000000E+03 0.  0.
          5    1    1    0  501    0  0.31678346717E+01  0.42498247608E+02  0.45475529395E+02  0.62500000000E+02  0.47000000000E+01 0.  1.
         -5    1    1    0    0  501 -0.31678346717E+01 -0.42498247608E+02 -0.45475529395E+02  0.62500000000E+02  0.47000000000E+01 0.  1.
</event>
<event>
 3    0  0.4603569E-005  0.9118800E+02  0.7546771E-02  0.1235069E+00
         25   -1    0    0    0    0  0.00000000000E+00  0.00000000000E+00  0.99999998245E-14  0.12500000000E+03  0.12500000000E+03 0.  0.
          5    1    1    0  501    0  0.31492854558E+02  0.49278290364E+02 -0.21540896234E+02  0.62500000000E+02  0.47000000000E+01 0.  1.
         -5    1    1    0    0  501 -0.31492854558E+02 -0.49278290364E+02  0.21540896234E+02  0.62500000000E+02  0.47000000000E+01 0.  1.
</event>
<event>
 3    0  0.4603569E-005  0.9118800E+02  0.7546771E-02  0.1235069E+00
         25   -1    0    0    0    0  0.00000000000E+00  0.00000000000E+00  0.99999998245E-14  0.12500000000E+03  0.12500000000E+03 0.  0.
          5    1    1    0  501    0  0.27535153758E+02  0.55907050364E+02  0.61402538317E+00  0.62500000000E+02  0.47000000000E+01 0.  1.
         -5    1    1    0    0  501 -0.27535153758E+02 -0.55907050364E+02 -0.61402538317E+00  0.62500000000E+02  0.47000000000E+01 0.  1.
</event>
<event>
 3    0  0.4603569E-005  0.9118800E+02  0.7546771E-02  0.1235069E+00
         25   -1    0    0    0    0  0.00000000000E+00  0.00000000000E+00  0.99999998245E-14  0.12500000000E+03  0.12500000000E+03 0.  0.
          5    1    1    0  501    0 -0.21054680341E+02 -0.56488961925E+02 -0.15806885093E+02  0.62500000000E+02  0.47000000000E+01 0.  1.
         -5    1    1    0    0  501  0.21054680341E+02  0.56488961925E+02  0.15806885093E+02  0.62500000000E+02  0.47000000000E+01 0.  1.
</event>
<event>
 3    0  0.4603569E-005  0.9118800E+02  0.7546771E-02  0.1235069E+00
         25   -1    0    0    0    0  0.00000000000E+00  0.00000000000E+00  0.99999998245E-14  0.12500000000E+03  0.12500000000E+03 0.  0.
          5    1    1    0  501    0  0.22238591315E+02  0.58191481743E+02 -0.18320777426E+01  0.62500000000E+02  0.47000000000E+01 0. -1.
         -5    1    1    0    0  501 -0.22238591315E+02 -0.58191481743E+02  0.18320777426E+01  0.62500000000E+02  0.47000000000E+01 0. -1.
</event>
<event>
 3    0  0.4603569E-005  0.9118800E+02  0.7546771E-02  0.1235069E+00
         25   -1    0    0    0    0  0.00000000000E+00  0.00000000000E+00  0.99999998245E-14  0.12500000000E+03  0.12500000000E+03 0.  0.
          5    1    1    0  501    0  0.47127401144E+02  0.26663728437E+02 -0.30857959221E+02  0.62500000000E+02  0.47000000000E+01 0. -1.
         -5    1    1    0    0  501 -0.47127401144E+02 -0.26663728437E+02  0.30857959221E+02  0.62500000000E+02  0.47000000000E+01 0. -1.
</event>
