<event>
 6    0  0.2433432E+002  0.1111106E+03  0.7546771E-02  0.1258527E+00
          2   -1    0    0  502    0 -0.00000000000E+00  0.00000000000E+00  0.16491007882E+04  0.16491007882E+04  0.00000000000E+00 0.  1.
         21   -1    0    0  505  502  0.00000000000E+00 -0.00000000000E+00 -0.18364574161E+04  0.18364574161E+04  0.00000000000E+00 0. -1.
         21    1    1    2  503  501  0.32003242058E+02 -0.33102235437E+01 -0.51832339877E+02  0.61006200827E+02  0.00000000000E+00 0. -1.
         21    1    1    2  504  503  0.40678199580E+02 -0.71505706635E+02 -0.16320447027E+03  0.18276619249E+03  0.00000000000E+00 0. -1.
         21    1    1    2  505  504  0.27588765800E+02  0.70364899146E+02 -0.16046218762E+04  0.16064008605E+04  0.00000000000E+00 0. -1.
          2    1    1    2  501    0 -0.10027020744E+03  0.44510310322E+01  0.16323020584E+04  0.16353849505E+04  0.00000000000E+00 0.  1.
<scales pt_clust_3="30.01890" pt_clust_4="30.01890" pt_clust_5="75.58015" pt_clust_6="100.20695"></scales>
<clustering>
<clus scale="   30.019">  3  4 -1 -1</clus>
<clus scale="   75.580">  2  5  1 -1</clus>
<clus scale="  100.207">  1  6  2 -1</clus>
<clus scale="   75.580">  2  3  1 -1</clus>
</clustering>
</event>
<event>
 6    0  0.2433432E+002  0.1535276E+03  0.7546771E-02  0.1196204E+00
         21   -1    0    0  504  502  0.00000000000E+00  0.00000000000E+00  0.59750278990E+02  0.59750278990E+02  0.00000000000E+00 0.  1.
          1   -1    0    0  503    0 -0.00000000000E+00 -0.00000000000E+00 -0.11661937108E+04  0.11661937108E+04  0.00000000000E+00 0.  1.
         21    1    1    2  503  505 -0.17145190201E+02  0.85431892814E+02 -0.22262099489E+03  0.23906625279E+03  0.00000000000E+00 0. -1.
         21    1    1    2  504  501  0.38229421709E+02 -0.15183010937E+03 -0.98832239655E+02  0.18515313227E+03  0.00000000000E+00 0.  1.
         21    1    1    2  505  502 -0.33181745617E+01  0.39316528849E+02 -0.40543390668E+02  0.56573547264E+02  0.00000000000E+00 0.  1.
          1    1    1    2  501    0 -0.17766056946E+02  0.27081687706E+02 -0.74444680656E+03  0.74515105743E+03  0.00000000000E+00 0.  1.
<scales pt_clust_3="31.32120" pt_clust_4="146.30188" pt_clust_5="31.32120" pt_clust_6="32.38905"></scales>
<clustering>
<clus scale="   31.321">  3  5 -1 -1</clus>
<clus scale="   32.389">  2  6  1 -1</clus>
<clus scale="  146.302">  1  4  2 -1</clus>
<clus scale="  146.302">  1  3  2 -1</clus>
</clustering>
</event>
<event>
 6    0  0.2433432E+002  0.8189988E+02  0.7546771E-02  0.1323745E+00
          2   -1    0    0  505    0 -0.00000000000E+00  0.00000000000E+00  0.16888847215E+04  0.16888847215E+04  0.00000000000E+00 0. -1.
         21   -1    0    0  503  502  0.00000000000E+00 -0.00000000000E+00 -0.69020507094E+02  0.69020507094E+02  0.00000000000E+00 0.  1.
         21    1    1    2  503  501 -0.34238287447E+01 -0.37031239794E+02  0.55275310390E+02  0.66621282355E+02  0.00000000000E+00 0.  1.
         21    1    1    2  504  502 -0.40328880997E+01  0.59723360568E+02  0.36865532659E+02  0.70300864022E+02  0.00000000000E+00 0.  1.
         21    1    1    2  505  504 -0.70293368957E+02 -0.48421654250E+02 -0.55376484297E+01  0.85536424228E+02  0.00000000000E+00 0.  1.
          2    1    1    2  501    0  0.77750085801E+02  0.25729533476E+02  0.15332610198E+04  0.15354466580E+04  0.00000000000E+00 0. -1.
<scales pt_clust_3="37.18918" pt_clust_4="50.19400" pt_clust_5="81.89988" pt_clust_6="14000.00000"></scales>
<clustering>
<clus scale="   37.189">  2  3  1 -1</clus>
<clus scale="   50.194">  2  4  1 -1</clus>
<clus scale="   81.900">  2  5  1 -1</clus>
<clus scale="   37.189">  2  3  1 -1</clus>
</clustering>
</event>
<event>
 6    0  0.2433432E+002  0.1126179E+03  0.7546771E-02  0.1255797E+00
         -4   -1    0    0    0  501 -0.00000000000E+00  0.00000000000E+00  0.28197214137E+03  0.28197214137E+03  0.00000000000E+00 0.  1.
         21   -1    0    0  505  502  0.00000000000E+00 -0.00000000000E+00 -0.42150308536E+03  0.42150308536E+03  0.00000000000E+00 0.  1.
         21    1    1    2  503  501 -0.21209989527E+02  0.47271630737E+02 -0.43732374423E+02  0.67801115779E+02  0.00000000000E+00 0.  1.
         21    1    1    2  504  502 -0.16047631338E+02  0.66154110060E+02 -0.26875223278E+03  0.27723934672E+03  0.00000000000E+00 0.  1.
         21    1    1    2  505  503  0.47452826244E+02  0.98347302175E+00 -0.72947717992E+02  0.87029348487E+02  0.00000000000E+00 0.  1.
         -4    1    1    2    0  504 -0.10195205379E+02 -0.11440921382E+03  0.24590138120E+03  0.27140541575E+03  0.00000000000E+00 0.  1.
<scales pt_clust_3="49.30540" pt_clust_4="112.61787" pt_clust_5="47.46302" pt_clust_6="14000.00000"></scales>
<clustering>
<clus scale="   47.463">  2  5  1 -1</clus>
<clus scale="   49.305">  2  3  1 -1</clus>
<clus scale="  112.618">  2  4  1 -1</clus>
<clus scale="   47.463">  2  3  1 -1</clus>
</clustering>
</event>
<event>
 6    0  0.2433432E+002  0.1320721E+03  0.7546771E-02  0.1224413E+00
         21   -1    0    0  503  502  0.00000000000E+00  0.00000000000E+00  0.18223507084E+03  0.18223507084E+03  0.00000000000E+00 0. -1.
          2   -1    0    0  505    0 -0.00000000000E+00 -0.00000000000E+00 -0.45018074763E+03  0.45018074763E+03  0.00000000000E+00 0. -1.
         21    1    1    2  503  501  0.66134456300E+02 -0.54024512584E+02  0.63097533477E+02  0.10617774249E+03  0.00000000000E+00 0. -1.
         21    1    1    2  504  502 -0.34922551242E+02  0.41120800062E+01  0.19030105910E+02  0.39982980356E+02  0.00000000000E+00 0.  1.
         21    1    1    2  505  504 -0.95376892724E+02  0.15190523312E+03 -0.92327197081E+02  0.20173314758E+03  0.00000000000E+00 0. -1.
          2    1    1    2  501    0  0.64164987666E+02 -0.10199280054E+03 -0.25774611910E+03  0.28452194803E+03  0.00000000000E+00 0. -1.
<scales pt_clust_3="69.75758" pt_clust_4="35.16381" pt_clust_5="14000.00000" pt_clust_6="132.07210"></scales>
<clustering>
<clus scale="   35.164">  1  4  2 -1</clus>
<clus scale="   69.758">  1  3  2 -1</clus>
<clus scale="  132.072">  2  6  1 -1</clus>
<clus scale="   35.164">  1  3  2 -1</clus>
</clustering>
</event>
<event>
 6    0  0.2433432E+002  0.7843785E+02  0.7546771E-02  0.1333544E+00
         21   -1    0    0  503  502  0.00000000000E+00  0.00000000000E+00  0.39604683628E+03  0.39604683628E+03  0.00000000000E+00 0. -1.
          1   -1    0    0  504    0 -0.00000000000E+00 -0.00000000000E+00 -0.99816267024E+03  0.99816267024E+03  0.00000000000E+00 0. -1.
         21    1    1    2  503  501  0.91873385144E+02  0.83662725178E+01 -0.15429211643E+03  0.17976865858E+03  0.00000000000E+00 0. -1.
         21    1    1    2  504  505 -0.47093717068E+02 -0.47793982590E+02 -0.56152928471E+03  0.56552384614E+03  0.00000000000E+00 0. -1.
         21    1    1    2  505  502 -0.77994509796E+02  0.45826580104E+01  0.37508800329E+03  0.38313855787E+03  0.00000000000E+00 0. -1.
          1    1    1    2  501    0  0.33214841721E+02  0.34845052061E+02 -0.26138243610E+03  0.26577844395E+03  0.00000000000E+00 0. -1.
<scales pt_clust_3="78.43785" pt_clust_4="30.17922" pt_clust_5="14000.00000" pt_clust_6="48.13942"></scales>
<clustering>
<clus scale="   48.139">  2  6  1 -1</clus>
<clus scale="   30.179">  2  4  1 -1</clus>
<clus scale="   78.438">  2  3  1 -1</clus>
<clus scale="   78.438">  1  3  2 -1</clus>
</clustering>
</event>
<event>
 6    0  0.2433432E+002  0.1041984E+03  0.7546771E-02  0.1271707E+00
          1   -1    0    0  504    0 -0.00000000000E+00  0.00000000000E+00  0.31765641556E+04  0.31765641556E+04  0.00000000000E+00 0. -1.
         21   -1    0    0  503  502  0.00000000000E+00 -0.00000000000E+00 -0.88535415127E+02  0.88535415127E+02  0.00000000000E+00 0.  1.
         21    1    1    2  503  501  0.51480824666E+02  0.81745523879E+01 -0.71747759223E+02  0.88683930723E+02  0.00000000000E+00 0.  1.
         21    1    1    2  504  505  0.37058364251E+02 -0.17256659918E+02  0.35680773235E+03  0.35914185573E+03  0.00000000000E+00 0.  1.
         21    1    1    2  505  502  0.27458543483E+02  0.75529834323E+02  0.29518805320E+03  0.30593253216E+03  0.00000000000E+00 0.  1.
          1    1    1    2  501    0 -0.11599773240E+03 -0.66447726793E+02  0.25077807141E+04  0.25113412521E+04  0.00000000000E+00 0. -1.
<scales pt_clust_3="52.22767" pt_clust_4="40.87927" pt_clust_5="14000.00000" pt_clust_6="104.19842"></scales>
<clustering>
<clus scale="   40.879">  1  4  2 -1</clus>
<clus scale="   52.228">  2  3  1 -1</clus>
<clus scale="  104.198">  1  6  2 -1</clus>
<clus scale="   52.228">  2  3  1 -1</clus>
</clustering>
</event>
<event>
 6    0  0.2433432E+002  0.2084813E+03  0.7546771E-02  0.1142774E+00
          2   -1    0    0  503    0 -0.00000000000E+00  0.00000000000E+00  0.38231324063E+04  0.38231324063E+04  0.00000000000E+00 0. -1.
         21   -1    0    0  504  502  0.00000000000E+00 -0.00000000000E+00 -0.95498348433E+02  0.95498348433E+02  0.00000000000E+00 0.  1.
         21    1    1    2  503  502 -0.34404935304E+02  0.17372231049E+02  0.39378649394E+02  0.55101470153E+02  0.00000000000E+00 0. -1.
         21    1    1    2  504  505 -0.29532172270E+02 -0.11309483972E+02 -0.22097998863E+02  0.38579465788E+02  0.00000000000E+00 0.  1.
         21    1    1    2  505  501 -0.12412724063E+03 -0.10253507210E+03  0.65244160393E+02  0.17371762531E+03  0.00000000000E+00 0.  1.
          2    1    1    2  501    0  0.18806434821E+03  0.96472325026E+02  0.36451092470E+04  0.36512321935E+04  0.00000000000E+00 0. -1.
<scales pt_clust_3="41.20453" pt_clust_4="31.62362" pt_clust_5="14000.00000" pt_clust_6="208.48131"></scales>
<clustering>
<clus scale="   31.624">  2  4  1 -1</clus>
<clus scale="   41.205">  2  3  1 -1</clus>
<clus scale="  208.481">  1  6  2 -1</clus>
<clus scale="   31.624">  2  3  1 -1</clus>
</clustering>
</event>
<event>
 6    0  0.2433432E+002  0.1055101E+03  0.7546771E-02  0.1269118E+00
         -3   -1    0    0    0  501 -0.00000000000E+00  0.00000000000E+00  0.50150768776E+03  0.50150768776E+03  0.00000000000E+00 0. -1.
         21   -1    0    0  505  502  0.00000000000E+00 -0.00000000000E+00 -0.66500262766E+03  0.66500262766E+03  0.00000000000E+00 0. -1.
         21    1    1    2  503  502  0.90783678789E+01 -0.69735485245E+02 -0.64349096118E+02  0.95321880158E+02  0.00000000000E+00 0.  1.
         21    1    1    2  504  501 -0.39913275291E+02  0.35202208860E+02  0.71549568834E+00  0.53223838523E+02  0.00000000000E+00 0.  1.
         21    1    1    2  505  504  0.74894582443E+02 -0.18047883517E+01 -0.55460835623E+03  0.55964532030E+03  0.00000000000E+00 0. -1.
         -3    1    1    2    0  503 -0.44059675031E+02  0.36338064736E+02  0.45474701676E+03  0.45831927644E+03  0.00000000000E+00 0. -1.
<scales pt_clust_3="69.02605" pt_clust_4="53.21903" pt_clust_5="105.51009" pt_clust_6="14000.00000"></scales>
<clustering>
<clus scale="   53.219">  1  4  2 -1</clus>
<clus scale="   69.026">  2  3  1 -1</clus>
<clus scale="  105.510">  2  5  1 -1</clus>
<clus scale="   69.026">  2  3  1 -1</clus>
</clustering>
</event>
<event>
 6    0  0.2433432E+002  0.8228985E+02  0.7546771E-02  0.1322676E+00
         21   -1    0    0  505  502  0.00000000000E+00  0.00000000000E+00  0.26183308950E+03  0.26183308950E+03  0.00000000000E+00 0. -1.
          2   -1    0    0  504    0 -0.00000000000E+00 -0.00000000000E+00 -0.23951169220E+04  0.23951169220E+04  0.00000000000E+00 0.  1.
         21    1    1    2  503  501  0.80952453357E+02 -0.80246985124E+02 -0.21324453352E+02  0.11596383331E+03  0.00000000000E+00 0. -1.
         21    1    1    2  504  502 -0.28987601756E+02 -0.27624307747E+02 -0.27172646811E+02  0.48391488599E+02  0.00000000000E+00 0. -1.
         21    1    1    2  505  503 -0.21761571441E+02  0.31697355762E+02  0.20135089979E+03  0.20498895872E+03  0.00000000000E+00 0. -1.
          2    1    1    2  501    0 -0.30203280160E+02  0.76173937109E+02 -0.22861376321E+04  0.22876057308E+04  0.00000000000E+00 0.  1.
<scales pt_clust_3="14000.00000" pt_clust_4="39.53718" pt_clust_5="38.44852" pt_clust_6="82.28985"></scales>
<clustering>
<clus scale="   38.449">  1  5  2 -1</clus>
<clus scale="   39.537">  1  4  2 -1</clus>
<clus scale="   82.290">  2  6  1 -1</clus>
<clus scale="   38.449">  1  3  2 -1</clus>
</clustering>
</event>
<event>
 6    0  0.2433432E+002  0.1451008E+03  0.7546771E-02  0.1206626E+00
         21   -1    0    0  504  502  0.00000000000E+00  0.00000000000E+00  0.51542512578E+02  0.51542512578E+02  0.00000000000E+00 0. -1.
         -1   -1    0    0    0  501 -0.00000000000E+00 -0.00000000000E+00 -0.11744692164E+04  0.11744692164E+04  0.00000000000E+00 0.  1.
         21    1    1    2  503  501  0.53536898600E+02  0.48881731371E+02 -0.64221296469E+02  0.96850390261E+02  0.00000000000E+00 0. -1.
         21    1    1    2  504  505  0.19005566542E+02 -0.25477270124E+02 -0.15440602606E+02  0.35337162611E+02  0.00000000000E+00 0. -1.
         21    1    1    2  505  503  0.31966347844E+02  0.71275973798E+02 -0.54969005388E+02  0.95518078858E+02  0.00000000000E+00 0. -1.
         -1    1    1    2    0  502 -0.10450881299E+03 -0.94680435045E+02 -0.98829579936E+03  0.99830609725E+03  0.00000000000E+00 0.  1.
<scales pt_clust_3="31.22547" pt_clust_4="31.78526" pt_clust_5="31.22547" pt_clust_6="141.43414"></scales>
<clustering>
<clus scale="   31.225">  3  5 -1 -1</clus>
<clus scale="   31.785">  1  4  2 -1</clus>
<clus scale="  141.434">  2  6  1 -1</clus>
<clus scale="   31.785">  1  3  2 -1</clus>
</clustering>
</event>
<event>
 6    0  0.2433432E+002  0.1046498E+03  0.7546771E-02  0.1270811E+00
         21   -1    0    0  503  502  0.00000000000E+00  0.00000000000E+00  0.69509723435E+02  0.69509723435E+02  0.00000000000E+00 0.  1.
          2   -1    0    0  504    0 -0.00000000000E+00 -0.00000000000E+00 -0.17911549007E+04  0.17911549007E+04  0.00000000000E+00 0.  1.
         21    1    1    2  503  505 -0.42965608827E+02  0.18660143765E+02  0.48327177088E+01  0.47091396960E+02  0.00000000000E+00 0.  1.
         21    1    1    2  504  502 -0.35574199836E+02 -0.53600370672E+02 -0.27564198505E+02  0.69987916595E+02  0.00000000000E+00 0.  1.
         21    1    1    2  505  501  0.28754383296E+02 -0.60906574624E+02 -0.34507013883E+02  0.75677998113E+02  0.00000000000E+00 0. -1.
          2    1    1    2  501    0  0.49785425367E+02  0.95846801531E+02 -0.16644066826E+04  0.16679073124E+04  0.00000000000E+00 0.  1.
<scales pt_clust_3="46.84276" pt_clust_4="104.64977" pt_clust_5="52.76573" pt_clust_6="14000.00000"></scales>
<clustering>
<clus scale="   46.843">  1  3  2 -1</clus>
<clus scale="   52.766">  1  5  2 -1</clus>
<clus scale="  104.650">  1  4  2 -1</clus>
<clus scale="   46.843">  1  3  2 -1</clus>
</clustering>
</event>
<event>
 6    0  0.2433432E+002  0.7076066E+02  0.7546771E-02  0.1357525E+00
          2   -1    0    0  504    0 -0.00000000000E+00  0.00000000000E+00  0.22919100208E+04  0.22919100208E+04  0.00000000000E+00 0. -1.
         21   -1    0    0  505  502  0.00000000000E+00 -0.00000000000E+00 -0.33143001558E+02  0.33143001558E+02  0.00000000000E+00 0. -1.
         21    1    1    2  503  501 -0.65571470459E+02 -0.33758481035E+02  0.15952180788E+03  0.17574544082E+03  0.00000000000E+00 0. -1.
         21    1    1    2  504  502 -0.61597044664E+01 -0.51910045264E+02  0.16785381317E+03  0.17580528250E+03  0.00000000000E+00 0.  1.
         21    1    1    2  505  503  0.48232745606E+02  0.15211480883E+02  0.11104132525E+02  0.51779229991E+02  0.00000000000E+00 0. -1.
          2    1    1    2  501    0  0.23498429320E+02  0.70457045416E+02  0.19202872657E+04  0.19217230691E+04  0.00000000000E+00 0. -1.
<scales pt_clust_3="42.52216" pt_clust_4="70.76066" pt_clust_5="50.57457" pt_clust_6="14000.00000"></scales>
<clustering>
<clus scale="   50.575">  2  5  1 -1</clus>
<clus scale="   42.522">  2  3  1 -1</clus>
<clus scale="   70.761">  2  4  1 -1</clus>
<clus scale="   50.575">  2  3  1 -1</clus>
</clustering>
</event>
<event>
 6    0  0.2433432E+002  0.1456948E+03  0.7546771E-02  0.1205865E+00
          2   -1    0    0  502    0 -0.00000000000E+00  0.00000000000E+00  0.28533940021E+04  0.28533940021E+04  0.00000000000E+00 0. -1.
         21   -1    0    0  503  502  0.00000000000E+00 -0.00000000000E+00 -0.24714570787E+02  0.24714570787E+02  0.00000000000E+00 0.  1.
         21    1    1    2  503  504  0.43651913000E+01  0.38261071056E+02  0.47923780170E+02  0.61478883848E+02  0.00000000000E+00 0.  1.
         21    1    1    2  504  505  0.64625971493E+02 -0.39770717901E+02  0.13197501092E+03  0.15223544167E+03  0.00000000000E+00 0.  1.
         21    1    1    2  505  501  0.63350134795E+02  0.16145408567E+02  0.17149880635E+03  0.18353679298E+03  0.00000000000E+00 0.  1.
          2    1    1    2  501    0 -0.13234129759E+03 -0.14635761722E+02  0.24772818339E+04  0.24808574544E+04  0.00000000000E+00 0. -1.
<scales pt_clust_3="38.50928" pt_clust_4="60.27022" pt_clust_5="60.27022" pt_clust_6="132.34942"></scales>
<clustering>
<clus scale="   38.509">  2  3  1 -1</clus>
<clus scale="   60.270">  4  5 -1 -1</clus>
<clus scale="  132.349">  1  6  2 -1</clus>
<clus scale="   38.509">  2  3  1 -1</clus>
</clustering>
</event>
<event>
 6    0  0.2433432E+002  0.7769436E+02  0.7546771E-02  0.1335725E+00
         -2   -1    0    0    0  501 -0.00000000000E+00  0.00000000000E+00  0.20734003144E+04  0.20734003144E+04  0.00000000000E+00 0. -1.
         21   -1    0    0  504  502  0.00000000000E+00 -0.00000000000E+00 -0.40998395717E+03  0.40998395717E+03  0.00000000000E+00 0. -1.
         21    1    1    2  503  505 -0.43954019027E+02 -0.44166978283E+02 -0.62051139501E+02  0.87937601017E+02  0.00000000000E+00 0. -1.
         21    1    1    2  504  501 -0.70131136473E+02  0.18955453805E+02  0.54608538141E+01  0.72852635205E+02  0.00000000000E+00 0.  1.
         21    1    1    2  505  502  0.76111404269E+02 -0.18613119595E+02 -0.29577549429E+03  0.30597800101E+03  0.00000000000E+00 0. -1.
         -2    1    1    2    0  503  0.37973751232E+02  0.43824644073E+02  0.20157821372E+04  0.20166160343E+04  0.00000000000E+00 0. -1.
<scales pt_clust_3="49.22941" pt_clust_4="14000.00000" pt_clust_5="77.69436" pt_clust_6="57.98797"></scales>
<clustering>
<clus scale="   57.988">  1  6  2 -1</clus>
<clus scale="   49.229">  1  3  2 -1</clus>
<clus scale="   77.694">  2  5  1 -1</clus>
<clus scale="   77.694">  2  3  1 -1</clus>
</clustering>
</event>
<event>
 6    0  0.2433432E+002  0.8949437E+02  0.7546771E-02  0.1304081E+00
         21   -1    0    0  505  502  0.00000000000E+00  0.00000000000E+00  0.95291904608E+03  0.95291904608E+03  0.00000000000E+00 0.  1.
         -4   -1    0    0    0  501 -0.00000000000E+00 -0.00000000000E+00 -0.62647408504E+03  0.62647408504E+03  0.00000000000E+00 0.  1.
         21    1    1    2  503  502  0.61100532709E+02  0.66048741364E+02  0.68588946397E+03  0.69176590558E+03  0.00000000000E+00 0.  1.
         21    1    1    2  504  503  0.50880153024E+02  0.14818244675E+02  0.82630941722E+02  0.98164366635E+02  0.00000000000E+00 0.  1.
         21    1    1    2  505  501 -0.63489468593E+02 -0.60641041406E+02  0.16138426613E+03  0.18372024896E+03  0.00000000000E+00 0.  1.
         -4    1    1    2    0  504 -0.48491217140E+02 -0.20225944633E+02 -0.60345971077E+03  0.60574260995E+03  0.00000000000E+00 0.  1.
<scales pt_clust_3="89.49437" pt_clust_4="34.51703" pt_clust_5="14000.00000" pt_clust_6="52.54034"></scales>
<clustering>
<clus scale="   52.540">  2  6  1 -1</clus>
<clus scale="   34.517">  2  4  1 -1</clus>
<clus scale="   89.494">  1  3  2 -1</clus>
<clus scale="   89.494">  1  3  2 -1</clus>
</clustering>
</event>
<event>
 6    0  0.2433432E+002  0.6395781E+02  0.7546771E-02  0.1381935E+00
          2   -1    0    0  504    0 -0.00000000000E+00  0.00000000000E+00  0.12812058959E+03  0.12812058959E+03  0.00000000000E+00 0.  1.
         21   -1    0    0  501  502  0.00000000000E+00 -0.00000000000E+00 -0.49242038626E+03  0.49242038626E+03  0.00000000000E+00 0. -1.
         21    1    1    2  503  502 -0.33469445371E+02 -0.16195997146E+02 -0.34376012547E+03  0.34576514856E+03  0.00000000000E+00 0. -1.
         21    1    1    2  504  505  0.96918193239E+02  0.22679416751E+02 -0.14429535415E+02  0.10057685428E+03  0.00000000000E+00 0.  1.
         21    1    1    2  505  503 -0.33060871833E+02  0.46882830314E+02 -0.66667279671E+02  0.87951959633E+02  0.00000000000E+00 0.  1.
          2    1    1    2  501    0 -0.30387876035E+02 -0.53366249919E+02  0.60557143880E+02  0.86247013369E+02  0.00000000000E+00 0.  1.
<scales pt_clust_3="37.18217" pt_clust_4="63.95781" pt_clust_5="63.51057" pt_clust_6="14000.00000"></scales>
<clustering>
<clus scale="   37.182">  2  3  1 -1</clus>
<clus scale="   63.511">  2  5  1 -1</clus>
<clus scale="   63.958">  2  4  1 -1</clus>
<clus scale="   37.182">  2  3  1 -1</clus>
</clustering>
</event>
<event>
 6    0  0.2433432E+002  0.1187306E+03  0.7546771E-02  0.1245206E+00
          1   -1    0    0  503    0 -0.00000000000E+00  0.00000000000E+00  0.24599778986E+03  0.24599778986E+03  0.00000000000E+00 0.  1.
         21   -1    0    0  505  502  0.00000000000E+00 -0.00000000000E+00 -0.21629791039E+03  0.21629791039E+03  0.00000000000E+00 0.  1.
         21    1    1    2  503  502  0.12179414108E+03 -0.20311121977E+02 -0.16106710056E+02  0.12452220921E+03  0.00000000000E+00 0.  1.
         21    1    1    2  504  501 -0.15653955622E+02  0.47460986840E+02  0.29778612863E+02  0.58175229973E+02  0.00000000000E+00 0. -1.
         21    1    1    2  505  504 -0.11678750051E+03  0.28249514772E+01 -0.10339842873E+03  0.15600812700E+03  0.00000000000E+00 0.  1.
          1    1    1    2  501    0  0.10647315049E+02 -0.29974816340E+02  0.11942640540E+03  0.12359013407E+03  0.00000000000E+00 0.  1.
<scales pt_clust_3="14000.00000" pt_clust_4="38.74263" pt_clust_5="118.73064" pt_clust_6="31.80967"></scales>
<clustering>
<clus scale="   31.810">  1  6  2 -1</clus>
<clus scale="   38.743">  1  4  2 -1</clus>
<clus scale="  118.731">  2  5  1 -1</clus>
<clus scale="  118.731">  2  3  1 -1</clus>
</clustering>
</event>
<event>
 6    0  0.2433432E+002  0.3015505E+03  0.7546771E-02  0.1084468E+00
         21   -1    0    0  504  502  0.00000000000E+00  0.00000000000E+00  0.37248731261E+03  0.37248731261E+03  0.00000000000E+00 0. -1.
          2   -1    0    0  502    0 -0.00000000000E+00 -0.00000000000E+00 -0.65025360950E+03  0.65025360950E+03  0.00000000000E+00 0. -1.
         21    1    1    2  503  505 -0.53500840966E+02 -0.56082672800E+02 -0.86721262455E+02  0.11631071977E+03  0.00000000000E+00 0. -1.
         21    1    1    2  504  503  0.20792844295E+03  0.20804756466E+03  0.20412035033E+03  0.35802673639E+03  0.00000000000E+00 0. -1.
         21    1    1    2  505  501 -0.20855001732E+03  0.94752672333E+01 -0.23930902782E+03  0.31757156864E+03  0.00000000000E+00 0. -1.
          2    1    1    2  501    0  0.54122415331E+02 -0.16144015909E+03 -0.15585635694E+03  0.23083189730E+03  0.00000000000E+00 0. -1.
<scales pt_clust_3="64.23988" pt_clust_4="282.51990" pt_clust_5="64.23988" pt_clust_6="170.27085"></scales>
<clustering>
<clus scale="   64.240">  3  5 -1 -1</clus>
<clus scale="  170.271">  2  6  1 -1</clus>
<clus scale="  282.520">  1  4  2 -1</clus>
<clus scale="  282.520">  1  3  2 -1</clus>
</clustering>
</event>
<event>
 6    0  0.2433432E+002  0.8361642E+02  0.7546771E-02  0.1319091E+00
         21   -1    0    0  504  502  0.00000000000E+00  0.00000000000E+00  0.10040793083E+03  0.10040793083E+03  0.00000000000E+00 0. -1.
          1   -1    0    0  505    0 -0.00000000000E+00 -0.00000000000E+00 -0.10050084365E+04  0.10050084365E+04  0.00000000000E+00 0.  1.
         21    1    1    2  503  501  0.22519082670E+02  0.11515301518E+03 -0.21660742151E+03  0.24634549122E+03  0.00000000000E+00 0.  1.
         21    1    1    2  504  503 -0.27486900460E+02 -0.75986035052E+02  0.61436890460E+02  0.10150812149E+03  0.00000000000E+00 0. -1.
         21    1    1    2  505  502  0.38471897547E+02 -0.39572646444E+02 -0.21124713195E+03  0.21833788495E+03  0.00000000000E+00 0.  1.
          1    1    1    2  501    0 -0.33504079757E+02  0.40566631763E+00 -0.53818284266E+03  0.53922486966E+03  0.00000000000E+00 0.  1.
<scales pt_clust_3="83.61642" pt_clust_4="14000.00000" pt_clust_5="45.62933" pt_clust_6="33.50654"></scales>
<clustering>
<clus scale="   33.507">  2  6  1 -1</clus>
<clus scale="   45.629">  2  5  1 -1</clus>
<clus scale="   83.616">  2  3  1 -1</clus>
<clus scale="   83.616">  1  3  2 -1</clus>
</clustering>
</event>
<event>
 6    0  0.2433432E+002  0.1891126E+03  0.7546771E-02  0.1159264E+00
         21   -1    0    0  505  502  0.00000000000E+00  0.00000000000E+00  0.11818718972E+03  0.11818718972E+03  0.00000000000E+00 0. -1.
          1   -1    0    0  503    0 -0.00000000000E+00 -0.00000000000E+00 -0.18363083303E+04  0.18363083303E+04  0.00000000000E+00 0.  1.
         21    1    1    2  503  502 -0.32861878371E+02  0.49933014585E+02  0.25183393415E+02  0.64864568907E+02  0.00000000000E+00 0. -1.
         21    1    1    2  504  501 -0.78453856519E+02 -0.11470471377E+03 -0.65044227535E+02  0.15343705713E+03  0.00000000000E+00 0. -1.
         21    1    1    2  505  504 -0.47855713321E+02 -0.18076094125E+02 -0.28857078230E+01  0.51237113365E+02  0.00000000000E+00 0. -1.
          1    1    1    2  501    0  0.15917144821E+03  0.82847793312E+02 -0.16753745986E+04  0.16849567806E+04  0.00000000000E+00 0.  1.
<scales pt_clust_3="59.77632" pt_clust_4="36.86647" pt_clust_5="36.86647" pt_clust_6="179.08481"></scales>
<clustering>
<clus scale="   36.866">  4  5 -1 -1</clus>
<clus scale="   59.776">  1  3  2 -1</clus>
<clus scale="  179.085">  2  6  1 -1</clus>
<clus scale="   59.776">  1  3  2 -1</clus>
</clustering>
</event>
<event>
 6    0  0.2433432E+002  0.8940441E+02  0.7546771E-02  0.1304300E+00
          2   -1    0    0  502    0 -0.00000000000E+00  0.00000000000E+00  0.93269155828E+03  0.93269155828E+03  0.00000000000E+00 0. -1.
         21   -1    0    0  503  502  0.00000000000E+00 -0.00000000000E+00 -0.51712128652E+03  0.51712128652E+03  0.00000000000E+00 0. -1.
         21    1    1    2  503  504 -0.26721455753E+02 -0.48843908628E+02 -0.12683149442E+03  0.13851350687E+03  0.00000000000E+00 0. -1.
         21    1    1    2  504  505 -0.77894140624E+02  0.16628859723E+01 -0.20264085448E+03  0.21710269053E+03  0.00000000000E+00 0. -1.
         21    1    1    2  505  501  0.82198070827E+02  0.71953932742E+02 -0.15714775884E+03  0.19138785070E+03  0.00000000000E+00 0. -1.
          2    1    1    2  501    0  0.22417525549E+02 -0.24772910086E+02  0.90219037951E+03  0.90280879670E+03  0.00000000000E+00 0. -1.
<scales pt_clust_3="58.12008" pt_clust_4="14000.00000" pt_clust_5="89.40441" pt_clust_6="33.41022"></scales>
<clustering>
<clus scale="   33.410">  1  6  2 -1</clus>
<clus scale="   58.120">  2  3  1 -1</clus>
<clus scale="   89.404">  1  5  2 -1</clus>
<clus scale="   58.120">  2  3  1 -1</clus>
</clustering>
</event>
<event>
 6    0  0.2433432E+002  0.1464022E+03  0.7546771E-02  0.1204965E+00
         21   -1    0    0  503  502  0.00000000000E+00  0.00000000000E+00  0.58456136688E+03  0.58456136688E+03  0.00000000000E+00 0.  1.
         -3   -1    0    0    0  501 -0.00000000000E+00 -0.00000000000E+00 -0.24957635107E+03  0.24957635107E+03  0.00000000000E+00 0.  1.
         21    1    1    2  503  504 -0.23758664348E+02 -0.12354122539E+03 -0.64550650052E+02  0.14139906267E+03  0.00000000000E+00 0.  1.
         21    1    1    2  504  501 -0.43371223641E+02  0.24854573747E+02 -0.41500836389E+02  0.64970241628E+02  0.00000000000E+00 0.  1.
         21    1    1    2  505  502  0.91985791326E+02  0.11824841012E+03  0.52082263904E+03  0.54194122711E+03  0.00000000000E+00 0.  1.
         -3    1    1    2    0  505 -0.24855903337E+02 -0.19561758479E+02 -0.79786136789E+02  0.85827186539E+02  0.00000000000E+00 0.  1.
<scales pt_clust_3="14000.00000" pt_clust_4="54.57659" pt_clust_5="146.40221" pt_clust_6="31.63034"></scales>
<clustering>
<clus scale="   31.630">  2  6  1 -1</clus>
<clus scale="   54.577">  2  4  1 -1</clus>
<clus scale="  146.402">  1  5  2 -1</clus>
<clus scale="  146.402">  1  3  2 -1</clus>
</clustering>
</event>
<event>
 6    0  0.2433432E+002  0.8807972E+02  0.7546771E-02  0.1307570E+00
         21   -1    0    0  503  502  0.00000000000E+00  0.00000000000E+00  0.26939912883E+03  0.26939912883E+03  0.00000000000E+00 0.  1.
          2   -1    0    0  505    0 -0.00000000000E+00 -0.00000000000E+00 -0.13352283503E+04  0.13352283503E+04  0.00000000000E+00 0.  1.
         21    1    1    2  503  501  0.34055872255E+02  0.26993782449E+02  0.10637173364E+02  0.44739425378E+02  0.00000000000E+00 0.  1.
         21    1    1    2  504  502 -0.11313139385E+03 -0.44650993886E+02  0.20864640229E+03  0.24150723533E+03  0.00000000000E+00 0.  1.
         21    1    1    2  505  504  0.13332741726E+03  0.43036141872E+02 -0.29627074263E+03  0.32772650585E+03  0.00000000000E+00 0.  1.
          2    1    1    2  501    0 -0.54251895668E+02 -0.25378930435E+02 -0.98884205446E+03  0.99065431254E+03  0.00000000000E+00 0.  1.
<scales pt_clust_3="43.45649" pt_clust_4="88.07972" pt_clust_5="14000.00000" pt_clust_6="59.73605"></scales>
<clustering>
<clus scale="   43.456">  1  3  2 -1</clus>
<clus scale="   59.736">  2  6  1 -1</clus>
<clus scale="   88.080">  1  4  2 -1</clus>
<clus scale="   43.456">  1  3  2 -1</clus>
</clustering>
</event>
<event>
 6    0  0.2433432E+002  0.9605692E+02  0.7546771E-02  0.1288813E+00
          2   -1    0    0  505    0 -0.00000000000E+00  0.00000000000E+00  0.53618480197E+03  0.53618480197E+03  0.00000000000E+00 0.  1.
         21   -1    0    0  501  502  0.00000000000E+00 -0.00000000000E+00 -0.43711653074E+03  0.43711653074E+03  0.00000000000E+00 0.  1.
         21    1    1    2  503  504  0.34652962135E+02 -0.88523808439E+02  0.53594310903E+02  0.10913130901E+03  0.00000000000E+00 0.  1.
         21    1    1    2  504  502 -0.46344186756E+02 -0.16619495876E+02 -0.39328024326E+03  0.39635002337E+03  0.00000000000E+00 0.  1.
         21    1    1    2  505  503 -0.38293946598E+02  0.19776830688E+02  0.47002676603E+02  0.63771474704E+02  0.00000000000E+00 0.  1.
          2    1    1    2  501    0  0.49985171219E+02  0.85366473627E+02  0.39175152699E+03  0.40404852562E+03  0.00000000000E+00 0.  1.
<scales pt_clust_3="96.05692" pt_clust_4="49.32791" pt_clust_5="43.09930" pt_clust_6="14000.00000"></scales>
<clustering>
<clus scale="   43.099">  1  5  2 -1</clus>
<clus scale="   49.328">  2  4  1 -1</clus>
<clus scale="   96.057">  2  3  1 -1</clus>
<clus scale="   49.328">  2  3  1 -1</clus>
</clustering>
</event>
<event>
 6    0  0.2433432E+002  0.1468555E+03  0.7546771E-02  0.1204391E+00
         21   -1    0    0  501  502  0.00000000000E+00  0.00000000000E+00  0.84440129160E+02  0.84440129160E+02  0.00000000000E+00 0. -1.
          2   -1    0    0  503    0 -0.00000000000E+00 -0.00000000000E+00 -0.14463641871E+04  0.14463641871E+04  0.00000000000E+00 0.  1.
         21    1    1    2  503  504  0.25795707749E+02  0.42541165267E+02 -0.50242644272E+03  0.50488364959E+03  0.00000000000E+00 0.  1.
         21    1    1    2  504  505  0.80288664115E+02 -0.46945535169E+01 -0.35269270103E+03  0.36174638876E+03  0.00000000000E+00 0.  1.
         21    1    1    2  505  502  0.50598121152E+02 -0.13664878725E+03 -0.24811392834E+02  0.14781294306E+03  0.00000000000E+00 0. -1.
          2    1    1    2  501    0 -0.15668249302E+03  0.98802175499E+02 -0.48199352132E+03  0.51636133482E+03  0.00000000000E+00 0.  1.
<scales pt_clust_3="49.75107" pt_clust_4="90.78523" pt_clust_5="146.85552" pt_clust_6="14000.00000"></scales>
<clustering>
<clus scale="   49.751">  2  3  1 -1</clus>
<clus scale="   90.785">  2  4  1 -1</clus>
<clus scale="  146.856">  1  5  2 -1</clus>
<clus scale="  146.856">  1  3  2 -1</clus>
</clustering>
</event>
<event>
 6    0  0.2433432E+002  0.2022184E+03  0.7546771E-02  0.1147881E+00
         21   -1    0    0  503  502  0.00000000000E+00  0.00000000000E+00  0.25329731472E+03  0.25329731472E+03  0.00000000000E+00 0. -1.
         -3   -1    0    0    0  501 -0.00000000000E+00 -0.00000000000E+00 -0.30840593086E+03  0.30840593086E+03  0.00000000000E+00 0.  1.
         21    1    1    2  503  501  0.25401248934E+02 -0.17287114178E+03 -0.19365886032E+02  0.17579730558E+03  0.00000000000E+00 0. -1.
         21    1    1    2  504  505 -0.63027203298E+01  0.12564081928E+03  0.61779403552E+02  0.14015004266E+03  0.00000000000E+00 0. -1.
         21    1    1    2  505  502 -0.51434907389E+02  0.73246354906E+02  0.42955197404E+02  0.99276015175E+02  0.00000000000E+00 0. -1.
         -3    1    1    2    0  504  0.32336378785E+02 -0.26016032413E+02 -0.14047733106E+03  0.14647988216E+03  0.00000000000E+00 0.  1.
<scales pt_clust_3="193.45938" pt_clust_4="48.98592" pt_clust_5="48.98592" pt_clust_6="41.50271"></scales>
<clustering>
<clus scale="   41.503">  2  6  1 -1</clus>
<clus scale="   48.986">  4  5 -1 -1</clus>
<clus scale="  193.459">  2  3  1 -1</clus>
<clus scale="  202.218">  1  3  2 -1</clus>
</clustering>
</event>
<event>
 6    0  0.2433432E+002  0.1181519E+03  0.7546771E-02  0.1246177E+00
         21   -1    0    0  504  502  0.00000000000E+00  0.00000000000E+00  0.47426404384E+03  0.47426404384E+03  0.00000000000E+00 0.  1.
          1   -1    0    0  503    0 -0.00000000000E+00 -0.00000000000E+00 -0.64271911473E+03  0.64271911473E+03  0.00000000000E+00 0. -1.
         21    1    1    2  503  505 -0.90403754700E+02  0.76113737335E+02  0.11184516523E+03  0.16271287859E+03  0.00000000000E+00 0.  1.
         21    1    1    2  504  501  0.49171126750E+02 -0.10640366999E+03  0.45282870934E+02  0.12565858145E+03  0.00000000000E+00 0.  1.
         21    1    1    2  505  502  0.16853918929E+02  0.53235258419E+02  0.24792083007E+03  0.25413143313E+03  0.00000000000E+00 0.  1.
          1    1    1    2  501    0  0.24378709022E+02 -0.22945325767E+02 -0.57350393713E+03  0.57448026539E+03  0.00000000000E+00 0. -1.
<scales pt_clust_3="118.15195" pt_clust_4="14000.00000" pt_clust_5="55.20038" pt_clust_6="33.47849"></scales>
<clustering>
<clus scale="   33.478">  2  6  1 -1</clus>
<clus scale="   55.200">  1  5  2 -1</clus>
<clus scale="  118.152">  2  3  1 -1</clus>
<clus scale="   55.200">  1  3  2 -1</clus>
</clustering>
</event>
<event>
 6    0  0.3670926E+002  0.7441238E+02  0.7546771E-02  0.1345700E+00
         21   -1    0    0  503  502  0.00000000000E+00  0.00000000000E+00  0.10772293774E+04  0.10772293774E+04  0.00000000000E+00 0. -1.
          3   -1    0    0  504    0 -0.00000000000E+00 -0.00000000000E+00 -0.19695901016E+03  0.19695901016E+03  0.00000000000E+00 0.  1.
         21    1    1    2  503  505 -0.16827745725E+02 -0.37312426960E+02  0.73011030638E+02  0.83701856769E+02  0.00000000000E+00 0.  1.
         21    1    1    2  504  502  0.89687742374E+02 -0.34913328824E+02  0.92234221088E+03  0.92734998012E+03  0.00000000000E+00 0. -1.
         21    1    1    2  505  501 -0.50110976189E+02  0.12577412340E+01  0.56822198692E+02  0.75772383570E+02  0.00000000000E+00 0. -1.
          3    1    1    2  501    0 -0.22749020460E+02  0.70968014550E+02 -0.17190507294E+03  0.18736416712E+03  0.00000000000E+00 0.  1.
<scales pt_clust_3="40.93153" pt_clust_4="14000.00000" pt_clust_5="51.24236" pt_clust_6="74.41238"></scales>
<clustering>
<clus scale="   40.932">  1  3  2 -1</clus>
<clus scale="   51.242">  1  5  2 -1</clus>
<clus scale="   74.412">  2  6  1 -1</clus>
<clus scale="   40.932">  1  3  2 -1</clus>
</clustering>
</event>
<event>
 6    0  0.2433432E+002  0.9197255E+02  0.7546771E-02  0.1298144E+00
         21   -1    0    0  503  502  0.00000000000E+00  0.00000000000E+00  0.75578361965E+02  0.75578361965E+02  0.00000000000E+00 0.  1.
         -1   -1    0    0    0  501 -0.00000000000E+00 -0.00000000000E+00 -0.42293546048E+03  0.42293546048E+03  0.00000000000E+00 0.  1.
         21    1    1    2  503  505  0.44107315723E+01  0.43034865590E+02  0.21073557059E+02  0.48120151875E+02  0.00000000000E+00 0. -1.
         21    1    1    2  504  502 -0.71893187786E+02 -0.90877014586E+02 -0.10664725338E+03  0.15748301142E+03  0.00000000000E+00 0.  1.
         21    1    1    2  505  501  0.36479086635E+02 -0.28935701950E+02 -0.12004705712E+03  0.12876060940E+03  0.00000000000E+00 0.  1.
         -1    1    1    2    0  504  0.31003369579E+02  0.76777850946E+02 -0.14173634506E+03  0.16415004975E+03  0.00000000000E+00 0.  1.
<scales pt_clust_3="43.26031" pt_clust_4="91.97255" pt_clust_5="44.25601" pt_clust_6="14000.00000"></scales>
<clustering>
<clus scale="   43.260">  1  3  2 -1</clus>
<clus scale="   44.256">  2  5  1 -1</clus>
<clus scale="   91.973">  1  4  2 -1</clus>
<clus scale="   43.260">  1  3  2 -1</clus>
</clustering>
</event>
<event>
 6    0  0.2433432E+002  0.9767596E+02  0.7546771E-02  0.1285260E+00
         21   -1    0    0  501  502  0.00000000000E+00  0.00000000000E+00  0.34445192726E+03  0.34445192726E+03  0.00000000000E+00 0.  1.
          3   -1    0    0  505    0 -0.00000000000E+00 -0.00000000000E+00 -0.14721954365E+03  0.14721954365E+03  0.00000000000E+00 0.  1.
         21    1    1    2  503  504 -0.68365466204E+02 -0.13432098279E+02  0.11796177367E+03  0.13700086963E+03  0.00000000000E+00 0.  1.
         21    1    1    2  504  502  0.61105421221E+02  0.34099720414E+02  0.96980269878E+02  0.11959028464E+03  0.00000000000E+00 0.  1.
         21    1    1    2  505  503 -0.51134961049E+02 -0.39883936579E+02  0.90078271183E+02  0.11099372765E+03  0.00000000000E+00 0.  1.
          3    1    1    2  501    0  0.58395006031E+02  0.19216314443E+02 -0.10778793112E+03  0.12408658898E+03  0.00000000000E+00 0.  1.
<scales pt_clust_3="31.96447" pt_clust_4="91.88518" pt_clust_5="31.96447" pt_clust_6="61.47555"></scales>
<clustering>
<clus scale="   31.964">  3  5 -1 -1</clus>
<clus scale="   61.476">  2  6  1 -1</clus>
<clus scale="   91.885">  1  4  2 -1</clus>
<clus scale="   91.885">  1  3  2 -1</clus>
</clustering>
</event>
<event>
 6    0  0.2433432E+002  0.1436685E+03  0.7546771E-02  0.1208476E+00
         21   -1    0    0  504  502  0.00000000000E+00  0.00000000000E+00  0.44502840005E+03  0.44502840005E+03  0.00000000000E+00 0. -1.
          4   -1    0    0  503    0 -0.00000000000E+00 -0.00000000000E+00 -0.13537271500E+03  0.13537271500E+03  0.00000000000E+00 0. -1.
         21    1    1    2  503  505 -0.40805869140E+02  0.76009462100E+02  0.47398593324E+02  0.98433652447E+02  0.00000000000E+00 0. -1.
         21    1    1    2  504  501 -0.43860752510E+02 -0.22120242615E+02  0.24288298871E+03  0.24780076059E+03  0.00000000000E+00 0. -1.
         21    1    1    2  505  502 -0.34591757834E+01  0.50965023724E+02  0.71278424485E+02  0.87692721119E+02  0.00000000000E+00 0.  1.
          4    1    1    2  501    0  0.88125797433E+02 -0.10485424321E+03 -0.51904321468E+02  0.14647398089E+03  0.00000000000E+00 0. -1.
<scales pt_clust_3="38.29631" pt_clust_4="49.12302" pt_clust_5="38.29631" pt_clust_6="134.77303"></scales>
<clustering>
<clus scale="   38.296">  3  5 -1 -1</clus>
<clus scale="   49.123">  1  4  2 -1</clus>
<clus scale="  134.773">  2  6  1 -1</clus>
<clus scale="   49.123">  1  3  2 -1</clus>
</clustering>
</event>
<event>
 6    0  0.2433432E+002  0.1293630E+03  0.7546771E-02  0.1228404E+00
          2   -1    0    0  504    0 -0.00000000000E+00  0.00000000000E+00  0.27494560402E+03  0.27494560402E+03  0.00000000000E+00 0. -1.
         21   -1    0    0  505  502  0.00000000000E+00 -0.00000000000E+00 -0.28039692723E+03  0.28039692723E+03  0.00000000000E+00 0. -1.
         21    1    1    2  503  502  0.17076611869E+02 -0.79962743204E+02 -0.38239171837E+02  0.90265637074E+02  0.00000000000E+00 0. -1.
         21    1    1    2  504  503  0.13437203674E+03  0.66908637583E+02 -0.12923541171E+03  0.19807675704E+03  0.00000000000E+00 0. -1.
         21    1    1    2  505  501 -0.80917880180E+02 -0.67292329883E+02  0.83710461289E+02  0.13447454154E+03  0.00000000000E+00 0. -1.
          2    1    1    2  501    0 -0.70530768432E+02  0.80346435504E+02  0.78312799042E+02  0.13252559559E+03  0.00000000000E+00 0. -1.
<scales pt_clust_3="81.76583" pt_clust_4="14000.00000" pt_clust_5="129.36300" pt_clust_6="98.09059"></scales>
<clustering>
<clus scale="   81.766">  2  3  1 -1</clus>
<clus scale="   98.091">  1  6  2 -1</clus>
<clus scale="  129.363">  1  5  2 -1</clus>
<clus scale="   81.766">  2  3  1 -1</clus>
</clustering>
</event>
<event>
 6    0  0.2433432E+002  0.3060515E+03  0.7546771E-02  0.1082254E+00
          1   -1    0    0  505    0 -0.00000000000E+00  0.00000000000E+00  0.59439342432E+03  0.59439342432E+03  0.00000000000E+00 0.  1.
         21   -1    0    0  501  502  0.00000000000E+00 -0.00000000000E+00 -0.42874391402E+03  0.42874391402E+03  0.00000000000E+00 0.  1.
         21    1    1    2  503  502 -0.26701482452E+03  0.76897872510E+02 -0.15759222828E+03  0.31944562874E+03  0.00000000000E+00 0.  1.
         21    1    1    2  504  503  0.16131095724E+03 -0.19246143012E+02  0.13392579630E+02  0.16300613527E+03  0.00000000000E+00 0.  1.
         21    1    1    2  505  504  0.18264836086E+03  0.73437647194E+02  0.14532040230E+01  0.19686448017E+03  0.00000000000E+00 0.  1.
          1    1    1    2  501    0 -0.76944493588E+02 -0.13108937669E+03  0.30839595492E+03  0.34382109416E+03  0.00000000000E+00 0.  1.
<scales pt_clust_3="292.61890" pt_clust_4="81.46360" pt_clust_5="81.46360" pt_clust_6="152.00289"></scales>
<clustering>
<clus scale="   81.464">  4  5 -1 -1</clus>
<clus scale="  152.003">  1  6  2 -1</clus>
<clus scale="  292.619">  2  3  1 -1</clus>
<clus scale="  292.619">  2  3  1 -1</clus>
</clustering>
</event>
<event>
 6    0  0.2433432E+002  0.7129485E+02  0.7546771E-02  0.1355744E+00
         -2   -1    0    0    0  501 -0.00000000000E+00  0.00000000000E+00  0.14258439683E+03  0.14258439683E+03  0.00000000000E+00 0.  1.
         21   -1    0    0  503  502  0.00000000000E+00 -0.00000000000E+00 -0.62628146251E+03  0.62628146251E+03  0.00000000000E+00 0.  1.
         21    1    1    2  503  505 -0.25160244528E+02 -0.67505721304E+02 -0.39454512689E+03  0.40106846980E+03  0.00000000000E+00 0.  1.
         21    1    1    2  504  502  0.32785692757E+02 -0.58368230801E+02 -0.75703308980E+02  0.10105811698E+03  0.00000000000E+00 0.  1.
         21    1    1    2  505  501  0.69398724416E+01  0.70558157241E+02 -0.12367437381E+03  0.14255513362E+03  0.00000000000E+00 0.  1.
         -2    1    1    2    0  504 -0.14565320670E+02  0.55315794864E+02  0.11022574399E+03  0.12418413895E+03  0.00000000000E+00 0.  1.
<scales pt_clust_3="71.29485" pt_clust_4="39.94422" pt_clust_5="14000.00000" pt_clust_6="57.20127"></scales>
<clustering>
<clus scale="   57.201">  1  6  2 -1</clus>
<clus scale="   39.944">  1  4  2 -1</clus>
<clus scale="   71.295">  2  3  1 -1</clus>
<clus scale="   71.295">  2  3  1 -1</clus>
</clustering>
</event>
<event>
 6    0  0.2433432E+002  0.1698804E+03  0.7546771E-02  0.1177973E+00
          1   -1    0    0  502    0 -0.00000000000E+00  0.00000000000E+00  0.25909019441E+04  0.25909019441E+04  0.00000000000E+00 0. -1.
         21   -1    0    0  503  502  0.00000000000E+00 -0.00000000000E+00 -0.16011619525E+02  0.16011619525E+02  0.00000000000E+00 0.  1.
         21    1    1    2  503  504 -0.36991254048E+02  0.69518715201E+01  0.20009594279E+03  0.20360517605E+03  0.00000000000E+00 0.  1.
         21    1    1    2  504  505 -0.14969549601E+02 -0.15232670227E+03  0.56229460323E+03  0.58275443582E+03  0.00000000000E+00 0.  1.
         21    1    1    2  505  501  0.24442197325E+02  0.97664851481E+02  0.76348400527E+03  0.77009328690E+03  0.00000000000E+00 0. -1.
          1    1    1    2  501    0  0.27518606324E+02  0.47709979273E+02  0.10490157732E+04  0.10504606648E+04  0.00000000000E+00 0. -1.
<scales pt_clust_3="37.63883" pt_clust_4="153.07477" pt_clust_5="54.22990" pt_clust_6="54.22990"></scales>
<clustering>
<clus scale="   37.639">  2  3  1 -1</clus>
<clus scale="   54.230">  5  6 -1 -1</clus>
<clus scale="  153.075">  2  4  1 -1</clus>
<clus scale="   37.639">  2  3  1 -1</clus>
</clustering>
</event>
<event>
 6    0  0.2433432E+002  0.1789006E+03  0.7546771E-02  0.1168871E+00
         21   -1    0    0  505  502  0.00000000000E+00  0.00000000000E+00  0.35629385075E+03  0.35629385075E+03  0.00000000000E+00 0. -1.
         -3   -1    0    0    0  501 -0.00000000000E+00 -0.00000000000E+00 -0.13334517108E+03  0.13334517108E+03  0.00000000000E+00 0. -1.
         21    1    1    2  503  504  0.26890556475E+02  0.87051312235E+02  0.61320472785E+02  0.10982364669E+03  0.00000000000E+00 0. -1.
         21    1    1    2  504  502 -0.79456582031E+01  0.79778162077E+02  0.56417202159E+02  0.98033613257E+02  0.00000000000E+00 0. -1.
         21    1    1    2  505  501  0.15863710903E+02 -0.18476875803E+03  0.13763368093E+03  0.23094194377E+03  0.00000000000E+00 0. -1.
         -3    1    1    2    0  503 -0.34808609175E+02  0.17939283715E+02 -0.32422676206E+02  0.50839818108E+02  0.00000000000E+00 0. -1.
<scales pt_clust_3="31.83187" pt_clust_4="31.83187" pt_clust_5="175.65286" pt_clust_6="39.15938"></scales>
<clustering>
<clus scale="   31.832">  3  4 -1 -1</clus>
<clus scale="   39.159">  2  6  1 -1</clus>
<clus scale="  175.653">  2  5  1 -1</clus>
<clus scale="  178.901">  1  3  2 -1</clus>
</clustering>
</event>
<event>
 6    0  0.2433432E+002  0.1044469E+03  0.7546771E-02  0.1271213E+00
          2   -1    0    0  504    0 -0.00000000000E+00  0.00000000000E+00  0.16479659676E+04  0.16479659676E+04  0.00000000000E+00 0. -1.
         21   -1    0    0  505  502  0.00000000000E+00 -0.00000000000E+00 -0.28747723359E+03  0.28747723359E+03  0.00000000000E+00 0. -1.
         21    1    1    2  503  501  0.91397614351E+02  0.19023500700E+02 -0.92747212105E+02  0.13159583140E+03  0.00000000000E+00 0. -1.
         21    1    1    2  504  502 -0.29110209235E+02  0.26489357251E+02  0.13266902510E+02  0.41534335572E+02  0.00000000000E+00 0. -1.
         21    1    1    2  505  503  0.10344214680E+02  0.30125105102E+02 -0.15786268677E+03  0.16104394620E+03  0.00000000000E+00 0. -1.
          2    1    1    2  501    0 -0.72631619796E+02 -0.75637963052E+02  0.15978317304E+04  0.16012690880E+04  0.00000000000E+00 0. -1.
<scales pt_clust_3="14000.00000" pt_clust_4="40.87987" pt_clust_5="31.85160" pt_clust_6="104.44692"></scales>
<clustering>
<clus scale="   31.852">  2  5  1 -1</clus>
<clus scale="   40.880">  2  4  1 -1</clus>
<clus scale="  104.447">  1  6  2 -1</clus>
<clus scale="   31.852">  2  3  1 -1</clus>
</clustering>
</event>
<event>
 6    0  0.2433432E+002  0.1645963E+03  0.7546771E-02  0.1183603E+00
         21   -1    0    0  503  502  0.00000000000E+00  0.00000000000E+00  0.85412362132E+03  0.85412362132E+03  0.00000000000E+00 0.  1.
          2   -1    0    0  504    0 -0.00000000000E+00 -0.00000000000E+00 -0.29622443293E+03  0.29622443293E+03  0.00000000000E+00 0. -1.
         21    1    1    2  503  501  0.37771855953E+02  0.91567526974E+00  0.71055546177E+03  0.71155928482E+03  0.00000000000E+00 0.  1.
         21    1    1    2  504  505 -0.34045564302E+02  0.10762647004E+03  0.25741978546E+02  0.11578085749E+03  0.00000000000E+00 0. -1.
         21    1    1    2  505  502  0.25353789606E+02  0.36096614089E+02  0.39934377382E+02  0.59502392330E+02  0.00000000000E+00 0. -1.
          2    1    1    2  501    0 -0.29080081256E+02 -0.14463875940E+03 -0.21833262930E+03  0.26350551961E+03  0.00000000000E+00 0. -1.
<scales pt_clust_3="37.78295" pt_clust_4="52.49801" pt_clust_5="52.49801" pt_clust_6="146.33169"></scales>
<clustering>
<clus scale="   37.783">  1  3  2 -1</clus>
<clus scale="   52.498">  4  5 -1 -1</clus>
<clus scale="  146.332">  2  6  1 -1</clus>
<clus scale="   37.783">  1  3  2 -1</clus>
</clustering>
</event>
<event>
 6    0  0.2433432E+002  0.1667042E+03  0.7546771E-02  0.1181329E+00
         -4   -1    0    0    0  501 -0.00000000000E+00  0.00000000000E+00  0.33958700255E+04  0.33958700255E+04  0.00000000000E+00 0. -1.
         21   -1    0    0  504  502  0.00000000000E+00 -0.00000000000E+00 -0.48455397782E+02  0.48455397782E+02  0.00000000000E+00 0.  1.
         21    1    1    2  503  502 -0.11521106814E+03 -0.34239360854E+02  0.61849412184E+02  0.13517127595E+03  0.00000000000E+00 0.  1.
         21    1    1    2  504  501 -0.68712831723E+02 -0.20109899227E+02  0.15356812613E+03  0.16943739449E+03  0.00000000000E+00 0. -1.
         21    1    1    2  505  503  0.11500189581E+03  0.40740543743E+02  0.11457271205E+04  0.11522047833E+04  0.00000000000E+00 0. -1.
         -4    1    1    2    0  505  0.68922004053E+02  0.13608716338E+02  0.19862699689E+04  0.19875119695E+04  0.00000000000E+00 0. -1.
<scales pt_clust_3="166.70418" pt_clust_4="63.57900" pt_clust_5="14000.00000" pt_clust_6="70.25269"></scales>
<clustering>
<clus scale="   70.253">  1  6  2 -1</clus>
<clus scale="   63.579">  2  4  1 -1</clus>
<clus scale="  166.704">  2  3  1 -1</clus>
<clus scale="   63.579">  2  3  1 -1</clus>
</clustering>
</event>
<event>
 6    0  0.2433432E+002  0.1115502E+03  0.7546771E-02  0.1257726E+00
         -2   -1    0    0    0  501 -0.00000000000E+00  0.00000000000E+00  0.33404308294E+03  0.33404308294E+03  0.00000000000E+00 0. -1.
         21   -1    0    0  505  502  0.00000000000E+00 -0.00000000000E+00 -0.11352624046E+03  0.11352624046E+03  0.00000000000E+00 0. -1.
         21    1    1    2  503  501 -0.20138423708E+01  0.69955857136E+02 -0.36088130206E+01  0.70077821314E+02  0.00000000000E+00 0. -1.
         21    1    1    2  504  503 -0.18141042817E+02  0.50864542941E+02  0.23167153545E+02  0.58762370327E+02  0.00000000000E+00 0.  1.
         21    1    1    2  505  504  0.36633758994E+02 -0.18381669793E+02 -0.39449281979E+02  0.56887291472E+02  0.00000000000E+00 0. -1.
         -2    1    1    2    0  502 -0.16478873806E+02 -0.10243873028E+03  0.24040778394E+03  0.26184184029E+03  0.00000000000E+00 0. -1.
<scales pt_clust_3="30.60004" pt_clust_4="30.60004" pt_clust_5="40.98680" pt_clust_6="105.97153"></scales>
<clustering>
<clus scale="   30.600">  3  4 -1 -1</clus>
<clus scale="   40.987">  2  5  1 -1</clus>
<clus scale="  105.972">  1  6  2 -1</clus>
<clus scale="   40.987">  2  3  1 -1</clus>
</clustering>
</event>
<event>
 6    0  0.2433432E+002  0.1402672E+03  0.7546771E-02  0.1212970E+00
          2   -1    0    0  505    0 -0.00000000000E+00  0.00000000000E+00  0.28145334164E+04  0.28145334164E+04  0.00000000000E+00 0.  1.
         21   -1    0    0  504  502  0.00000000000E+00 -0.00000000000E+00 -0.37147033451E+02  0.37147033451E+02  0.00000000000E+00 0. -1.
         21    1    1    2  503  502 -0.18753525570E+02 -0.11096370696E+03  0.16532485702E+03  0.19999236819E+03  0.00000000000E+00 0. -1.
         21    1    1    2  504  501 -0.36035038625E+02  0.51076636395E+02  0.52836467399E+02  0.81847657763E+02  0.00000000000E+00 0. -1.
         21    1    1    2  505  503  0.99603315739E+01 -0.52224345158E+02  0.18343675721E+03  0.19098595322E+03  0.00000000000E+00 0.  1.
          2    1    1    2  501    0  0.44828232622E+02  0.11211141573E+03  0.23757883013E+04  0.23788544706E+04  0.00000000000E+00 0.  1.
<scales pt_clust_3="46.21889" pt_clust_4="62.50877" pt_clust_5="46.21889" pt_clust_6="123.09818"></scales>
<clustering>
<clus scale="   46.219">  3  5 -1 -1</clus>
<clus scale="   62.509">  2  4  1 -1</clus>
<clus scale="  123.098">  1  6  2 -1</clus>
<clus scale="   62.509">  2  3  1 -1</clus>
</clustering>
</event>
<event>
 6    0  0.2433432E+002  0.1364492E+03  0.7546771E-02  0.1218188E+00
         21   -1    0    0  505  502  0.00000000000E+00  0.00000000000E+00  0.76544637181E+02  0.76544637181E+02  0.00000000000E+00 0. -1.
          2   -1    0    0  504    0 -0.00000000000E+00 -0.00000000000E+00 -0.14340548027E+04  0.14340548027E+04  0.00000000000E+00 0. -1.
         21    1    1    2  503  502  0.28701407723E+02  0.27344654402E+02 -0.46347363471E+02  0.60988351596E+02  0.00000000000E+00 0. -1.
         21    1    1    2  504  503 -0.13369471567E+03 -0.81822249230E+02 -0.22014469468E+03  0.27024589555E+03  0.00000000000E+00 0. -1.
         21    1    1    2  505  501 -0.27620716271E+02  0.31078763664E+02  0.29374890828E+02  0.50908523150E+02  0.00000000000E+00 0. -1.
          2    1    1    2  501    0  0.13261402422E+03  0.23398831164E+02 -0.11203929982E+04  0.11284566696E+04  0.00000000000E+00 0. -1.
<scales pt_clust_3="39.64216" pt_clust_4="136.44920" pt_clust_5="48.20200" pt_clust_6="14000.00000"></scales>
<clustering>
<clus scale="   39.642">  1  3  2 -1</clus>
<clus scale="   48.202">  1  5  2 -1</clus>
<clus scale="  136.449">  1  4  2 -1</clus>
<clus scale="   39.642">  1  3  2 -1</clus>
</clustering>
</event>
<event>
 6    0  0.2433432E+002  0.1539003E+03  0.7546771E-02  0.1195761E+00
         21   -1    0    0  504  502  0.00000000000E+00  0.00000000000E+00  0.33290809422E+02  0.33290809422E+02  0.00000000000E+00 0.  1.
          1   -1    0    0  502    0 -0.00000000000E+00 -0.00000000000E+00 -0.15408047588E+04  0.15408047588E+04  0.00000000000E+00 0.  1.
         21    1    1    2  503  501  0.36788407438E+02 -0.10263381705E+03 -0.36773625973E+03  0.38355839717E+03  0.00000000000E+00 0.  1.
         21    1    1    2  504  505 -0.13691526083E+01  0.11543864411E+03 -0.20272280949E+03  0.23329057550E+03  0.00000000000E+00 0.  1.
         21    1    1    2  505  503 -0.44026315127E+02  0.47439534791E+02 -0.10762011581E+03  0.12558230453E+03  0.00000000000E+00 0. -1.
          1    1    1    2  501    0  0.86070602964E+01 -0.60244361852E+02 -0.82943476434E+03  0.83166429100E+03  0.00000000000E+00 0.  1.
<scales pt_clust_3="140.70662" pt_clust_4="46.68070" pt_clust_5="46.68070" pt_clust_6="60.85610"></scales>
<clustering>
<clus scale="   46.681">  4  5 -1 -1</clus>
<clus scale="   60.856">  2  6  1 -1</clus>
<clus scale="  140.707">  2  3  1 -1</clus>
<clus scale="  153.900">  1  3  2 -1</clus>
</clustering>
</event>
<event>
 6    0  0.2433432E+002  0.1137559E+03  0.7546771E-02  0.1253769E+00
          2   -1    0    0  503    0 -0.00000000000E+00  0.00000000000E+00  0.13259982906E+04  0.13259982906E+04  0.00000000000E+00 0. -1.
         21   -1    0    0  504  502  0.00000000000E+00 -0.00000000000E+00 -0.14800066450E+03  0.14800066450E+03  0.00000000000E+00 0. -1.
         21    1    1    2  503  505 -0.75345126986E+02  0.93226990141E+02 -0.63354148987E+02  0.13557989543E+03  0.00000000000E+00 0. -1.
         21    1    1    2  504  501  0.75103107616E+02  0.27728816434E+02  0.41282406916E+02  0.90075530280E+02  0.00000000000E+00 0. -1.
         21    1    1    2  505  502 -0.53329474652E+02 -0.20729327267E+02  0.16803889091E+02  0.59633116338E+02  0.00000000000E+00 0.  1.
          2    1    1    2  501    0  0.53571494023E+02 -0.10022647931E+03  0.11832654790E+04  0.11887104130E+04  0.00000000000E+00 0. -1.
<scales pt_clust_3="14000.00000" pt_clust_4="69.03317" pt_clust_5="57.21659" pt_clust_6="113.75586"></scales>
<clustering>
<clus scale="   57.217">  2  5  1 -1</clus>
<clus scale="   69.033">  2  4  1 -1</clus>
<clus scale="  113.756">  1  6  2 -1</clus>
<clus scale="   57.217">  2  3  1 -1</clus>
</clustering>
</event>
<event>
 6    0  0.2433432E+002  0.9654108E+02  0.7546771E-02  0.1287742E+00
          1   -1    0    0  504    0 -0.00000000000E+00  0.00000000000E+00  0.17931583331E+03  0.17931583331E+03  0.00000000000E+00 0. -1.
         21   -1    0    0  503  502  0.00000000000E+00 -0.00000000000E+00 -0.43370481119E+03  0.43370481119E+03  0.00000000000E+00 0.  1.
         21    1    1    2  503  501 -0.55886923565E+02 -0.16134389834E+00 -0.16436409415E+03  0.17360567302E+03  0.00000000000E+00 0. -1.
         21    1    1    2  504  505  0.24934901691E+02 -0.37866923886E+02 -0.54935940447E+02  0.71229283302E+02  0.00000000000E+00 0. -1.
         21    1    1    2  505  502  0.62339704249E+02 -0.41939716372E+02 -0.18261613702E+03  0.19746855961E+03  0.00000000000E+00 0.  1.
          1    1    1    2  501    0 -0.31387682375E+02  0.79967984156E+02  0.14752719374E+03  0.17071712857E+03  0.00000000000E+00 0. -1.
<scales pt_clust_3="55.88716" pt_clust_4="32.78848" pt_clust_5="32.78848" pt_clust_6="86.82508"></scales>
<clustering>
<clus scale="   32.788">  4  5 -1 -1</clus>
<clus scale="   55.887">  2  3  1 -1</clus>
<clus scale="   86.825">  1  6  2 -1</clus>
<clus scale="   55.887">  2  3  1 -1</clus>
</clustering>
</event>
<event>
 6    0  0.2433432E+002  0.1423181E+03  0.7546771E-02  0.1210243E+00
          4   -1    0    0  504    0 -0.00000000000E+00  0.00000000000E+00  0.22300893609E+04  0.22300893609E+04  0.00000000000E+00 0.  1.
         21   -1    0    0  505  502  0.00000000000E+00 -0.00000000000E+00 -0.11202033512E+03  0.11202033512E+03  0.00000000000E+00 0. -1.
         21    1    1    2  503  502 -0.93248487528E+01 -0.70969275815E+02  0.27876239051E+02  0.76815855249E+02  0.00000000000E+00 0. -1.
         21    1    1    2  504  503 -0.41749798874E+02 -0.98852343621E+02  0.93335861784E+02  0.14221960006E+03  0.00000000000E+00 0. -1.
         21    1    1    2  505  501  0.72996545075E+01  0.12200712168E+03 -0.29069889319E+01  0.12225985965E+03  0.00000000000E+00 0. -1.
          4    1    1    2  501    0  0.43774993119E+02  0.47814497752E+02  0.19997639138E+04  0.20008143810E+04  0.00000000000E+00 0.  1.
<scales pt_clust_3="34.99725" pt_clust_4="34.99725" pt_clust_5="135.71398" pt_clust_6="64.82651"></scales>
<clustering>
<clus scale="   34.997">  3  4 -1 -1</clus>
<clus scale="   64.827">  1  6  2 -1</clus>
<clus scale="  135.714">  2  5  1 -1</clus>
<clus scale="  135.714">  2  3  1 -1</clus>
</clustering>
</event>
<event>
 6    0  0.2433432E+002  0.1075842E+03  0.7546771E-02  0.1265110E+00
         -3   -1    0    0    0  501 -0.00000000000E+00  0.00000000000E+00  0.73838065376E+03  0.73838065376E+03  0.00000000000E+00 0. -1.
         21   -1    0    0  503  502  0.00000000000E+00 -0.00000000000E+00 -0.85089971528E+03  0.85089971528E+03  0.00000000000E+00 0. -1.
         21    1    1    2  503  504  0.37888983151E+02  0.35230109151E+02 -0.23896191743E+03  0.24449853500E+03  0.00000000000E+00 0. -1.
         21    1    1    2  504  501  0.35361149710E+02 -0.41406595486E+02 -0.44174894821E+03  0.44509218181E+03  0.00000000000E+00 0. -1.
         21    1    1    2  505  502  0.14009686891E+02 -0.57592857796E+02 -0.15631015104E+03  0.16717078666E+03  0.00000000000E+00 0. -1.
         -3    1    1    2    0  505 -0.87259819752E+02  0.63769344131E+02  0.72450195515E+03  0.73251886557E+03  0.00000000000E+00 0. -1.
<scales pt_clust_3="51.73718" pt_clust_4="14000.00000" pt_clust_5="53.91046" pt_clust_6="107.58423"></scales>
<clustering>
<clus scale="   51.737">  2  3  1 -1</clus>
<clus scale="   53.910">  2  5  1 -1</clus>
<clus scale="  107.584">  1  6  2 -1</clus>
<clus scale="   51.737">  2  3  1 -1</clus>
</clustering>
</event>
<event>
 6    0  0.2433432E+002  0.1703939E+03  0.7546771E-02  0.1177438E+00
         21   -1    0    0  505  502  0.00000000000E+00  0.00000000000E+00  0.68895667500E+03  0.68895667500E+03  0.00000000000E+00 0.  1.
          2   -1    0    0  504    0 -0.00000000000E+00 -0.00000000000E+00 -0.11561137142E+03  0.11561137142E+03  0.00000000000E+00 0.  1.
         21    1    1    2  503  502 -0.20243996165E+03 -0.11514735427E+02  0.39955503098E+03  0.44806110072E+03  0.00000000000E+00 0.  1.
         21    1    1    2  504  503  0.84269350174E+02  0.66629955822E+02 -0.26637234752E+02  0.11068160040E+03  0.00000000000E+00 0.  1.
         21    1    1    2  505  501  0.32761284746E+02 -0.10816867825E+02  0.16479635567E+02  0.38234602079E+02  0.00000000000E+00 0. -1.
          2    1    1    2  501    0  0.85409326730E+02 -0.44298352570E+02  0.18394787179E+03  0.20759074322E+03  0.00000000000E+00 0.  1.
<scales pt_clust_3="160.55258" pt_clust_4="107.42846" pt_clust_5="34.17436" pt_clust_6="34.17436"></scales>
<clustering>
<clus scale="   34.174">  5  6 -1 -1</clus>
<clus scale="  107.428">  2  4  1 -1</clus>
<clus scale="  160.553">  2  3  1 -1</clus>
<clus scale="  170.394">  1  3  2 -1</clus>
</clustering>
</event>
<event>
 6    0  0.2433432E+002  0.9599431E+02  0.7546771E-02  0.1288952E+00
         21   -1    0    0  505  502  0.00000000000E+00  0.00000000000E+00  0.16973578928E+03  0.16973578928E+03  0.00000000000E+00 0. -1.
          1   -1    0    0  503    0 -0.00000000000E+00 -0.00000000000E+00 -0.22312567270E+04  0.22312567270E+04  0.00000000000E+00 0.  1.
         21    1    1    2  503  502 -0.80889599816E+02 -0.49198770821E+02  0.60397631568E+02  0.11230102541E+03  0.00000000000E+00 0. -1.
         21    1    1    2  504  501  0.41966040271E+02 -0.54381338487E+02 -0.24766093037E+02  0.73019434919E+02  0.00000000000E+00 0.  1.
         21    1    1    2  505  504 -0.25806455113E+02  0.32607700566E+02  0.50756641458E+02  0.65616094930E+02  0.00000000000E+00 0. -1.
          1    1    1    2  501    0  0.64730014658E+02  0.70972408741E+02 -0.21479091177E+04  0.21500559610E+04  0.00000000000E+00 0.  1.
<scales pt_clust_3="95.99431" pt_clust_4="59.69787" pt_clust_5="41.58407" pt_clust_6="14000.00000"></scales>
<clustering>
<clus scale="   41.584">  1  5  2 -1</clus>
<clus scale="   59.698">  1  4  2 -1</clus>
<clus scale="   95.994">  1  3  2 -1</clus>
<clus scale="   41.584">  1  3  2 -1</clus>
</clustering>
</event>
<event>
 6    0  0.2433432E+002  0.1292882E+03  0.7546771E-02  0.1228516E+00
          2   -1    0    0  503    0 -0.00000000000E+00  0.00000000000E+00  0.26029706560E+04  0.26029706560E+04  0.00000000000E+00 0.  1.
         21   -1    0    0  505  502  0.00000000000E+00 -0.00000000000E+00 -0.33992769961E+03  0.33992769961E+03  0.00000000000E+00 0. -1.
         21    1    1    2  503  502 -0.21220621904E+02 -0.31215764038E+02  0.16934324330E+02  0.41370400760E+02  0.00000000000E+00 0. -1.
         21    1    1    2  504  501 -0.12786533877E+03  0.25774841457E+01 -0.62392549281E+02  0.14229904599E+03  0.00000000000E+00 0. -1.
         21    1    1    2  505  504  0.13491039885E+03  0.63892303668E+02 -0.20048526027E+03  0.24995475945E+03  0.00000000000E+00 0. -1.
          2    1    1    2  501    0  0.14175561823E+02 -0.35254023775E+02  0.25089864416E+04  0.25092741494E+04  0.00000000000E+00 0.  1.
<scales pt_clust_3="37.74571" pt_clust_4="129.28815" pt_clust_5="14000.00000" pt_clust_6="38.00651"></scales>
<clustering>
<clus scale="   37.746">  2  3  1 -1</clus>
<clus scale="   38.007">  1  6  2 -1</clus>
<clus scale="  129.288">  1  4  2 -1</clus>
<clus scale="   37.746">  2  3  1 -1</clus>
</clustering>
</event>
<event>
 6    0  0.2433432E+002  0.1259784E+03  0.7546771E-02  0.1233548E+00
          2   -1    0    0  503    0 -0.00000000000E+00  0.00000000000E+00  0.21533808374E+03  0.21533808374E+03  0.00000000000E+00 0.  1.
         21   -1    0    0  504  502  0.00000000000E+00 -0.00000000000E+00 -0.20819811178E+03  0.20819811178E+03  0.00000000000E+00 0.  1.
         21    1    1    2  503  505  0.12877999135E+03 -0.24754909202E+02 -0.49459064446E+02  0.14015452457E+03  0.00000000000E+00 0.  1.
         21    1    1    2  504  501 -0.28637604248E+02 -0.29778248718E+02 -0.38235387927E+02  0.56292107473E+02  0.00000000000E+00 0.  1.
         21    1    1    2  505  502  0.24287928511E+02  0.46057223301E+02 -0.21690606737E+02  0.56406149578E+02  0.00000000000E+00 0.  1.
          2    1    1    2  501    0 -0.12443031562E+03  0.84759346186E+01  0.11652503107E+03  0.17068341389E+03  0.00000000000E+00 0.  1.
<scales pt_clust_3="14000.00000" pt_clust_4="41.31412" pt_clust_5="42.52737" pt_clust_6="125.97840"></scales>
<clustering>
<clus scale="   41.314">  2  4  1 -1</clus>
<clus scale="   42.527">  2  5  1 -1</clus>
<clus scale="  125.978">  1  6  2 -1</clus>
<clus scale="   41.314">  2  3  1 -1</clus>
</clustering>
</event>
<event>
 6    0  0.2433432E+002  0.1121288E+03  0.7546771E-02  0.1256678E+00
         21   -1    0    0  503  502  0.00000000000E+00  0.00000000000E+00  0.52915147566E+03  0.52915147566E+03  0.00000000000E+00 0. -1.
          2   -1    0    0  504    0 -0.00000000000E+00 -0.00000000000E+00 -0.70251677579E+03  0.70251677579E+03  0.00000000000E+00 0. -1.
         21    1    1    2  503  505  0.37975146811E+02  0.40708055963E+01  0.23288526659E+03  0.23599625130E+03  0.00000000000E+00 0. -1.
         21    1    1    2  504  502 -0.79040021865E+02 -0.43661831756E+01  0.84347689842E+02  0.11567593265E+03  0.00000000000E+00 0. -1.
         21    1    1    2  505  501 -0.28061266788E+02 -0.88767728710E+02  0.17857838656E+03  0.20138864044E+03  0.00000000000E+00 0. -1.
          2    1    1    2  501    0  0.69126141842E+02  0.89063106289E+02 -0.66917664311E+03  0.67860742707E+03  0.00000000000E+00 0. -1.
<scales pt_clust_3="38.19271" pt_clust_4="66.22023" pt_clust_5="14000.00000" pt_clust_6="112.12884"></scales>
<clustering>
<clus scale="   38.193">  1  3  2 -1</clus>
<clus scale="   66.220">  1  4  2 -1</clus>
<clus scale="  112.129">  2  6  1 -1</clus>
<clus scale="   38.193">  1  3  2 -1</clus>
</clustering>
</event>
<event>
 6    0  0.2433432E+002  0.1236391E+03  0.7546771E-02  0.1237212E+00
         21   -1    0    0  501  502  0.00000000000E+00  0.00000000000E+00  0.25779161283E+02  0.25779161283E+02  0.00000000000E+00 0.  1.
          2   -1    0    0  505    0 -0.00000000000E+00 -0.00000000000E+00 -0.29527423855E+04  0.29527423855E+04  0.00000000000E+00 0.  1.
         21    1    1    2  503  504 -0.94676191527E+02 -0.68071761844E+02 -0.16604087324E+04  0.16644982742E+04  0.00000000000E+00 0.  1.
         21    1    1    2  504  502 -0.30876458184E+01  0.48883186275E+02 -0.23156105132E+02  0.54178452008E+02  0.00000000000E+00 0.  1.
         21    1    1    2  505  503  0.32222031734E+01 -0.33510482032E+02 -0.88063722704E+03  0.88128046651E+03  0.00000000000E+00 0. -1.
          2    1    1    2  501    0  0.94541634172E+02  0.52699057601E+02 -0.36276115960E+03  0.37856435408E+03  0.00000000000E+00 0.  1.
<scales pt_clust_3="123.63912" pt_clust_4="48.35263" pt_clust_5="33.66504" pt_clust_6="14000.00000"></scales>
<clustering>
<clus scale="   33.665">  2  5  1 -1</clus>
<clus scale="   48.353">  1  4  2 -1</clus>
<clus scale="  123.639">  2  3  1 -1</clus>
<clus scale="   48.353">  1  3  2 -1</clus>
</clustering>
</event>
<event>
 6    0  0.2433432E+002  0.3701774E+03  0.7546771E-02  0.1054625E+00
         21   -1    0    0  503  502  0.00000000000E+00  0.00000000000E+00  0.21334132455E+03  0.21334132455E+03  0.00000000000E+00 0.  1.
          1   -1    0    0  505    0 -0.00000000000E+00 -0.00000000000E+00 -0.92743527795E+03  0.92743527795E+03  0.00000000000E+00 0.  1.
         21    1    1    2  503  501 -0.95041371600E+02  0.20561480210E+02  0.14602933915E+02  0.98330475759E+02  0.00000000000E+00 0.  1.
         21    1    1    2  504  502  0.23898777312E+03  0.99505427869E+02 -0.28700197279E+03  0.38650565101E+03  0.00000000000E+00 0.  1.
         21    1    1    2  505  504  0.12502027125E+03  0.78514261667E+02 -0.10286373997E+03  0.17993194966E+03  0.00000000000E+00 0. -1.
          1    1    1    2  501    0 -0.26896667277E+03 -0.19858116975E+03 -0.33883117455E+03  0.47600852606E+03  0.00000000000E+00 0.  1.
<scales pt_clust_3="97.24010" pt_clust_4="51.56959" pt_clust_5="51.56959" pt_clust_6="363.82402"></scales>
<clustering>
<clus scale="   51.570">  4  5 -1 -1</clus>
<clus scale="   97.240">  1  3  2 -1</clus>
<clus scale="  363.824">  2  6  1 -1</clus>
<clus scale="   97.240">  1  3  2 -1</clus>
</clustering>
</event>
<event>
 6    0  0.2433432E+002  0.1233717E+03  0.7546771E-02  0.1237636E+00
         21   -1    0    0  505  502  0.00000000000E+00  0.00000000000E+00  0.10147079103E+03  0.10147079103E+03  0.00000000000E+00 0. -1.
         -4   -1    0    0    0  501 -0.00000000000E+00 -0.00000000000E+00 -0.71970962985E+03  0.71970962985E+03  0.00000000000E+00 0. -1.
         21    1    1    2  503  502  0.44352157946E+02 -0.47158013365E+01 -0.41030238323E+02  0.60603903782E+02  0.00000000000E+00 0. -1.
         21    1    1    2  504  501 -0.54911628495E+02 -0.17221153886E+02  0.16053902844E+02  0.59745986323E+02  0.00000000000E+00 0. -1.
         21    1    1    2  505  504 -0.63776029277E+02 -0.66220161112E+02  0.44994649541E+01  0.92047470540E+02  0.00000000000E+00 0. -1.
         -4    1    1    2    0  503  0.74335499825E+02  0.88157116335E+02 -0.59776196829E+03  0.60878306023E+03  0.00000000000E+00 0. -1.
<scales pt_clust_3="44.60216" pt_clust_4="31.34484" pt_clust_5="31.34484" pt_clust_6="116.83738"></scales>
<clustering>
<clus scale="   31.345">  4  5 -1 -1</clus>
<clus scale="   44.602">  1  3  2 -1</clus>
<clus scale="  116.837">  2  6  1 -1</clus>
<clus scale="   44.602">  1  3  2 -1</clus>
</clustering>
</event>
<event>
 6    0  0.2433432E+002  0.1130503E+03  0.7546771E-02  0.1255023E+00
          2   -1    0    0  505    0 -0.00000000000E+00  0.00000000000E+00  0.98066493627E+03  0.98066493627E+03  0.00000000000E+00 0. -1.
         21   -1    0    0  504  502  0.00000000000E+00 -0.00000000000E+00 -0.37655688802E+03  0.37655688802E+03  0.00000000000E+00 0. -1.
         21    1    1    2  503  501 -0.10865805412E+03 -0.55406679300E+02  0.19960807840E+03  0.23392276033E+03  0.00000000000E+00 0. -1.
         21    1    1    2  504  503 -0.30721922877E+02  0.92612050259E+01 -0.14785640485E+02  0.35330180135E+02  0.00000000000E+00 0.  1.
         21    1    1    2  505  502  0.11425823671E+03  0.64757824713E+02 -0.32110159624E+03  0.34692182927E+03  0.00000000000E+00 0. -1.
          2    1    1    2  501    0  0.25121740286E+02 -0.18612350438E+02  0.74038720657E+03  0.74104705456E+03  0.00000000000E+00 0. -1.
<scales pt_clust_3="14000.00000" pt_clust_4="30.83112" pt_clust_5="113.05035" pt_clust_6="31.26534"></scales>
<clustering>
<clus scale="   31.265">  1  6  2 -1</clus>
<clus scale="   30.831">  2  4  1 -1</clus>
<clus scale="  113.050">  2  5  1 -1</clus>
<clus scale="   30.831">  2  3  1 -1</clus>
</clustering>
</event>
<event>
 6    0  0.2433432E+002  0.1420090E+03  0.7546771E-02  0.1210651E+00
          2   -1    0    0  503    0 -0.00000000000E+00  0.00000000000E+00  0.30173195000E+04  0.30173195000E+04  0.00000000000E+00 0.  1.
         21   -1    0    0  504  502  0.00000000000E+00 -0.00000000000E+00 -0.19742956678E+02  0.19742956678E+02  0.00000000000E+00 0.  1.
         21    1    1    2  503  502  0.45728122944E+02  0.12622556618E+02  0.14087659772E+03  0.14864927160E+03  0.00000000000E+00 0. -1.
         21    1    1    2  504  505 -0.36437864988E+02 -0.92088649032E+01  0.69366109564E+02  0.78893462047E+02  0.00000000000E+00 0.  1.
         21    1    1    2  505  501  0.18372117224E+02 -0.14236858770E+03  0.57478298319E+03  0.59243719264E+03  0.00000000000E+00 0.  1.
          2    1    1    2  501    0 -0.27662375180E+02  0.13895489598E+03  0.22125508529E+04  0.22170825304E+04  0.00000000000E+00 0.  1.
<scales pt_clust_3="37.69024" pt_clust_4="37.58352" pt_clust_5="14000.00000" pt_clust_6="142.00899"></scales>
<clustering>
<clus scale="   37.584">  2  4  1 -1</clus>
<clus scale="   37.690">  2  3  1 -1</clus>
<clus scale="  142.009">  1  6  2 -1</clus>
<clus scale="   37.584">  2  3  1 -1</clus>
</clustering>
</event>
<event>
 6    0  0.2433432E+002  0.1384646E+03  0.7546771E-02  0.1215410E+00
         21   -1    0    0  503  502  0.00000000000E+00  0.00000000000E+00  0.12573254978E+03  0.12573254978E+03  0.00000000000E+00 0. -1.
          1   -1    0    0  505    0 -0.00000000000E+00 -0.00000000000E+00 -0.18978210649E+04  0.18978210649E+04  0.00000000000E+00 0. -1.
         21    1    1    2  503  501  0.10414541045E+03  0.20382967720E+03 -0.51499173520E+02  0.23461664198E+03  0.00000000000E+00 0. -1.
         21    1    1    2  504  502 -0.46161646835E+02 -0.98081374772E+02 -0.10358400169E+03  0.14993498299E+03  0.00000000000E+00 0. -1.
         21    1    1    2  505  504 -0.47194514987E+02 -0.14138270952E+03 -0.50908776822E+03  0.53045899799E+03  0.00000000000E+00 0. -1.
          1    1    1    2  501    0 -0.10789248624E+02  0.35634407101E+02 -0.11079175717E+04  0.11085429918E+04  0.00000000000E+00 0. -1.
<scales pt_clust_3="14000.00000" pt_clust_4="104.03993" pt_clust_5="138.46455" pt_clust_6="37.23196"></scales>
<clustering>
<clus scale="   37.232">  2  6  1 -1</clus>
<clus scale="  104.040">  1  4  2 -1</clus>
<clus scale="  138.465">  2  5  1 -1</clus>
<clus scale="  104.040">  1  3  2 -1</clus>
</clustering>
</event>
<event>
 6    0  0.2433432E+002  0.1388744E+03  0.7546771E-02  0.1214852E+00
         21   -1    0    0  505  502  0.00000000000E+00  0.00000000000E+00  0.26657095443E+04  0.26657095443E+04  0.00000000000E+00 0.  1.
          1   -1    0    0  502    0 -0.00000000000E+00 -0.00000000000E+00 -0.70932086302E+02  0.70932086302E+02  0.00000000000E+00 0.  1.
         21    1    1    2  503  504 -0.51432817680E+02 -0.22301922559E+01  0.61023092396E+02  0.79838125589E+02  0.00000000000E+00 0.  1.
         21    1    1    2  504  501 -0.42578198938E+02  0.22003130913E+02  0.91727401297E+02  0.10349375316E+03  0.00000000000E+00 0.  1.
         21    1    1    2  505  503  0.13169308800E+03  0.54013231072E+02  0.24635898795E+04  0.24676984404E+04  0.00000000000E+00 0.  1.
          1    1    1    2  501    0 -0.37682071380E+02 -0.73786169729E+02 -0.21562915118E+02  0.85611311491E+02  0.00000000000E+00 0.  1.
<scales pt_clust_3="31.24780" pt_clust_4="31.24780" pt_clust_5="135.04543" pt_clust_6="82.85130"></scales>
<clustering>
<clus scale="   31.248">  3  4 -1 -1</clus>
<clus scale="   82.851">  2  6  1 -1</clus>
<clus scale="  135.045">  1  5  2 -1</clus>
<clus scale="  135.045">  1  3  2 -1</clus>
</clustering>
</event>
<event>
 6    0  0.2433432E+002  0.1784226E+03  0.7546771E-02  0.1169338E+00
         21   -1    0    0  505  502  0.00000000000E+00  0.00000000000E+00  0.17678300703E+03  0.17678300703E+03  0.00000000000E+00 0. -1.
          1   -1    0    0  504    0 -0.00000000000E+00 -0.00000000000E+00 -0.31493676532E+04  0.31493676532E+04  0.00000000000E+00 0.  1.
         21    1    1    2  503  501  0.47790357448E+02  0.12219983476E+03  0.51298706734E+02  0.14088390679E+03  0.00000000000E+00 0. -1.
         21    1    1    2  504  502  0.24900323935E+02  0.34390509987E+02 -0.67429986210E+02  0.79683977998E+02  0.00000000000E+00 0. -1.
         21    1    1    2  505  503 -0.59285909748E+02  0.22808239237E+02  0.57849569381E+02  0.85916282213E+02  0.00000000000E+00 0. -1.
          1    1    1    2  501    0 -0.13404771635E+02 -0.17939858398E+03 -0.30143029361E+04  0.30196664932E+04  0.00000000000E+00 0.  1.
<scales pt_clust_3="178.42265" pt_clust_4="42.45861" pt_clust_5="61.41696" pt_clust_6="14000.00000"></scales>
<clustering>
<clus scale="   42.459">  1  4  2 -1</clus>
<clus scale="   61.417">  1  5  2 -1</clus>
<clus scale="  178.423">  1  3  2 -1</clus>
<clus scale="   42.459">  1  3  2 -1</clus>
</clustering>
</event>
<event>
 6    0  0.2433432E+002  0.1017588E+03  0.7546771E-02  0.1276640E+00
         21   -1    0    0  503  502  0.00000000000E+00  0.00000000000E+00  0.33918857728E+03  0.33918857728E+03  0.00000000000E+00 0. -1.
          1   -1    0    0  504    0 -0.00000000000E+00 -0.00000000000E+00 -0.19041823739E+04  0.19041823739E+04  0.00000000000E+00 0. -1.
         21    1    1    2  503  501 -0.44413453191E+02 -0.17789310769E+02  0.10568585980E+01  0.47855316863E+02  0.00000000000E+00 0. -1.
         21    1    1    2  504  505 -0.10920284473E+03  0.73573114489E+02  0.13812108997E+03  0.19082898094E+03  0.00000000000E+00 0. -1.
         21    1    1    2  505  502  0.81291701713E+02  0.15463308713E+02  0.13735939334E+03  0.16035915197E+03  0.00000000000E+00 0. -1.
          1    1    1    2  501    0  0.72324596205E+02 -0.71247112432E+02 -0.18415311385E+04  0.18443275014E+04  0.00000000000E+00 0. -1.
<scales pt_clust_3="47.84365" pt_clust_4="101.75880" pt_clust_5="60.69620" pt_clust_6="14000.00000"></scales>
<clustering>
<clus scale="   47.844">  1  3  2 -1</clus>
<clus scale="   60.696">  1  5  2 -1</clus>
<clus scale="  101.759">  1  4  2 -1</clus>
<clus scale="   47.844">  1  3  2 -1</clus>
</clustering>
</event>
<event>
 6    0  0.2433432E+002  0.1608667E+03  0.7546771E-02  0.1187722E+00
         21   -1    0    0  503  502  0.00000000000E+00  0.00000000000E+00  0.95035183111E+03  0.95035183111E+03  0.00000000000E+00 0. -1.
          3   -1    0    0  505    0 -0.00000000000E+00 -0.00000000000E+00 -0.11235528137E+03  0.11235528137E+03  0.00000000000E+00 0. -1.
         21    1    1    2  503  501 -0.10959607061E+03 -0.83573078340E+02  0.14120770221E+03  0.19732048368E+03  0.00000000000E+00 0. -1.
         21    1    1    2  504  502 -0.95766618870E+02  0.37441496652E+02  0.52424743754E+03  0.53423635849E+03  0.00000000000E+00 0. -1.
         21    1    1    2  505  504  0.65341555801E+02 -0.73440387382E+02  0.53887724362E+02  0.11210216880E+03  0.00000000000E+00 0. -1.
          3    1    1    2  501    0  0.14002113368E+03  0.11957196907E+03  0.11865368562E+03  0.21904810151E+03  0.00000000000E+00 0. -1.
<scales pt_clust_3="14000.00000" pt_clust_4="97.60693" pt_clust_5="98.30061" pt_clust_6="160.86668"></scales>
<clustering>
<clus scale="   98.301">  2  5  1 -1</clus>
<clus scale="   97.607">  1  4  2 -1</clus>
<clus scale="  160.867">  2  6  1 -1</clus>
<clus scale="   97.607">  1  3  2 -1</clus>
</clustering>
</event>
<event>
 6    0  0.7414256E+002  0.9654322E+02  0.7546771E-02  0.1287738E+00
          2   -1    0    0  503    0 -0.00000000000E+00  0.00000000000E+00  0.37513326846E+04  0.37513326846E+04  0.00000000000E+00 0.  1.
         21   -1    0    0  505  502  0.00000000000E+00 -0.00000000000E+00 -0.54180644463E+03  0.54180644463E+03  0.00000000000E+00 0. -1.
         21    1    1    2  503  504  0.48697030363E+02  0.35166103292E+02  0.32507863219E+01  0.60154993131E+02  0.00000000000E+00 0.  1.
         21    1    1    2  504  502 -0.50218577461E+02  0.14558753071E+02  0.25544996021E+02  0.58192865842E+02  0.00000000000E+00 0.  1.
         21    1    1    2  505  501 -0.40855259016E+02 -0.13640792319E+03 -0.48618405638E+03  0.50660755065E+03  0.00000000000E+00 0. -1.
          2    1    1    2  501    0  0.42376806114E+02  0.86683066828E+02  0.36669145140E+04  0.36681837196E+04  0.00000000000E+00 0.  1.
<scales pt_clust_3="58.36686" pt_clust_4="52.28635" pt_clust_5="14000.00000" pt_clust_6="96.54322"></scales>
<clustering>
<clus scale="   52.286">  2  4  1 -1</clus>
<clus scale="   58.367">  2  3  1 -1</clus>
<clus scale="   96.543">  1  6  2 -1</clus>
<clus scale="   52.286">  2  3  1 -1</clus>
</clustering>
</event>
<event>
 6    0  0.2433432E+002  0.1089437E+03  0.7546771E-02  0.1262539E+00
          1   -1    0    0  504    0 -0.00000000000E+00  0.00000000000E+00  0.19418545022E+04  0.19418545022E+04  0.00000000000E+00 0. -1.
         21   -1    0    0  505  502  0.00000000000E+00 -0.00000000000E+00 -0.18147550666E+02  0.18147550666E+02  0.00000000000E+00 0.  1.
         21    1    1    2  503  502 -0.28535307527E+02  0.22988558155E+02  0.83857189585E+02  0.91513746655E+02  0.00000000000E+00 0.  1.
         21    1    1    2  504  503 -0.39061835124E+02  0.13881322871E+02  0.23255443326E+03  0.23622041088E+03  0.00000000000E+00 0.  1.
         21    1    1    2  505  501 -0.49962349151E+02 -0.65836874617E+02  0.16157118487E+03  0.18148272142E+03  0.00000000000E+00 0.  1.
          1    1    1    2  501    0  0.11755949180E+03  0.28966993591E+02  0.14457241438E+04  0.14507851739E+04  0.00000000000E+00 0. -1.
<scales pt_clust_3="34.73059" pt_clust_4="34.73059" pt_clust_5="82.64823" pt_clust_6="102.48961"></scales>
<clustering>
<clus scale="   34.731">  3  4 -1 -1</clus>
<clus scale="   82.648">  2  5  1 -1</clus>
<clus scale="  102.490">  1  6  2 -1</clus>
<clus scale="   82.648">  2  3  1 -1</clus>
</clustering>
</event>
<event>
 6    0  0.2433432E+002  0.1115264E+03  0.7546771E-02  0.1257769E+00
          2   -1    0    0  505    0 -0.00000000000E+00  0.00000000000E+00  0.13606335804E+04  0.13606335804E+04  0.00000000000E+00 0.  1.
         21   -1    0    0  501  502  0.00000000000E+00 -0.00000000000E+00 -0.10878806262E+03  0.10878806262E+03  0.00000000000E+00 0.  1.
         21    1    1    2  503  502 -0.50063315905E+02  0.53887104307E+01 -0.38848489413E+02  0.63597004090E+02  0.00000000000E+00 0.  1.
         21    1    1    2  504  503  0.80309346839E+02 -0.51156324285E+02 -0.44157365064E+00  0.95219513185E+02  0.00000000000E+00 0.  1.
         21    1    1    2  505  504  0.36707194222E+02 -0.17702478824E+02  0.43665495361E+02  0.59728312794E+02  0.00000000000E+00 0.  1.
          2    1    1    2  501    0 -0.66953225155E+02  0.63470092678E+02  0.12474700855E+04  0.12508768130E+04  0.00000000000E+00 0.  1.
<scales pt_clust_3="50.35250" pt_clust_4="39.82703" pt_clust_5="39.82703" pt_clust_6="93.44525"></scales>
<clustering>
<clus scale="   39.827">  4  5 -1 -1</clus>
<clus scale="   50.352">  2  3  1 -1</clus>
<clus scale="   93.445">  1  6  2 -1</clus>
<clus scale="   50.352">  2  3  1 -1</clus>
</clustering>
</event>
<event>
 6    0  0.2433432E+002  0.1031021E+03  0.7546771E-02  0.1273905E+00
         21   -1    0    0  503  502  0.00000000000E+00  0.00000000000E+00  0.38230081807E+02  0.38230081807E+02  0.00000000000E+00 0. -1.
          2   -1    0    0  505    0 -0.00000000000E+00 -0.00000000000E+00 -0.14041592786E+04  0.14041592786E+04  0.00000000000E+00 0. -1.
         21    1    1    2  503  504 -0.11878091857E+03 -0.90994009212E+01 -0.12790583779E+03  0.17479018580E+03  0.00000000000E+00 0. -1.
         21    1    1    2  504  501  0.59815808724E+02  0.66956868262E+02 -0.23860637068E+03  0.25493950912E+03  0.00000000000E+00 0. -1.
         21    1    1    2  505  502 -0.59144707158E+01 -0.38555980821E+02 -0.65084617017E+02  0.75878534469E+02  0.00000000000E+00 0. -1.
          2    1    1    2  501    0  0.64879580558E+02 -0.19301486520E+02 -0.93433237126E+03  0.93678113097E+03  0.00000000000E+00 0. -1.
<scales pt_clust_3="103.10212" pt_clust_4="14000.00000" pt_clust_5="39.00698" pt_clust_6="67.90366"></scales>
<clustering>
<clus scale="   39.007">  1  5  2 -1</clus>
<clus scale="   67.904">  2  6  1 -1</clus>
<clus scale="  103.102">  1  3  2 -1</clus>
<clus scale="   39.007">  1  3  2 -1</clus>
</clustering>
</event>
<event>
 6    0  0.2433432E+002  0.9786738E+02  0.7546771E-02  0.1284846E+00
         21   -1    0    0  504  502  0.00000000000E+00  0.00000000000E+00  0.26482639821E+03  0.26482639821E+03  0.00000000000E+00 0.  1.
         -2   -1    0    0    0  501 -0.00000000000E+00 -0.00000000000E+00 -0.17107425585E+04  0.17107425585E+04  0.00000000000E+00 0. -1.
         21    1    1    2  503  502  0.43451272569E+02  0.18694422487E+01  0.18244445461E+03  0.18755662323E+03  0.00000000000E+00 0.  1.
         21    1    1    2  504  501 -0.14528392213E+03 -0.39111531031E+01 -0.20741954464E+03  0.25326978234E+03  0.00000000000E+00 0.  1.
         21    1    1    2  505  503  0.48478102606E+02  0.47692633555E+02  0.35428977352E+02  0.76680676601E+02  0.00000000000E+00 0. -1.
         -2    1    1    2    0  505  0.53354546956E+02 -0.45650922701E+02 -0.14563700476E+04  0.14580618745E+04  0.00000000000E+00 0. -1.
<scales pt_clust_3="43.49147" pt_clust_4="97.86738" pt_clust_5="14000.00000" pt_clust_6="70.55673"></scales>
<clustering>
<clus scale="   43.491">  1  3  2 -1</clus>
<clus scale="   70.557">  2  6  1 -1</clus>
<clus scale="   97.867">  2  4  1 -1</clus>
<clus scale="   43.491">  1  3  2 -1</clus>
</clustering>
</event>
<event>
 6    0  0.2433432E+002  0.2281358E+03  0.7546771E-02  0.1127959E+00
         21   -1    0    0  504  502  0.00000000000E+00  0.00000000000E+00  0.67390634944E+02  0.67390634944E+02  0.00000000000E+00 0. -1.
          2   -1    0    0  505    0 -0.00000000000E+00 -0.00000000000E+00 -0.33688368220E+04  0.33688368220E+04  0.00000000000E+00 0. -1.
         21    1    1    2  503  501 -0.23849825805E+02 -0.10160833308E+03 -0.20457379192E+03  0.22965953906E+03  0.00000000000E+00 0. -1.
         21    1    1    2  504  503  0.37183015499E+02 -0.15107733138E+03 -0.16885915209E+03  0.22960912426E+03  0.00000000000E+00 0. -1.
         21    1    1    2  505  502 -0.14614993678E+02  0.45065132592E+02 -0.62020986143E+01  0.47780019286E+02  0.00000000000E+00 0. -1.
          2    1    1    2  501    0  0.12818039843E+01  0.20762053187E+03 -0.29218111444E+04  0.29291787743E+04  0.00000000000E+00 0. -1.
<scales pt_clust_3="74.77332" pt_clust_4="74.77332" pt_clust_5="47.37578" pt_clust_6="211.18292"></scales>
<clustering>
<clus scale="   47.376">  1  5  2 -1</clus>
<clus scale="   74.773">  3  4 -1 -1</clus>
<clus scale="  211.183">  2  6  1 -1</clus>
<clus scale="   47.376">  1  3  2 -1</clus>
</clustering>
</event>
<event>
 6    0  0.2433432E+002  0.9003006E+02  0.7546771E-02  0.1302779E+00
         21   -1    0    0  503  502  0.00000000000E+00  0.00000000000E+00  0.17795139334E+03  0.17795139334E+03  0.00000000000E+00 0. -1.
          1   -1    0    0  504    0 -0.00000000000E+00 -0.00000000000E+00 -0.15552140271E+03  0.15552140271E+03  0.00000000000E+00 0.  1.
         21    1    1    2  503  501  0.47991072117E+02 -0.21240870845E+02  0.42015211917E+02  0.67227937865E+02  0.00000000000E+00 0. -1.
         21    1    1    2  504  505 -0.60421235456E+02 -0.52410268028E+02 -0.34850786039E+02  0.87247574043E+02  0.00000000000E+00 0. -1.
         21    1    1    2  505  502 -0.55920457944E+02 -0.90491231285E+01  0.39430137944E+02  0.69019707507E+02  0.00000000000E+00 0. -1.
          1    1    1    2  501    0  0.68350621283E+02  0.82700262001E+02 -0.24164573192E+02  0.10997757663E+03  0.00000000000E+00 0.  1.
<scales pt_clust_3="52.48159" pt_clust_4="14000.00000" pt_clust_5="39.37715" pt_clust_6="90.03006"></scales>
<clustering>
<clus scale="   52.482">  1  3  2 -1</clus>
<clus scale="   39.377">  1  5  2 -1</clus>
<clus scale="   90.030">  1  6  2 -1</clus>
<clus scale="   52.482">  1  3  2 -1</clus>
</clustering>
</event>
<event>
 6    0  0.2433432E+002  0.1110801E+03  0.7546771E-02  0.1258583E+00
         21   -1    0    0  505  502  0.00000000000E+00  0.00000000000E+00  0.23243304174E+02  0.23243304174E+02  0.00000000000E+00 0. -1.
          2   -1    0    0  503    0 -0.00000000000E+00 -0.00000000000E+00 -0.18968110852E+04  0.18968110852E+04  0.00000000000E+00 0.  1.
         21    1    1    2  503  504  0.58264477558E+01 -0.95591764768E+02 -0.26573907615E+03  0.28246944893E+03  0.00000000000E+00 0. -1.
         21    1    1    2  504  502 -0.87682324738E+02 -0.34208765898E+02 -0.47700579198E+03  0.48620258670E+03  0.00000000000E+00 0. -1.
         21    1    1    2  505  501  0.47371170679E+02  0.15822327367E+02 -0.83390410731E+02  0.97202543468E+02  0.00000000000E+00 0. -1.
          2    1    1    2  501    0  0.34484706303E+02  0.11397820330E+03 -0.10474325022E+04  0.10541798103E+04  0.00000000000E+00 0.  1.
<scales pt_clust_3="14000.00000" pt_clust_4="80.08205" pt_clust_5="49.94371" pt_clust_6="111.08012"></scales>
<clustering>
<clus scale="   49.944">  1  5  2 -1</clus>
<clus scale="   80.082">  1  4  2 -1</clus>
<clus scale="  111.080">  2  6  1 -1</clus>
<clus scale="   49.944">  1  3  2 -1</clus>
</clustering>
</event>
<event>
 6    0  0.2433432E+002  0.7922098E+02  0.7546771E-02  0.1331277E+00
         21   -1    0    0  505  502  0.00000000000E+00  0.00000000000E+00  0.32632242363E+02  0.32632242363E+02  0.00000000000E+00 0.  1.
          2   -1    0    0  502    0 -0.00000000000E+00 -0.00000000000E+00 -0.14653700154E+04  0.14653700154E+04  0.00000000000E+00 0.  1.
         21    1    1    2  503  504 -0.47431424322E+02  0.26096025969E+02 -0.29748580105E+02  0.61771519351E+02  0.00000000000E+00 0.  1.
         21    1    1    2  504  501  0.11746286646E+03 -0.36551310958E+02 -0.31606588984E+03  0.33916245378E+03  0.00000000000E+00 0.  1.
         21    1    1    2  505  503 -0.17236071651E+02 -0.42959221204E+02 -0.14621805608E+03  0.15336980399E+03  0.00000000000E+00 0. -1.
          2    1    1    2  501    0 -0.52795370492E+02  0.53414506193E+02 -0.94070524700E+03  0.94369848063E+03  0.00000000000E+00 0.  1.
<scales pt_clust_3="56.98089" pt_clust_4="14000.00000" pt_clust_5="46.28798" pt_clust_6="79.22098"></scales>
<clustering>
<clus scale="   46.288">  1  5  2 -1</clus>
<clus scale="   56.981">  1  3  2 -1</clus>
<clus scale="   79.221">  2  6  1 -1</clus>
<clus scale="   46.288">  1  3  2 -1</clus>
</clustering>
</event>
<event>
 6    0  0.2433432E+002  0.7662232E+02  0.7546771E-02  0.1338920E+00
          2   -1    0    0  505    0 -0.00000000000E+00  0.00000000000E+00  0.13838049757E+04  0.13838049757E+04  0.00000000000E+00 0. -1.
         21   -1    0    0  504  502  0.00000000000E+00 -0.00000000000E+00 -0.39946750978E+02  0.39946750978E+02  0.00000000000E+00 0. -1.
         21    1    1    2  503  501  0.73469926440E+02  0.45387859089E+02  0.32617469170E+03  0.33741342200E+03  0.00000000000E+00 0.  1.
         21    1    1    2  504  503 -0.52168065716E+02  0.14541492334E+02 -0.41385964381E+01  0.54314731522E+02  0.00000000000E+00 0. -1.
         21    1    1    2  505  502 -0.24892580845E+01  0.39441755002E+02  0.18933513162E+03  0.19341571940E+03  0.00000000000E+00 0.  1.
          2    1    1    2  501    0 -0.18812602640E+02 -0.99371106425E+02  0.83248699788E+03  0.83860785379E+03  0.00000000000E+00 0. -1.
<scales pt_clust_3="76.62232" pt_clust_4="54.43576" pt_clust_5="39.52023" pt_clust_6="14000.00000"></scales>
<clustering>
<clus scale="   39.520">  1  5  2 -1</clus>
<clus scale="   54.436">  2  4  1 -1</clus>
<clus scale="   76.622">  2  3  1 -1</clus>
<clus scale="   54.436">  2  3  1 -1</clus>
</clustering>
</event>
<event>
 6    0  0.2433432E+002  0.1260286E+03  0.7546771E-02  0.1233470E+00
         21   -1    0    0  503  502  0.00000000000E+00  0.00000000000E+00  0.38261838765E+03  0.38261838765E+03  0.00000000000E+00 0.  1.
          2   -1    0    0  505    0 -0.00000000000E+00 -0.00000000000E+00 -0.10037227207E+04  0.10037227207E+04  0.00000000000E+00 0. -1.
         21    1    1    2  503  504 -0.30527486231E+02 -0.39829324771E+01  0.28259974127E+03  0.28427170970E+03  0.00000000000E+00 0.  1.
         21    1    1    2  504  501 -0.82901915448E+01  0.32022239596E+02 -0.17574617751E+02  0.37456885798E+02  0.00000000000E+00 0.  1.
         21    1    1    2  505  502 -0.21652272297E+02  0.84891348184E+02  0.62344038856E+02  0.10752739685E+03  0.00000000000E+00 0.  1.
          2    1    1    2  501    0  0.60469950073E+02 -0.11293065530E+03 -0.94847349547E+03  0.95708511605E+03  0.00000000000E+00 0. -1.
<scales pt_clust_3="30.78622" pt_clust_4="33.59818" pt_clust_5="14000.00000" pt_clust_6="126.02863"></scales>
<clustering>
<clus scale="   30.786">  1  3  2 -1</clus>
<clus scale="   33.598">  1  4  2 -1</clus>
<clus scale="  126.029">  2  6  1 -1</clus>
<clus scale="   30.786">  1  3  2 -1</clus>
</clustering>
</event>
<event>
 6    0  0.2433432E+002  0.1359082E+03  0.7546771E-02  0.1218943E+00
          2   -1    0    0  504    0 -0.00000000000E+00  0.00000000000E+00  0.40260657809E+03  0.40260657809E+03  0.00000000000E+00 0. -1.
         21   -1    0    0  505  502  0.00000000000E+00 -0.00000000000E+00 -0.16829998094E+03  0.16829998094E+03  0.00000000000E+00 0. -1.
         21    1    1    2  503  502  0.51047477880E+02  0.65515041264E+02  0.35789999293E+01  0.83131671884E+02  0.00000000000E+00 0. -1.
         21    1    1    2  504  503  0.42903519491E+02 -0.60064836120E+02  0.37236776993E+02  0.82674506854E+02  0.00000000000E+00 0. -1.
         21    1    1    2  505  501 -0.15766064587E+03  0.52673198782E+02 -0.26944092186E+02  0.16839634566E+03  0.00000000000E+00 0. -1.
          2    1    1    2  501    0  0.63709648504E+02 -0.58123403926E+02  0.22043491241E+03  0.23670403462E+03  0.00000000000E+00 0. -1.
<scales pt_clust_3="80.89313" pt_clust_4="73.81393" pt_clust_5="135.90816" pt_clust_6="14000.00000"></scales>
<clustering>
<clus scale="   73.814">  1  4  2 -1</clus>
<clus scale="   80.893">  2  3  1 -1</clus>
<clus scale="  135.908">  2  5  1 -1</clus>
<clus scale="   80.893">  2  3  1 -1</clus>
</clustering>
</event>
<event>
 6    0  0.2433432E+002  0.1438732E+03  0.7546771E-02  0.1208210E+00
         21   -1    0    0  504  502  0.00000000000E+00  0.00000000000E+00  0.24890428637E+03  0.24890428637E+03  0.00000000000E+00 0. -1.
          1   -1    0    0  505    0 -0.00000000000E+00 -0.00000000000E+00 -0.11073152188E+04  0.11073152188E+04  0.00000000000E+00 0. -1.
         21    1    1    2  503  501 -0.58662278507E+02  0.19452045427E+02 -0.58610022710E+02  0.85174994881E+02  0.00000000000E+00 0.  1.
         21    1    1    2  504  503  0.21127130314E+02 -0.25952978399E+02  0.51005202689E+02  0.61003634518E+02  0.00000000000E+00 0. -1.
         21    1    1    2  505  502  0.15669263172E+03  0.85318254866E+02  0.12881495042E+03  0.22005698557E+03  0.00000000000E+00 0. -1.
          1    1    1    2  501    0 -0.11915748353E+03 -0.78817321894E+02 -0.97962106281E+03  0.98998389018E+03  0.00000000000E+00 0. -1.
<scales pt_clust_3="59.87281" pt_clust_4="33.46510" pt_clust_5="143.87316" pt_clust_6="14000.00000"></scales>
<clustering>
<clus scale="   33.465">  1  4  2 -1</clus>
<clus scale="   59.873">  1  3  2 -1</clus>
<clus scale="  143.873">  1  5  2 -1</clus>
<clus scale="   33.465">  1  3  2 -1</clus>
</clustering>
</event>
<event>
 6    0  0.2433432E+002  0.7831475E+02  0.7546771E-02  0.1333903E+00
         21   -1    0    0  505  502  0.00000000000E+00  0.00000000000E+00  0.39291633336E+03  0.39291633336E+03  0.00000000000E+00 0. -1.
         -2   -1    0    0    0  501 -0.00000000000E+00 -0.00000000000E+00 -0.27375274503E+03  0.27375274503E+03  0.00000000000E+00 0.  1.
         21    1    1    2  503  502  0.12414090545E+02 -0.44099986018E+02  0.16588139278E+03  0.17209170486E+03  0.00000000000E+00 0. -1.
         21    1    1    2  504  503  0.65157397298E+02  0.28933841187E+02  0.18058320125E+03  0.19414671299E+03  0.00000000000E+00 0. -1.
         21    1    1    2  505  501  0.42811406648E+02 -0.17625251044E+02 -0.64121581158E+01  0.46739509895E+02  0.00000000000E+00 0.  1.
         -2    1    1    2    0  504 -0.12038289449E+03  0.32791395875E+02 -0.22088884759E+03  0.25369115065E+03  0.00000000000E+00 0.  1.
<scales pt_clust_3="45.81395" pt_clust_4="78.31475" pt_clust_5="48.95073" pt_clust_6="14000.00000"></scales>
<clustering>
<clus scale="   45.814">  1  3  2 -1</clus>
<clus scale="   48.951">  2  5  1 -1</clus>
<clus scale="   78.315">  1  4  2 -1</clus>
<clus scale="   45.814">  1  3  2 -1</clus>
</clustering>
</event>
<event>
 6    0  0.2433432E+002  0.1529339E+03  0.7546771E-02  0.1196914E+00
          2   -1    0    0  505    0 -0.00000000000E+00  0.00000000000E+00  0.35944079598E+04  0.35944079598E+04  0.00000000000E+00 0. -1.
         21   -1    0    0  503  502  0.00000000000E+00 -0.00000000000E+00 -0.61281723153E+02  0.61281723153E+02  0.00000000000E+00 0.  1.
         21    1    1    2  503  501  0.98500990819E+02  0.13254601289E+03  0.13676870633E+03  0.21442147690E+03  0.00000000000E+00 0.  1.
         21    1    1    2  504  502 -0.16343385105E+03 -0.18466267834E+02  0.33751110405E+03  0.37545355515E+03  0.00000000000E+00 0. -1.
         21    1    1    2  505  504  0.94691767499E+02 -0.84901609414E+02  0.12428805560E+04  0.12493705978E+04  0.00000000000E+00 0. -1.
          2    1    1    2  501    0 -0.29758907267E+02 -0.29178135638E+02  0.18159658703E+04  0.18164440531E+04  0.00000000000E+00 0. -1.
<scales pt_clust_3="152.93387" pt_clust_4="14000.00000" pt_clust_5="128.64825" pt_clust_6="41.67681"></scales>
<clustering>
<clus scale="   41.677">  1  6  2 -1</clus>
<clus scale="  128.648">  1  5  2 -1</clus>
<clus scale="  152.934">  2  3  1 -1</clus>
<clus scale="  152.934">  2  3  1 -1</clus>
</clustering>
</event>
<event>
 6    0  0.2433432E+002  0.1001364E+03  0.7546771E-02  0.1280009E+00
          2   -1    0    0  503    0 -0.00000000000E+00  0.00000000000E+00  0.18987532455E+04  0.18987532455E+04  0.00000000000E+00 0. -1.
         21   -1    0    0  504  502  0.00000000000E+00 -0.00000000000E+00 -0.20509984998E+03  0.20509984998E+03  0.00000000000E+00 0. -1.
         21    1    1    2  503  505 -0.31261507930E+02 -0.56110656252E+02  0.33788984492E+02  0.72576739360E+02  0.00000000000E+00 0.  1.
         21    1    1    2  504  501  0.31152238317E+02  0.10399409050E+03 -0.13667682257E+03  0.17454451192E+03  0.00000000000E+00 0. -1.
         21    1    1    2  505  502 -0.29669881231E+02  0.47815816971E+02 -0.11147491798E+01  0.56284072975E+02  0.00000000000E+00 0. -1.
          2    1    1    2  501    0  0.29779150844E+02 -0.95699251224E+02  0.17976559828E+04  0.18004477713E+04  0.00000000000E+00 0. -1.
<scales pt_clust_3="61.46517" pt_clust_4="100.13638" pt_clust_5="56.27303" pt_clust_6="14000.00000"></scales>
<clustering>
<clus scale="   56.273">  2  5  1 -1</clus>
<clus scale="   61.465">  2  3  1 -1</clus>
<clus scale="  100.136">  2  4  1 -1</clus>
<clus scale="   56.273">  2  3  1 -1</clus>
</clustering>
</event>
<event>
 6    0  0.2433432E+002  0.1364546E+03  0.7546771E-02  0.1218181E+00
         21   -1    0    0  503  502  0.00000000000E+00  0.00000000000E+00  0.83684032320E+02  0.83684032320E+02  0.00000000000E+00 0.  1.
          2   -1    0    0  505    0 -0.00000000000E+00 -0.00000000000E+00 -0.17945335638E+04  0.17945335638E+04  0.00000000000E+00 0. -1.
         21    1    1    2  503  504 -0.13209229802E+02 -0.31446361843E+02  0.20016643243E+02  0.39547736115E+02  0.00000000000E+00 0.  1.
         21    1    1    2  504  501 -0.63232521135E+02  0.10793602679E+03 -0.77352293200E+02  0.14707792109E+03  0.00000000000E+00 0.  1.
         21    1    1    2  505  502 -0.37067617372E+02  0.25062790987E+01 -0.52320308213E+01  0.37518846452E+02  0.00000000000E+00 0.  1.
          2    1    1    2  501    0  0.11350936831E+03 -0.78995944043E+02 -0.16482818507E+04  0.16540730925E+04  0.00000000000E+00 0. -1.
<scales pt_clust_3="34.10803" pt_clust_4="136.45463" pt_clust_5="41.60192" pt_clust_6="14000.00000"></scales>
<clustering>
<clus scale="   34.108">  1  3  2 -1</clus>
<clus scale="   41.602">  1  5  2 -1</clus>
<clus scale="  136.455">  1  4  2 -1</clus>
<clus scale="   34.108">  1  3  2 -1</clus>
</clustering>
</event>
<event>
 6    0  0.2433432E+002  0.1061612E+03  0.7546771E-02  0.1267848E+00
          2   -1    0    0  503    0 -0.00000000000E+00  0.00000000000E+00  0.29740430145E+03  0.29740430145E+03  0.00000000000E+00 0.  1.
         21   -1    0    0  505  502  0.00000000000E+00 -0.00000000000E+00 -0.13856190013E+04  0.13856190013E+04  0.00000000000E+00 0.  1.
         21    1    1    2  503  504  0.13438881237E+02 -0.66497889531E+02 -0.15212487017E+02  0.69526919983E+02  0.00000000000E+00 0.  1.
         21    1    1    2  504  502 -0.79259564171E+02  0.58591323133E+02 -0.12747157271E+04  0.12785207102E+04  0.00000000000E+00 0.  1.
         21    1    1    2  505  501 -0.26751493691E+02 -0.37876115227E+02 -0.46784753472E+02  0.65871508840E+02  0.00000000000E+00 0.  1.
          2    1    1    2  501    0  0.92572176625E+02  0.45782681625E+02  0.24849826775E+03  0.26910416366E+03  0.00000000000E+00 0.  1.
<scales pt_clust_3="68.86508" pt_clust_4="14000.00000" pt_clust_5="46.37071" pt_clust_6="106.16122"></scales>
<clustering>
<clus scale="   46.371">  2  5  1 -1</clus>
<clus scale="   68.865">  1  3  2 -1</clus>
<clus scale="  106.161">  1  6  2 -1</clus>
<clus scale="   46.371">  2  3  1 -1</clus>
</clustering>
</event>
<event>
 6    0  0.2433432E+002  0.7656149E+02  0.7546771E-02  0.1339103E+00
         -2   -1    0    0    0  501 -0.00000000000E+00  0.00000000000E+00  0.11073931113E+04  0.11073931113E+04  0.00000000000E+00 0.  1.
         21   -1    0    0  505  502  0.00000000000E+00 -0.00000000000E+00 -0.26224129100E+02  0.26224129100E+02  0.00000000000E+00 0. -1.
         21    1    1    2  503  501  0.52035973708E+02  0.32001670477E+01  0.23495703851E+03  0.24067154708E+03  0.00000000000E+00 0.  1.
         21    1    1    2  504  502  0.46139919702E+02 -0.58105233582E+02  0.80948609094E+02  0.10980795815E+03  0.00000000000E+00 0. -1.
         21    1    1    2  505  503 -0.30755348585E+02  0.81962581076E+02  0.31036800358E+03  0.32247798965E+03  0.00000000000E+00 0.  1.
         -2    1    1    2    0  504 -0.67420544824E+02 -0.27057514541E+02  0.45489533106E+03  0.46065974555E+03  0.00000000000E+00 0.  1.
<scales pt_clust_3="52.13428" pt_clust_4="76.56149" pt_clust_5="14000.00000" pt_clust_6="47.39131"></scales>
<clustering>
<clus scale="   52.134">  1  3  2 -1</clus>
<clus scale="   47.391">  1  6  2 -1</clus>
<clus scale="   76.561">  2  4  1 -1</clus>
<clus scale="   76.561">  2  3  1 -1</clus>
</clustering>
</event>
<event>
 6    0  0.2433432E+002  0.2083935E+03  0.7546771E-02  0.1142845E+00
         21   -1    0    0  501  502  0.00000000000E+00  0.00000000000E+00  0.13175644612E+04  0.13175644612E+04  0.00000000000E+00 0. -1.
          2   -1    0    0  503    0 -0.00000000000E+00 -0.00000000000E+00 -0.10257064688E+03  0.10257064688E+03  0.00000000000E+00 0. -1.
         21    1    1    2  503  505 -0.82879731580E+02 -0.82643675393E+02  0.37481593121E+03  0.39266526365E+03  0.00000000000E+00 0. -1.
         21    1    1    2  504  502  0.11934490697E+02 -0.39357885890E+02  0.33300974377E+03  0.33553981089E+03  0.00000000000E+00 0.  1.
         21    1    1    2  505  504 -0.43940229019E+02 -0.31868436000E+02  0.49665750906E+03  0.49961487392E+03  0.00000000000E+00 0. -1.
          2    1    1    2  501    0  0.11488546990E+03  0.15386999728E+03  0.10510630257E+02  0.19231515959E+03  0.00000000000E+00 0. -1.
<scales pt_clust_3="61.96727" pt_clust_4="41.12755" pt_clust_5="61.96727" pt_clust_6="189.54227"></scales>
<clustering>
<clus scale="   41.128">  1  4  2 -1</clus>
<clus scale="   61.967">  3  5 -1 -1</clus>
<clus scale="  189.542">  2  6  1 -1</clus>
<clus scale="   41.128">  1  3  2 -1</clus>
</clustering>
</event>
<event>
 6    0  0.2433432E+002  0.1316890E+03  0.7546771E-02  0.1224971E+00
          2   -1    0    0  505    0 -0.00000000000E+00  0.00000000000E+00  0.91348880492E+03  0.91348880492E+03  0.00000000000E+00 0. -1.
         21   -1    0    0  504  502  0.00000000000E+00 -0.00000000000E+00 -0.54292141712E+03  0.54292141712E+03  0.00000000000E+00 0.  1.
         21    1    1    2  503  502 -0.81944223902E+02  0.11047521973E+01  0.18410116963E+03  0.20151753514E+03  0.00000000000E+00 0. -1.
         21    1    1    2  504  501  0.38740905159E+02  0.12639013314E+03 -0.51084694504E+03  0.52767407056E+03  0.00000000000E+00 0.  1.
         21    1    1    2  505  503  0.21946427406E+02 -0.26429969989E+02  0.15605277346E+02  0.37732130480E+02  0.00000000000E+00 0. -1.
          2    1    1    2  501    0  0.21256891337E+02 -0.10106491535E+03  0.68170788586E+03  0.68948648587E+03  0.00000000000E+00 0. -1.
<scales pt_clust_3="77.31217" pt_clust_4="14000.00000" pt_clust_5="34.35388" pt_clust_6="131.68896"></scales>
<clustering>
<clus scale="   34.354">  1  5  2 -1</clus>
<clus scale="   77.312">  1  3  2 -1</clus>
<clus scale="  131.689">  1  6  2 -1</clus>
<clus scale="  131.689">  2  3  1 -1</clus>
</clustering>
</event>
<event>
 6    0  0.2433432E+002  0.9652538E+02  0.7546771E-02  0.1287777E+00
          2   -1    0    0  504    0 -0.00000000000E+00  0.00000000000E+00  0.21930603561E+03  0.21930603561E+03  0.00000000000E+00 0. -1.
         21   -1    0    0  503  502  0.00000000000E+00 -0.00000000000E+00 -0.13050530901E+03  0.13050530901E+03  0.00000000000E+00 0.  1.
         21    1    1    2  503  501  0.58689428438E+02  0.81856329381E+02 -0.12959726617E+02  0.10155226331E+03  0.00000000000E+00 0.  1.
         21    1    1    2  504  505 -0.40758828295E+02  0.25159548048E+02  0.14822183637E+02  0.50139625744E+02  0.00000000000E+00 0. -1.
         21    1    1    2  505  502  0.48638970813E+02 -0.48104361351E+02 -0.70271260006E+01  0.68768885133E+02  0.00000000000E+00 0.  1.
          2    1    1    2  501    0 -0.66569570956E+02 -0.58911516079E+02  0.93965395575E+02  0.12935057043E+03  0.00000000000E+00 0. -1.
<scales pt_clust_3="96.52538" pt_clust_4="47.89869" pt_clust_5="60.72302" pt_clust_6="14000.00000"></scales>
<clustering>
<clus scale="   47.899">  1  4  2 -1</clus>
<clus scale="   60.723">  2  5  1 -1</clus>
<clus scale="   96.525">  2  3  1 -1</clus>
<clus scale="   60.723">  2  3  1 -1</clus>
</clustering>
</event>
<event>
 6    0  0.2990904E+002  0.8433781E+02  0.7546771E-02  0.1317173E+00
         21   -1    0    0  503  502  0.00000000000E+00  0.00000000000E+00  0.13999866472E+04  0.13999866472E+04  0.00000000000E+00 0.  1.
          1   -1    0    0  505    0 -0.00000000000E+00 -0.00000000000E+00 -0.17465228046E+04  0.17465228046E+04  0.00000000000E+00 0. -1.
         21    1    1    2  503  504  0.41895207599E+02  0.75433223714E+02  0.70565393625E+03  0.71090987994E+03  0.00000000000E+00 0.  1.
         21    1    1    2  504  501 -0.19034174510E+02 -0.81793214237E+02  0.64784950946E+03  0.65326978853E+03  0.00000000000E+00 0.  1.
         21    1    1    2  505  502  0.38453719734E+02 -0.69164610797E+01  0.31171786115E+02  0.49982059230E+02  0.00000000000E+00 0. -1.
          1    1    1    2  501    0 -0.61314752823E+02  0.13276451602E+02 -0.17312113893E+04  0.17323477242E+04  0.00000000000E+00 0. -1.
<scales pt_clust_3="84.33781" pt_clust_4="14000.00000" pt_clust_5="39.07078" pt_clust_6="62.71934"></scales>
<clustering>
<clus scale="   39.071">  1  5  2 -1</clus>
<clus scale="   62.719">  2  6  1 -1</clus>
<clus scale="   84.338">  1  3  2 -1</clus>
<clus scale="   39.071">  1  3  2 -1</clus>
</clustering>
</event>
<event>
 6    0  0.2433432E+002  0.9801474E+02  0.7546771E-02  0.1284527E+00
         21   -1    0    0  505  502  0.00000000000E+00  0.00000000000E+00  0.10205122967E+03  0.10205122967E+03  0.00000000000E+00 0.  1.
         -4   -1    0    0    0  501 -0.00000000000E+00 -0.00000000000E+00 -0.50151042675E+03  0.50151042675E+03  0.00000000000E+00 0.  1.
         21    1    1    2  503  501 -0.10867965038E+03 -0.43679314579E+02 -0.11841767861E+03  0.16655898516E+03  0.00000000000E+00 0.  1.
         21    1    1    2  504  502  0.33624072012E+01  0.52265214114E+02 -0.10236324176E+02  0.53364226980E+02  0.00000000000E+00 0. -1.
         21    1    1    2  505  503  0.28148436676E+02 -0.60374843818E+02  0.26842578196E+02  0.71819080038E+02  0.00000000000E+00 0.  1.
         -4    1    1    2    0  504  0.77168806505E+02  0.51788944283E+02 -0.29764777250E+03  0.31181936425E+03  0.00000000000E+00 0.  1.
<scales pt_clust_3="98.01474" pt_clust_4="52.37326" pt_clust_5="41.42262" pt_clust_6="14000.00000"></scales>
<clustering>
<clus scale="   52.373">  1  4  2 -1</clus>
<clus scale="   41.423">  1  5  2 -1</clus>
<clus scale="   98.015">  1  3  2 -1</clus>
<clus scale="   52.373">  1  3  2 -1</clus>
</clustering>
</event>
<event>
 6    0  0.2433432E+002  0.8877034E+02  0.7546771E-02  0.1305857E+00
         21   -1    0    0  504  502  0.00000000000E+00  0.00000000000E+00  0.52599031665E+02  0.52599031665E+02  0.00000000000E+00 0. -1.
          2   -1    0    0  505    0 -0.00000000000E+00 -0.00000000000E+00 -0.20629649389E+04  0.20629649389E+04  0.00000000000E+00 0. -1.
         21    1    1    2  503  501  0.18928402266E+02 -0.47860314918E+02 -0.42827199030E+02  0.66955680365E+02  0.00000000000E+00 0.  1.
         21    1    1    2  504  503  0.27342998318E+02  0.20185870314E+02 -0.43891866871E+02  0.55512204917E+02  0.00000000000E+00 0.  1.
         21    1    1    2  505  502 -0.55072099605E+02  0.11502147350E+03 -0.87053827760E+02  0.15440610237E+03  0.00000000000E+00 0. -1.
          2    1    1    2  501    0  0.88006990218E+01 -0.87347028898E+02 -0.18365930136E+04  0.18386899829E+04  0.00000000000E+00 0. -1.
<scales pt_clust_3="49.94378" pt_clust_4="33.98689" pt_clust_5="14000.00000" pt_clust_6="88.77034"></scales>
<clustering>
<clus scale="   33.987">  1  4  2 -1</clus>
<clus scale="   49.944">  1  3  2 -1</clus>
<clus scale="   88.770">  2  6  1 -1</clus>
<clus scale="   33.987">  1  3  2 -1</clus>
</clustering>
</event>
<event>
 6    0  0.2433432E+002  0.1397851E+03  0.7546771E-02  0.1213618E+00
          2   -1    0    0  503    0 -0.00000000000E+00  0.00000000000E+00  0.22502987907E+04  0.22502987907E+04  0.00000000000E+00 0. -1.
         21   -1    0    0  505  502  0.00000000000E+00 -0.00000000000E+00 -0.28313448965E+02  0.28313448965E+02  0.00000000000E+00 0. -1.
         21    1    1    2  503  504  0.50836759471E+02  0.10190361276E+03  0.72337396879E+03  0.73228315639E+03  0.00000000000E+00 0. -1.
         21    1    1    2  504  502  0.77044227090E+02 -0.12676433833E+03  0.54355915219E+03  0.56343727452E+03  0.00000000000E+00 0. -1.
         21    1    1    2  505  501 -0.14068601717E+02 -0.37905321836E+02  0.34327912336E+02  0.53039085052E+02  0.00000000000E+00 0. -1.
          2    1    1    2  501    0 -0.11381238484E+03  0.62766047397E+02  0.92072430838E+03  0.92985272366E+03  0.00000000000E+00 0. -1.
<scales pt_clust_3="104.43953" pt_clust_4="139.78511" pt_clust_5="40.43191" pt_clust_6="14000.00000"></scales>
<clustering>
<clus scale="   40.432">  2  5  1 -1</clus>
<clus scale="  104.440">  1  3  2 -1</clus>
<clus scale="  139.785">  2  4  1 -1</clus>
<clus scale="   40.432">  2  3  1 -1</clus>
</clustering>
</event>
<event>
 6    0  0.2433432E+002  0.1487920E+03  0.7546771E-02  0.1201965E+00
         21   -1    0    0  504  502  0.00000000000E+00  0.00000000000E+00  0.54179257465E+02  0.54179257465E+02  0.00000000000E+00 0.  1.
         -4   -1    0    0    0  501 -0.00000000000E+00 -0.00000000000E+00 -0.51866307096E+03  0.51866307096E+03  0.00000000000E+00 0. -1.
         21    1    1    2  503  502 -0.28038440129E+02 -0.12964226289E+02 -0.18876590295E+02  0.36201532417E+02  0.00000000000E+00 0.  1.
         21    1    1    2  504  505  0.25722054909E+02 -0.60528661704E+02 -0.49624165856E+02  0.82388717877E+02  0.00000000000E+00 0.  1.
         21    1    1    2  505  501  0.25805019244E+02 -0.71037138597E+02 -0.11965434903E+03  0.14152504132E+03  0.00000000000E+00 0.  1.
         -4    1    1    2    0  503 -0.23488634023E+02  0.14453002659E+03 -0.27632870831E+03  0.31272703681E+03  0.00000000000E+00 0. -1.
<scales pt_clust_3="30.89054" pt_clust_4="36.45301" pt_clust_5="36.45301" pt_clust_6="143.60184"></scales>
<clustering>
<clus scale="   30.891">  1  3  2 -1</clus>
<clus scale="   36.453">  4  5 -1 -1</clus>
<clus scale="  143.602">  2  6  1 -1</clus>
<clus scale="   30.891">  1  3  2 -1</clus>
</clustering>
</event>
<event>
 6    0  0.2433432E+002  0.9398327E+02  0.7546771E-02  0.1293483E+00
         21   -1    0    0  503  502  0.00000000000E+00  0.00000000000E+00  0.38904358342E+02  0.38904358342E+02  0.00000000000E+00 0. -1.
          1   -1    0    0  505    0 -0.00000000000E+00 -0.00000000000E+00 -0.19919599875E+04  0.19919599875E+04  0.00000000000E+00 0. -1.
         21    1    1    2  503  501  0.10269787929E+03  0.19458776047E+02 -0.18095559294E+03  0.20897469941E+03  0.00000000000E+00 0. -1.
         21    1    1    2  504  502  0.27225583655E+02 -0.95621048601E+02 -0.14174048606E+03  0.17313284706E+03  0.00000000000E+00 0. -1.
         21    1    1    2  505  504 -0.83572633116E+02  0.27322107026E+02 -0.22184552536E+03  0.23863428015E+03  0.00000000000E+00 0. -1.
          1    1    1    2  501    0 -0.46350829833E+02  0.48840165528E+02 -0.14085140248E+04  0.14101225192E+04  0.00000000000E+00 0. -1.
<scales pt_clust_3="14000.00000" pt_clust_4="83.72463" pt_clust_5="93.98327" pt_clust_6="67.33321"></scales>
<clustering>
<clus scale="   67.333">  2  6  1 -1</clus>
<clus scale="   83.725">  1  4  2 -1</clus>
<clus scale="   93.983">  1  5  2 -1</clus>
<clus scale="   83.725">  1  3  2 -1</clus>
</clustering>
</event>
<event>
 6    0  0.2433432E+002  0.8537883E+02  0.7546771E-02  0.1314445E+00
         21   -1    0    0  505  502  0.00000000000E+00  0.00000000000E+00  0.43838483161E+03  0.43838483161E+03  0.00000000000E+00 0.  1.
          2   -1    0    0  503    0 -0.00000000000E+00 -0.00000000000E+00 -0.86896694879E+03  0.86896694879E+03  0.00000000000E+00 0.  1.
         21    1    1    2  503  502  0.96344563626E+02 -0.69188642126E+02  0.39204296932E+03  0.40959374132E+03  0.00000000000E+00 0.  1.
         21    1    1    2  504  501 -0.50212887072E+02  0.10200730862E+02 -0.70637191093E+02  0.87263977126E+02  0.00000000000E+00 0. -1.
         21    1    1    2  505  504 -0.77086304803E+01  0.39941295382E+02  0.14216057119E+02  0.43090907866E+02  0.00000000000E+00 0.  1.
          2    1    1    2  501    0 -0.38423046074E+02  0.19046615882E+02 -0.76620395252E+03  0.76740315408E+03  0.00000000000E+00 0.  1.
<scales pt_clust_3="85.37883" pt_clust_4="14000.00000" pt_clust_5="40.67837" pt_clust_6="42.92087"></scales>
<clustering>
<clus scale="   40.678">  1  5  2 -1</clus>
<clus scale="   42.921">  2  6  1 -1</clus>
<clus scale="   85.379">  1  3  2 -1</clus>
<clus scale="   40.678">  1  3  2 -1</clus>
</clustering>
</event>
<event>
 6    0  0.2433432E+002  0.1086317E+03  0.7546771E-02  0.1263125E+00
         21   -1    0    0  503  502  0.00000000000E+00  0.00000000000E+00  0.20173673049E+03  0.20173673049E+03  0.00000000000E+00 0. -1.
          2   -1    0    0  504    0 -0.00000000000E+00 -0.00000000000E+00 -0.69270432167E+03  0.69270432167E+03  0.00000000000E+00 0.  1.
         21    1    1    2  503  501 -0.62100701984E+02 -0.12241582032E+03 -0.19013118207E+03  0.23450372416E+03  0.00000000000E+00 0.  1.
         21    1    1    2  504  505  0.44972117511E+01  0.10390180982E+03  0.33071956021E+02  0.10913095469E+03  0.00000000000E+00 0.  1.
         21    1    1    2  505  502  0.34497040565E+02 -0.69484997788E+01  0.10490404182E+03  0.11064892881E+03  0.00000000000E+00 0. -1.
          2    1    1    2  501    0  0.23106449668E+02  0.25462510275E+02 -0.43881240695E+03  0.44015744449E+03  0.00000000000E+00 0.  1.
<scales pt_clust_3="108.63173" pt_clust_4="14000.00000" pt_clust_5="35.39138" pt_clust_6="34.38383"></scales>
<clustering>
<clus scale="   34.384">  2  6  1 -1</clus>
<clus scale="   35.391">  1  5  2 -1</clus>
<clus scale="  108.632">  2  3  1 -1</clus>
<clus scale="   35.391">  1  3  2 -1</clus>
</clustering>
</event>
<event>
 6    0  0.2433432E+002  0.8671648E+02  0.7546771E-02  0.1311004E+00
          2   -1    0    0  505    0 -0.00000000000E+00  0.00000000000E+00  0.51577316533E+03  0.51577316533E+03  0.00000000000E+00 0. -1.
         21   -1    0    0  503  502  0.00000000000E+00 -0.00000000000E+00 -0.60893231721E+03  0.60893231721E+03  0.00000000000E+00 0. -1.
         21    1    1    2  503  504  0.39937546248E+02  0.80035236200E+02 -0.44179987079E+03  0.45076354385E+03  0.00000000000E+00 0. -1.
         21    1    1    2  504  501  0.30217318394E+02 -0.11467356782E+03 -0.37790299435E+02  0.12446373054E+03  0.00000000000E+00 0. -1.
         21    1    1    2  505  502 -0.38519051205E+02  0.13431605970E+01 -0.75765440906E+02  0.85005431719E+02  0.00000000000E+00 0. -1.
          2    1    1    2  501    0 -0.31635813437E+02  0.33295171025E+02  0.46219645925E+03  0.46447277643E+03  0.00000000000E+00 0. -1.
<scales pt_clust_3="86.71648" pt_clust_4="14000.00000" pt_clust_5="38.54246" pt_clust_6="45.98740"></scales>
<clustering>
<clus scale="   38.542">  2  5  1 -1</clus>
<clus scale="   45.987">  1  6  2 -1</clus>
<clus scale="   86.716">  2  3  1 -1</clus>
<clus scale="   38.542">  2  3  1 -1</clus>
</clustering>
</event>
<event>
 6    0  0.2433432E+002  0.1795064E+03  0.7546771E-02  0.1168282E+00
         -1   -1    0    0    0  501 -0.00000000000E+00  0.00000000000E+00  0.30148417669E+03  0.30148417669E+03  0.00000000000E+00 0.  1.
         21   -1    0    0  501  502  0.00000000000E+00 -0.00000000000E+00 -0.73703672991E+03  0.73703672991E+03  0.00000000000E+00 0.  1.
         21    1    1    2  503  502 -0.29389045051E+02  0.28824645755E+02 -0.77454372749E+02  0.87714058337E+02  0.00000000000E+00 0.  1.
         21    1    1    2  504  503  0.10667136300E+03  0.28971048463E+02 -0.44466606434E+03  0.45819865791E+03  0.00000000000E+00 0.  1.
         21    1    1    2  505  504  0.75317268699E+02  0.18234590093E+02 -0.16869637011E+03  0.18564389709E+03  0.00000000000E+00 0.  1.
         -1    1    1    2    0  505 -0.15259958665E+03 -0.76030284311E+02  0.25526425398E+03  0.30696429326E+03  0.00000000000E+00 0.  1.
<scales pt_clust_3="41.16523" pt_clust_4="46.49839" pt_clust_5="46.49839" pt_clust_6="171.02935"></scales>
<clustering>
<clus scale="   41.165">  2  3  1 -1</clus>
<clus scale="   46.498">  4  5 -1 -1</clus>
<clus scale="  171.029">  1  6  2 -1</clus>
<clus scale="   41.165">  2  3  1 -1</clus>
</clustering>
</event>
<event>
 6    0  0.2433432E+002  0.8941616E+02  0.7546771E-02  0.1304272E+00
          2   -1    0    0  505    0 -0.00000000000E+00  0.00000000000E+00  0.14328255497E+04  0.14328255497E+04  0.00000000000E+00 0. -1.
         21   -1    0    0  504  502  0.00000000000E+00 -0.00000000000E+00 -0.30645529550E+03  0.30645529550E+03  0.00000000000E+00 0. -1.
         21    1    1    2  503  501 -0.41618754659E+02  0.50859018678E+01  0.83073429422E+01  0.42743409830E+02  0.00000000000E+00 0. -1.
         21    1    1    2  504  503  0.20721853044E+02 -0.21956762167E+02 -0.12222106571E+03  0.12589473182E+03  0.00000000000E+00 0. -1.
         21    1    1    2  505  502  0.90063092516E+02  0.73170010749E+02 -0.14318522768E+03  0.18430198190E+03  0.00000000000E+00 0. -1.
          2    1    1    2  501    0 -0.69166190902E+02 -0.56299150450E+02  0.13834692046E+04  0.13863407216E+04  0.00000000000E+00 0. -1.
<scales pt_clust_3="39.77694" pt_clust_4="30.19097" pt_clust_5="89.41616" pt_clust_6="14000.00000"></scales>
<clustering>
<clus scale="   30.191">  2  4  1 -1</clus>
<clus scale="   39.777">  2  3  1 -1</clus>
<clus scale="   89.416">  2  5  1 -1</clus>
<clus scale="   30.191">  2  3  1 -1</clus>
</clustering>
</event>
<event>
 6    0  0.2433432E+002  0.1240457E+03  0.7546771E-02  0.1236568E+00
         -1   -1    0    0    0  501 -0.00000000000E+00  0.00000000000E+00  0.56105034863E+03  0.56105034863E+03  0.00000000000E+00 0. -1.
         21   -1    0    0  503  502  0.00000000000E+00 -0.00000000000E+00 -0.38062604093E+03  0.38062604093E+03  0.00000000000E+00 0.  1.
         21    1    1    2  503  501  0.26660039689E+02  0.17351908906E+02  0.86615994531E+01  0.32967707897E+02  0.00000000000E+00 0.  1.
         21    1    1    2  504  505  0.61681789416E+01 -0.73575268779E+02 -0.10242803475E+03  0.12626507399E+03  0.00000000000E+00 0.  1.
         21    1    1    2  505  502  0.28658727899E+01 -0.59471304187E+02 -0.24355618368E+03  0.25072826697E+03  0.00000000000E+00 0.  1.
         -1    1    1    2    0  504 -0.35694091421E+02  0.11569466406E+03  0.51774692668E+03  0.53171534070E+03  0.00000000000E+00 0. -1.
<scales pt_clust_3="31.80953" pt_clust_4="124.04574" pt_clust_5="59.43407" pt_clust_6="14000.00000"></scales>
<clustering>
<clus scale="   31.810">  1  3  2 -1</clus>
<clus scale="   59.434">  2  5  1 -1</clus>
<clus scale="  124.046">  2  4  1 -1</clus>
<clus scale="   59.434">  2  3  1 -1</clus>
</clustering>
</event>
<event>
 6    0  0.2433432E+002  0.1170999E+03  0.7546771E-02  0.1247959E+00
          2   -1    0    0  504    0 -0.00000000000E+00  0.00000000000E+00  0.24348823435E+04  0.24348823435E+04  0.00000000000E+00 0. -1.
         21   -1    0    0  505  502  0.00000000000E+00 -0.00000000000E+00 -0.17265320130E+03  0.17265320130E+03  0.00000000000E+00 0.  1.
         21    1    1    2  503  502 -0.44606078815E+02 -0.19983934087E+02  0.72228537397E+02  0.87212507723E+02  0.00000000000E+00 0.  1.
         21    1    1    2  504  503 -0.67445876095E+02  0.14262564810E+03 -0.73120711485E+02  0.17388979310E+03  0.00000000000E+00 0.  1.
         21    1    1    2  505  501  0.33965814120E+02 -0.35930071629E+02 -0.24954487074E+02  0.55383869504E+02  0.00000000000E+00 0.  1.
          2    1    1    2  501    0  0.78086140790E+02 -0.86711642381E+02  0.22880758034E+04  0.22910493745E+04  0.00000000000E+00 0. -1.
<scales pt_clust_3="48.87801" pt_clust_4="117.09992" pt_clust_5="46.88557" pt_clust_6="14000.00000"></scales>
<clustering>
<clus scale="   48.878">  2  3  1 -1</clus>
<clus scale="   46.886">  2  5  1 -1</clus>
<clus scale="  117.100">  2  4  1 -1</clus>
<clus scale="   48.878">  2  3  1 -1</clus>
</clustering>
</event>
<event>
 6    0  0.2433432E+002  0.5694111E+02  0.7546771E-02  0.1411136E+00
          2   -1    0    0  505    0 -0.00000000000E+00  0.00000000000E+00  0.65700075494E+03  0.65700075494E+03  0.00000000000E+00 0.  1.
         21   -1    0    0  504  502  0.00000000000E+00 -0.00000000000E+00 -0.67432931307E+02  0.67432931307E+02  0.00000000000E+00 0. -1.
         21    1    1    2  503  502 -0.32072348865E+02 -0.30392327527E+02  0.18363219606E+02  0.47849106246E+02  0.00000000000E+00 0. -1.
         21    1    1    2  504  501  0.97427961389E+00  0.66945519323E+02  0.18294875292E+01  0.66977599261E+02  0.00000000000E+00 0. -1.
         21    1    1    2  505  503  0.42648425266E+02 -0.88905101403E+02  0.11249910217E+03  0.14959630083E+03  0.00000000000E+00 0. -1.
          2    1    1    2  501    0 -0.11550356016E+02  0.52351909607E+02  0.45687601432E+03  0.46001067990E+03  0.00000000000E+00 0.  1.
<scales pt_clust_3="44.18517" pt_clust_4="51.71546" pt_clust_5="14000.00000" pt_clust_6="56.94111"></scales>
<clustering>
<clus scale="   44.185">  2  3  1 -1</clus>
<clus scale="   51.715">  2  4  1 -1</clus>
<clus scale="   56.941">  1  6  2 -1</clus>
<clus scale="   44.185">  2  3  1 -1</clus>
</clustering>
</event>
<event>
 6    0  0.2433432E+002  0.8646871E+02  0.7546771E-02  0.1311636E+00
         21   -1    0    0  504  502  0.00000000000E+00  0.00000000000E+00  0.25861697213E+03  0.25861697213E+03  0.00000000000E+00 0. -1.
          2   -1    0    0  505    0 -0.00000000000E+00 -0.00000000000E+00 -0.14648923598E+04  0.14648923598E+04  0.00000000000E+00 0.  1.
         21    1    1    2  503  502  0.12304797523E+02 -0.28460625945E+02  0.48285708560E+02  0.57384012777E+02  0.00000000000E+00 0. -1.
         21    1    1    2  504  501  0.63784821522E+02  0.47712633507E+02  0.13497998352E+03  0.15673096313E+03  0.00000000000E+00 0. -1.
         21    1    1    2  505  503 -0.12288996771E+03 -0.35934373258E+02 -0.94230795208E+01  0.12838231098E+03  0.00000000000E+00 0. -1.
          2    1    1    2  501    0  0.46800348665E+02  0.16682365696E+02 -0.13801180002E+04  0.13810120450E+04  0.00000000000E+00 0.  1.
<scales pt_clust_3="31.00670" pt_clust_4="86.46871" pt_clust_5="14000.00000" pt_clust_6="49.68921"></scales>
<clustering>
<clus scale="   31.007">  1  3  2 -1</clus>
<clus scale="   49.689">  2  6  1 -1</clus>
<clus scale="   86.469">  1  4  2 -1</clus>
<clus scale="   31.007">  1  3  2 -1</clus>
</clustering>
</event>
<event>
 6    0  0.2433432E+002  0.2523816E+03  0.7546771E-02  0.1111809E+00
         21   -1    0    0  501  502  0.00000000000E+00  0.00000000000E+00  0.19251463442E+03  0.19251463442E+03  0.00000000000E+00 0.  1.
          2   -1    0    0  504    0 -0.00000000000E+00 -0.00000000000E+00 -0.61924411705E+03  0.61924411705E+03  0.00000000000E+00 0. -1.
         21    1    1    2  503  502 -0.59160875986E+02  0.78094500326E+02  0.44982278244E+02  0.10780614818E+03  0.00000000000E+00 0. -1.
         21    1    1    2  504  505  0.12018798979E+03 -0.18113324799E+03 -0.24290067048E+03  0.32596800785E+03  0.00000000000E+00 0.  1.
         21    1    1    2  505  503 -0.95330174420E+02  0.12447714292E+03 -0.11795120689E+02  0.15723080531E+03  0.00000000000E+00 0.  1.
          2    1    1    2  501    0  0.34303060615E+02 -0.21438395260E+02 -0.21701596970E+03  0.22075379015E+03  0.00000000000E+00 0. -1.
<scales pt_clust_3="52.03140" pt_clust_4="243.83607" pt_clust_5="52.03140" pt_clust_6="40.45126"></scales>
<clustering>
<clus scale="   40.451">  2  6  1 -1</clus>
<clus scale="   52.031">  3  5 -1 -1</clus>
<clus scale="  243.836">  2  4  1 -1</clus>
<clus scale="  252.382">  1  3  2 -1</clus>
</clustering>
</event>
<event>
 6    0  0.2433432E+002  0.9723739E+02  0.7546771E-02  0.1286215E+00
         21   -1    0    0  504  502  0.00000000000E+00  0.00000000000E+00  0.47116771970E+02  0.47116771970E+02  0.00000000000E+00 0.  1.
          1   -1    0    0  503    0 -0.00000000000E+00 -0.00000000000E+00 -0.31159312795E+04  0.31159312795E+04  0.00000000000E+00 0. -1.
         21    1    1    2  503  505 -0.41559872209E+02  0.48954712015E+01 -0.36790093915E+02  0.55719831538E+02  0.00000000000E+00 0. -1.
         21    1    1    2  504  501  0.12229084392E+03  0.38222705225E+02 -0.21813932483E+03  0.25298377564E+03  0.00000000000E+00 0.  1.
         21    1    1    2  505  502 -0.30749237611E+02  0.40282205099E+02 -0.13733197176E+02  0.52504974679E+02  0.00000000000E+00 0.  1.
          1    1    1    2  501    0 -0.49981734101E+02 -0.83400381526E+02 -0.28001518916E+04  0.28018394696E+04  0.00000000000E+00 0. -1.
<scales pt_clust_3="39.50948" pt_clust_4="97.23739" pt_clust_5="95.70792" pt_clust_6="14000.00000"></scales>
<clustering>
<clus scale="   39.509">  3  5 -1 -1</clus>
<clus scale="   95.708">  1  3  2 -1</clus>
<clus scale="   97.237">  1  4  2 -1</clus>
<clus scale="   95.708">  1  3  2 -1</clus>
</clustering>
</event>
<event>
 6    0  0.2433432E+002  0.9314187E+02  0.7546771E-02  0.1295417E+00
          2   -1    0    0  505    0 -0.00000000000E+00  0.00000000000E+00  0.14944309337E+04  0.14944309337E+04  0.00000000000E+00 0.  1.
         21   -1    0    0  501  502  0.00000000000E+00 -0.00000000000E+00 -0.57870013919E+02  0.57870013919E+02  0.00000000000E+00 0.  1.
         21    1    1    2  503  504 -0.89294133754E+01  0.76877372080E+02  0.13981807465E+03  0.15980913228E+03  0.00000000000E+00 0. -1.
         21    1    1    2  504  502  0.20866602149E+02 -0.97705515904E+02  0.23917372462E+02  0.10273180437E+03  0.00000000000E+00 0.  1.
         21    1    1    2  505  503  0.22779466975E+02 -0.67512568424E+02  0.19234014223E+03  0.20511358152E+03  0.00000000000E+00 0.  1.
          2    1    1    2  501    0 -0.34716655749E+02  0.88340712248E+02  0.10804853305E+04  0.10846464295E+04  0.00000000000E+00 0.  1.
<scales pt_clust_3="14000.00000" pt_clust_4="93.14187" pt_clust_5="71.25202" pt_clust_6="35.57750"></scales>
<clustering>
<clus scale="   71.252">  1  5  2 -1</clus>
<clus scale="   35.578">  1  6  2 -1</clus>
<clus scale="   93.142">  2  4  1 -1</clus>
<clus scale="   93.142">  2  3  1 -1</clus>
</clustering>
</event>
<event>
 6    0  0.2433432E+002  0.8514966E+02  0.7546771E-02  0.1315042E+00
          2   -1    0    0  502    0 -0.00000000000E+00  0.00000000000E+00  0.16300758512E+04  0.16300758512E+04  0.00000000000E+00 0. -1.
         21   -1    0    0  505  502  0.00000000000E+00 -0.00000000000E+00 -0.16442392912E+02  0.16442392912E+02  0.00000000000E+00 0. -1.
         21    1    1    2  503  504 -0.60184924300E+02  0.14839059692E+02  0.22046631449E+03  0.22901488736E+03  0.00000000000E+00 0. -1.
         21    1    1    2  504  501  0.11804762134E+03  0.31829045557E+02  0.92978489452E+03  0.93778903764E+03  0.00000000000E+00 0. -1.
         21    1    1    2  505  503 -0.26863084681E+02 -0.44999574320E+02  0.83623603703E+02  0.98688875279E+02  0.00000000000E+00 0. -1.
          2    1    1    2  501    0 -0.30999612356E+02 -0.16685309291E+01  0.37975864561E+03  0.38102544387E+03  0.00000000000E+00 0. -1.
<scales pt_clust_3="85.14966" pt_clust_4="14000.00000" pt_clust_5="53.70433" pt_clust_6="31.04448"></scales>
<clustering>
<clus scale="   31.044">  1  6  2 -1</clus>
<clus scale="   53.704">  2  5  1 -1</clus>
<clus scale="   85.150">  2  3  1 -1</clus>
<clus scale="   53.704">  2  3  1 -1</clus>
</clustering>
</event>
<event>
 6    0  0.2433432E+002  0.7996645E+02  0.7546771E-02  0.1329147E+00
         21   -1    0    0  501  502  0.00000000000E+00  0.00000000000E+00  0.49189344457E+02  0.49189344457E+02  0.00000000000E+00 0.  1.
          2   -1    0    0  504    0 -0.00000000000E+00 -0.00000000000E+00 -0.13629172980E+04  0.13629172980E+04  0.00000000000E+00 0. -1.
         21    1    1    2  503  502  0.22056458083E+02 -0.37816590398E+02 -0.59509948091E+02  0.73878385028E+02  0.00000000000E+00 0. -1.
         21    1    1    2  504  505 -0.57153693911E+02  0.47278198276E+02 -0.57108328409E+02  0.93611612173E+02  0.00000000000E+00 0.  1.
         21    1    1    2  505  503 -0.10684406758E+02  0.56872728606E+02 -0.15023695411E+02  0.59786078904E+02  0.00000000000E+00 0.  1.
          2    1    1    2  501    0  0.45781642586E+02 -0.66334336485E+02 -0.11820859816E+04  0.11848305663E+04  0.00000000000E+00 0. -1.
<scales pt_clust_3="43.77878" pt_clust_4="79.96645" pt_clust_5="36.73879" pt_clust_6="14000.00000"></scales>
<clustering>
<clus scale="   43.779">  1  3  2 -1</clus>
<clus scale="   36.739">  1  5  2 -1</clus>
<clus scale="   79.966">  1  4  2 -1</clus>
<clus scale="   43.779">  1  3  2 -1</clus>
</clustering>
</event>
<event>
 6    0  0.2433432E+002  0.9709582E+02  0.7546771E-02  0.1286524E+00
         21   -1    0    0  505  502  0.00000000000E+00  0.00000000000E+00  0.47084850301E+03  0.47084850301E+03  0.00000000000E+00 0. -1.
          2   -1    0    0  504    0 -0.00000000000E+00 -0.00000000000E+00 -0.17927235823E+03  0.17927235823E+03  0.00000000000E+00 0.  1.
         21    1    1    2  503  502  0.99129838914E+02 -0.40598888628E+02  0.62182517555E+02  0.12386145571E+03  0.00000000000E+00 0.  1.
         21    1    1    2  504  503  0.26784667778E+02 -0.18334198162E+02 -0.15005428876E+02  0.35759252592E+02  0.00000000000E+00 0.  1.
         21    1    1    2  505  501 -0.58220871232E+02  0.78401819385E+02  0.35010850403E+03  0.36347280466E+03  0.00000000000E+00 0. -1.
          2    1    1    2  501    0 -0.67693635460E+02 -0.19468732595E+02 -0.10570944792E+03  0.12702734828E+03  0.00000000000E+00 0.  1.
<scales pt_clust_3="97.09582" pt_clust_4="32.45861" pt_clust_5="14000.00000" pt_clust_6="57.97918"></scales>
<clustering>
<clus scale="   32.459">  2  4  1 -1</clus>
<clus scale="   57.979">  2  6  1 -1</clus>
<clus scale="   97.096">  2  3  1 -1</clus>
<clus scale="   97.096">  1  3  2 -1</clus>
</clustering>
</event>
<event>
 6    0  0.2433432E+002  0.1009540E+03  0.7546771E-02  0.1278303E+00
         -4   -1    0    0    0  501 -0.00000000000E+00  0.00000000000E+00  0.53867694836E+03  0.53867694836E+03  0.00000000000E+00 0.  1.
         21   -1    0    0  501  502  0.00000000000E+00 -0.00000000000E+00 -0.10934337858E+03  0.10934337858E+03  0.00000000000E+00 0. -1.
         21    1    1    2  503  504  0.43859303222E+02  0.16197485561E+02  0.71707223505E+01  0.47301334829E+02  0.00000000000E+00 0. -1.
         21    1    1    2  504  502 -0.32958257080E+02  0.65358918546E+01 -0.28800424263E+02  0.44254141387E+02  0.00000000000E+00 0. -1.
         21    1    1    2  505  503  0.86231919590E+01  0.78998827401E+02 -0.13485577816E+02  0.80604187108E+02  0.00000000000E+00 0. -1.
         -4    1    1    2    0  505 -0.19524238100E+02 -0.10173220482E+03  0.46444884951E+03  0.47586066362E+03  0.00000000000E+00 0.  1.
<scales pt_clust_3="39.15873" pt_clust_4="33.60007" pt_clust_5="14000.00000" pt_clust_6="100.95400"></scales>
<clustering>
<clus scale="   33.600">  2  4  1 -1</clus>
<clus scale="   39.159">  2  3  1 -1</clus>
<clus scale="  100.954">  1  6  2 -1</clus>
<clus scale="   33.600">  2  3  1 -1</clus>
</clustering>
</event>
<event>
 6    0  0.2433432E+002  0.9661488E+02  0.7546771E-02  0.1287580E+00
         21   -1    0    0  504  502  0.00000000000E+00  0.00000000000E+00  0.15490173686E+03  0.15490173686E+03  0.00000000000E+00 0. -1.
          1   -1    0    0  505    0 -0.00000000000E+00 -0.00000000000E+00 -0.20819201089E+04  0.20819201089E+04  0.00000000000E+00 0. -1.
         21    1    1    2  503  501  0.10034974345E+03 -0.17799263771E+02 -0.89731136154E+02  0.13578866520E+03  0.00000000000E+00 0. -1.
         21    1    1    2  504  503  0.37954948980E+02 -0.34704628561E+02  0.12135107154E+03  0.13179936252E+03  0.00000000000E+00 0. -1.
         21    1    1    2  505  502 -0.63748945454E+02 -0.96409968925E+01 -0.26181126794E+03  0.26963311534E+03  0.00000000000E+00 0.  1.
          1    1    1    2  501    0 -0.74555746973E+02  0.62144889225E+02 -0.16968270394E+04  0.16996007027E+04  0.00000000000E+00 0. -1.
<scales pt_clust_3="14000.00000" pt_clust_4="51.42946" pt_clust_5="60.26244" pt_clust_6="96.61488"></scales>
<clustering>
<clus scale="   51.429">  1  4  2 -1</clus>
<clus scale="   60.262">  1  5  2 -1</clus>
<clus scale="   96.615">  2  6  1 -1</clus>
<clus scale="   51.429">  1  3  2 -1</clus>
</clustering>
</event>
<event>
 6    0  0.2433432E+002  0.1963894E+03  0.7546771E-02  0.1152822E+00
         21   -1    0    0  505  502  0.00000000000E+00  0.00000000000E+00  0.83904104089E+03  0.83904104089E+03  0.00000000000E+00 0. -1.
          1   -1    0    0  504    0 -0.00000000000E+00 -0.00000000000E+00 -0.88544846913E+03  0.88544846913E+03  0.00000000000E+00 0.  1.
         21    1    1    2  503  502 -0.15119102416E+03  0.12384042344E+03  0.73391393385E+03  0.75948985415E+03  0.00000000000E+00 0. -1.
         21    1    1    2  504  503 -0.29130074426E+02  0.10787703851E+02 -0.13528381637E+01  0.31092860299E+02  0.00000000000E+00 0. -1.
         21    1    1    2  505  501  0.13203075789E+03 -0.16536697983E+03 -0.70374503294E+02  0.22300432678E+03  0.00000000000E+00 0. -1.
          1    1    1    2  501    0  0.48290340697E+02  0.30738852542E+02 -0.70859402063E+03  0.71090246879E+03  0.00000000000E+00 0.  1.
<scales pt_clust_3="14000.00000" pt_clust_4="31.06342" pt_clust_5="196.38939" pt_clust_6="46.52392"></scales>
<clustering>
<clus scale="   31.063">  2  4  1 -1</clus>
<clus scale="   46.524">  2  6  1 -1</clus>
<clus scale="  196.389">  2  5  1 -1</clus>
<clus scale="  196.389">  1  3  2 -1</clus>
</clustering>
</event>
<event>
 6    0  0.2433432E+002  0.1134231E+03  0.7546771E-02  0.1254359E+00
         21   -1    0    0  501  502  0.00000000000E+00  0.00000000000E+00  0.31123022848E+03  0.31123022848E+03  0.00000000000E+00 0. -1.
          2   -1    0    0  503    0 -0.00000000000E+00 -0.00000000000E+00 -0.20637876380E+04  0.20637876380E+04  0.00000000000E+00 0. -1.
         21    1    1    2  503  505 -0.23280072250E+02  0.25433779213E+02 -0.54374901856E+02  0.64385315414E+02  0.00000000000E+00 0. -1.
         21    1    1    2  504  502  0.43959018070E+02 -0.10562441065E+03  0.29265332541E+03  0.31422106911E+03  0.00000000000E+00 0. -1.
         21    1    1    2  505  504 -0.34807144729E+02  0.61707961159E+01 -0.14412556494E+04  0.14416891006E+04  0.00000000000E+00 0. -1.
          2    1    1    2  501    0  0.14128198908E+02  0.74019835324E+02 -0.54958018372E+03  0.55472238135E+03  0.00000000000E+00 0. -1.
<scales pt_clust_3="34.47954" pt_clust_4="14000.00000" pt_clust_5="57.05848" pt_clust_6="113.42305"></scales>
<clustering>
<clus scale="   34.480">  2  3  1 -1</clus>
<clus scale="   57.058">  2  5  1 -1</clus>
<clus scale="  113.423">  2  6  1 -1</clus>
<clus scale="  113.423">  1  3  2 -1</clus>
</clustering>
</event>
<event>
 6    0  0.2433432E+002  0.2146099E+03  0.7546771E-02  0.1137967E+00
         21   -1    0    0  504  502  0.00000000000E+00  0.00000000000E+00  0.12617701607E+04  0.12617701607E+04  0.00000000000E+00 0.  1.
          2   -1    0    0  503    0 -0.00000000000E+00 -0.00000000000E+00 -0.28434203362E+03  0.28434203362E+03  0.00000000000E+00 0. -1.
         21    1    1    2  503  505  0.43077262261E+02  0.10408308627E+03  0.48622146125E+03  0.49909943774E+03  0.00000000000E+00 0.  1.
         21    1    1    2  504  501  0.35347969781E+02  0.13769388394E+02  0.34140062897E+03  0.34350176780E+03  0.00000000000E+00 0.  1.
         21    1    1    2  505  502 -0.74018611919E+01  0.80417210005E+02  0.38176077130E+03  0.39020892060E+03  0.00000000000E+00 0.  1.
          2    1    1    2  501    0 -0.71023370850E+02 -0.19826968467E+03 -0.23195473447E+03  0.31330206815E+03  0.00000000000E+00 0. -1.
<scales pt_clust_3="38.30412" pt_clust_4="37.93514" pt_clust_5="38.30412" pt_clust_6="209.50962"></scales>
<clustering>
<clus scale="   37.935">  1  4  2 -1</clus>
<clus scale="   38.304">  3  5 -1 -1</clus>
<clus scale="  209.510">  2  6  1 -1</clus>
<clus scale="   37.935">  1  3  2 -1</clus>
</clustering>
</event>
<event>
 6    0  0.2433432E+002  0.1056083E+03  0.7546771E-02  0.1268926E+00
          2   -1    0    0  504    0 -0.00000000000E+00  0.00000000000E+00  0.21815900450E+04  0.21815900450E+04  0.00000000000E+00 0.  1.
         21   -1    0    0  505  502  0.00000000000E+00 -0.00000000000E+00 -0.55803018406E+02  0.55803018406E+02  0.00000000000E+00 0.  1.
         21    1    1    2  503  502  0.89907415063E+02  0.77725250316E+02  0.57013513950E+02  0.13181463725E+03  0.00000000000E+00 0.  1.
         21    1    1    2  504  503 -0.10817962639E+03  0.43863475228E+02  0.24634477738E+03  0.27260334805E+03  0.00000000000E+00 0. -1.
         21    1    1    2  505  501 -0.24073333267E+02 -0.22185185858E+02  0.70635690566E+02  0.77853122146E+02  0.00000000000E+00 0. -1.
          2    1    1    2  501    0  0.42345544594E+02 -0.99403539686E+02  0.17517930447E+04  0.17551219560E+04  0.00000000000E+00 0.  1.
<scales pt_clust_3="95.40339" pt_clust_4="105.60831" pt_clust_5="32.73695" pt_clust_6="14000.00000"></scales>
<clustering>
<clus scale="   32.737">  2  5  1 -1</clus>
<clus scale="   95.403">  2  3  1 -1</clus>
<clus scale="  105.608">  2  4  1 -1</clus>
<clus scale="   32.737">  2  3  1 -1</clus>
</clustering>
</event>
<event>
 6    0  0.2433432E+002  0.7428185E+02  0.7546771E-02  0.1346109E+00
          1   -1    0    0  504    0 -0.00000000000E+00  0.00000000000E+00  0.30735411408E+04  0.30735411408E+04  0.00000000000E+00 0.  1.
         21   -1    0    0  505  502  0.00000000000E+00 -0.00000000000E+00 -0.67286969115E+02  0.67286969115E+02  0.00000000000E+00 0. -1.
         21    1    1    2  503  502 -0.35993164841E+02 -0.23532660659E+02 -0.51243851329E+02  0.66897132464E+02  0.00000000000E+00 0. -1.
         21    1    1    2  504  503  0.42681660806E+02  0.63621031633E+02  0.67044638778E+03  0.67480939436E+03  0.00000000000E+00 0. -1.
         21    1    1    2  505  501 -0.63885426716E+02 -0.60449029443E+01  0.18052331366E+03  0.19158954922E+03  0.00000000000E+00 0. -1.
          1    1    1    2  501    0  0.57196930750E+02 -0.34043468030E+02  0.22065283216E+04  0.22075320339E+04  0.00000000000E+00 0.  1.
<scales pt_clust_3="43.00342" pt_clust_4="74.28185" pt_clust_5="14000.00000" pt_clust_6="65.45016"></scales>
<clustering>
<clus scale="   43.003">  2  3  1 -1</clus>
<clus scale="   65.450">  1  6  2 -1</clus>
<clus scale="   74.282">  1  4  2 -1</clus>
<clus scale="   43.003">  2  3  1 -1</clus>
</clustering>
</event>
<event>
 6    0  0.2433432E+002  0.1300706E+03  0.7546771E-02  0.1227351E+00
         21   -1    0    0  501  502  0.00000000000E+00  0.00000000000E+00  0.20104864373E+04  0.20104864373E+04  0.00000000000E+00 0.  1.
         -3   -1    0    0    0  501 -0.00000000000E+00 -0.00000000000E+00 -0.49547264920E+02  0.49547264920E+02  0.00000000000E+00 0. -1.
         21    1    1    2  503  504 -0.92650703240E+02 -0.82563778738E+02  0.97011209443E+03  0.97801758989E+03  0.00000000000E+00 0.  1.
         21    1    1    2  504  502 -0.34080425867E+02 -0.29266970503E+01  0.85487209813E+03  0.85555616130E+03  0.00000000000E+00 0.  1.
         21    1    1    2  505  503  0.76653823045E+02  0.53997291997E+02  0.13849377441E+03  0.16724844299E+03  0.00000000000E+00 0. -1.
         -3    1    1    2    0  505  0.50077306063E+02  0.31493183792E+02 -0.25387945834E+01  0.59211508052E+02  0.00000000000E+00 0. -1.
<scales pt_clust_3="130.07060" pt_clust_4="34.20586" pt_clust_5="14000.00000" pt_clust_6="58.41248"></scales>
<clustering>
<clus scale="   34.206">  1  4  2 -1</clus>
<clus scale="   58.412">  2  6  1 -1</clus>
<clus scale="  130.071">  1  3  2 -1</clus>
<clus scale="   34.206">  1  3  2 -1</clus>
</clustering>
</event>
<event>
 6    0  0.2433432E+002  0.1025031E+03  0.7546771E-02  0.1275119E+00
          2   -1    0    0  505    0 -0.00000000000E+00  0.00000000000E+00  0.68804486837E+03  0.68804486837E+03  0.00000000000E+00 0. -1.
         21   -1    0    0  503  502  0.00000000000E+00 -0.00000000000E+00 -0.12586387622E+03  0.12586387622E+03  0.00000000000E+00 0. -1.
         21    1    1    2  503  504  0.78013173679E+01 -0.29784434529E+02  0.18864509103E+02  0.36108763432E+02  0.00000000000E+00 0. -1.
         21    1    1    2  504  501 -0.13731332621E+03  0.76630168096E+02 -0.13745640958E+02  0.15784826531E+03  0.00000000000E+00 0. -1.
         21    1    1    2  505  502  0.39302143672E+02 -0.42634546644E+01 -0.12700203933E+02  0.41522653128E+02  0.00000000000E+00 0. -1.
          2    1    1    2  501    0  0.90209865167E+02 -0.42582278903E+02  0.56976232794E+03  0.57842906271E+03  0.00000000000E+00 0. -1.
<scales pt_clust_3="30.78917" pt_clust_4="102.50310" pt_clust_5="42.59177" pt_clust_6="14000.00000"></scales>
<clustering>
<clus scale="   30.789">  2  3  1 -1</clus>
<clus scale="   42.592">  2  5  1 -1</clus>
<clus scale="  102.503">  2  4  1 -1</clus>
<clus scale="   30.789">  2  3  1 -1</clus>
</clustering>
</event>
<event>
 6    0  0.2433432E+002  0.8460791E+02  0.7546771E-02  0.1316461E+00
         21   -1    0    0  504  502  0.00000000000E+00  0.00000000000E+00  0.63768328472E+03  0.63768328472E+03  0.00000000000E+00 0. -1.
          3   -1    0    0  503    0 -0.00000000000E+00 -0.00000000000E+00 -0.86382317367E+02  0.86382317367E+02  0.00000000000E+00 0. -1.
         21    1    1    2  503  505 -0.26307611105E+02 -0.16782404583E+02  0.28581440336E+02  0.42315933610E+02  0.00000000000E+00 0. -1.
         21    1    1    2  504  501  0.69359589719E+02  0.15471215916E+02  0.37134359280E+03  0.37808223328E+03  0.00000000000E+00 0. -1.
         21    1    1    2  505  502  0.67261756820E+01 -0.67175920539E+02  0.19646683944E+03  0.20774278505E+03  0.00000000000E+00 0. -1.
          3    1    1    2  501    0 -0.49778154296E+02  0.68487109206E+02 -0.45090905224E+02  0.95924650150E+02  0.00000000000E+00 0. -1.
<scales pt_clust_3="31.20480" pt_clust_4="84.60791" pt_clust_5="68.53845" pt_clust_6="14000.00000"></scales>
<clustering>
<clus scale="   31.205">  2  3  1 -1</clus>
<clus scale="   68.538">  1  5  2 -1</clus>
<clus scale="   84.608">  1  4  2 -1</clus>
<clus scale="   68.538">  1  3  2 -1</clus>
</clustering>
</event>
<event>
 6    0  0.2433432E+002  0.6696970E+02  0.7546771E-02  0.1370712E+00
         21   -1    0    0  503  502  0.00000000000E+00  0.00000000000E+00  0.16097857780E+02  0.16097857780E+02  0.00000000000E+00 0. -1.
          2   -1    0    0  504    0 -0.00000000000E+00 -0.00000000000E+00 -0.43051899561E+04  0.43051899561E+04  0.00000000000E+00 0.  1.
         21    1    1    2  503  501 -0.63618786891E+02  0.16832811963E+02 -0.81416681171E+02  0.10468700768E+03  0.00000000000E+00 0. -1.
         21    1    1    2  504  505  0.69247723173E+02  0.51256265940E+02 -0.73101832912E+03  0.73607761104E+03  0.00000000000E+00 0. -1.
         21    1    1    2  505  502  0.33627963659E+02 -0.16409955105E+02 -0.21577658249E+03  0.21899694089E+03  0.00000000000E+00 0. -1.
          2    1    1    2  501    0 -0.39256899941E+02 -0.51679122797E+02 -0.32608805056E+04  0.32615262543E+04  0.00000000000E+00 0.  1.
<scales pt_clust_3="36.79379" pt_clust_4="66.96970" pt_clust_5="37.41827" pt_clust_6="14000.00000"></scales>
<clustering>
<clus scale="   37.418">  1  5  2 -1</clus>
<clus scale="   36.794">  1  3  2 -1</clus>
<clus scale="   66.970">  1  4  2 -1</clus>
<clus scale="   37.418">  1  3  2 -1</clus>
</clustering>
</event>
<event>
 6    0  0.2433432E+002  0.1153384E+03  0.7546771E-02  0.1250992E+00
          2   -1    0    0  505    0 -0.00000000000E+00  0.00000000000E+00  0.42246726431E+02  0.42246726431E+02  0.00000000000E+00 0.  1.
         21   -1    0    0  503  502  0.00000000000E+00 -0.00000000000E+00 -0.59418812738E+03  0.59418812738E+03  0.00000000000E+00 0.  1.
         21    1    1    2  503  501  0.80096549184E+02  0.20645906684E+02 -0.14647752595E+03  0.16821823998E+03  0.00000000000E+00 0. -1.
         21    1    1    2  504  502 -0.31485868384E+02 -0.21874810044E+02 -0.59665412385E+02  0.70921284939E+02  0.00000000000E+00 0. -1.
         21    1    1    2  505  504 -0.84087519707E+02 -0.34317076488E+02 -0.33342484233E+03  0.34557271042E+03  0.00000000000E+00 0.  1.
          2    1    1    2  501    0  0.35476838907E+02  0.35545979849E+02 -0.12373620291E+02  0.51722618469E+02  0.00000000000E+00 0.  1.
<scales pt_clust_3="104.26112" pt_clust_4="32.04495" pt_clust_5="32.04495" pt_clust_6="50.22074"></scales>
<clustering>
<clus scale="   32.045">  4  5 -1 -1</clus>
<clus scale="   50.221">  1  6  2 -1</clus>
<clus scale="  104.261">  1  3  2 -1</clus>
<clus scale="  115.338">  2  3  1 -1</clus>
</clustering>
</event>
<event>
 6    0  0.2433432E+002  0.1103452E+03  0.7546771E-02  0.1259932E+00
          2   -1    0    0  503    0 -0.00000000000E+00  0.00000000000E+00  0.27344621318E+03  0.27344621318E+03  0.00000000000E+00 0.  1.
         21   -1    0    0  501  502  0.00000000000E+00 -0.00000000000E+00 -0.62834948616E+03  0.62834948616E+03  0.00000000000E+00 0. -1.
         21    1    1    2  503  505 -0.20725450144E+02 -0.12063218587E+03 -0.34166321037E+02  0.12707873954E+03  0.00000000000E+00 0. -1.
         21    1    1    2  504  502  0.33900401489E+02  0.39841515357E+02 -0.27289333685E+03  0.27786211844E+03  0.00000000000E+00 0.  1.
         21    1    1    2  505  504  0.46728417271E+01  0.56087917011E+02 -0.26838238813E+03  0.27422034232E+03  0.00000000000E+00 0. -1.
          2    1    1    2  501    0 -0.17847793071E+02  0.24702753498E+02  0.22053877303E+03  0.22263449903E+03  0.00000000000E+00 0.  1.
<scales pt_clust_3="105.12272" pt_clust_4="32.08150" pt_clust_5="32.08150" pt_clust_6="30.47572"></scales>
<clustering>
<clus scale="   30.476">  1  6  2 -1</clus>
<clus scale="   32.081">  4  5 -1 -1</clus>
<clus scale="  105.123">  1  3  2 -1</clus>
<clus scale="  110.345">  2  3  1 -1</clus>
</clustering>
</event>
<event>
 6    0  0.2433432E+002  0.9751164E+02  0.7546771E-02  0.1285617E+00
          3   -1    0    0  503    0 -0.00000000000E+00  0.00000000000E+00  0.51393872603E+03  0.51393872603E+03  0.00000000000E+00 0. -1.
         21   -1    0    0  504  502  0.00000000000E+00 -0.00000000000E+00 -0.94071440891E+02  0.94071440891E+02  0.00000000000E+00 0.  1.
         21    1    1    2  503  502  0.41440296955E+01 -0.82408272948E+02  0.91256721165E+02  0.12302879984E+03  0.00000000000E+00 0.  1.
         21    1    1    2  504  505 -0.98961393916E+02  0.44560242729E+01 -0.22631520516E+02  0.10161397226E+03  0.00000000000E+00 0.  1.
         21    1    1    2  505  501  0.90941999793E+02  0.28200377696E+02  0.16445716499E+03  0.19003122834E+03  0.00000000000E+00 0. -1.
          3    1    1    2  501    0  0.38753644272E+01  0.49751870979E+02  0.18678491950E+03  0.19333616648E+03  0.00000000000E+00 0. -1.
<scales pt_clust_3="66.17260" pt_clust_4="14000.00000" pt_clust_5="97.51164" pt_clust_6="49.90258"></scales>
<clustering>
<clus scale="   49.903">  1  6  2 -1</clus>
<clus scale="   66.173">  1  3  2 -1</clus>
<clus scale="   97.512">  1  5  2 -1</clus>
<clus scale="   97.512">  2  3  1 -1</clus>
</clustering>
</event>
<event>
 6    0  0.2433432E+002  0.7699373E+02  0.7546771E-02  0.1337806E+00
         21   -1    0    0  504  502  0.00000000000E+00  0.00000000000E+00  0.46314982235E+03  0.46314982235E+03  0.00000000000E+00 0.  1.
         -2   -1    0    0    0  501 -0.00000000000E+00 -0.00000000000E+00 -0.44001270256E+03  0.44001270256E+03  0.00000000000E+00 0.  1.
         21    1    1    2  503  502  0.24435561163E+02 -0.45923386871E+02  0.31988400964E+03  0.32408615172E+03  0.00000000000E+00 0.  1.
         21    1    1    2  504  501 -0.58772899778E+02  0.72127896296E+01 -0.15991606509E+03  0.17052690684E+03  0.00000000000E+00 0.  1.
         21    1    1    2  505  503  0.46615029544E+02  0.83206515026E+02  0.11677703203E+03  0.15077519800E+03  0.00000000000E+00 0.  1.
         -2    1    1    2    0  505 -0.12277690930E+02 -0.44495917784E+02 -0.25360785679E+03  0.25777426835E+03  0.00000000000E+00 0.  1.
<scales pt_clust_3="52.40302" pt_clust_4="76.99373" pt_clust_5="14000.00000" pt_clust_6="46.15873"></scales>
<clustering>
<clus scale="   46.159">  2  6  1 -1</clus>
<clus scale="   52.403">  1  3  2 -1</clus>
<clus scale="   76.994">  2  4  1 -1</clus>
<clus scale="   52.403">  1  3  2 -1</clus>
</clustering>
</event>
<event>
 6    0  0.2433432E+002  0.9031271E+02  0.7546771E-02  0.1302096E+00
         21   -1    0    0  503  502  0.00000000000E+00  0.00000000000E+00  0.14104707287E+04  0.14104707287E+04  0.00000000000E+00 0.  1.
          1   -1    0    0  504    0 -0.00000000000E+00 -0.00000000000E+00 -0.67653225797E+02  0.67653225797E+02  0.00000000000E+00 0. -1.
         21    1    1    2  503  505  0.52195620379E+02  0.19600766701E+02  0.85945524558E+03  0.86126180224E+03  0.00000000000E+00 0.  1.
         21    1    1    2  504  502  0.15245286493E+02 -0.70274157956E+02  0.14693204976E+03  0.16358454476E+03  0.00000000000E+00 0.  1.
         21    1    1    2  505  501 -0.50898561675E+02  0.96688330256E+02  0.37525557433E+03  0.39084017559E+03  0.00000000000E+00 0.  1.
          1    1    1    2  501    0 -0.16542345197E+02 -0.46014939001E+02 -0.38825366784E+02  0.62437431896E+02  0.00000000000E+00 0. -1.
<scales pt_clust_3="54.11048" pt_clust_4="90.31271" pt_clust_5="14000.00000" pt_clust_6="48.89810"></scales>
<clustering>
<clus scale="   48.898">  2  6  1 -1</clus>
<clus scale="   54.110">  1  3  2 -1</clus>
<clus scale="   90.313">  2  4  1 -1</clus>
<clus scale="   54.110">  1  3  2 -1</clus>
</clustering>
</event>
<event>
 6    0  0.2433432E+002  0.1645070E+03  0.7546771E-02  0.1183700E+00
         21   -1    0    0  503  502  0.00000000000E+00  0.00000000000E+00  0.44832397653E+03  0.44832397653E+03  0.00000000000E+00 0.  1.
          2   -1    0    0  505    0 -0.00000000000E+00 -0.00000000000E+00 -0.14377440890E+04  0.14377440890E+04  0.00000000000E+00 0. -1.
         21    1    1    2  503  501 -0.14525542611E+03  0.64978545733E+02  0.42237578417E+03  0.45135645922E+03  0.00000000000E+00 0.  1.
         21    1    1    2  504  502  0.42050646130E+02 -0.15223108688E+02 -0.20457960695E+03  0.20941063836E+03  0.00000000000E+00 0.  1.
         21    1    1    2  505  504  0.61323074164E+02 -0.39713322784E+02 -0.14646296449E+03  0.16367366128E+03  0.00000000000E+00 0. -1.
          2    1    1    2  501    0  0.41881705816E+02 -0.10042114261E+02 -0.10607533252E+04  0.10616273067E+04  0.00000000000E+00 0. -1.
<scales pt_clust_3="157.49816" pt_clust_4="37.16832" pt_clust_5="37.16832" pt_clust_6="43.06880"></scales>
<clustering>
<clus scale="   37.168">  4  5 -1 -1</clus>
<clus scale="   43.069">  2  6  1 -1</clus>
<clus scale="  157.498">  1  3  2 -1</clus>
<clus scale="  157.498">  1  3  2 -1</clus>
</clustering>
</event>
<event>
 6    0  0.2433432E+002  0.7416767E+02  0.7546771E-02  0.1346468E+00
         21   -1    0    0  504  502  0.00000000000E+00  0.00000000000E+00  0.86520510860E+02  0.86520510860E+02  0.00000000000E+00 0. -1.
          1   -1    0    0  505    0 -0.00000000000E+00 -0.00000000000E+00 -0.14133879817E+04  0.14133879817E+04  0.00000000000E+00 0.  1.
         21    1    1    2  503  501 -0.44118034239E+02  0.10755115108E+02 -0.37992585431E+02  0.59207347465E+02  0.00000000000E+00 0. -1.
         21    1    1    2  504  503 -0.24728690942E+02 -0.25803276722E+02 -0.32574806368E+02  0.48357370226E+02  0.00000000000E+00 0.  1.
         21    1    1    2  505  502  0.11211087151E+03 -0.44637618832E+02  0.12579751357E+02  0.12132441910E+03  0.00000000000E+00 0. -1.
          1    1    1    2  501    0 -0.43264146331E+02  0.59685780445E+02 -0.12688798304E+04  0.12710193558E+04  0.00000000000E+00 0.  1.
<scales pt_clust_3="48.00831" pt_clust_4="35.73958" pt_clust_5="14000.00000" pt_clust_6="74.16767"></scales>
<clustering>
<clus scale="   35.740">  1  4  2 -1</clus>
<clus scale="   48.008">  1  3  2 -1</clus>
<clus scale="   74.168">  2  6  1 -1</clus>
<clus scale="   35.740">  1  3  2 -1</clus>
</clustering>
</event>
<event>
 6    0  0.2433432E+002  0.1805346E+03  0.7546771E-02  0.1167287E+00
         21   -1    0    0  503  502  0.00000000000E+00  0.00000000000E+00  0.12912339298E+04  0.12912339298E+04  0.00000000000E+00 0.  1.
         -2   -1    0    0    0  501 -0.00000000000E+00 -0.00000000000E+00 -0.12526313556E+03  0.12526313556E+03  0.00000000000E+00 0.  1.
         21    1    1    2  503  504  0.50981987077E+02 -0.36984687667E+02  0.46251840553E+03  0.46678721660E+03  0.00000000000E+00 0.  1.
         21    1    1    2  504  501  0.14014100917E+03 -0.35006587541E+02  0.56410027589E+03  0.58230068253E+03  0.00000000000E+00 0.  1.
         21    1    1    2  505  502 -0.34221975065E+02  0.23765556156E+02  0.19087366903E+03  0.19536812116E+03  0.00000000000E+00 0. -1.
         -2    1    1    2    0  505 -0.15690102118E+03  0.48225719052E+02 -0.51521556221E+02  0.17204104505E+03  0.00000000000E+00 0.  1.
<scales pt_clust_3="42.40167" pt_clust_4="42.40167" pt_clust_5="41.66468" pt_clust_6="166.32490"></scales>
<clustering>
<clus scale="   41.665">  1  5  2 -1</clus>
<clus scale="   42.402">  3  4 -1 -1</clus>
<clus scale="  166.325">  2  6  1 -1</clus>
<clus scale="   41.665">  1  3  2 -1</clus>
</clustering>
</event>
<event>
 6    0  0.2433432E+002  0.6465261E+02  0.7546771E-02  0.1379283E+00
          2   -1    0    0  505    0 -0.00000000000E+00  0.00000000000E+00  0.20384500458E+04  0.20384500458E+04  0.00000000000E+00 0. -1.
         21   -1    0    0  503  502  0.00000000000E+00 -0.00000000000E+00 -0.41656336144E+03  0.41656336144E+03  0.00000000000E+00 0. -1.
         21    1    1    2  503  504 -0.67904306561E+02 -0.32714596890E+02 -0.25367664177E+03  0.26463763579E+03  0.00000000000E+00 0. -1.
         21    1    1    2  504  501  0.81074220987E+02  0.71004529354E+02  0.38927192868E+02  0.11458620703E+03  0.00000000000E+00 0. -1.
         21    1    1    2  505  502  0.38485948857E+02 -0.40492744438E+00 -0.11594075079E+03  0.12216214602E+03  0.00000000000E+00 0. -1.
          2    1    1    2  501    0 -0.51655863283E+02 -0.37885005020E+02  0.19525768841E+04  0.19536274184E+04  0.00000000000E+00 0. -1.
<scales pt_clust_3="47.70142" pt_clust_4="64.65261" pt_clust_5="38.48808" pt_clust_6="14000.00000"></scales>
<clustering>
<clus scale="   38.488">  2  5  1 -1</clus>
<clus scale="   47.701">  2  3  1 -1</clus>
<clus scale="   64.653">  2  4  1 -1</clus>
<clus scale="   38.488">  2  3  1 -1</clus>
</clustering>
</event>
<event>
 6    0  0.2433432E+002  0.2004742E+03  0.7546771E-02  0.1149340E+00
         21   -1    0    0  501  502  0.00000000000E+00  0.00000000000E+00  0.90435367296E+02  0.90435367296E+02  0.00000000000E+00 0.  1.
          1   -1    0    0  504    0 -0.00000000000E+00 -0.00000000000E+00 -0.39395888935E+04  0.39395888935E+04  0.00000000000E+00 0. -1.
         21    1    1    2  503  505 -0.27250576147E+02 -0.73478343146E+02 -0.87651327829E+02  0.11757727707E+03  0.00000000000E+00 0.  1.
         21    1    1    2  504  503  0.16100266270E+02 -0.86405116298E+02 -0.53259796548E+02  0.10276997920E+03  0.00000000000E+00 0. -1.
         21    1    1    2  505  502 -0.36622307770E+02 -0.29230453527E+02  0.36786293195E+02  0.59572176448E+02  0.00000000000E+00 0.  1.
          1    1    1    2  501    0  0.47772617648E+02  0.18911391297E+03 -0.37450286950E+04  0.37501048281E+04  0.00000000000E+00 0. -1.
<scales pt_clust_3="51.95707" pt_clust_4="51.95707" pt_clust_5="46.85737" pt_clust_6="192.82115"></scales>
<clustering>
<clus scale="   46.857">  1  5  2 -1</clus>
<clus scale="   51.957">  3  4 -1 -1</clus>
<clus scale="  192.821">  2  6  1 -1</clus>
<clus scale="   46.857">  1  3  2 -1</clus>
</clustering>
</event>
<event>
 6    0  0.2433432E+002  0.7878109E+02  0.7546771E-02  0.1332547E+00
         21   -1    0    0  505  502  0.00000000000E+00  0.00000000000E+00  0.11039131210E+04  0.11039131210E+04  0.00000000000E+00 0.  1.
          3   -1    0    0  503    0 -0.00000000000E+00 -0.00000000000E+00 -0.61534601322E+02  0.61534601322E+02  0.00000000000E+00 0. -1.
         21    1    1    2  503  502 -0.64255643589E+02  0.21984941643E+01  0.62063911047E+02  0.89361905553E+02  0.00000000000E+00 0.  1.
         21    1    1    2  504  501  0.59384955252E+01  0.69358396614E+02  0.98754030193E+02  0.12082305819E+03  0.00000000000E+00 0. -1.
         21    1    1    2  505  504 -0.23156640260E+02 -0.23243519829E+02  0.85670684400E+03  0.85733488658E+03  0.00000000000E+00 0.  1.
          3    1    1    2  501    0  0.81473788324E+02 -0.48313370949E+02  0.24853734425E+02  0.97927871983E+02  0.00000000000E+00 0. -1.
<scales pt_clust_3="78.78109" pt_clust_4="59.18315" pt_clust_5="32.80993" pt_clust_6="14000.00000"></scales>
<clustering>
<clus scale="   32.810">  1  5  2 -1</clus>
<clus scale="   59.183">  1  4  2 -1</clus>
<clus scale="   78.781">  1  3  2 -1</clus>
<clus scale="   32.810">  1  3  2 -1</clus>
</clustering>
</event>
<event>
 6    0  0.2433432E+002  0.5736698E+02  0.7546771E-02  0.1409226E+00
         21   -1    0    0  504  502  0.00000000000E+00  0.00000000000E+00  0.12310411500E+03  0.12310411500E+03  0.00000000000E+00 0.  1.
          1   -1    0    0  505    0 -0.00000000000E+00 -0.00000000000E+00 -0.13083293305E+04  0.13083293305E+04  0.00000000000E+00 0. -1.
         21    1    1    2  503  502  0.31873206791E+02 -0.51937526414E+02  0.57931279347E+02  0.84079968410E+02  0.00000000000E+00 0.  1.
         21    1    1    2  504  501  0.17884908547E+02  0.36899612376E+02  0.19936404027E+01  0.41053939509E+02  0.00000000000E+00 0.  1.
         21    1    1    2  505  503 -0.10259385447E+03 -0.48565460066E+01 -0.58288489837E+02  0.11809586386E+03  0.00000000000E+00 0.  1.
          1    1    1    2  501    0  0.52835739131E+02  0.19894460045E+02 -0.11868616455E+04  0.11882036738E+04  0.00000000000E+00 0. -1.
<scales pt_clust_3="51.50399" pt_clust_4="41.00550" pt_clust_5="57.36698" pt_clust_6="14000.00000"></scales>
<clustering>
<clus scale="   41.006">  1  4  2 -1</clus>
<clus scale="   51.504">  1  3  2 -1</clus>
<clus scale="   57.367">  1  5  2 -1</clus>
<clus scale="   41.006">  1  3  2 -1</clus>
</clustering>
</event>
<event>
 6    0  0.2433432E+002  0.7007237E+02  0.7546771E-02  0.1359847E+00
         21   -1    0    0  505  502  0.00000000000E+00  0.00000000000E+00  0.11532414248E+02  0.11532414248E+02  0.00000000000E+00 0.  1.
          2   -1    0    0  504    0 -0.00000000000E+00 -0.00000000000E+00 -0.16790230144E+04  0.16790230144E+04  0.00000000000E+00 0. -1.
         21    1    1    2  503  502 -0.14104515696E+02  0.39482154739E+02 -0.19428511019E+03  0.19875734438E+03  0.00000000000E+00 0.  1.
         21    1    1    2  504  503  0.37609894584E+02  0.45006259628E+02 -0.53785497734E+03  0.54104347721E+03  0.00000000000E+00 0.  1.
         21    1    1    2  505  501 -0.71625284132E+02 -0.16690116467E+02 -0.25660075931E+03  0.26693199695E+03  0.00000000000E+00 0.  1.
          2    1    1    2  501    0  0.48119905243E+02 -0.67798297900E+02 -0.67874975334E+03  0.68382261014E+03  0.00000000000E+00 0. -1.
<scales pt_clust_3="41.92586" pt_clust_4="62.60421" pt_clust_5="70.07237" pt_clust_6="14000.00000"></scales>
<clustering>
<clus scale="   41.926">  1  3  2 -1</clus>
<clus scale="   62.604">  2  4  1 -1</clus>
<clus scale="   70.072">  1  5  2 -1</clus>
<clus scale="   41.926">  1  3  2 -1</clus>
</clustering>
</event>
<event>
 6    0  0.2433432E+002  0.1160019E+03  0.7546771E-02  0.1249842E+00
         21   -1    0    0  505  502  0.00000000000E+00  0.00000000000E+00  0.21491706358E+03  0.21491706358E+03  0.00000000000E+00 0.  1.
          1   -1    0    0  503    0 -0.00000000000E+00 -0.00000000000E+00 -0.21580399985E+04  0.21580399985E+04  0.00000000000E+00 0.  1.
         21    1    1    2  503  502 -0.50553177136E+02  0.87510421629E+02 -0.99742858067E+02  0.14199413843E+03  0.00000000000E+00 0.  1.
         21    1    1    2  504  501 -0.20326805536E+02 -0.99343846172E+02  0.11580582290E+03  0.15392650003E+03  0.00000000000E+00 0.  1.
         21    1    1    2  505  504  0.41029513758E+02 -0.29647341903E+02  0.47668279990E+02  0.69531653211E+02  0.00000000000E+00 0.  1.
          1    1    1    2  501    0  0.29850468914E+02  0.41480766446E+02 -0.20068541798E+04  0.20075047704E+04  0.00000000000E+00 0.  1.
<scales pt_clust_3="14000.00000" pt_clust_4="116.00195" pt_clust_5="50.62001" pt_clust_6="51.10474"></scales>
<clustering>
<clus scale="   50.620">  1  5  2 -1</clus>
<clus scale="   51.105">  2  6  1 -1</clus>
<clus scale="  116.002">  1  4  2 -1</clus>
<clus scale="   50.620">  1  3  2 -1</clus>
</clustering>
</event>
<event>
 6    0  0.2433432E+002  0.9568853E+02  0.7546771E-02  0.1289633E+00
          2   -1    0    0  504    0 -0.00000000000E+00  0.00000000000E+00  0.15860277937E+04  0.15860277937E+04  0.00000000000E+00 0.  1.
         21   -1    0    0  505  502  0.00000000000E+00 -0.00000000000E+00 -0.19307492056E+02  0.19307492056E+02  0.00000000000E+00 0.  1.
         21    1    1    2  503  501  0.68266592298E+02  0.12985843399E+01  0.45561521103E+03  0.46070297857E+03  0.00000000000E+00 0. -1.
         21    1    1    2  504  502  0.14949560380E+02 -0.28478029287E+02  0.70014490970E+03  0.70088328706E+03  0.00000000000E+00 0.  1.
         21    1    1    2  505  503 -0.93941185387E+02  0.64246194692E+02  0.20749693312E+03  0.23665903130E+03  0.00000000000E+00 0.  1.
          2    1    1    2  501    0  0.10725032709E+02 -0.37066749745E+02  0.20346324781E+03  0.20708998883E+03  0.00000000000E+00 0.  1.
<scales pt_clust_3="14000.00000" pt_clust_4="32.16345" pt_clust_5="95.68853" pt_clust_6="45.91627"></scales>
<clustering>
<clus scale="   32.163">  1  4  2 -1</clus>
<clus scale="   45.916">  1  6  2 -1</clus>
<clus scale="   95.689">  2  5  1 -1</clus>
<clus scale="   95.689">  2  3  1 -1</clus>
</clustering>
</event>
<event>
 6    0  0.2433432E+002  0.9106395E+02  0.7546771E-02  0.1300295E+00
         21   -1    0    0  505  502  0.00000000000E+00  0.00000000000E+00  0.40095751667E+03  0.40095751667E+03  0.00000000000E+00 0.  1.
          2   -1    0    0  504    0 -0.00000000000E+00 -0.00000000000E+00 -0.93363270344E+03  0.93363270344E+03  0.00000000000E+00 0. -1.
         21    1    1    2  503  502  0.64759605967E+02  0.53130835546E+01  0.14073593695E+03  0.15501173946E+03  0.00000000000E+00 0.  1.
         21    1    1    2  504  503 -0.93267318933E+01  0.89189699056E+02  0.21421471811E+03  0.23222776708E+03  0.00000000000E+00 0.  1.
         21    1    1    2  505  501 -0.34263533209E+02 -0.58657479393E+01  0.16615549319E+02  0.38528861727E+02  0.00000000000E+00 0.  1.
          2    1    1    2  501    0 -0.21169340865E+02 -0.88637034671E+02 -0.90424139115E+03  0.90882185184E+03  0.00000000000E+00 0. -1.
<scales pt_clust_3="51.27728" pt_clust_4="14000.00000" pt_clust_5="34.76200" pt_clust_6="91.06395"></scales>
<clustering>
<clus scale="   34.762">  1  5  2 -1</clus>
<clus scale="   51.277">  1  3  2 -1</clus>
<clus scale="   91.064">  2  6  1 -1</clus>
<clus scale="   34.762">  1  3  2 -1</clus>
</clustering>
</event>
<event>
 6    0  0.2433432E+002  0.6333331E+02  0.7546771E-02  0.1384353E+00
         -3   -1    0    0    0  501 -0.00000000000E+00  0.00000000000E+00  0.19392640079E+03  0.19392640079E+03  0.00000000000E+00 0. -1.
         21   -1    0    0  504  502  0.00000000000E+00 -0.00000000000E+00 -0.23522754102E+03  0.23522754102E+03  0.00000000000E+00 0. -1.
         21    1    1    2  503  505  0.24968820406E+02 -0.59932761043E+02  0.84184025361E+01  0.65469438213E+02  0.00000000000E+00 0. -1.
         21    1    1    2  504  501 -0.15852196533E+02  0.77687327709E+02  0.11782705553E+03  0.14202051978E+03  0.00000000000E+00 0. -1.
         21    1    1    2  505  502  0.43503400086E+01 -0.62497852323E+02 -0.16311010072E+03  0.17472782251E+03  0.00000000000E+00 0. -1.
         -3    1    1    2    0  503 -0.13466963881E+02  0.44743285656E+02 -0.44364975905E+01  0.46936161308E+02  0.00000000000E+00 0. -1.
<scales pt_clust_3="54.99082" pt_clust_4="14000.00000" pt_clust_5="63.33331" pt_clust_6="46.72602"></scales>
<clustering>
<clus scale="   46.726">  1  6  2 -1</clus>
<clus scale="   54.991">  1  3  2 -1</clus>
<clus scale="   63.333">  2  5  1 -1</clus>
<clus scale="   63.333">  2  3  1 -1</clus>
</clustering>
</event>
<event>
 6    0  0.2433432E+002  0.1742547E+03  0.7546771E-02  0.1173482E+00
         21   -1    0    0  504  502  0.00000000000E+00  0.00000000000E+00  0.28701534991E+03  0.28701534991E+03  0.00000000000E+00 0. -1.
          2   -1    0    0  503    0 -0.00000000000E+00 -0.00000000000E+00 -0.14260951250E+04  0.14260951250E+04  0.00000000000E+00 0. -1.
         21    1    1    2  503  502  0.18811703053E+02 -0.15988061665E+03 -0.77959202637E+03  0.79603983527E+03  0.00000000000E+00 0. -1.
         21    1    1    2  504  505 -0.36252601945E+02  0.12243121163E+03  0.20994444341E+03  0.24572407707E+03  0.00000000000E+00 0. -1.
         21    1    1    2  505  501 -0.33402041356E+02  0.28174703375E+02  0.40290366718E+02  0.59437563268E+02  0.00000000000E+00 0. -1.
          2    1    1    2  501    0  0.50842940248E+02  0.92747016373E+01 -0.60972255880E+03  0.61190899926E+03  0.00000000000E+00 0. -1.
<scales pt_clust_3="165.50666" pt_clust_4="31.89351" pt_clust_5="31.89351" pt_clust_6="51.68196"></scales>
<clustering>
<clus scale="   31.894">  4  5 -1 -1</clus>
<clus scale="   51.682">  2  6  1 -1</clus>
<clus scale="  165.507">  2  3  1 -1</clus>
<clus scale="  174.255">  1  3  2 -1</clus>
</clustering>
</event>
<event>
 6    0  0.2433432E+002  0.8935862E+02  0.7546771E-02  0.1304412E+00
          2   -1    0    0  503    0 -0.00000000000E+00  0.00000000000E+00  0.86340959355E+03  0.86340959355E+03  0.00000000000E+00 0.  1.
         21   -1    0    0  504  502  0.00000000000E+00 -0.00000000000E+00 -0.16141576889E+03  0.16141576889E+03  0.00000000000E+00 0. -1.
         21    1    1    2  503  505  0.36348742597E+02  0.10429071758E+02  0.83532342431E+02  0.91693232346E+02  0.00000000000E+00 0.  1.
         21    1    1    2  504  501 -0.50091560990E+02 -0.68030948915E+02 -0.10737765676E+03  0.13662845847E+03  0.00000000000E+00 0. -1.
         21    1    1    2  505  502  0.72047995749E+02  0.12633638188E+03  0.13373127194E+03  0.19757491787E+03  0.00000000000E+00 0. -1.
          2    1    1    2  501    0 -0.58305177357E+02 -0.68734504726E+02  0.59210786705E+03  0.59892875375E+03  0.00000000000E+00 0.  1.
<scales pt_clust_3="37.81530" pt_clust_4="14000.00000" pt_clust_5="89.35862" pt_clust_6="67.91429"></scales>
<clustering>
<clus scale="   37.815">  1  3  2 -1</clus>
<clus scale="   67.914">  1  6  2 -1</clus>
<clus scale="   89.359">  1  5  2 -1</clus>
<clus scale="   89.359">  2  3  1 -1</clus>
</clustering>
</event>
<event>
 6    0  0.2433432E+002  0.7260619E+02  0.7546771E-02  0.1351448E+00
          1   -1    0    0  503    0 -0.00000000000E+00  0.00000000000E+00  0.21493300937E+04  0.21493300937E+04  0.00000000000E+00 0. -1.
         21   -1    0    0  505  502  0.00000000000E+00 -0.00000000000E+00 -0.37120889536E+03  0.37120889536E+03  0.00000000000E+00 0.  1.
         21    1    1    2  503  502 -0.62655395736E+02  0.15802747809E+02 -0.18356656002E+03  0.19460757285E+03  0.00000000000E+00 0.  1.
         21    1    1    2  504  501  0.38172068940E+02  0.51238072186E+02 -0.15253499994E+02  0.65689543692E+02  0.00000000000E+00 0.  1.
         21    1    1    2  505  504  0.87133034816E+02 -0.64153767210E+02 -0.12044963740E+03  0.16191351628E+03  0.00000000000E+00 0.  1.
          1    1    1    2  501    0 -0.62649708020E+02 -0.28870527847E+01  0.20973908958E+04  0.20983283562E+04  0.00000000000E+00 0. -1.
<scales pt_clust_3="14000.00000" pt_clust_4="50.38143" pt_clust_5="72.60619" pt_clust_6="62.71619"></scales>
<clustering>
<clus scale="   62.716">  1  6  2 -1</clus>
<clus scale="   50.381">  1  4  2 -1</clus>
<clus scale="   72.606">  1  5  2 -1</clus>
<clus scale="   72.606">  2  3  1 -1</clus>
</clustering>
</event>
<event>
 6    0  0.2433432E+002  0.1303810E+03  0.7546771E-02  0.1226891E+00
         -1   -1    0    0    0  501 -0.00000000000E+00  0.00000000000E+00  0.71244389634E+02  0.71244389634E+02  0.00000000000E+00 0.  1.
         21   -1    0    0  503  502  0.00000000000E+00 -0.00000000000E+00 -0.72949076892E+03  0.72949076892E+03  0.00000000000E+00 0.  1.
         21    1    1    2  503  501 -0.43386609429E+02  0.44300977729E+02 -0.48359474748E+02  0.78635954267E+02  0.00000000000E+00 0. -1.
         21    1    1    2  504  502 -0.42534452324E+02 -0.11552891631E+03 -0.58412308978E+03  0.59695552108E+03  0.00000000000E+00 0.  1.
         21    1    1    2  505  504  0.14881085138E+02  0.31191621331E+02 -0.26573147150E+02  0.43594679557E+02  0.00000000000E+00 0. -1.
         -1    1    1    2    0  505  0.71039976616E+02  0.40036317247E+02  0.80933239614E+00  0.81549003643E+02  0.00000000000E+00 0.  1.
<scales pt_clust_3="62.00786" pt_clust_4="120.24097" pt_clust_5="32.81823" pt_clust_6="32.81823"></scales>
<clustering>
<clus scale="   32.818">  5  6 -1 -1</clus>
<clus scale="   62.008">  1  3  2 -1</clus>
<clus scale="  120.241">  2  4  1 -1</clus>
<clus scale="  120.241">  2  3  1 -1</clus>
</clustering>
</event>
<event>
 6    0  0.2433432E+002  0.1099655E+03  0.7546771E-02  0.1260634E+00
          2   -1    0    0  504    0 -0.00000000000E+00  0.00000000000E+00  0.84061743724E+03  0.84061743724E+03  0.00000000000E+00 0. -1.
         21   -1    0    0  505  502  0.00000000000E+00 -0.00000000000E+00 -0.77203231937E+03  0.77203231937E+03  0.00000000000E+00 0. -1.
         21    1    1    2  503  501  0.11500513803E+03  0.70690619235E+02  0.55702749253E+03  0.57315178867E+03  0.00000000000E+00 0. -1.
         21    1    1    2  504  502 -0.55064016627E+02 -0.73230066307E+02  0.11667617670E+02  0.92362448217E+02  0.00000000000E+00 0. -1.
         21    1    1    2  505  503 -0.53887044884E+02  0.39605603797E+02 -0.72048549269E+03  0.72358258868E+03  0.00000000000E+00 0. -1.
          2    1    1    2  501    0 -0.60540765210E+01 -0.37066156724E+02  0.22037550037E+03  0.22355293104E+03  0.00000000000E+00 0. -1.
<scales pt_clust_3="109.96549" pt_clust_4="14000.00000" pt_clust_5="66.83345" pt_clust_6="37.55731"></scales>
<clustering>
<clus scale="   37.557">  1  6  2 -1</clus>
<clus scale="   66.833">  2  5  1 -1</clus>
<clus scale="  109.965">  1  3  2 -1</clus>
<clus scale="   66.833">  2  3  1 -1</clus>
</clustering>
</event>
<event>
 6    0  0.2433432E+002  0.1161665E+03  0.7546771E-02  0.1249558E+00
         21   -1    0    0  503  502  0.00000000000E+00  0.00000000000E+00  0.52067410994E+03  0.52067410994E+03  0.00000000000E+00 0. -1.
          4   -1    0    0  505    0 -0.00000000000E+00 -0.00000000000E+00 -0.28010523262E+03  0.28010523262E+03  0.00000000000E+00 0.  1.
         21    1    1    2  503  504  0.10634642837E+02 -0.35765208531E+02  0.37531876348E+03  0.37716895417E+03  0.00000000000E+00 0. -1.
         21    1    1    2  504  501  0.82868207590E+02  0.57363083390E+02  0.43013838682E+02  0.10958035172E+03  0.00000000000E+00 0. -1.
         21    1    1    2  505  502  0.79761496350E+01  0.40943115226E+02  0.45011622747E+02  0.61367775174E+02  0.00000000000E+00 0. -1.
          4    1    1    2  501    0 -0.10147900006E+03 -0.62540990085E+02 -0.22277534758E+03  0.25266226149E+03  0.00000000000E+00 0.  1.
<scales pt_clust_3="37.31281" pt_clust_4="14000.00000" pt_clust_5="30.21101" pt_clust_6="116.16653"></scales>
<clustering>
<clus scale="   37.313">  1  3  2 -1</clus>
<clus scale="   30.211">  1  5  2 -1</clus>
<clus scale="  116.167">  2  6  1 -1</clus>
<clus scale="   37.313">  1  3  2 -1</clus>
</clustering>
</event>
<event>
 6    0  0.2433432E+002  0.1893320E+03  0.7546771E-02  0.1159065E+00
         21   -1    0    0  503  502  0.00000000000E+00  0.00000000000E+00  0.10600843990E+03  0.10600843990E+03  0.00000000000E+00 0.  1.
          1   -1    0    0  502    0 -0.00000000000E+00 -0.00000000000E+00 -0.88658422642E+03  0.88658422642E+03  0.00000000000E+00 0. -1.
         21    1    1    2  503  504 -0.75533670941E+02 -0.63323100662E+01  0.27132807414E+02  0.80508526472E+02  0.00000000000E+00 0.  1.
         21    1    1    2  504  505 -0.40365639272E+02  0.32947379518E+02 -0.16752187874E+02  0.54731622025E+02  0.00000000000E+00 0.  1.
         21    1    1    2  505  501 -0.56804368764E+02  0.74928905455E+02 -0.97154753309E+02  0.13520400613E+03  0.00000000000E+00 0.  1.
          1    1    1    2  501    0  0.17270367898E+03 -0.10154397491E+03 -0.69380165275E+03  0.72214851169E+03  0.00000000000E+00 0. -1.
<scales pt_clust_3="75.79864" pt_clust_4="33.46910" pt_clust_5="33.46910" pt_clust_6="183.91615"></scales>
<clustering>
<clus scale="   33.469">  4  5 -1 -1</clus>
<clus scale="   75.799">  1  3  2 -1</clus>
<clus scale="  183.916">  2  6  1 -1</clus>
<clus scale="   75.799">  1  3  2 -1</clus>
</clustering>
</event>
<event>
 6    0  0.2433432E+002  0.1165662E+03  0.7546771E-02  0.1248872E+00
          1   -1    0    0  502    0 -0.00000000000E+00  0.00000000000E+00  0.19933109016E+03  0.19933109016E+03  0.00000000000E+00 0. -1.
         21   -1    0    0  503  502  0.00000000000E+00 -0.00000000000E+00 -0.28510805003E+03  0.28510805003E+03  0.00000000000E+00 0.  1.
         21    1    1    2  503  504  0.33143727125E+02  0.49167441850E+02 -0.18063250881E+03  0.19011587841E+03  0.00000000000E+00 0.  1.
         21    1    1    2  504  505  0.43829286911E+02 -0.24590524507E+02 -0.10016674604E+01  0.50266326943E+02  0.00000000000E+00 0. -1.
         21    1    1    2  505  501  0.26016614243E+02 -0.61290736226E+02 -0.33619513645E+02  0.74590148555E+02  0.00000000000E+00 0. -1.
          1    1    1    2  501    0 -0.10298962828E+03  0.36713818882E+02  0.12947673005E+03  0.16946678628E+03  0.00000000000E+00 0. -1.
<scales pt_clust_3="59.29540" pt_clust_4="40.15683" pt_clust_5="40.15683" pt_clust_6="107.01026"></scales>
<clustering>
<clus scale="   40.157">  4  5 -1 -1</clus>
<clus scale="   59.295">  2  3  1 -1</clus>
<clus scale="  107.010">  1  6  2 -1</clus>
<clus scale="   59.295">  2  3  1 -1</clus>
</clustering>
</event>
<event>
 6    0  0.2433432E+002  0.1097465E+03  0.7546771E-02  0.1261040E+00
         21   -1    0    0  503  502  0.00000000000E+00  0.00000000000E+00  0.14137716787E+04  0.14137716787E+04  0.00000000000E+00 0.  1.
         -1   -1    0    0    0  501 -0.00000000000E+00 -0.00000000000E+00 -0.58964930076E+02  0.58964930076E+02  0.00000000000E+00 0. -1.
         21    1    1    2  503  504  0.50920784398E+02  0.63178871770E+01  0.14910275214E+03  0.15768472557E+03  0.00000000000E+00 0. -1.
         21    1    1    2  504  501  0.30532882500E+02  0.87337423677E+02  0.62462014747E+02  0.11163147305E+03  0.00000000000E+00 0. -1.
         21    1    1    2  505  502  0.15107932630E+02  0.26813375550E+02  0.97342270295E+03  0.97390911555E+03  0.00000000000E+00 0.  1.
         -1    1    1    2    0  505 -0.96561599528E+02 -0.12046868640E+03  0.16981927881E+03  0.22951129463E+03  0.00000000000E+00 0. -1.
<scales pt_clust_3="58.32891" pt_clust_4="14000.00000" pt_clust_5="30.77672" pt_clust_6="109.74651"></scales>
<clustering>
<clus scale="   30.777">  1  5  2 -1</clus>
<clus scale="   58.329">  1  3  2 -1</clus>
<clus scale="  109.747">  1  6  2 -1</clus>
<clus scale="   30.777">  1  3  2 -1</clus>
</clustering>
</event>
<event>
 6    0  0.2433432E+002  0.1025770E+03  0.7546771E-02  0.1274968E+00
         21   -1    0    0  504  502  0.00000000000E+00  0.00000000000E+00  0.44953351682E+03  0.44953351682E+03  0.00000000000E+00 0.  1.
          1   -1    0    0  505    0 -0.00000000000E+00 -0.00000000000E+00 -0.53241230703E+03  0.53241230703E+03  0.00000000000E+00 0. -1.
         21    1    1    2  503  501  0.41767161186E+02  0.66874344065E+02 -0.14695690917E+02  0.80203721729E+02  0.00000000000E+00 0. -1.
         21    1    1    2  504  503 -0.53102289812E+02  0.44839328316E+02  0.40092733842E+03  0.40690680658E+03  0.00000000000E+00 0.  1.
         21    1    1    2  505  502 -0.17274393516E+02 -0.12246337187E+03 -0.33017194464E+03  0.35257509150E+03  0.00000000000E+00 0. -1.
          1    1    1    2  501    0  0.28609522142E+02  0.10749699492E+02 -0.13893849307E+03  0.14226020404E+03  0.00000000000E+00 0. -1.
<scales pt_clust_3="14000.00000" pt_clust_4="69.38763" pt_clust_5="102.57701" pt_clust_6="30.56241"></scales>
<clustering>
<clus scale="   30.562">  2  6  1 -1</clus>
<clus scale="   69.388">  1  4  2 -1</clus>
<clus scale="  102.577">  2  5  1 -1</clus>
<clus scale="   69.388">  1  3  2 -1</clus>
</clustering>
</event>
<event>
 6    0  0.2433432E+002  0.1558165E+03  0.7546771E-02  0.1193503E+00
         21   -1    0    0  504  502  0.00000000000E+00  0.00000000000E+00  0.28090576488E+03  0.28090576488E+03  0.00000000000E+00 0. -1.
          1   -1    0    0  505    0 -0.00000000000E+00 -0.00000000000E+00 -0.14808295198E+04  0.14808295198E+04  0.00000000000E+00 0.  1.
         21    1    1    2  503  502  0.24485331920E+02  0.39163513470E+02  0.75748875004E+02  0.88719807996E+02  0.00000000000E+00 0. -1.
         21    1    1    2  504  501 -0.11731068955E+03  0.84660506680E+02  0.99559159982E+02  0.17561670083E+03  0.00000000000E+00 0. -1.
         21    1    1    2  505  503  0.86573971518E+02 -0.15553753229E+03 -0.69229593499E+02  0.19099663115E+03  0.00000000000E+00 0.  1.
          1    1    1    2  501    0  0.62513861093E+01  0.31713512135E+02 -0.13060021964E+04  0.13064021447E+04  0.00000000000E+00 0.  1.
<scales pt_clust_3="47.31149" pt_clust_4="14000.00000" pt_clust_5="155.81650" pt_clust_6="32.32378"></scales>
<clustering>
<clus scale="   32.324">  2  6  1 -1</clus>
<clus scale="   47.311">  1  3  2 -1</clus>
<clus scale="  155.817">  2  5  1 -1</clus>
<clus scale="   47.311">  1  3  2 -1</clus>
</clustering>
</event>
<event>
 6    0  0.2433432E+002  0.1525408E+03  0.7546771E-02  0.1197385E+00
          4   -1    0    0  505    0 -0.00000000000E+00  0.00000000000E+00  0.12826924419E+04  0.12826924419E+04  0.00000000000E+00 0.  1.
         21   -1    0    0  504  502  0.00000000000E+00 -0.00000000000E+00 -0.22629037319E+03  0.22629037319E+03  0.00000000000E+00 0.  1.
         21    1    1    2  503  501 -0.15706119287E+03  0.15398118981E+03  0.12334190273E+03  0.25217384894E+03  0.00000000000E+00 0.  1.
         21    1    1    2  504  503  0.58770092479E+02 -0.54614932503E+02 -0.14197741401E+03  0.16307759108E+03  0.00000000000E+00 0.  1.
         21    1    1    2  505  502  0.12911806260E+03 -0.10147633807E+03  0.78126177277E+03  0.79833506679E+03  0.00000000000E+00 0.  1.
          4    1    1    2  501    0 -0.30826962206E+02  0.21100807639E+01  0.29377580720E+03  0.29539630826E+03  0.00000000000E+00 0.  1.
<scales pt_clust_3="152.54078" pt_clust_4="79.97297" pt_clust_5="14000.00000" pt_clust_6="30.89909"></scales>
<clustering>
<clus scale="   30.899">  1  6  2 -1</clus>
<clus scale="   79.973">  2  4  1 -1</clus>
<clus scale="  152.541">  2  3  1 -1</clus>
<clus scale="   79.973">  2  3  1 -1</clus>
</clustering>
</event>
<event>
 6    0  0.2433432E+002  0.1374495E+03  0.7546771E-02  0.1216803E+00
         -4   -1    0    0    0  501 -0.00000000000E+00  0.00000000000E+00  0.15290048405E+04  0.15290048405E+04  0.00000000000E+00 0. -1.
         21   -1    0    0  505  502  0.00000000000E+00 -0.00000000000E+00 -0.34989618926E+02  0.34989618926E+02  0.00000000000E+00 0.  1.
         21    1    1    2  503  504 -0.12564790745E+03 -0.67033781050E+02  0.49055594426E+03  0.51080921967E+03  0.00000000000E+00 0.  1.
         21    1    1    2  504  502  0.67240713954E+02  0.12837679653E+03  0.30641956849E+03  0.33896145423E+03  0.00000000000E+00 0.  1.
         21    1    1    2  505  501  0.24659446608E+02 -0.25060280755E+02  0.32623755748E+02  0.47962646066E+02  0.00000000000E+00 0.  1.
         -4    1    1    2    0  503  0.33747746889E+02 -0.36282734722E+02  0.66441595304E+03  0.66626113943E+03  0.00000000000E+00 0. -1.
<scales pt_clust_3="137.44948" pt_clust_4="14000.00000" pt_clust_5="35.15830" pt_clust_6="50.73829"></scales>
<clustering>
<clus scale="   35.158">  2  5  1 -1</clus>
<clus scale="   50.738">  1  6  2 -1</clus>
<clus scale="  137.449">  1  3  2 -1</clus>
<clus scale="   35.158">  2  3  1 -1</clus>
</clustering>
</event>
<event>
 6    0  0.2433432E+002  0.3388030E+03  0.7546771E-02  0.1067307E+00
          1   -1    0    0  504    0 -0.00000000000E+00  0.00000000000E+00  0.10962175899E+04  0.10962175899E+04  0.00000000000E+00 0.  1.
         21   -1    0    0  501  502  0.00000000000E+00 -0.00000000000E+00 -0.95035504342E+03  0.95035504342E+03  0.00000000000E+00 0. -1.
         21    1    1    2  503  505  0.20232804786E+03  0.11264892379E+03 -0.53291752988E+03  0.58105723697E+03  0.00000000000E+00 0. -1.
         21    1    1    2  504  503  0.72444808734E+02  0.22579920733E+02 -0.96984008457E+02  0.12314219841E+03  0.00000000000E+00 0. -1.
         21    1    1    2  505  502  0.43389452009E+02 -0.40508816350E+02 -0.25378206432E+03  0.26063181870E+03  0.00000000000E+00 0. -1.
          1    1    1    2  501    0 -0.31816230860E+03 -0.94720028173E+02  0.10295461491E+04  0.10817413792E+04  0.00000000000E+00 0.  1.
<scales pt_clust_3="41.80700" pt_clust_4="41.80700" pt_clust_5="59.35999" pt_clust_6="330.83763"></scales>
<clustering>
<clus scale="   41.807">  3  4 -1 -1</clus>
<clus scale="   59.360">  2  5  1 -1</clus>
<clus scale="  330.838">  1  6  2 -1</clus>
<clus scale="   59.360">  2  3  1 -1</clus>
</clustering>
</event>
<event>
 6    0  0.2433432E+002  0.1456907E+03  0.7546771E-02  0.1205870E+00
          1   -1    0    0  504    0 -0.00000000000E+00  0.00000000000E+00  0.48976153898E+03  0.48976153898E+03  0.00000000000E+00 0. -1.
         21   -1    0    0  505  502  0.00000000000E+00 -0.00000000000E+00 -0.69390229081E+03  0.69390229081E+03  0.00000000000E+00 0. -1.
         21    1    1    2  503  501  0.10086187552E+03  0.47067943031E+02 -0.15776688990E+03  0.19307744753E+03  0.00000000000E+00 0. -1.
         21    1    1    2  504  502  0.19253601189E+02  0.41872316704E+02 -0.36223164525E+01  0.46228922131E+02  0.00000000000E+00 0.  1.
         21    1    1    2  505  503 -0.29269062110E+02  0.29088930023E+02 -0.48034320791E+03  0.48211247778E+03  0.00000000000E+00 0. -1.
          1    1    1    2  501    0 -0.90846414596E+02 -0.11802918976E+03  0.43759166243E+03  0.46224498235E+03  0.00000000000E+00 0. -1.
<scales pt_clust_3="14000.00000" pt_clust_4="47.96660" pt_clust_5="41.26553" pt_clust_6="145.69072"></scales>
<clustering>
<clus scale="   41.266">  2  5  1 -1</clus>
<clus scale="   47.967">  2  4  1 -1</clus>
<clus scale="  145.691">  1  6  2 -1</clus>
<clus scale="   41.266">  2  3  1 -1</clus>
</clustering>
</event>
<event>
 6    0  0.2433432E+002  0.8554732E+02  0.7546771E-02  0.1314007E+00
         21   -1    0    0  504  502  0.00000000000E+00  0.00000000000E+00  0.33380130618E+03  0.33380130618E+03  0.00000000000E+00 0.  1.
          2   -1    0    0  505    0 -0.00000000000E+00 -0.00000000000E+00 -0.28308760355E+03  0.28308760355E+03  0.00000000000E+00 0.  1.
         21    1    1    2  503  502 -0.58055207787E+02  0.18649326933E+02  0.22281833798E+03  0.23101129039E+03  0.00000000000E+00 0.  1.
         21    1    1    2  504  501  0.53699991611E+02 -0.70624365981E+02 -0.24302481051E+02  0.91989677435E+02  0.00000000000E+00 0. -1.
         21    1    1    2  505  503 -0.75643418253E+02  0.76682438245E+02  0.16990699657E+02  0.10904497666E+03  0.00000000000E+00 0. -1.
          2    1    1    2  501    0  0.79998634429E+02 -0.24707399197E+02 -0.16479285396E+03  0.18484296525E+03  0.00000000000E+00 0.  1.
<scales pt_clust_3="60.97708" pt_clust_4="73.72893" pt_clust_5="85.54732" pt_clust_6="14000.00000"></scales>
<clustering>
<clus scale="   60.977">  1  3  2 -1</clus>
<clus scale="   73.729">  1  4  2 -1</clus>
<clus scale="   85.547">  1  5  2 -1</clus>
<clus scale="   60.977">  1  3  2 -1</clus>
</clustering>
</event>
<event>
 6    0  0.2433432E+002  0.1688328E+03  0.7546771E-02  0.1179071E+00
         21   -1    0    0  505  502  0.00000000000E+00  0.00000000000E+00  0.47331392727E+02  0.47331392727E+02  0.00000000000E+00 0. -1.
          2   -1    0    0  504    0 -0.00000000000E+00 -0.00000000000E+00 -0.12710200622E+04  0.12710200622E+04  0.00000000000E+00 0. -1.
         21    1    1    2  503  502 -0.35451600746E+02 -0.90481744273E+01 -0.25844964795E+02  0.44795621005E+02  0.00000000000E+00 0. -1.
         21    1    1    2  504  503 -0.12693269714E+02  0.16521505059E+03 -0.10028217282E+04  0.10164194757E+04  0.00000000000E+00 0. -1.
         21    1    1    2  505  501  0.10913163616E+02 -0.97260971235E+02 -0.11149708852E+03  0.14835900517E+03  0.00000000000E+00 0. -1.
          2    1    1    2  501    0  0.37231706845E+02 -0.58905904928E+02 -0.83524887979E+02  0.10877735307E+03  0.00000000000E+00 0. -1.
<scales pt_clust_3="36.58805" pt_clust_4="164.69666" pt_clust_5="31.34060" pt_clust_6="31.34060"></scales>
<clustering>
<clus scale="   31.341">  5  6 -1 -1</clus>
<clus scale="   36.588">  1  3  2 -1</clus>
<clus scale="  164.697">  2  4  1 -1</clus>
<clus scale="   36.588">  1  3  2 -1</clus>
</clustering>
</event>
<event>
 6    0  0.2433432E+002  0.9678785E+02  0.7546771E-02  0.1287199E+00
         21   -1    0    0  503  502  0.00000000000E+00  0.00000000000E+00  0.31663097232E+03  0.31663097232E+03  0.00000000000E+00 0. -1.
         -4   -1    0    0    0  501 -0.00000000000E+00 -0.00000000000E+00 -0.20532037515E+03  0.20532037515E+03  0.00000000000E+00 0. -1.
         21    1    1    2  503  505 -0.21457336698E+02 -0.95981444511E+02  0.78109690663E+02  0.12559450133E+03  0.00000000000E+00 0. -1.
         21    1    1    2  504  502  0.32391260726E+02 -0.40978895269E+01  0.14237753948E+03  0.14607309888E+03  0.00000000000E+00 0. -1.
         21    1    1    2  505  501 -0.70052881461E+02  0.15060916344E+02 -0.12641107833E+03  0.14530656601E+03  0.00000000000E+00 0.  1.
         -4    1    1    2    0  504  0.59118957432E+02  0.85018417694E+02  0.17234445354E+02  0.10497718124E+03  0.00000000000E+00 0. -1.
<scales pt_clust_3="96.78785" pt_clust_4="32.64945" pt_clust_5="69.87119" pt_clust_6="14000.00000"></scales>
<clustering>
<clus scale="   32.649">  1  4  2 -1</clus>
<clus scale="   69.871">  2  5  1 -1</clus>
<clus scale="   96.788">  1  3  2 -1</clus>
<clus scale="   32.649">  1  3  2 -1</clus>
</clustering>
</event>
<event>
 6    0  0.2433432E+002  0.4518085E+03  0.7546771E-02  0.1027184E+00
         21   -1    0    0  505  502  0.00000000000E+00  0.00000000000E+00  0.50895054219E+03  0.50895054219E+03  0.00000000000E+00 0. -1.
          2   -1    0    0  504    0 -0.00000000000E+00 -0.00000000000E+00 -0.63582626899E+03  0.63582626899E+03  0.00000000000E+00 0. -1.
         21    1    1    2  503  501  0.16872498980E+03 -0.31657001700E+03  0.12600938641E+03  0.38021449645E+03  0.00000000000E+00 0. -1.
         21    1    1    2  504  502 -0.27072697731E+02  0.26744112276E+02  0.72798620789E+02  0.82145101452E+02  0.00000000000E+00 0. -1.
         21    1    1    2  505  503  0.27023632110E+02 -0.11552740892E+03  0.24100473075E+02  0.12106895435E+03  0.00000000000E+00 0. -1.
          2    1    1    2  501    0 -0.16867592418E+03  0.40535331365E+03 -0.34978420708E+03  0.56134825893E+03  0.00000000000E+00 0. -1.
<scales pt_clust_3="35.10675" pt_clust_4="38.05494" pt_clust_5="35.10675" pt_clust_6="447.66560"></scales>
<clustering>
<clus scale="   35.107">  3  5 -1 -1</clus>
<clus scale="   38.055">  1  4  2 -1</clus>
<clus scale="  447.666">  2  6  1 -1</clus>
<clus scale="   38.055">  1  3  2 -1</clus>
</clustering>
</event>
<event>
 6    0  0.2433432E+002  0.1390993E+03  0.7546771E-02  0.1214546E+00
          2   -1    0    0  503    0 -0.00000000000E+00  0.00000000000E+00  0.31785758990E+04  0.31785758990E+04  0.00000000000E+00 0. -1.
         21   -1    0    0  504  502  0.00000000000E+00 -0.00000000000E+00 -0.18036003942E+02  0.18036003942E+02  0.00000000000E+00 0.  1.
         21    1    1    2  503  502  0.15258107117E+02  0.25861054865E+02  0.12119071318E+03  0.12485508781E+03  0.00000000000E+00 0.  1.
         21    1    1    2  504  505 -0.41413834127E+01 -0.67833227574E+02  0.12198767601E+03  0.13964057762E+03  0.00000000000E+00 0.  1.
         21    1    1    2  505  501  0.11326799559E+03 -0.42566426901E+02  0.76537527380E+03  0.77488118397E+03  0.00000000000E+00 0.  1.
          2    1    1    2  501    0 -0.12438471930E+03  0.84538599609E+02  0.21519862321E+04  0.21572350536E+04  0.00000000000E+00 0. -1.
<scales pt_clust_3="30.02672" pt_clust_4="53.90786" pt_clust_5="139.09927" pt_clust_6="14000.00000"></scales>
<clustering>
<clus scale="   30.027">  2  3  1 -1</clus>
<clus scale="   53.908">  2  4  1 -1</clus>
<clus scale="  139.099">  2  5  1 -1</clus>
<clus scale="   30.027">  2  3  1 -1</clus>
</clustering>
</event>
<event>
 6    0  0.2433432E+002  0.7691517E+02  0.7546771E-02  0.1338041E+00
         21   -1    0    0  504  502  0.00000000000E+00  0.00000000000E+00  0.26037597032E+03  0.26037597032E+03  0.00000000000E+00 0.  1.
          2   -1    0    0  503    0 -0.00000000000E+00 -0.00000000000E+00 -0.12561940796E+04  0.12561940796E+04  0.00000000000E+00 0. -1.
         21    1    1    2  503  502 -0.48295777699E+02 -0.44254573161E+02 -0.18373344437E+02  0.68033294606E+02  0.00000000000E+00 0.  1.
         21    1    1    2  504  505  0.10612404826E+02 -0.48820043936E+02  0.16885705031E+03  0.17609293928E+03  0.00000000000E+00 0.  1.
         21    1    1    2  505  501  0.69872382122E+01  0.11567436358E+03  0.92589734725E+01  0.11625449874E+03  0.00000000000E+00 0.  1.
          2    1    1    2  501    0  0.30696134660E+02 -0.22599746484E+02 -0.11555607886E+04  0.11561893172E+04  0.00000000000E+00 0. -1.
<scales pt_clust_3="76.91517" pt_clust_4="50.99988" pt_clust_5="14000.00000" pt_clust_6="38.11825"></scales>
<clustering>
<clus scale="   38.118">  2  6  1 -1</clus>
<clus scale="   51.000">  1  4  2 -1</clus>
<clus scale="   76.915">  2  3  1 -1</clus>
<clus scale="   51.000">  1  3  2 -1</clus>
</clustering>
</event>
<event>
 6    0  0.2433432E+002  0.1077913E+03  0.7546771E-02  0.1264716E+00
         -4   -1    0    0    0  501 -0.00000000000E+00  0.00000000000E+00  0.70499747960E+03  0.70499747960E+03  0.00000000000E+00 0. -1.
         21   -1    0    0  503  502  0.00000000000E+00 -0.00000000000E+00 -0.79579325931E+02  0.79579325931E+02  0.00000000000E+00 0. -1.
         21    1    1    2  503  505 -0.13530971371E+02  0.51682048014E+02 -0.36914874488E+02  0.64937117519E+02  0.00000000000E+00 0. -1.
         21    1    1    2  504  501 -0.18311474761E+02 -0.54923295968E+02  0.19833212544E+03  0.20660956060E+03  0.00000000000E+00 0. -1.
         21    1    1    2  505  504 -0.92700849781E+02 -0.11578650033E+02  0.19427762333E+03  0.21557204738E+03  0.00000000000E+00 0. -1.
         -4    1    1    2    0  502  0.12454329591E+03  0.14819897987E+02  0.26972327938E+03  0.29745808003E+03  0.00000000000E+00 0. -1.
<scales pt_clust_3="53.42398" pt_clust_4="51.60422" pt_clust_5="14000.00000" pt_clust_6="107.79130"></scales>
<clustering>
<clus scale="   53.424">  2  3  1 -1</clus>
<clus scale="   51.604">  1  4  2 -1</clus>
<clus scale="  107.791">  1  6  2 -1</clus>
<clus scale="   53.424">  2  3  1 -1</clus>
</clustering>
</event>
<event>
 6    0  0.2433432E+002  0.1464499E+03  0.7546771E-02  0.1204904E+00
         21   -1    0    0  503  502  0.00000000000E+00  0.00000000000E+00  0.31780405802E+02  0.31780405802E+02  0.00000000000E+00 0. -1.
          1   -1    0    0  505    0 -0.00000000000E+00 -0.00000000000E+00 -0.36506440031E+04  0.36506440031E+04  0.00000000000E+00 0.  1.
         21    1    1    2  503  501 -0.98892124674E+02 -0.10598733360E+03 -0.29139234430E+03  0.32545731752E+03  0.00000000000E+00 0. -1.
         21    1    1    2  504  502  0.61681865090E+02  0.14373537298E+03 -0.72767831812E+03  0.74429849159E+03  0.00000000000E+00 0. -1.
         21    1    1    2  505  504  0.31031585934E+02 -0.74894163856E+02 -0.25506455397E+03  0.26763785569E+03  0.00000000000E+00 0. -1.
          1    1    1    2  501    0  0.61786736493E+01  0.37146124481E+02 -0.23447283809E+04  0.23450307441E+04  0.00000000000E+00 0.  1.
<scales pt_clust_3="14000.00000" pt_clust_4="146.44990" pt_clust_5="74.77966" pt_clust_6="37.65648"></scales>
<clustering>
<clus scale="   37.656">  2  6  1 -1</clus>
<clus scale="   74.780">  2  5  1 -1</clus>
<clus scale="  146.450">  2  4  1 -1</clus>
<clus scale="  146.450">  1  3  2 -1</clus>
</clustering>
</event>
<event>
 6    0  0.2433432E+002  0.8807515E+02  0.7546771E-02  0.1307581E+00
          1   -1    0    0  503    0 -0.00000000000E+00  0.00000000000E+00  0.36911739079E+04  0.36911739079E+04  0.00000000000E+00 0. -1.
         21   -1    0    0  504  502  0.00000000000E+00 -0.00000000000E+00 -0.53320942852E+03  0.53320942852E+03  0.00000000000E+00 0. -1.
         21    1    1    2  503  502  0.52062618970E+02  0.26982407799E+02  0.32357465976E+02  0.66974414735E+02  0.00000000000E+00 0.  1.
         21    1    1    2  504  505 -0.26142634525E+02  0.22566291106E+02 -0.12045232309E+03  0.12530537487E+03  0.00000000000E+00 0. -1.
         21    1    1    2  505  501 -0.29430705955E+02 -0.13748512659E+03 -0.37989650693E+03  0.40507984702E+03  0.00000000000E+00 0. -1.
          1    1    1    2  501    0  0.35107215096E+01  0.87936427682E+02  0.36259558434E+04  0.36270236998E+04  0.00000000000E+00 0. -1.
<scales pt_clust_3="58.11397" pt_clust_4="34.53512" pt_clust_5="14000.00000" pt_clust_6="88.07515"></scales>
<clustering>
<clus scale="   34.535">  2  4  1 -1</clus>
<clus scale="   58.114">  2  3  1 -1</clus>
<clus scale="   88.075">  1  6  2 -1</clus>
<clus scale="   34.535">  2  3  1 -1</clus>
</clustering>
</event>
<event>
 6    0  0.2433432E+002  0.9921828E+02  0.7546771E-02  0.1281948E+00
         21   -1    0    0  505  502  0.00000000000E+00  0.00000000000E+00  0.59564628520E+02  0.59564628520E+02  0.00000000000E+00 0. -1.
          1   -1    0    0  502    0 -0.00000000000E+00 -0.00000000000E+00 -0.10327240619E+04  0.10327240619E+04  0.00000000000E+00 0. -1.
         21    1    1    2  503  504 -0.69074853855E+02 -0.37147357098E+02 -0.12693165095E+03  0.14920759226E+03  0.00000000000E+00 0. -1.
         21    1    1    2  504  501 -0.38113542053E+02  0.27817574917E+02 -0.39042456157E+02  0.61243554313E+02  0.00000000000E+00 0. -1.
         21    1    1    2  505  503  0.10479472155E+03  0.40407549379E+02 -0.48213940760E+02  0.12222637929E+03  0.00000000000E+00 0. -1.
          1    1    1    2  501    0  0.23936743583E+01 -0.31077767199E+02 -0.75897138551E+03  0.75961116456E+03  0.00000000000E+00 0. -1.
<scales pt_clust_3="99.21828" pt_clust_4="43.68752" pt_clust_5="14000.00000" pt_clust_6="31.16981"></scales>
<clustering>
<clus scale="   31.170">  2  6  1 -1</clus>
<clus scale="   43.688">  2  4  1 -1</clus>
<clus scale="   99.218">  2  3  1 -1</clus>
<clus scale="   99.218">  1  3  2 -1</clus>
</clustering>
</event>
<event>
 6    0  0.2433432E+002  0.1094217E+03  0.7546771E-02  0.1261645E+00
         21   -1    0    0  503  502  0.00000000000E+00  0.00000000000E+00  0.12104582143E+03  0.12104582143E+03  0.00000000000E+00 0. -1.
          1   -1    0    0  502    0 -0.00000000000E+00 -0.00000000000E+00 -0.20076775300E+04  0.20076775300E+04  0.00000000000E+00 0. -1.
         21    1    1    2  503  504  0.14484309910E+02 -0.11896167970E+03 -0.31293811321E+01  0.11988106396E+03  0.00000000000E+00 0. -1.
         21    1    1    2  504  505  0.60554122002E+02  0.94104209974E+02 -0.30747632033E+02  0.11605094098E+03  0.00000000000E+00 0. -1.
         21    1    1    2  505  501 -0.68369454363E+02 -0.38789213443E+02 -0.59984566346E+02  0.98879389001E+02  0.00000000000E+00 0.  1.
          1    1    1    2  501    0 -0.66689775493E+01  0.63646683171E+02 -0.17927701290E+04  0.17939119575E+04  0.00000000000E+00 0. -1.
<scales pt_clust_3="109.42166" pt_clust_4="14000.00000" pt_clust_5="72.45373" pt_clust_6="63.99512"></scales>
<clustering>
<clus scale="   63.995">  2  6  1 -1</clus>
<clus scale="   72.454">  2  5  1 -1</clus>
<clus scale="  109.422">  1  3  2 -1</clus>
<clus scale="  109.422">  1  3  2 -1</clus>
</clustering>
</event>
<event>
 6    0  0.2433432E+002  0.9041000E+02  0.7546771E-02  0.1301862E+00
         21   -1    0    0  503  502  0.00000000000E+00  0.00000000000E+00  0.38977606083E+03  0.38977606083E+03  0.00000000000E+00 0. -1.
         -1   -1    0    0    0  501 -0.00000000000E+00 -0.00000000000E+00 -0.19688575134E+03  0.19688575134E+03  0.00000000000E+00 0. -1.
         21    1    1    2  503  501  0.66461803908E+00 -0.32800395467E+02  0.42128369167E+02  0.53395759650E+02  0.00000000000E+00 0. -1.
         21    1    1    2  504  502 -0.41768044097E+02 -0.11249283175E+02  0.28314626782E+03  0.28643136152E+03  0.00000000000E+00 0. -1.
         21    1    1    2  505  504  0.70454881662E+02 -0.49144310002E+02 -0.46652535154E+01  0.86028007916E+02  0.00000000000E+00 0. -1.
         -1    1    1    2    0  505 -0.29351455604E+02  0.93193988645E+02 -0.12771907398E+03  0.16080668308E+03  0.00000000000E+00 0. -1.
<scales pt_clust_3="32.80713" pt_clust_4="56.44148" pt_clust_5="90.41000" pt_clust_6="14000.00000"></scales>
<clustering>
<clus scale="   32.807">  1  3  2 -1</clus>
<clus scale="   56.441">  1  4  2 -1</clus>
<clus scale="   90.410">  1  5  2 -1</clus>
<clus scale="   32.807">  1  3  2 -1</clus>
</clustering>
</event>
<event>
 6    0  0.2433432E+002  0.1469255E+03  0.7546771E-02  0.1204303E+00
         -2   -1    0    0    0  501 -0.00000000000E+00  0.00000000000E+00  0.39900816022E+03  0.39900816022E+03  0.00000000000E+00 0.  1.
         21   -1    0    0  503  502  0.00000000000E+00 -0.00000000000E+00 -0.11252960834E+04  0.11252960834E+04  0.00000000000E+00 0. -1.
         21    1    1    2  503  505 -0.10001893619E+02 -0.79848948469E+02 -0.29930460477E+03  0.30993408797E+03  0.00000000000E+00 0. -1.
         21    1    1    2  504  502 -0.77184312694E+02  0.20194729938E+03 -0.76089662559E+03  0.79101441497E+03  0.00000000000E+00 0. -1.
         21    1    1    2  505  501  0.85264091075E+02 -0.73201573408E+02  0.31081063469E+02  0.11659531758E+03  0.00000000000E+00 0. -1.
         -2    1    1    2    0  504  0.19221152381E+01 -0.48896777506E+02  0.30283224369E+03  0.30676042312E+03  0.00000000000E+00 0.  1.
<scales pt_clust_3="83.19768" pt_clust_4="146.92553" pt_clust_5="14000.00000" pt_clust_6="48.93454"></scales>
<clustering>
<clus scale="   48.935">  1  6  2 -1</clus>
<clus scale="   83.198">  2  3  1 -1</clus>
<clus scale="  146.926">  2  4  1 -1</clus>
<clus scale="   83.198">  2  3  1 -1</clus>
</clustering>
</event>
<event>
 6    0  0.2433432E+002  0.8669444E+03  0.7546771E-02  0.9467873E-01
          2   -1    0    0  505    0 -0.00000000000E+00  0.00000000000E+00  0.43914007313E+03  0.43914007313E+03  0.00000000000E+00 0. -1.
         21   -1    0    0  503  502  0.00000000000E+00 -0.00000000000E+00 -0.20229110582E+04  0.20229110582E+04  0.00000000000E+00 0. -1.
         21    1    1    2  503  501  0.43604197339E+02 -0.62539003010E+02 -0.16406178002E+03  0.18091080838E+03  0.00000000000E+00 0.  1.
         21    1    1    2  504  502 -0.39129043064E+02 -0.35980195474E+00 -0.75915508296E+02  0.85407118371E+02  0.00000000000E+00 0.  1.
         21    1    1    2  505  504 -0.76762675835E+03  0.32699828458E+03 -0.32437344717E+03  0.89520771416E+03  0.00000000000E+00 0. -1.
          2    1    1    2  501    0  0.76315160408E+03 -0.26409947962E+03 -0.10194202496E+04  0.13005254904E+04  0.00000000000E+00 0. -1.
<scales pt_clust_3="58.74909" pt_clust_4="39.13070" pt_clust_5="845.64552" pt_clust_6="58.74909"></scales>
<clustering>
<clus scale="   39.131">  2  4  1 -1</clus>
<clus scale="   58.749">  3  6 -1 -1</clus>
<clus scale="  845.646">  1  5  2 -1</clus>
<clus scale="   39.131">  2  3  1 -1</clus>
</clustering>
</event>
<event>
 6    0  0.2433432E+002  0.1585129E+03  0.7546771E-02  0.1190386E+00
         21   -1    0    0  501  502  0.00000000000E+00  0.00000000000E+00  0.83521052504E+02  0.83521052504E+02  0.00000000000E+00 0.  1.
          2   -1    0    0  503    0 -0.00000000000E+00 -0.00000000000E+00 -0.24259753434E+04  0.24259753434E+04  0.00000000000E+00 0.  1.
         21    1    1    2  503  504  0.11002169082E+03  0.20408987910E+01 -0.49773057496E+03  0.50974960811E+03  0.00000000000E+00 0.  1.
         21    1    1    2  504  505  0.10128864015E+03  0.66230530050E+01 -0.90265275577E+02  0.13583472836E+03  0.00000000000E+00 0.  1.
         21    1    1    2  505  502 -0.55466570811E+01 -0.29538179708E+02  0.44173605375E+02  0.53428240445E+02  0.00000000000E+00 0.  1.
          2    1    1    2  501    0 -0.20576367388E+03  0.20874227912E+02 -0.17986320458E+04  0.18104838190E+04  0.00000000000E+00 0.  1.
<scales pt_clust_3="158.51286" pt_clust_4="98.47900" pt_clust_5="30.05444" pt_clust_6="14000.00000"></scales>
<clustering>
<clus scale="   30.054">  1  5  2 -1</clus>
<clus scale="   98.479">  1  4  2 -1</clus>
<clus scale="  158.513">  1  3  2 -1</clus>
<clus scale="   30.054">  1  3  2 -1</clus>
</clustering>
</event>
<event>
 6    0  0.2433432E+002  0.9307651E+02  0.7546771E-02  0.1295568E+00
          2   -1    0    0  503    0 -0.00000000000E+00  0.00000000000E+00  0.32180967197E+04  0.32180967197E+04  0.00000000000E+00 0. -1.
         21   -1    0    0  504  502  0.00000000000E+00 -0.00000000000E+00 -0.41332639019E+03  0.41332639019E+03  0.00000000000E+00 0. -1.
         21    1    1    2  503  505 -0.10596117617E+03 -0.45674422805E+02 -0.18765107768E+03  0.22028810841E+03  0.00000000000E+00 0.  1.
         21    1    1    2  504  501 -0.86538629376E+01  0.29632201476E+02  0.16520102722E+02  0.35012433535E+02  0.00000000000E+00 0. -1.
         21    1    1    2  505  502  0.22356976707E+02  0.28204015469E+02 -0.19780488834E+03  0.20105241791E+03  0.00000000000E+00 0. -1.
          2    1    1    2  501    0  0.92258062396E+02 -0.12161794141E+02  0.31737061928E+04  0.31750701500E+04  0.00000000000E+00 0. -1.
<scales pt_clust_3="93.07651" pt_clust_4="30.87000" pt_clust_5="46.49078" pt_clust_6="14000.00000"></scales>
<clustering>
<clus scale="   30.870">  2  4  1 -1</clus>
<clus scale="   46.491">  2  5  1 -1</clus>
<clus scale="   93.077">  2  3  1 -1</clus>
<clus scale="   30.870">  2  3  1 -1</clus>
</clustering>
</event>
<event>
 6    0  0.2433432E+002  0.1827275E+03  0.7546771E-02  0.1165189E+00
         21   -1    0    0  503  502  0.00000000000E+00  0.00000000000E+00  0.14628377188E+03  0.14628377188E+03  0.00000000000E+00 0. -1.
         -2   -1    0    0    0  501 -0.00000000000E+00 -0.00000000000E+00 -0.29739618089E+03  0.29739618089E+03  0.00000000000E+00 0. -1.
         21    1    1    2  503  501 -0.71698883256E+00  0.30655842875E+02 -0.30869690869E+01  0.30819217276E+02  0.00000000000E+00 0.  1.
         21    1    1    2  504  502  0.35561457755E+02 -0.48716417558E+02  0.19376138343E+02  0.63350938071E+02  0.00000000000E+00 0. -1.
         21    1    1    2  505  504  0.10571115934E+03 -0.74246616637E+02 -0.30648022233E+02  0.13276562265E+03  0.00000000000E+00 0. -1.
         -2    1    1    2    0  505 -0.14055562827E+03  0.92307191320E+02 -0.13675355603E+03  0.21674417476E+03  0.00000000000E+00 0. -1.
<scales pt_clust_3="30.66423" pt_clust_4="37.43806" pt_clust_5="37.43806" pt_clust_6="173.58731"></scales>
<clustering>
<clus scale="   30.664">  1  3  2 -1</clus>
<clus scale="   37.438">  4  5 -1 -1</clus>
<clus scale="  173.587">  2  6  1 -1</clus>
<clus scale="   30.664">  1  3  2 -1</clus>
</clustering>
</event>
<event>
 6    0  0.2433432E+002  0.2801633E+03  0.7546771E-02  0.1095600E+00
          1   -1    0    0  502    0 -0.00000000000E+00  0.00000000000E+00  0.30171214513E+04  0.30171214513E+04  0.00000000000E+00 0.  1.
         21   -1    0    0  504  502  0.00000000000E+00 -0.00000000000E+00 -0.52090013879E+02  0.52090013879E+02  0.00000000000E+00 0.  1.
         21    1    1    2  503  501  0.10813836643E+03  0.17016699445E+03  0.62131492173E+03  0.65320972456E+03  0.00000000000E+00 0.  1.
         21    1    1    2  504  505 -0.48620573982E+02 -0.64670194961E+01  0.20242562836E+02  0.53061699046E+02  0.00000000000E+00 0.  1.
         21    1    1    2  505  503  0.51619325354E+02  0.80145676846E+02  0.18871067661E+03  0.21142280798E+03  0.00000000000E+00 0.  1.
          1    1    1    2  501    0 -0.11113711780E+03 -0.24384565180E+03  0.21347632762E+04  0.21515172336E+04  0.00000000000E+00 0.  1.
<scales pt_clust_3="39.31476" pt_clust_4="49.04878" pt_clust_5="39.31476" pt_clust_6="274.26721"></scales>
<clustering>
<clus scale="   39.315">  3  5 -1 -1</clus>
<clus scale="   49.049">  2  4  1 -1</clus>
<clus scale="  274.267">  1  6  2 -1</clus>
<clus scale="   49.049">  2  3  1 -1</clus>
</clustering>
</event>
<event>
 6    0  0.2433432E+002  0.1120111E+03  0.7546771E-02  0.1256890E+00
          2   -1    0    0  503    0 -0.00000000000E+00  0.00000000000E+00  0.23051519300E+04  0.23051519300E+04  0.00000000000E+00 0. -1.
         21   -1    0    0  505  502  0.00000000000E+00 -0.00000000000E+00 -0.41073936457E+02  0.41073936457E+02  0.00000000000E+00 0. -1.
         21    1    1    2  503  504  0.26876700235E+02  0.11041997505E+03  0.24695868881E+03  0.27185202204E+03  0.00000000000E+00 0. -1.
         21    1    1    2  504  502  0.18093338042E+02 -0.41634162068E+02  0.23534566724E+02  0.51133630455E+02  0.00000000000E+00 0. -1.
         21    1    1    2  505  501 -0.65364667069E+02 -0.97553802084E+02  0.22062093485E+03  0.24992575077E+03  0.00000000000E+00 0. -1.
          2    1    1    2  501    0  0.20394628792E+02  0.28767989097E+02  0.17729638031E+04  0.17733144632E+04  0.00000000000E+00 0. -1.
<scales pt_clust_3="112.01105" pt_clust_4="44.16542" pt_clust_5="14000.00000" pt_clust_6="35.26384"></scales>
<clustering>
<clus scale="   35.264">  1  6  2 -1</clus>
<clus scale="   44.165">  2  4  1 -1</clus>
<clus scale="  112.011">  2  3  1 -1</clus>
<clus scale="   44.165">  2  3  1 -1</clus>
</clustering>
</event>
<event>
 6    0  0.2433432E+002  0.1738885E+03  0.7546771E-02  0.1173852E+00
          2   -1    0    0  503    0 -0.00000000000E+00  0.00000000000E+00  0.63209748578E+03  0.63209748578E+03  0.00000000000E+00 0.  1.
         21   -1    0    0  501  502  0.00000000000E+00 -0.00000000000E+00 -0.21396002536E+03  0.21396002536E+03  0.00000000000E+00 0. -1.
         21    1    1    2  503  505  0.71666588863E+02 -0.61169085650E+02  0.32793310027E+02  0.99765515991E+02  0.00000000000E+00 0. -1.
         21    1    1    2  504  502 -0.42034983497E+02 -0.82017156934E+01 -0.11546452283E+03  0.12315138656E+03  0.00000000000E+00 0. -1.
         21    1    1    2  505  504  0.61434044945E+02 -0.71434073363E+02 -0.82534579124E+00  0.94221281626E+02  0.00000000000E+00 0. -1.
          2    1    1    2  501    0 -0.91065650312E+02  0.14080487471E+03  0.50163401901E+03  0.52891932697E+03  0.00000000000E+00 0.  1.
<scales pt_clust_3="36.18691" pt_clust_4="42.82765" pt_clust_5="36.18691" pt_clust_6="170.08129"></scales>
<clustering>
<clus scale="   36.187">  3  5 -1 -1</clus>
<clus scale="   42.828">  2  4  1 -1</clus>
<clus scale="  170.081">  1  6  2 -1</clus>
<clus scale="   42.828">  2  3  1 -1</clus>
</clustering>
</event>
<event>
 6    0  0.2433432E+002  0.2329911E+03  0.7546771E-02  0.1124552E+00
         21   -1    0    0  504  502  0.00000000000E+00  0.00000000000E+00  0.46161793539E+03  0.46161793539E+03  0.00000000000E+00 0. -1.
         -2   -1    0    0    0  501 -0.00000000000E+00 -0.00000000000E+00 -0.43507054884E+03  0.43507054884E+03  0.00000000000E+00 0. -1.
         21    1    1    2  503  505  0.25209117534E+02 -0.21716499583E+02  0.55456784306E+02  0.64672721348E+02  0.00000000000E+00 0. -1.
         21    1    1    2  504  503 -0.33928405196E+02 -0.25821208996E+02  0.18030783281E+03  0.18528029061E+03  0.00000000000E+00 0. -1.
         21    1    1    2  505  501  0.20969344792E+03 -0.35565024940E+02  0.12595755167E+03  0.24718721229E+03  0.00000000000E+00 0. -1.
         -2    1    1    2    0  502 -0.20097416025E+03  0.83102733520E+02 -0.33517478223E+03  0.39954825998E+03  0.00000000000E+00 0. -1.
<scales pt_clust_3="30.34251" pt_clust_4="42.63650" pt_clust_5="30.34251" pt_clust_6="219.99946"></scales>
<clustering>
<clus scale="   30.343">  3  5 -1 -1</clus>
<clus scale="   42.637">  1  4  2 -1</clus>
<clus scale="  219.999">  2  6  1 -1</clus>
<clus scale="   42.637">  1  3  2 -1</clus>
</clustering>
</event>
<event>
 6    0  0.2433432E+002  0.9411397E+02  0.7546771E-02  0.1293184E+00
         21   -1    0    0  504  502  0.00000000000E+00  0.00000000000E+00  0.28175488232E+03  0.28175488232E+03  0.00000000000E+00 0.  1.
          2   -1    0    0  505    0 -0.00000000000E+00 -0.00000000000E+00 -0.18757330576E+04  0.18757330576E+04  0.00000000000E+00 0.  1.
         21    1    1    2  503  502  0.31756342819E+02  0.48946175952E+01  0.22522485708E+03  0.22750529409E+03  0.00000000000E+00 0.  1.
         21    1    1    2  504  501 -0.11373753142E+02 -0.10369623541E+03 -0.16210506319E+02  0.10557012841E+03  0.00000000000E+00 0.  1.
         21    1    1    2  505  503  0.28458856089E+02  0.18004186234E+02 -0.20506918486E+02  0.39428300974E+02  0.00000000000E+00 0.  1.
          2    1    1    2  501    0 -0.48841445766E+02  0.80797431577E+02 -0.17824856075E+04  0.17849842164E+04  0.00000000000E+00 0.  1.
<scales pt_clust_3="32.13133" pt_clust_4="14000.00000" pt_clust_5="38.76860" pt_clust_6="94.11397"></scales>
<clustering>
<clus scale="   32.131">  1  3  2 -1</clus>
<clus scale="   38.769">  1  5  2 -1</clus>
<clus scale="   94.114">  2  6  1 -1</clus>
<clus scale="   32.131">  1  3  2 -1</clus>
</clustering>
</event>
<event>
 6    0  0.2433432E+002  0.1089462E+03  0.7546771E-02  0.1262534E+00
          2   -1    0    0  503    0 -0.00000000000E+00  0.00000000000E+00  0.45631221785E+03  0.45631221785E+03  0.00000000000E+00 0. -1.
         21   -1    0    0  505  502  0.00000000000E+00 -0.00000000000E+00 -0.67299022333E+02  0.67299022333E+02  0.00000000000E+00 0. -1.
         21    1    1    2  503  504  0.62864035552E+02  0.11918694785E+02  0.11974735929E+03  0.13576955589E+03  0.00000000000E+00 0. -1.
         21    1    1    2  504  502  0.59688171187E+02  0.24601839490E+02  0.71958424992E+02  0.96674418609E+02  0.00000000000E+00 0. -1.
         21    1    1    2  505  501 -0.27188406327E+02 -0.47384894003E+02 -0.16280126702E+02  0.57005088753E+02  0.00000000000E+00 0. -1.
          2    1    1    2  501    0 -0.95363800412E+02  0.10864359728E+02  0.21358753794E+03  0.23416217693E+03  0.00000000000E+00 0. -1.
<scales pt_clust_3="30.29922" pt_clust_4="30.29922" pt_clust_5="54.63092" pt_clust_6="104.60868"></scales>
<clustering>
<clus scale="   30.299">  3  4 -1 -1</clus>
<clus scale="   54.631">  2  5  1 -1</clus>
<clus scale="  104.609">  1  6  2 -1</clus>
<clus scale="   54.631">  2  3  1 -1</clus>
</clustering>
</event>
<event>
 6    0  0.2433432E+002  0.5922740E+02  0.7546771E-02  0.1401103E+00
         -4   -1    0    0    0  501 -0.00000000000E+00  0.00000000000E+00  0.63661235370E+03  0.63661235370E+03  0.00000000000E+00 0. -1.
         21   -1    0    0  505  502  0.00000000000E+00 -0.00000000000E+00 -0.13790382001E+04  0.13790382001E+04  0.00000000000E+00 0. -1.
         21    1    1    2  503  502  0.46950840268E+02 -0.48587883382E+02 -0.20561078299E+03  0.21642771980E+03  0.00000000000E+00 0. -1.
         21    1    1    2  504  501  0.62026874172E+02  0.57068537055E+02 -0.23655998198E+02  0.87542888300E+02  0.00000000000E+00 0. -1.
         21    1    1    2  505  504 -0.60743448978E+02 -0.37564504718E+00 -0.11105901280E+04  0.11122501248E+04  0.00000000000E+00 0. -1.
         -4    1    1    2    0  503 -0.48234265462E+02 -0.81050086261E+01  0.59743106274E+03  0.59942982096E+03  0.00000000000E+00 0. -1.
<scales pt_clust_3="14000.00000" pt_clust_4="54.75950" pt_clust_5="59.22740" pt_clust_6="48.91048"></scales>
<clustering>
<clus scale="   48.910">  1  6  2 -1</clus>
<clus scale="   54.759">  1  4  2 -1</clus>
<clus scale="   59.227">  2  5  1 -1</clus>
<clus scale="   59.227">  2  3  1 -1</clus>
</clustering>
</event>
<event>
 6    0  0.2433432E+002  0.1557936E+03  0.7546771E-02  0.1193529E+00
         21   -1    0    0  503  502  0.00000000000E+00  0.00000000000E+00  0.33475303148E+03  0.33475303148E+03  0.00000000000E+00 0.  1.
          2   -1    0    0  505    0 -0.00000000000E+00 -0.00000000000E+00 -0.73709719409E+03  0.73709719409E+03  0.00000000000E+00 0.  1.
         21    1    1    2  503  501  0.79069274706E+02  0.78436971763E+02  0.18960240193E+03  0.21989401892E+03  0.00000000000E+00 0. -1.
         21    1    1    2  504  502  0.10312647107E+02 -0.33240348506E+02  0.12617591841E+02  0.37019928188E+02  0.00000000000E+00 0.  1.
         21    1    1    2  505  504  0.67157250207E+02 -0.19485736060E+02  0.83447543347E+02  0.10887278198E+03  0.00000000000E+00 0.  1.
          2    1    1    2  501    0 -0.15653917202E+03 -0.25710887197E+02 -0.68801169973E+03  0.70606349648E+03  0.00000000000E+00 0.  1.
<scales pt_clust_3="14000.00000" pt_clust_4="34.80333" pt_clust_5="76.40720" pt_clust_6="155.79358"></scales>
<clustering>
<clus scale="   34.803">  1  4  2 -1</clus>
<clus scale="   76.407">  1  5  2 -1</clus>
<clus scale="  155.794">  2  6  1 -1</clus>
<clus scale="   34.803">  1  3  2 -1</clus>
</clustering>
</event>
<event>
 6    0  0.2433432E+002  0.9000898E+02  0.7546771E-02  0.1302830E+00
          2   -1    0    0  503    0 -0.00000000000E+00  0.00000000000E+00  0.15381234834E+03  0.15381234834E+03  0.00000000000E+00 0.  1.
         21   -1    0    0  504  502  0.00000000000E+00 -0.00000000000E+00 -0.17031980888E+03  0.17031980888E+03  0.00000000000E+00 0.  1.
         21    1    1    2  503  505  0.55121067840E+02  0.56248515227E+01 -0.16768508880E+02  0.57889152391E+02  0.00000000000E+00 0.  1.
         21    1    1    2  504  501  0.37756610854E+02  0.72719975991E+02 -0.10991023520E+01  0.81944887560E+02  0.00000000000E+00 0.  1.
         21    1    1    2  505  502 -0.31940898733E+02 -0.44733170271E+01 -0.61711855156E+02  0.69631778980E+02  0.00000000000E+00 0.  1.
          2    1    1    2  501    0 -0.60936779961E+02 -0.73871510487E+02  0.63072005855E+02  0.11466633829E+03  0.00000000000E+00 0.  1.
<scales pt_clust_3="43.91272" pt_clust_4="14000.00000" pt_clust_5="32.25262" pt_clust_6="90.00898"></scales>
<clustering>
<clus scale="   32.253">  2  5  1 -1</clus>
<clus scale="   43.913">  2  3  1 -1</clus>
<clus scale="   90.009">  1  6  2 -1</clus>
<clus scale="   32.253">  2  3  1 -1</clus>
</clustering>
</event>
<event>
 6    0  0.2433432E+002  0.2554771E+03  0.7546771E-02  0.1109892E+00
          2   -1    0    0  505    0 -0.00000000000E+00  0.00000000000E+00  0.33968714992E+03  0.33968714992E+03  0.00000000000E+00 0. -1.
         21   -1    0    0  503  502  0.00000000000E+00 -0.00000000000E+00 -0.43856186064E+03  0.43856186064E+03  0.00000000000E+00 0.  1.
         21    1    1    2  503  504  0.10390439236E+03 -0.11162966527E+03 -0.19804488821E+03  0.24995816183E+03  0.00000000000E+00 0.  1.
         21    1    1    2  504  501 -0.29015555819E+01 -0.86994459068E+02 -0.96070515179E+02  0.12963795285E+03  0.00000000000E+00 0.  1.
         21    1    1    2  505  502 -0.56257847954E+02 -0.40637079514E+02 -0.21581164358E+02  0.72677811902E+02  0.00000000000E+00 0. -1.
          2    1    1    2  501    0 -0.44744988829E+02  0.23926120385E+03  0.21682185701E+03  0.32597508398E+03  0.00000000000E+00 0. -1.
<scales pt_clust_3="67.30288" pt_clust_4="67.30288" pt_clust_5="69.39970" pt_clust_6="239.44172"></scales>
<clustering>
<clus scale="   67.303">  3  4 -1 -1</clus>
<clus scale="   69.400">  2  5  1 -1</clus>
<clus scale="  239.442">  1  6  2 -1</clus>
<clus scale="   69.400">  2  3  1 -1</clus>
</clustering>
</event>
<event>
 6    0  0.2433432E+002  0.3170763E+03  0.7546771E-02  0.1077003E+00
         -4   -1    0    0    0  501 -0.00000000000E+00  0.00000000000E+00  0.36485664336E+03  0.36485664336E+03  0.00000000000E+00 0. -1.
         21   -1    0    0  505  502  0.00000000000E+00 -0.00000000000E+00 -0.13040664313E+04  0.13040664313E+04  0.00000000000E+00 0.  1.
         21    1    1    2  503  501 -0.19866568627E+03 -0.41168737378E+02 -0.51949962981E+03  0.55771209886E+03  0.00000000000E+00 0.  1.
         21    1    1    2  504  502  0.31863542440E+02 -0.30387200618E+01 -0.19827441106E+03  0.20084138328E+03  0.00000000000E+00 0.  1.
         21    1    1    2  505  503 -0.70217401462E+02 -0.10989814599E+03 -0.49805010188E+03  0.51484171349E+03  0.00000000000E+00 0.  1.
         -4    1    1    2    0  504  0.23701954529E+03  0.15410560343E+03  0.27661435477E+03  0.39552787907E+03  0.00000000000E+00 0. -1.
<scales pt_clust_3="114.58842" pt_clust_4="32.00811" pt_clust_5="114.58842" pt_clust_6="284.06416"></scales>
<clustering>
<clus scale="   32.008">  2  4  1 -1</clus>
<clus scale="  114.588">  3  5 -1 -1</clus>
<clus scale="  284.064">  1  6  2 -1</clus>
<clus scale="   32.008">  2  3  1 -1</clus>
</clustering>
</event>
<event>
 6    0  0.2433432E+002  0.9529847E+02  0.7546771E-02  0.1290505E+00
         21   -1    0    0  503  502  0.00000000000E+00  0.00000000000E+00  0.33416709481E+03  0.33416709481E+03  0.00000000000E+00 0.  1.
          1   -1    0    0  505    0 -0.00000000000E+00 -0.00000000000E+00 -0.77180360207E+03  0.77180360207E+03  0.00000000000E+00 0.  1.
         21    1    1    2  503  504 -0.20583959337E+02  0.22183087725E+02  0.58828219105E+02  0.66155484474E+02  0.00000000000E+00 0.  1.
         21    1    1    2  504  501  0.18270784525E+02 -0.11288426425E+03  0.22044545531E+03  0.24834024533E+03  0.00000000000E+00 0.  1.
         21    1    1    2  505  502  0.36675494612E+02  0.20440013767E+01  0.24395993050E+02  0.44095740424E+02  0.00000000000E+00 0. -1.
          1    1    1    2  501    0 -0.34362319800E+02  0.88657175152E+02 -0.74130617474E+03  0.74737922665E+03  0.00000000000E+00 0.  1.
<scales pt_clust_3="30.26200" pt_clust_4="14000.00000" pt_clust_5="34.42280" pt_clust_6="95.29847"></scales>
<clustering>
<clus scale="   30.262">  1  3  2 -1</clus>
<clus scale="   34.423">  1  5  2 -1</clus>
<clus scale="   95.298">  2  6  1 -1</clus>
<clus scale="   30.262">  1  3  2 -1</clus>
</clustering>
</event>
<event>
 6    0  0.3235297E+002  0.1105089E+03  0.7546771E-02  0.1259630E+00
          2   -1    0    0  505    0 -0.00000000000E+00  0.00000000000E+00  0.14932136411E+04  0.14932136411E+04  0.00000000000E+00 0. -1.
         21   -1    0    0  503  502  0.00000000000E+00 -0.00000000000E+00 -0.99458478343E+03  0.99458478343E+03  0.00000000000E+00 0. -1.
         21    1    1    2  503  501 -0.30589383398E+02  0.28646250614E+02  0.15628020833E+02  0.44727542813E+02  0.00000000000E+00 0. -1.
         21    1    1    2  504  502  0.27821155235E+02 -0.17964925123E+02 -0.55869401957E+03  0.55967469365E+03  0.00000000000E+00 0. -1.
         21    1    1    2  505  504  0.47898281027E+02  0.90239455385E+02 -0.41252136056E+03  0.42498385564E+03  0.00000000000E+00 0. -1.
          2    1    1    2  501    0 -0.45130052864E+02 -0.10092078088E+03  0.14542162169E+04  0.14584123324E+04  0.00000000000E+00 0. -1.
<scales pt_clust_3="40.81998" pt_clust_4="33.11729" pt_clust_5="14000.00000" pt_clust_6="110.50894"></scales>
<clustering>
<clus scale="   33.117">  2  4  1 -1</clus>
<clus scale="   40.820">  2  3  1 -1</clus>
<clus scale="  110.509">  1  6  2 -1</clus>
<clus scale="   33.117">  2  3  1 -1</clus>
</clustering>
</event>
<event>
 6    0  0.2433432E+002  0.1375511E+03  0.7546771E-02  0.1216663E+00
         21   -1    0    0  501  502  0.00000000000E+00  0.00000000000E+00  0.65435023695E+03  0.65435023695E+03  0.00000000000E+00 0.  1.
          3   -1    0    0  504    0 -0.00000000000E+00 -0.00000000000E+00 -0.81460323971E+02  0.81460323971E+02  0.00000000000E+00 0. -1.
         21    1    1    2  503  505 -0.22912418592E+02 -0.68976294617E+02  0.21445894803E+03  0.22644060708E+03  0.00000000000E+00 0.  1.
         21    1    1    2  504  503 -0.35110247510E+02 -0.34293419383E+02  0.24450504459E+03  0.24938220651E+03  0.00000000000E+00 0.  1.
         21    1    1    2  505  502  0.34538507798E+02 -0.28343576285E+02  0.11806014722E+03  0.12623179156E+03  0.00000000000E+00 0.  1.
          3    1    1    2  501    0  0.23484158304E+02  0.13161329029E+03 -0.41342268724E+01  0.13375595577E+03  0.00000000000E+00 0. -1.
<scales pt_clust_3="34.16049" pt_clust_4="34.16049" pt_clust_5="44.67960" pt_clust_6="131.11887"></scales>
<clustering>
<clus scale="   34.160">  3  4 -1 -1</clus>
<clus scale="   44.680">  1  5  2 -1</clus>
<clus scale="  131.119">  2  6  1 -1</clus>
<clus scale="   44.680">  1  3  2 -1</clus>
</clustering>
</event>
<event>
 6    0  0.2433432E+002  0.1067892E+03  0.7546771E-02  0.1266634E+00
          1   -1    0    0  503    0 -0.00000000000E+00  0.00000000000E+00  0.36997272390E+04  0.36997272390E+04  0.00000000000E+00 0.  1.
         21   -1    0    0  504  502  0.00000000000E+00 -0.00000000000E+00 -0.35898377307E+02  0.35898377307E+02  0.00000000000E+00 0.  1.
         21    1    1    2  503  505  0.28728136197E+02 -0.67598541644E+02  0.17042007580E+03  0.18557443487E+03  0.00000000000E+00 0.  1.
         21    1    1    2  504  501 -0.29369459067E+02 -0.10003207606E+02  0.77533000359E+02  0.83510451041E+02  0.00000000000E+00 0. -1.
         21    1    1    2  505  502 -0.15076004851E+02 -0.33291438369E+02 -0.10742829092E+02  0.38092179878E+02  0.00000000000E+00 0.  1.
          1    1    1    2  501    0  0.15717327720E+02  0.11089318762E+03  0.34266186146E+04  0.34284485505E+04  0.00000000000E+00 0.  1.
<scales pt_clust_3="106.78918" pt_clust_4="31.02627" pt_clust_5="54.92489" pt_clust_6="14000.00000"></scales>
<clustering>
<clus scale="   31.026">  2  4  1 -1</clus>
<clus scale="   54.925">  2  5  1 -1</clus>
<clus scale="  106.789">  2  3  1 -1</clus>
<clus scale="   31.026">  2  3  1 -1</clus>
</clustering>
</event>
<event>
 6    0  0.2433432E+002  0.1328709E+03  0.7546771E-02  0.1223257E+00
          2   -1    0    0  504    0 -0.00000000000E+00  0.00000000000E+00  0.10890457397E+04  0.10890457397E+04  0.00000000000E+00 0. -1.
         21   -1    0    0  503  502  0.00000000000E+00 -0.00000000000E+00 -0.15746537917E+03  0.15746537917E+03  0.00000000000E+00 0. -1.
         21    1    1    2  503  501 -0.74908620433E+01 -0.29578421381E+02 -0.13961841641E+03  0.14291360407E+03  0.00000000000E+00 0. -1.
         21    1    1    2  504  505  0.61560668927E+02  0.67211862984E+02  0.32413052399E+03  0.33670127274E+03  0.00000000000E+00 0. -1.
         21    1    1    2  505  502 -0.34847218604E+01  0.59712134562E+02  0.19239556701E+03  0.20147887360E+03  0.00000000000E+00 0.  1.
          2    1    1    2  501    0 -0.50585085024E+02 -0.97345576164E+02  0.55467268591E+03  0.56541736843E+03  0.00000000000E+00 0. -1.
<scales pt_clust_3="30.51223" pt_clust_4="46.31820" pt_clust_5="46.31820" pt_clust_6="119.57648"></scales>
<clustering>
<clus scale="   30.512">  2  3  1 -1</clus>
<clus scale="   46.318">  4  5 -1 -1</clus>
<clus scale="  119.576">  1  6  2 -1</clus>
<clus scale="   30.512">  2  3  1 -1</clus>
</clustering>
</event>
<event>
 6    0  0.2433432E+002  0.1019694E+03  0.7546771E-02  0.1276208E+00
          2   -1    0    0  505    0 -0.00000000000E+00  0.00000000000E+00  0.53421459815E+04  0.53421459815E+04  0.00000000000E+00 0.  1.
         21   -1    0    0  503  502  0.00000000000E+00 -0.00000000000E+00 -0.17521238930E+03  0.17521238930E+03  0.00000000000E+00 0. -1.
         21    1    1    2  503  501 -0.84629775664E+02  0.68381521015E+02  0.67149643738E+03  0.68025414130E+03  0.00000000000E+00 0. -1.
         21    1    1    2  504  502 -0.78491638193E+01 -0.29595977429E+02 -0.16735911354E+03  0.17013701578E+03  0.00000000000E+00 0. -1.
         21    1    1    2  505  504  0.39113243211E+02  0.47850261939E+02  0.66233735779E+03  0.66521445330E+03  0.00000000000E+00 0. -1.
          2    1    1    2  501    0  0.53365696272E+02 -0.86635805525E+02  0.40004589106E+04  0.40017527604E+04  0.00000000000E+00 0.  1.
<scales pt_clust_3="101.96942" pt_clust_4="30.61913" pt_clust_5="55.66849" pt_clust_6="14000.00000"></scales>
<clustering>
<clus scale="   30.619">  2  4  1 -1</clus>
<clus scale="   55.668">  2  5  1 -1</clus>
<clus scale="  101.969">  2  3  1 -1</clus>
<clus scale="   30.619">  2  3  1 -1</clus>
</clustering>
</event>
<event>
 6    0  0.2433432E+002  0.2171453E+03  0.7546771E-02  0.1136029E+00
          1   -1    0    0  505    0 -0.00000000000E+00  0.00000000000E+00  0.11089306384E+04  0.11089306384E+04  0.00000000000E+00 0. -1.
         21   -1    0    0  504  502  0.00000000000E+00 -0.00000000000E+00 -0.70880625442E+03  0.70880625442E+03  0.00000000000E+00 0. -1.
         21    1    1    2  503  501 -0.13185513761E+03 -0.13526515659E+03 -0.33361331308E+03  0.38338007586E+03  0.00000000000E+00 0. -1.
         21    1    1    2  504  503 -0.45598480433E+02 -0.12327519960E+01 -0.32811977795E+03  0.33127530814E+03  0.00000000000E+00 0. -1.
         21    1    1    2  505  502  0.13148742816E+03  0.11086841648E+03  0.35708095637E+03  0.39634272914E+03  0.00000000000E+00 0. -1.
          1    1    1    2  501    0  0.45966189881E+02  0.25629492110E+02  0.70477651860E+03  0.70673877964E+03  0.00000000000E+00 0. -1.
<scales pt_clust_3="217.14534" pt_clust_4="45.61514" pt_clust_5="14000.00000" pt_clust_6="52.52393"></scales>
<clustering>
<clus scale="   45.615">  2  4  1 -1</clus>
<clus scale="   52.524">  1  6  2 -1</clus>
<clus scale="  217.145">  2  3  1 -1</clus>
<clus scale="   45.615">  2  3  1 -1</clus>
</clustering>
</event>
<event>
 6    0  0.2433432E+002  0.1994611E+03  0.7546771E-02  0.1150195E+00
          2   -1    0    0  503    0 -0.00000000000E+00  0.00000000000E+00  0.44338339934E+03  0.44338339934E+03  0.00000000000E+00 0.  1.
         21   -1    0    0  505  502  0.00000000000E+00 -0.00000000000E+00 -0.15802109916E+04  0.15802109916E+04  0.00000000000E+00 0.  1.
         21    1    1    2  503  502 -0.98094241159E+02  0.17525346382E+03 -0.13890881111E+04  0.14035319865E+04  0.00000000000E+00 0.  1.
         21    1    1    2  504  501  0.53659573629E+02 -0.96222467619E+02 -0.13011207541E+03  0.17049124694E+03  0.00000000000E+00 0.  1.
         21    1    1    2  505  504  0.18488681677E+02 -0.42149433611E+02 -0.15944472180E+02  0.48709673547E+02  0.00000000000E+00 0.  1.
          2    1    1    2  501    0  0.25945985853E+02 -0.36881562586E+02  0.39831706647E+03  0.40086148391E+03  0.00000000000E+00 0.  1.
<scales pt_clust_3="193.44338" pt_clust_4="31.42843" pt_clust_5="31.42843" pt_clust_6="45.09372"></scales>
<clustering>
<clus scale="   31.428">  4  5 -1 -1</clus>
<clus scale="   45.094">  1  6  2 -1</clus>
<clus scale="  193.443">  2  3  1 -1</clus>
<clus scale="  193.443">  2  3  1 -1</clus>
</clustering>
</event>
<event>
 6    0  0.2433432E+002  0.1681826E+03  0.7546771E-02  0.1179756E+00
         21   -1    0    0  504  502  0.00000000000E+00  0.00000000000E+00  0.58302163219E+02  0.58302163219E+02  0.00000000000E+00 0. -1.
         -2   -1    0    0    0  501 -0.00000000000E+00 -0.00000000000E+00 -0.11123546370E+04  0.11123546370E+04  0.00000000000E+00 0.  1.
         21    1    1    2  503  505 -0.49636132912E+02  0.17273206608E+01 -0.24520974617E+02  0.55389597609E+02  0.00000000000E+00 0. -1.
         21    1    1    2  504  503 -0.45114244585E+02 -0.31259789444E+02  0.24929688372E+01  0.54942555403E+02  0.00000000000E+00 0. -1.
         21    1    1    2  505  501 -0.42720878849E+02 -0.22674393347E+02 -0.59181592938E+02  0.76430769628E+02  0.00000000000E+00 0. -1.
         -2    1    1    2    0  502  0.13747125635E+03  0.52206862130E+02 -0.97284287502E+03  0.98389387754E+03  0.00000000000E+00 0.  1.
<scales pt_clust_3="46.98248" pt_clust_4="46.98248" pt_clust_5="36.94824" pt_clust_6="147.05068"></scales>
<clustering>
<clus scale="   36.948">  3  5 -1 -1</clus>
<clus scale="   46.982">  3  4 -1 -1</clus>
<clus scale="  147.051">  2  6  1 -1</clus>
<clus scale="  168.183">  1  3  2 -1</clus>
</clustering>
</event>
<event>
 6    0  0.2433432E+002  0.2387482E+03  0.7546771E-02  0.1120630E+00
          2   -1    0    0  502    0 -0.00000000000E+00  0.00000000000E+00  0.19942331463E+04  0.19942331463E+04  0.00000000000E+00 0. -1.
         21   -1    0    0  505  502  0.00000000000E+00 -0.00000000000E+00 -0.87337245634E+02  0.87337245634E+02  0.00000000000E+00 0. -1.
         21    1    1    2  503  504  0.75110533649E+02  0.15495158486E+03  0.11241949728E+03  0.20564466753E+03  0.00000000000E+00 0. -1.
         21    1    1    2  504  501 -0.35518592215E+02 -0.53208083881E+02  0.30262986649E+03  0.30931780853E+03  0.00000000000E+00 0.  1.
         21    1    1    2  505  503  0.76910084282E+01  0.50367062938E+02 -0.13618306030E+02  0.52739462443E+02  0.00000000000E+00 0. -1.
          2    1    1    2  501    0 -0.47282949861E+02 -0.15211056392E+03  0.15054648430E+04  0.15138684535E+04  0.00000000000E+00 0. -1.
<scales pt_clust_3="48.61897" pt_clust_4="48.22144" pt_clust_5="48.61897" pt_clust_6="234.09756"></scales>
<clustering>
<clus scale="   48.221">  4  6 -1 -1</clus>
<clus scale="   48.619">  3  5 -1 -1</clus>
<clus scale="  234.098">  1  4  2 -1</clus>
<clus scale="  238.748">  2  3  1 -1</clus>
</clustering>
</event>
<event>
 6    0  0.2433432E+002  0.1722840E+03  0.7546771E-02  0.1175487E+00
          1   -1    0    0  503    0 -0.00000000000E+00  0.00000000000E+00  0.79962029739E+03  0.79962029739E+03  0.00000000000E+00 0.  1.
         21   -1    0    0  504  502  0.00000000000E+00 -0.00000000000E+00 -0.94622295573E+03  0.94622295573E+03  0.00000000000E+00 0.  1.
         21    1    1    2  503  502  0.27056189380E+02  0.56898444670E+02 -0.97251423645E+02  0.11587626932E+03  0.00000000000E+00 0. -1.
         21    1    1    2  504  505 -0.10770071248E+02  0.36348637963E+02 -0.37527635590E+03  0.37718637464E+03  0.00000000000E+00 0. -1.
         21    1    1    2  505  501 -0.95883668156E+02  0.61313314870E+02 -0.44663143543E+03  0.46090415437E+03  0.00000000000E+00 0.  1.
          1    1    1    2  501    0  0.79597550025E+02 -0.15456039750E+03  0.77255655664E+03  0.79187645479E+03  0.00000000000E+00 0.  1.
<scales pt_clust_3="68.44026" pt_clust_4="37.91066" pt_clust_5="172.28403" pt_clust_6="14000.00000"></scales>
<clustering>
<clus scale="   37.911">  2  4  1 -1</clus>
<clus scale="   68.440">  2  3  1 -1</clus>
<clus scale="  172.284">  2  5  1 -1</clus>
<clus scale="   37.911">  2  3  1 -1</clus>
</clustering>
</event>
<event>
 6    0  0.2433432E+002  0.1634046E+03  0.7546771E-02  0.1184906E+00
         21   -1    0    0  503  502  0.00000000000E+00  0.00000000000E+00  0.26046733859E+03  0.26046733859E+03  0.00000000000E+00 0. -1.
          1   -1    0    0  502    0 -0.00000000000E+00 -0.00000000000E+00 -0.40109157653E+03  0.40109157653E+03  0.00000000000E+00 0. -1.
         21    1    1    2  503  504  0.33054856878E+02  0.15205215906E+02  0.13785211984E+03  0.14257289047E+03  0.00000000000E+00 0. -1.
         21    1    1    2  504  505  0.57209935514E+02 -0.35024669322E+01  0.40893374560E+02  0.70409602179E+02  0.00000000000E+00 0. -1.
         21    1    1    2  505  501  0.71316141728E+02 -0.31792582402E+02  0.12347455816E+02  0.79052008398E+02  0.00000000000E+00 0.  1.
          1    1    1    2  501    0 -0.16158093412E+03  0.20089833428E+02 -0.33171718816E+03  0.36952441408E+03  0.00000000000E+00 0. -1.
<scales pt_clust_3="36.38437" pt_clust_4="35.73375" pt_clust_5="35.73375" pt_clust_6="157.99230"></scales>
<clustering>
<clus scale="   35.734">  4  5 -1 -1</clus>
<clus scale="   36.384">  1  3  2 -1</clus>
<clus scale="  157.992">  2  6  1 -1</clus>
<clus scale="   36.384">  1  3  2 -1</clus>
</clustering>
</event>
<event>
 6    0  0.2433432E+002  0.1230667E+03  0.7546771E-02  0.1238122E+00
          2   -1    0    0  503    0 -0.00000000000E+00  0.00000000000E+00  0.37698280741E+04  0.37698280741E+04  0.00000000000E+00 0. -1.
         21   -1    0    0  505  502  0.00000000000E+00 -0.00000000000E+00 -0.17603162209E+03  0.17603162209E+03  0.00000000000E+00 0. -1.
         21    1    1    2  503  504 -0.11264089627E+02 -0.35240515479E+02 -0.49006221279E+01  0.37320098387E+02  0.00000000000E+00 0. -1.
         21    1    1    2  504  502 -0.88412986878E+02 -0.72711623811E+02 -0.11624451434E+03  0.16314601926E+03  0.00000000000E+00 0. -1.
         21    1    1    2  505  501  0.17623485621E+02  0.41229382300E+02  0.20267038748E+02  0.49205711761E+02  0.00000000000E+00 0.  1.
          2    1    1    2  501    0  0.82053590883E+02  0.66722756990E+02  0.36946745498E+04  0.36961878668E+04  0.00000000000E+00 0. -1.
<scales pt_clust_3="35.60003" pt_clust_4="35.60003" pt_clust_5="44.83803" pt_clust_6="105.94373"></scales>
<clustering>
<clus scale="   35.600">  3  4 -1 -1</clus>
<clus scale="   44.838">  2  5  1 -1</clus>
<clus scale="  105.944">  1  6  2 -1</clus>
<clus scale="   44.838">  2  3  1 -1</clus>
</clustering>
</event>
<event>
 6    0  0.2433432E+002  0.1018454E+03  0.7546771E-02  0.1276463E+00
         21   -1    0    0  503  502  0.00000000000E+00  0.00000000000E+00  0.37763327529E+03  0.37763327529E+03  0.00000000000E+00 0.  1.
          2   -1    0    0  504    0 -0.00000000000E+00 -0.00000000000E+00 -0.23836718088E+04  0.23836718088E+04  0.00000000000E+00 0. -1.
         21    1    1    2  503  505 -0.32439631668E+02  0.16039666352E+02  0.31152125863E+03  0.31361615899E+03  0.00000000000E+00 0.  1.
         21    1    1    2  504  502  0.51607902318E+02  0.99871378559E+02 -0.19257743229E+03  0.22298819535E+03  0.00000000000E+00 0.  1.
         21    1    1    2  505  501 -0.51403012584E+02 -0.79034525238E+02  0.47553497127E+01  0.94399890006E+02  0.00000000000E+00 0.  1.
          2    1    1    2  501    0  0.32234741933E+02 -0.36876519673E+02 -0.21297377095E+04  0.21303008397E+04  0.00000000000E+00 0. -1.
<scales pt_clust_3="36.18840" pt_clust_4="14000.00000" pt_clust_5="101.84537" pt_clust_6="48.83453"></scales>
<clustering>
<clus scale="   36.188">  1  3  2 -1</clus>
<clus scale="   48.835">  2  6  1 -1</clus>
<clus scale="  101.845">  1  5  2 -1</clus>
<clus scale="   36.188">  1  3  2 -1</clus>
</clustering>
</event>
<event>
 6    0  0.2433432E+002  0.1142076E+03  0.7546771E-02  0.1252971E+00
         21   -1    0    0  503  502  0.00000000000E+00  0.00000000000E+00  0.25157983559E+03  0.25157983559E+03  0.00000000000E+00 0. -1.
          2   -1    0    0  505    0 -0.00000000000E+00 -0.00000000000E+00 -0.21233970715E+04  0.21233970715E+04  0.00000000000E+00 0. -1.
         21    1    1    2  503  501 -0.20315379854E+02  0.78563915106E+02  0.13255753350E+03  0.15542362466E+03  0.00000000000E+00 0. -1.
         21    1    1    2  504  502  0.61983192400E+01 -0.35751885234E+02 -0.45906963550E+02  0.58515517272E+02  0.00000000000E+00 0.  1.
         21    1    1    2  505  504 -0.80636352155E+02  0.21960998916E+02  0.82153642116E+02  0.11719098803E+03  0.00000000000E+00 0.  1.
          2    1    1    2  501    0  0.94753412769E+02 -0.64773028788E+02 -0.20406214480E+04  0.20438467771E+04  0.00000000000E+00 0. -1.
<scales pt_clust_3="59.94208" pt_clust_4="36.28521" pt_clust_5="114.20757" pt_clust_6="14000.00000"></scales>
<clustering>
<clus scale="   36.285">  1  4  2 -1</clus>
<clus scale="   59.942">  1  3  2 -1</clus>
<clus scale="  114.208">  1  5  2 -1</clus>
<clus scale="   36.285">  1  3  2 -1</clus>
</clustering>
</event>
<event>
 6    0  0.2433432E+002  0.1151228E+03  0.7546771E-02  0.1251367E+00
         21   -1    0    0  504  502  0.00000000000E+00  0.00000000000E+00  0.38047465219E+02  0.38047465219E+02  0.00000000000E+00 0. -1.
          2   -1    0    0  505    0 -0.00000000000E+00 -0.00000000000E+00 -0.13037488029E+04  0.13037488029E+04  0.00000000000E+00 0. -1.
         21    1    1    2  503  502 -0.39918260141E+02 -0.26040019294E+02 -0.12374410904E+03  0.13260525864E+03  0.00000000000E+00 0.  1.
         21    1    1    2  504  501 -0.91132633190E+02  0.61133500930E+02 -0.16086793320E+03  0.19473303187E+03  0.00000000000E+00 0. -1.
         21    1    1    2  505  503  0.48453534486E+02 -0.12445182868E+03 -0.43826451110E+03  0.45816130823E+03  0.00000000000E+00 0. -1.
          2    1    1    2  501    0  0.82597358844E+02  0.89358347040E+02 -0.54282478437E+03  0.55629666941E+03  0.00000000000E+00 0. -1.
<scales pt_clust_3="47.66078" pt_clust_4="115.12276" pt_clust_5="14000.00000" pt_clust_6="112.44831"></scales>
<clustering>
<clus scale="   47.661">  1  3  2 -1</clus>
<clus scale="  112.448">  2  6  1 -1</clus>
<clus scale="  115.123">  1  4  2 -1</clus>
<clus scale="   47.661">  1  3  2 -1</clus>
</clustering>
</event>
<event>
 6    0  0.2433432E+002  0.1020961E+03  0.7546771E-02  0.1275949E+00
         21   -1    0    0  504  502  0.00000000000E+00  0.00000000000E+00  0.18244835458E+03  0.18244835458E+03  0.00000000000E+00 0.  1.
          1   -1    0    0  505    0 -0.00000000000E+00 -0.00000000000E+00 -0.13635629768E+04  0.13635629768E+04  0.00000000000E+00 0. -1.
         21    1    1    2  503  501  0.10760155042E+03 -0.15059026611E+02 -0.22963776073E+03  0.25404402982E+03  0.00000000000E+00 0.  1.
         21    1    1    2  504  503 -0.10145573337E+03 -0.86288158001E+01  0.14090522001E+03  0.17384476789E+03  0.00000000000E+00 0.  1.
         21    1    1    2  505  502 -0.53017601979E+02  0.24611762486E+02 -0.56878872133E+02  0.81558635762E+02  0.00000000000E+00 0. -1.
          1    1    1    2  501    0  0.46871784926E+02 -0.92392007450E+00 -0.10355032093E+04  0.10365638979E+04  0.00000000000E+00 0. -1.
<scales pt_clust_3="14000.00000" pt_clust_4="102.09605" pt_clust_5="49.54596" pt_clust_6="46.88089"></scales>
<clustering>
<clus scale="   46.881">  2  6  1 -1</clus>
<clus scale="   49.546">  2  5  1 -1</clus>
<clus scale="  102.096">  1  4  2 -1</clus>
<clus scale="  102.096">  1  3  2 -1</clus>
</clustering>
</event>
<event>
 6    0  0.2433432E+002  0.8995177E+02  0.7546771E-02  0.1302969E+00
         21   -1    0    0  504  502  0.00000000000E+00  0.00000000000E+00  0.41213757866E+02  0.41213757866E+02  0.00000000000E+00 0. -1.
          2   -1    0    0  503    0 -0.00000000000E+00 -0.00000000000E+00 -0.13045795268E+04  0.13045795268E+04  0.00000000000E+00 0.  1.
         21    1    1    2  503  505 -0.28038029402E+02 -0.95039179372E+02 -0.28531173412E+03  0.30202874422E+03  0.00000000000E+00 0. -1.
         21    1    1    2  504  501  0.83191156907E+02 -0.15801557395E+02 -0.63138364353E+02  0.10562627920E+03  0.00000000000E+00 0.  1.
         21    1    1    2  505  502 -0.95263135821E+02  0.89656744972E+02 -0.39186053422E+03  0.41311992840E+03  0.00000000000E+00 0. -1.
          2    1    1    2  501    0  0.40110008316E+02  0.21183991795E+02 -0.52305513621E+03  0.52501833281E+03  0.00000000000E+00 0.  1.
<scales pt_clust_3="88.02630" pt_clust_4="89.95177" pt_clust_5="14000.00000" pt_clust_6="45.36049"></scales>
<clustering>
<clus scale="   45.360">  2  6  1 -1</clus>
<clus scale="   88.026">  2  3  1 -1</clus>
<clus scale="   89.952">  1  4  2 -1</clus>
<clus scale="   89.952">  1  3  2 -1</clus>
</clustering>
</event>
<event>
 6    0  0.2433432E+002  0.1227234E+03  0.7546771E-02  0.1238671E+00
          1   -1    0    0  503    0 -0.00000000000E+00  0.00000000000E+00  0.21436573719E+04  0.21436573719E+04  0.00000000000E+00 0. -1.
         21   -1    0    0  504  502  0.00000000000E+00 -0.00000000000E+00 -0.31735196802E+02  0.31735196802E+02  0.00000000000E+00 0.  1.
         21    1    1    2  503  502  0.37523876242E+02 -0.49472072193E+02  0.18757956223E+03  0.19758952245E+03  0.00000000000E+00 0. -1.
         21    1    1    2  504  505 -0.65558944158E+02  0.64765770936E+02  0.11125476171E+03  0.14446522850E+03  0.00000000000E+00 0.  1.
         21    1    1    2  505  501 -0.28207659348E+02  0.73210430826E+02  0.17366699414E+03  0.19056669195E+03  0.00000000000E+00 0.  1.
          1    1    1    2  501    0  0.56242727264E+02 -0.88504129569E+02  0.16394208570E+04  0.16427711258E+04  0.00000000000E+00 0. -1.
<scales pt_clust_3="62.09289" pt_clust_4="52.49091" pt_clust_5="52.49091" pt_clust_6="108.74128"></scales>
<clustering>
<clus scale="   52.491">  4  5 -1 -1</clus>
<clus scale="   62.093">  2  3  1 -1</clus>
<clus scale="  108.741">  1  6  2 -1</clus>
<clus scale="   62.093">  2  3  1 -1</clus>
</clustering>
</event>
<event>
 6    0  0.2433432E+002  0.9616822E+02  0.7546771E-02  0.1288566E+00
         21   -1    0    0  501  502  0.00000000000E+00  0.00000000000E+00  0.11778208032E+02  0.11778208032E+02  0.00000000000E+00 0. -1.
          1   -1    0    0  505    0 -0.00000000000E+00 -0.00000000000E+00 -0.21416145560E+04  0.21416145560E+04  0.00000000000E+00 0. -1.
         21    1    1    2  503  504 -0.33969864867E+02  0.20245630837E+02 -0.17015857791E+03  0.17469338546E+03  0.00000000000E+00 0. -1.
         21    1    1    2  504  502 -0.97029145866E+01  0.39688482732E+02 -0.11153090530E+03  0.11877905981E+03  0.00000000000E+00 0. -1.
         21    1    1    2  505  503 -0.38839385549E+02 -0.10228980782E+03 -0.12295958348E+04  0.12344543814E+04  0.00000000000E+00 0. -1.
          1    1    1    2  501    0  0.82512165002E+02  0.42355694247E+02 -0.61855102993E+03  0.62546593739E+03  0.00000000000E+00 0. -1.
<scales pt_clust_3="35.16637" pt_clust_4="82.32321" pt_clust_5="14000.00000" pt_clust_6="96.16822"></scales>
<clustering>
<clus scale="   35.166">  3  4 -1 -1</clus>
<clus scale="   82.323">  1  3  2 -1</clus>
<clus scale="   96.168">  1  6  2 -1</clus>
<clus scale="   82.323">  1  3  2 -1</clus>
</clustering>
</event>
<event>
 6    0  0.2433432E+002  0.9024404E+02  0.7546771E-02  0.1302262E+00
         -1   -1    0    0    0  501 -0.00000000000E+00  0.00000000000E+00  0.19731987906E+03  0.19731987906E+03  0.00000000000E+00 0. -1.
         21   -1    0    0  503  502  0.00000000000E+00 -0.00000000000E+00 -0.50538358411E+03  0.50538358411E+03  0.00000000000E+00 0.  1.
         21    1    1    2  503  504 -0.77505168142E+02 -0.48004207998E+02 -0.18328314301E+03  0.20470506976E+03  0.00000000000E+00 0.  1.
         21    1    1    2  504  501  0.48884493291E+02  0.67790870235E+02 -0.43273584497E+02  0.94116411357E+02  0.00000000000E+00 0.  1.
         21    1    1    2  505  502  0.92980868343E+02  0.10663048251E+02 -0.22500385561E+03  0.24369217778E+03  0.00000000000E+00 0.  1.
         -1    1    1    2    0  505 -0.64360193492E+02 -0.30449710488E+02  0.14349687807E+03  0.16018980427E+03  0.00000000000E+00 0. -1.
<scales pt_clust_3="90.24404" pt_clust_4="52.38446" pt_clust_5="14000.00000" pt_clust_6="71.19986"></scales>
<clustering>
<clus scale="   71.200">  1  6  2 -1</clus>
<clus scale="   52.384">  1  4  2 -1</clus>
<clus scale="   90.244">  1  3  2 -1</clus>
<clus scale="   90.244">  2  3  1 -1</clus>
</clustering>
</event>
<event>
 6    0  0.2433432E+002  0.1481142E+03  0.7546771E-02  0.1202810E+00
          2   -1    0    0  505    0 -0.00000000000E+00  0.00000000000E+00  0.15858585337E+04  0.15858585337E+04  0.00000000000E+00 0.  1.
         21   -1    0    0  503  502  0.00000000000E+00 -0.00000000000E+00 -0.98161368910E+02  0.98161368910E+02  0.00000000000E+00 0. -1.
         21    1    1    2  503  501  0.94501440698E+02  0.13516094684E+02 -0.47016043611E+02  0.10641294783E+03  0.00000000000E+00 0. -1.
         21    1    1    2  504  502  0.48799716686E+02  0.65211196792E+02  0.10990492693E+03  0.13679548786E+03  0.00000000000E+00 0. -1.
         21    1    1    2  505  504 -0.70561366744E+02  0.34744105326E+02  0.58290529927E+03  0.58818759529E+03  0.00000000000E+00 0.  1.
          2    1    1    2  501    0 -0.72739790640E+02 -0.11347139680E+03  0.84190298223E+03  0.85262387166E+03  0.00000000000E+00 0.  1.
<scales pt_clust_3="148.11417" pt_clust_4="80.23425" pt_clust_5="78.65151" pt_clust_6="14000.00000"></scales>
<clustering>
<clus scale="   78.652">  1  5  2 -1</clus>
<clus scale="   80.234">  2  4  1 -1</clus>
<clus scale="  148.114">  2  3  1 -1</clus>
<clus scale="   80.234">  2  3  1 -1</clus>
</clustering>
</event>
<event>
 6    0  0.2433432E+002  0.3069793E+03  0.7546771E-02  0.1081803E+00
          2   -1    0    0  503    0 -0.00000000000E+00  0.00000000000E+00  0.15958823675E+04  0.15958823675E+04  0.00000000000E+00 0. -1.
         21   -1    0    0  504  502  0.00000000000E+00 -0.00000000000E+00 -0.76241865234E+03  0.76241865234E+03  0.00000000000E+00 0.  1.
         21    1    1    2  503  502  0.13907276115E+03 -0.16607474241E+03 -0.25679151957E+02  0.21813177624E+03  0.00000000000E+00 0.  1.
         21    1    1    2  504  505 -0.12743314084E+03  0.21010706625E+03 -0.52329511239E+03  0.57811932966E+03  0.00000000000E+00 0.  1.
         21    1    1    2  505  501 -0.65182683652E+02  0.41384146613E+02 -0.71135849238E+02  0.10498446974E+03  0.00000000000E+00 0.  1.
          2    1    1    2  501    0  0.53543063340E+02 -0.85416470447E+02  0.14535738287E+04  0.14570654442E+04  0.00000000000E+00 0. -1.
<scales pt_clust_3="285.13566" pt_clust_4="63.74885" pt_clust_5="63.74885" pt_clust_6="100.81088"></scales>
<clustering>
<clus scale="   63.749">  4  5 -1 -1</clus>
<clus scale="  100.811">  1  6  2 -1</clus>
<clus scale="  285.136">  1  3  2 -1</clus>
<clus scale="  306.979">  2  3  1 -1</clus>
</clustering>
</event>
<event>
 6    0  0.2433432E+002  0.1182212E+03  0.7546771E-02  0.1246061E+00
         21   -1    0    0  505  502  0.00000000000E+00  0.00000000000E+00  0.59103609285E+02  0.59103609285E+02  0.00000000000E+00 0. -1.
          2   -1    0    0  503    0 -0.00000000000E+00 -0.00000000000E+00 -0.34963772909E+04  0.34963772909E+04  0.00000000000E+00 0.  1.
         21    1    1    2  503  502  0.65189044206E+02  0.89914464781E+02 -0.98221155918E+02  0.14826199085E+03  0.00000000000E+00 0. -1.
         21    1    1    2  504  501 -0.24234901005E+02 -0.37848521482E+02 -0.14425502287E+02  0.47201018224E+02  0.00000000000E+00 0. -1.
         21    1    1    2  505  504 -0.28154474088E+00 -0.74581764564E+02 -0.61799403551E+02  0.96859099480E+02  0.00000000000E+00 0. -1.
          2    1    1    2  501    0 -0.40672598461E+02  0.22515821265E+02 -0.32628276199E+04  0.32631587916E+04  0.00000000000E+00 0.  1.
<scales pt_clust_3="110.79163" pt_clust_4="32.02003" pt_clust_5="32.02003" pt_clust_6="46.48895"></scales>
<clustering>
<clus scale="   32.020">  4  5 -1 -1</clus>
<clus scale="   46.489">  2  6  1 -1</clus>
<clus scale="  110.792">  2  3  1 -1</clus>
<clus scale="  118.221">  1  3  2 -1</clus>
</clustering>
</event>
<event>
 6    0  0.2433432E+002  0.1212103E+03  0.7546771E-02  0.1241114E+00
          2   -1    0    0  503    0 -0.00000000000E+00  0.00000000000E+00  0.93625901094E+03  0.93625901094E+03  0.00000000000E+00 0.  1.
         21   -1    0    0  505  502  0.00000000000E+00 -0.00000000000E+00 -0.25782113027E+02  0.25782113027E+02  0.00000000000E+00 0.  1.
         21    1    1    2  503  504  0.40119936961E+02 -0.37609255810E+02  0.17762372855E+03  0.18594153492E+03  0.00000000000E+00 0.  1.
         21    1    1    2  504  502  0.58889012192E+02 -0.50872544393E+02  0.11671801270E+03  0.14028195186E+03  0.00000000000E+00 0.  1.
         21    1    1    2  505  501 -0.30669823045E+02  0.75717239397E+01  0.45217474608E+02  0.55159668772E+02  0.00000000000E+00 0.  1.
          2    1    1    2  501    0 -0.68339126108E+02  0.80910076263E+02  0.57091768205E+03  0.58065796841E+03  0.00000000000E+00 0.  1.
<scales pt_clust_3="41.35756" pt_clust_4="41.35756" pt_clust_5="31.59065" pt_clust_6="111.97785"></scales>
<clustering>
<clus scale="   31.591">  2  5  1 -1</clus>
<clus scale="   41.358">  3  4 -1 -1</clus>
<clus scale="  111.978">  1  6  2 -1</clus>
<clus scale="   31.591">  2  3  1 -1</clus>
</clustering>
</event>
<event>
 6    0  0.2433432E+002  0.4116076E+03  0.7546771E-02  0.1039833E+00
          4   -1    0    0  503    0 -0.00000000000E+00  0.00000000000E+00  0.92638474826E+03  0.92638474826E+03  0.00000000000E+00 0.  1.
         21   -1    0    0  505  502  0.00000000000E+00 -0.00000000000E+00 -0.85501953269E+03  0.85501953269E+03  0.00000000000E+00 0. -1.
         21    1    1    2  503  502 -0.32007003741E+03  0.25829666731E+03 -0.51158112563E+03  0.65641240489E+03  0.00000000000E+00 0. -1.
         21    1    1    2  504  501  0.18101068595E+03 -0.16369739740E+03 -0.88179258073E+02  0.25949429261E+03  0.00000000000E+00 0.  1.
         21    1    1    2  505  504  0.91737053199E+02 -0.13240055344E+03 -0.28223844713E+02  0.16353036076E+03  0.00000000000E+00 0.  1.
          4    1    1    2  501    0  0.47322298266E+02  0.37801283517E+02  0.69934944398E+03  0.70196722270E+03  0.00000000000E+00 0.  1.
<scales pt_clust_3="407.53651" pt_clust_4="46.91505" pt_clust_5="46.91505" pt_clust_6="60.56680"></scales>
<clustering>
<clus scale="   46.915">  4  5 -1 -1</clus>
<clus scale="   60.567">  1  6  2 -1</clus>
<clus scale="  407.537">  2  3  1 -1</clus>
<clus scale="  407.537">  2  3  1 -1</clus>
</clustering>
</event>
<event>
 6    0  0.2433432E+002  0.1305436E+03  0.7546771E-02  0.1226651E+00
         21   -1    0    0  505  502  0.00000000000E+00  0.00000000000E+00  0.66458254781E+03  0.66458254781E+03  0.00000000000E+00 0. -1.
          3   -1    0    0  504    0 -0.00000000000E+00 -0.00000000000E+00 -0.24687140791E+03  0.24687140791E+03  0.00000000000E+00 0. -1.
         21    1    1    2  503  501  0.72596323450E+01  0.13325589152E+03 -0.59808953886E+02  0.14624276341E+03  0.00000000000E+00 0.  1.
         21    1    1    2  504  502 -0.37111887768E+02  0.32175024427E+02  0.19879806652E+02  0.52988028111E+02  0.00000000000E+00 0.  1.
         21    1    1    2  505  503  0.59964285696E+01 -0.13024358373E+03  0.57385335478E+03  0.58847856465E+03  0.00000000000E+00 0. -1.
          3    1    1    2  501    0  0.23855826853E+02 -0.35187332220E+02 -0.11621306765E+03  0.12374459954E+03  0.00000000000E+00 0. -1.
<scales pt_clust_3="130.54358" pt_clust_4="43.78229" pt_clust_5="14000.00000" pt_clust_6="42.51175"></scales>
<clustering>
<clus scale="   42.512">  2  6  1 -1</clus>
<clus scale="   43.782">  2  4  1 -1</clus>
<clus scale="  130.544">  2  3  1 -1</clus>
<clus scale="  130.544">  1  3  2 -1</clus>
</clustering>
</event>
<event>
 6    0  0.2433432E+002  0.1012893E+03  0.7546771E-02  0.1277608E+00
          2   -1    0    0  503    0 -0.00000000000E+00  0.00000000000E+00  0.67084908778E+03  0.67084908778E+03  0.00000000000E+00 0. -1.
         21   -1    0    0  504  502  0.00000000000E+00 -0.00000000000E+00 -0.97844003369E+03  0.97844003369E+03  0.00000000000E+00 0.  1.
         21    1    1    2  503  502 -0.52200916861E+02 -0.89315123278E+02  0.23898521109E+02  0.10617563882E+03  0.00000000000E+00 0.  1.
         21    1    1    2  504  505  0.51466108682E+02 -0.33109560733E+02 -0.92138893091E+03  0.92341895440E+03  0.00000000000E+00 0.  1.
         21    1    1    2  505  501 -0.60003319491E+02  0.41627357594E+02  0.13283323212E+03  0.15158463908E+03  0.00000000000E+00 0. -1.
          2    1    1    2  501    0  0.60738127670E+02  0.80797326416E+02  0.45706623177E+03  0.46810988916E+03  0.00000000000E+00 0. -1.
<scales pt_clust_3="14000.00000" pt_clust_4="61.19643" pt_clust_5="62.79712" pt_clust_6="101.28931"></scales>
<clustering>
<clus scale="   61.196">  2  4  1 -1</clus>
<clus scale="   62.797">  2  5  1 -1</clus>
<clus scale="  101.289">  1  6  2 -1</clus>
<clus scale="   61.196">  2  3  1 -1</clus>
</clustering>
</event>
<event>
 6    0  0.2433432E+002  0.1024159E+03  0.7546771E-02  0.1275296E+00
         21   -1    0    0  503  502  0.00000000000E+00  0.00000000000E+00  0.71481087028E+02  0.71481087028E+02  0.00000000000E+00 0. -1.
          2   -1    0    0  505    0 -0.00000000000E+00 -0.00000000000E+00 -0.12807023071E+04  0.12807023071E+04  0.00000000000E+00 0.  1.
         21    1    1    2  503  501 -0.14098668331E+02 -0.99761156751E+02 -0.41967135083E+02  0.10914348937E+03  0.00000000000E+00 0. -1.
         21    1    1    2  504  502  0.15896252658E+02  0.47987831317E+02 -0.14217035154E+02  0.52513302045E+02  0.00000000000E+00 0.  1.
         21    1    1    2  505  504 -0.87686027694E+02 -0.11060448630E+02 -0.10563110059E+03  0.13772836451E+03  0.00000000000E+00 0. -1.
          2    1    1    2  501    0  0.85888443367E+02  0.62833774064E+02 -0.10474059492E+04  0.10527982382E+04  0.00000000000E+00 0.  1.
<scales pt_clust_3="69.07173" pt_clust_4="50.55218" pt_clust_5="102.41593" pt_clust_6="14000.00000"></scales>
<clustering>
<clus scale="   50.552">  1  4  2 -1</clus>
<clus scale="   69.072">  1  3  2 -1</clus>
<clus scale="  102.416">  1  5  2 -1</clus>
<clus scale="   50.552">  1  3  2 -1</clus>
</clustering>
</event>
<event>
 6    0  0.2433432E+002  0.2153904E+03  0.7546771E-02  0.1137367E+00
         21   -1    0    0  505  502  0.00000000000E+00  0.00000000000E+00  0.69547967269E+03  0.69547967269E+03  0.00000000000E+00 0. -1.
          2   -1    0    0  503    0 -0.00000000000E+00 -0.00000000000E+00 -0.78640339328E+03  0.78640339328E+03  0.00000000000E+00 0.  1.
         21    1    1    2  503  502  0.20647614743E+03 -0.35432818402E+02  0.97740071513E+02  0.23117310755E+03  0.00000000000E+00 0. -1.
         21    1    1    2  504  501 -0.18775647007E+03  0.15285299538E+03  0.12333619552E+03  0.27171372320E+03  0.00000000000E+00 0. -1.
         21    1    1    2  505  504 -0.77021742375E+01  0.45123887576E+02  0.32157167445E+03  0.32481353194E+03  0.00000000000E+00 0. -1.
          2    1    1    2  501    0 -0.11017503114E+02 -0.16254406455E+03 -0.63357166207E+03  0.65418270328E+03  0.00000000000E+00 0.  1.
<scales pt_clust_3="14000.00000" pt_clust_4="215.39035" pt_clust_5="45.77651" pt_clust_6="161.68548"></scales>
<clustering>
<clus scale="   45.777">  1  5  2 -1</clus>
<clus scale="  161.685">  2  6  1 -1</clus>
<clus scale="  215.390">  2  4  1 -1</clus>
<clus scale="   45.777">  1  3  2 -1</clus>
</clustering>
</event>
<event>
 6    0  0.2433432E+002  0.9907023E+02  0.7546771E-02  0.1282263E+00
          2   -1    0    0  505    0 -0.00000000000E+00  0.00000000000E+00  0.74262704747E+03  0.74262704747E+03  0.00000000000E+00 0.  1.
         21   -1    0    0  504  502  0.00000000000E+00 -0.00000000000E+00 -0.26128195001E+03  0.26128195001E+03  0.00000000000E+00 0. -1.
         21    1    1    2  503  501  0.91849708553E+02 -0.86233999450E+02 -0.57328325576E+02  0.13841679282E+03  0.00000000000E+00 0. -1.
         21    1    1    2  504  503 -0.75418507564E+02  0.31858967855E+02 -0.13198781108E+03  0.15531814894E+03  0.00000000000E+00 0. -1.
         21    1    1    2  505  502  0.49301161355E+01  0.29801787100E+02 -0.75867343324E+01  0.31145001161E+02  0.00000000000E+00 0. -1.
          2    1    1    2  501    0 -0.21361317125E+02  0.24573244495E+02  0.67824796845E+03  0.67902905455E+03  0.00000000000E+00 0.  1.
<scales pt_clust_3="14000.00000" pt_clust_4="99.07023" pt_clust_5="30.20683" pt_clust_6="32.59106"></scales>
<clustering>
<clus scale="   30.207">  2  5  1 -1</clus>
<clus scale="   32.591">  1  6  2 -1</clus>
<clus scale="   99.070">  2  4  1 -1</clus>
<clus scale="   30.207">  2  3  1 -1</clus>
</clustering>
</event>
<event>
 6    0  0.2433432E+002  0.1315081E+03  0.7546771E-02  0.1225235E+00
         21   -1    0    0  504  502  0.00000000000E+00  0.00000000000E+00  0.28495974242E+02  0.28495974242E+02  0.00000000000E+00 0. -1.
          1   -1    0    0  503    0 -0.00000000000E+00 -0.00000000000E+00 -0.11289902246E+04  0.11289902246E+04  0.00000000000E+00 0. -1.
         21    1    1    2  503  502 -0.74218780531E+02 -0.94116966743E+02 -0.18384528461E+03  0.21946644274E+03  0.00000000000E+00 0. -1.
         21    1    1    2  504  505  0.38071847378E+02  0.70741485107E+02 -0.28605925977E+03  0.29712577030E+03  0.00000000000E+00 0. -1.
         21    1    1    2  505  501  0.42013425500E+02  0.62218670479E+02 -0.40083401622E+03  0.40780411896E+03  0.00000000000E+00 0. -1.
          1    1    1    2  501    0 -0.58664923465E+01 -0.38843188843E+02 -0.22975568973E+03  0.23308986683E+03  0.00000000000E+00 0. -1.
<scales pt_clust_3="127.60354" pt_clust_4="30.74856" pt_clust_5="30.74856" pt_clust_6="39.28370"></scales>
<clustering>
<clus scale="   30.749">  4  5 -1 -1</clus>
<clus scale="   39.284">  2  6  1 -1</clus>
<clus scale="  127.604">  1  3  2 -1</clus>
<clus scale="  127.604">  1  3  2 -1</clus>
</clustering>
</event>
<event>
 6    0  0.2433432E+002  0.1313463E+03  0.7546771E-02  0.1225472E+00
          2   -1    0    0  504    0 -0.00000000000E+00  0.00000000000E+00  0.26782539948E+04  0.26782539948E+04  0.00000000000E+00 0.  1.
         21   -1    0    0  503  502  0.00000000000E+00 -0.00000000000E+00 -0.10730684901E+03  0.10730684901E+03  0.00000000000E+00 0.  1.
         21    1    1    2  503  505  0.29459054679E+02  0.10232557360E+02  0.32680382548E+02  0.45172431151E+02  0.00000000000E+00 0. -1.
         21    1    1    2  504  502 -0.14268607938E+03  0.15678288620E+03  0.33562582608E+03  0.39696962830E+03  0.00000000000E+00 0.  1.
         21    1    1    2  505  501  0.60085466418E+02 -0.88142644893E+02 -0.28369522120E+02  0.11038214941E+03  0.00000000000E+00 0.  1.
          2    1    1    2  501    0  0.53141558288E+02 -0.78872798668E+02  0.22310104593E+04  0.22330366350E+04  0.00000000000E+00 0.  1.
<scales pt_clust_3="31.18559" pt_clust_4="131.34626" pt_clust_5="14000.00000" pt_clust_6="95.18533"></scales>
<clustering>
<clus scale="   31.186">  2  3  1 -1</clus>
<clus scale="   95.185">  1  6  2 -1</clus>
<clus scale="  131.346">  1  4  2 -1</clus>
<clus scale="   31.186">  2  3  1 -1</clus>
</clustering>
</event>
<event>
 6    0  0.2433432E+002  0.1256200E+03  0.7546771E-02  0.1234104E+00
         21   -1    0    0  503  502  0.00000000000E+00  0.00000000000E+00  0.25007106357E+04  0.25007106357E+04  0.00000000000E+00 0. -1.
         -1   -1    0    0    0  501 -0.00000000000E+00 -0.00000000000E+00 -0.23696344173E+03  0.23696344173E+03  0.00000000000E+00 0.  1.
         21    1    1    2  503  504  0.74228019873E+02 -0.22668829734E+02  0.11711208591E+04  0.11736897977E+04  0.00000000000E+00 0. -1.
         21    1    1    2  504  501  0.40370917809E+02  0.88332880376E+01  0.12870827365E+04  0.12877460186E+04  0.00000000000E+00 0. -1.
         21    1    1    2  505  502 -0.97202592234E+02 -0.21970998994E+02 -0.25790199741E+02  0.10293786056E+03  0.00000000000E+00 0. -1.
         -1    1    1    2    0  505 -0.17396345447E+02  0.35806540690E+02 -0.16866620181E+03  0.17330040053E+03  0.00000000000E+00 0.  1.
<scales pt_clust_3="37.04293" pt_clust_4="37.04293" pt_clust_5="114.90587" pt_clust_6="39.80881"></scales>
<clustering>
<clus scale="   37.043">  3  4 -1 -1</clus>
<clus scale="   39.809">  2  6  1 -1</clus>
<clus scale="  114.906">  2  5  1 -1</clus>
<clus scale="  125.620">  1  3  2 -1</clus>
</clustering>
</event>
<event>
 6    0  0.2433432E+002  0.7332161E+02  0.7546771E-02  0.1349149E+00
         -1   -1    0    0    0  501 -0.00000000000E+00  0.00000000000E+00  0.83520646312E+02  0.83520646312E+02  0.00000000000E+00 0.  1.
         21   -1    0    0  505  502  0.00000000000E+00 -0.00000000000E+00 -0.30782248404E+03  0.30782248404E+03  0.00000000000E+00 0. -1.
         21    1    1    2  503  501  0.16073261534E+02  0.67082613502E+02 -0.28523938688E+02  0.74646110742E+02  0.00000000000E+00 0. -1.
         21    1    1    2  504  502  0.77840088486E+02 -0.34463301142E+02 -0.35667604688E+02  0.92298301855E+02  0.00000000000E+00 0. -1.
         21    1    1    2  505  503 -0.34774952655E+02  0.28088184593E+02 -0.12483910351E+03  0.13260107546E+03  0.00000000000E+00 0. -1.
         -1    1    1    2    0  504 -0.59138397365E+02 -0.60707496953E+02 -0.35271190840E+02  0.91797642303E+02  0.00000000000E+00 0.  1.
<scales pt_clust_3="73.32161" pt_clust_4="69.82951" pt_clust_5="44.70172" pt_clust_6="14000.00000"></scales>
<clustering>
<clus scale="   44.702">  2  5  1 -1</clus>
<clus scale="   69.830">  2  4  1 -1</clus>
<clus scale="   73.322">  1  3  2 -1</clus>
<clus scale="   44.702">  2  3  1 -1</clus>
</clustering>
</event>
<event>
 6    0  0.2433432E+002  0.7204365E+02  0.7546771E-02  0.1353278E+00
          2   -1    0    0  505    0 -0.00000000000E+00  0.00000000000E+00  0.30507973390E+04  0.30507973390E+04  0.00000000000E+00 0. -1.
         21   -1    0    0  501  502  0.00000000000E+00 -0.00000000000E+00 -0.17872846103E+02  0.17872846103E+02  0.00000000000E+00 0. -1.
         21    1    1    2  503  502 -0.29243297479E+02 -0.65176158220E+02  0.73308765570E+02  0.10235857149E+03  0.00000000000E+00 0. -1.
         21    1    1    2  504  503 -0.12554549204E+01  0.87002384340E+02  0.10855625062E+04  0.10890440515E+04  0.00000000000E+00 0. -1.
         21    1    1    2  505  504  0.60819058951E+02 -0.15376346401E+02  0.70005260793E+03  0.70285776927E+03  0.00000000000E+00 0.  1.
          2    1    1    2  501    0 -0.30320306552E+02 -0.64498797194E+01  0.11740006132E+04  0.11744097929E+04  0.00000000000E+00 0. -1.
<scales pt_clust_3="72.04365" pt_clust_4="14000.00000" pt_clust_5="52.58525" pt_clust_6="30.99874"></scales>
<clustering>
<clus scale="   30.999">  1  6  2 -1</clus>
<clus scale="   52.585">  1  5  2 -1</clus>
<clus scale="   72.044">  2  3  1 -1</clus>
<clus scale="   72.044">  2  3  1 -1</clus>
</clustering>
</event>
<event>
 6    0  0.2433432E+002  0.6531898E+02  0.7546771E-02  0.1376776E+00
          1   -1    0    0  505    0 -0.00000000000E+00  0.00000000000E+00  0.73415162986E+03  0.73415162986E+03  0.00000000000E+00 0.  1.
         21   -1    0    0  504  502  0.00000000000E+00 -0.00000000000E+00 -0.36878012743E+03  0.36878012743E+03  0.00000000000E+00 0.  1.
         21    1    1    2  503  502 -0.19260296162E+02  0.35827449116E+02 -0.32491170697E+03  0.32744798434E+03  0.00000000000E+00 0.  1.
         21    1    1    2  504  501  0.59826247361E+02 -0.77208107529E+02  0.29294016319E+02  0.10197259992E+03  0.00000000000E+00 0. -1.
         21    1    1    2  505  503  0.34423805106E+02 -0.74465358481E+01  0.11615412932E+03  0.12137640220E+03  0.00000000000E+00 0. -1.
          1    1    1    2  501    0 -0.74989756304E+02  0.48827194261E+02  0.54483506377E+03  0.55213477083E+03  0.00000000000E+00 0.  1.
<scales pt_clust_3="40.62928" pt_clust_4="65.31898" pt_clust_5="35.22001" pt_clust_6="14000.00000"></scales>
<clustering>
<clus scale="   35.220">  1  5  2 -1</clus>
<clus scale="   40.629">  2  3  1 -1</clus>
<clus scale="   65.319">  2  4  1 -1</clus>
<clus scale="   40.629">  2  3  1 -1</clus>
</clustering>
</event>
<event>
 6    0  0.2433432E+002  0.3432648E+03  0.7546771E-02  0.1065414E+00
          1   -1    0    0  504    0 -0.00000000000E+00  0.00000000000E+00  0.90966930652E+03  0.90966930652E+03  0.00000000000E+00 0. -1.
         21   -1    0    0  501  502  0.00000000000E+00 -0.00000000000E+00 -0.80041798193E+03  0.80041798193E+03  0.00000000000E+00 0. -1.
         21    1    1    2  503  505  0.49415935548E+02  0.19160753126E+02 -0.57085611329E+02  0.77896316776E+02  0.00000000000E+00 0. -1.
         21    1    1    2  504  503 -0.29603169201E+02 -0.36190754519E+03 -0.30895498230E+03  0.47676681930E+03  0.00000000000E+00 0. -1.
         21    1    1    2  505  502  0.14973879423E+03  0.24747088066E+03 -0.26361402008E+03  0.39135137007E+03  0.00000000000E+00 0. -1.
          1    1    1    2  501    0 -0.16955156058E+03  0.95275911405E+02  0.73890593831E+03  0.76407278230E+03  0.00000000000E+00 0. -1.
<scales pt_clust_3="34.74983" pt_clust_4="333.52754" pt_clust_5="34.74983" pt_clust_6="194.48710"></scales>
<clustering>
<clus scale="   34.750">  3  5 -1 -1</clus>
<clus scale="  194.487">  1  6  2 -1</clus>
<clus scale="  333.528">  1  4  2 -1</clus>
<clus scale="  343.265">  2  3  1 -1</clus>
</clustering>
</event>
<event>
 6    0  0.2433432E+002  0.1068861E+03  0.7546771E-02  0.1266447E+00
          2   -1    0    0  503    0 -0.00000000000E+00  0.00000000000E+00  0.35187517563E+04  0.35187517563E+04  0.00000000000E+00 0.  1.
         21   -1    0    0  505  502  0.00000000000E+00 -0.00000000000E+00 -0.43373639739E+02  0.43373639739E+02  0.00000000000E+00 0. -1.
         21    1    1    2  503  502  0.48392671300E+02  0.85679389328E+02  0.21957913512E+02  0.10082141815E+03  0.00000000000E+00 0. -1.
         21    1    1    2  504  501 -0.64953630048E+02 -0.38111064426E+02  0.67885135694E+03  0.68301580663E+03  0.00000000000E+00 0. -1.
         21    1    1    2  505  504 -0.20085055895E+02 -0.44428370597E+02  0.34370647813E+03  0.34714756616E+03  0.00000000000E+00 0. -1.
          2    1    1    2  501    0  0.36646014644E+02 -0.31399543061E+01  0.24308623680E+04  0.24311406051E+04  0.00000000000E+00 0.  1.
<scales pt_clust_3="99.28203" pt_clust_4="31.85889" pt_clust_5="31.85889" pt_clust_6="36.78029"></scales>
<clustering>
<clus scale="   31.859">  4  5 -1 -1</clus>
<clus scale="   36.780">  1  6  2 -1</clus>
<clus scale="   99.282">  2  3  1 -1</clus>
<clus scale="   99.282">  2  3  1 -1</clus>
</clustering>
</event>
<event>
 6    0  0.2433432E+002  0.9556298E+02  0.7546771E-02  0.1289913E+00
         -2   -1    0    0    0  501 -0.00000000000E+00  0.00000000000E+00  0.61493631864E+03  0.61493631864E+03  0.00000000000E+00 0.  1.
         21   -1    0    0  503  502  0.00000000000E+00 -0.00000000000E+00 -0.73445333453E+03  0.73445333453E+03  0.00000000000E+00 0.  1.
         21    1    1    2  503  505 -0.39967982479E+02  0.11746563916E+02 -0.10519663730E+03  0.11314483588E+03  0.00000000000E+00 0.  1.
         21    1    1    2  504  502  0.59308841874E+02 -0.36517583394E+02 -0.37628256807E+03  0.38267433106E+03  0.00000000000E+00 0.  1.
         21    1    1    2  505  501  0.71362270666E+02  0.55364735587E+02 -0.23355386735E+03  0.25041013673E+03  0.00000000000E+00 0.  1.
         -2    1    1    2    0  504 -0.90703130061E+02 -0.30593716110E+02  0.59551605682E+03  0.60316034950E+03  0.00000000000E+00 0.  1.
<scales pt_clust_3="41.65839" pt_clust_4="45.74257" pt_clust_5="14000.00000" pt_clust_6="95.56298"></scales>
<clustering>
<clus scale="   41.658">  2  3  1 -1</clus>
<clus scale="   45.743">  2  4  1 -1</clus>
<clus scale="   95.563">  1  6  2 -1</clus>
<clus scale="   41.658">  2  3  1 -1</clus>
</clustering>
</event>
<event>
 6    0  0.2433432E+002  0.1049638E+03  0.7546771E-02  0.1270191E+00
         -1   -1    0    0    0  501 -0.00000000000E+00  0.00000000000E+00  0.49260699960E+03  0.49260699960E+03  0.00000000000E+00 0.  1.
         21   -1    0    0  503  502  0.00000000000E+00 -0.00000000000E+00 -0.11800645793E+03  0.11800645793E+03  0.00000000000E+00 0.  1.
         21    1    1    2  503  505 -0.86581902271E+01  0.45952713547E+02  0.37160081385E+02  0.59728450414E+02  0.00000000000E+00 0.  1.
         21    1    1    2  504  502  0.28735796815E+02 -0.11835152466E+02 -0.42665584746E+02  0.52784173520E+02  0.00000000000E+00 0.  1.
         21    1    1    2  505  501 -0.78464796075E+02  0.68204550369E+02  0.36477216052E+03  0.37929844978E+03  0.00000000000E+00 0.  1.
         -1    1    1    2    0  504  0.58387189487E+02 -0.10232211145E+03  0.15333884512E+02  0.11880238382E+03  0.00000000000E+00 0.  1.
<scales pt_clust_3="44.23777" pt_clust_4="31.07759" pt_clust_5="104.96376" pt_clust_6="14000.00000"></scales>
<clustering>
<clus scale="   31.078">  2  4  1 -1</clus>
<clus scale="   44.238">  2  3  1 -1</clus>
<clus scale="  104.964">  1  5  2 -1</clus>
<clus scale="   31.078">  2  3  1 -1</clus>
</clustering>
</event>
<event>
 6    0  0.2433432E+002  0.7511192E+02  0.7546771E-02  0.1343525E+00
         21   -1    0    0  503  502  0.00000000000E+00  0.00000000000E+00  0.49537818297E+02  0.49537818297E+02  0.00000000000E+00 0. -1.
          4   -1    0    0  505    0 -0.00000000000E+00 -0.00000000000E+00 -0.12776626157E+04  0.12776626157E+04  0.00000000000E+00 0.  1.
         21    1    1    2  503  504 -0.60439332423E+02 -0.83463022019E+01 -0.63837695733E+02  0.88305294635E+02  0.00000000000E+00 0.  1.
         21    1    1    2  504  501  0.35449682645E+00 -0.77540764153E+02 -0.38047746289E+03  0.38829859070E+03  0.00000000000E+00 0.  1.
         21    1    1    2  505  502  0.13460977312E+02  0.74023408350E+02 -0.10703461318E+02  0.75994914159E+02  0.00000000000E+00 0. -1.
          4    1    1    2  501    0  0.46623858284E+02  0.11863658005E+02 -0.77310617746E+03  0.77460163450E+03  0.00000000000E+00 0.  1.
<scales pt_clust_3="53.80028" pt_clust_4="75.11192" pt_clust_5="14000.00000" pt_clust_6="48.10957"></scales>
<clustering>
<clus scale="   48.110">  2  6  1 -1</clus>
<clus scale="   53.800">  1  3  2 -1</clus>
<clus scale="   75.112">  2  4  1 -1</clus>
<clus scale="   53.800">  1  3  2 -1</clus>
</clustering>
</event>
<event>
 6    0  0.2433432E+002  0.1151800E+03  0.7546771E-02  0.1251267E+00
         21   -1    0    0  505  502  0.00000000000E+00  0.00000000000E+00  0.64573522479E+03  0.64573522479E+03  0.00000000000E+00 0.  1.
          2   -1    0    0  503    0 -0.00000000000E+00 -0.00000000000E+00 -0.55062741490E+03  0.55062741490E+03  0.00000000000E+00 0. -1.
         21    1    1    2  503  504  0.54447916059E+02  0.66220504449E+02  0.63528085609E+02  0.10670308540E+03  0.00000000000E+00 0.  1.
         21    1    1    2  504  502  0.31447103194E+02 -0.37613214265E+02  0.52359741719E+03  0.52588775369E+03  0.00000000000E+00 0.  1.
         21    1    1    2  505  501  0.34122605673E+02 -0.27246627025E+02  0.12302142454E+02  0.45365996198E+02  0.00000000000E+00 0.  1.
          2    1    1    2  501    0 -0.12001762493E+03 -0.13606631593E+01 -0.50431983536E+03  0.51840580440E+03  0.00000000000E+00 0. -1.
<scales pt_clust_3="14000.00000" pt_clust_4="85.74521" pt_clust_5="43.66613" pt_clust_6="115.18001"></scales>
<clustering>
<clus scale="   43.666">  1  5  2 -1</clus>
<clus scale="   85.745">  1  4  2 -1</clus>
<clus scale="  115.180">  2  6  1 -1</clus>
<clus scale="   43.666">  1  3  2 -1</clus>
</clustering>
</event>
<event>
 6    0  0.2433432E+002  0.1012367E+03  0.7546771E-02  0.1277717E+00
          2   -1    0    0  505    0 -0.00000000000E+00  0.00000000000E+00  0.32973046611E+03  0.32973046611E+03  0.00000000000E+00 0.  1.
         21   -1    0    0  504  502  0.00000000000E+00 -0.00000000000E+00 -0.40569803725E+03  0.40569803725E+03  0.00000000000E+00 0.  1.
         21    1    1    2  503  502  0.57027697865E+02 -0.22098962835E+01 -0.70606308398E+02  0.90787073699E+02  0.00000000000E+00 0.  1.
         21    1    1    2  504  501 -0.53684418837E+02  0.50125696700E+02 -0.26536745084E+03  0.27534430494E+03  0.00000000000E+00 0.  1.
         21    1    1    2  505  503 -0.82972434263E+02  0.22905329385E+02 -0.23663459988E+01  0.86108527772E+02  0.00000000000E+00 0.  1.
          2    1    1    2  501    0  0.79629155235E+02 -0.70821129802E+02  0.26237253410E+03  0.28318859694E+03  0.00000000000E+00 0.  1.
<scales pt_clust_3="57.07050" pt_clust_4="48.68957" pt_clust_5="14000.00000" pt_clust_6="101.23673"></scales>
<clustering>
<clus scale="   57.070">  2  3  1 -1</clus>
<clus scale="   48.690">  2  4  1 -1</clus>
<clus scale="  101.237">  1  6  2 -1</clus>
<clus scale="   57.070">  2  3  1 -1</clus>
</clustering>
</event>
<event>
 6    0  0.2433432E+002  0.2438321E+03  0.7546771E-02  0.1117266E+00
         21   -1    0    0  504  502  0.00000000000E+00  0.00000000000E+00  0.40193990522E+03  0.40193990522E+03  0.00000000000E+00 0. -1.
          1   -1    0    0  505    0 -0.00000000000E+00 -0.00000000000E+00 -0.28597569947E+04  0.28597569947E+04  0.00000000000E+00 0. -1.
         21    1    1    2  503  502 -0.68185523632E+02 -0.15004382097E+03  0.28894914776E+03  0.33264699583E+03  0.00000000000E+00 0. -1.
         21    1    1    2  504  501  0.37558840482E+02 -0.97873883559E+02  0.40611602224E+02  0.11242448940E+03  0.00000000000E+00 0.  1.
         21    1    1    2  505  503 -0.65092812172E+01  0.60613993469E+02 -0.71154077824E+02  0.93698077553E+02  0.00000000000E+00 0. -1.
          1    1    1    2  501    0  0.37135964367E+02  0.18730371105E+03 -0.27162237616E+04  0.27229273371E+04  0.00000000000E+00 0. -1.
<scales pt_clust_3="14000.00000" pt_clust_4="104.07145" pt_clust_5="60.96250" pt_clust_6="243.83211"></scales>
<clustering>
<clus scale="   60.963">  2  5  1 -1</clus>
<clus scale="  104.071">  1  4  2 -1</clus>
<clus scale="  243.832">  2  6  1 -1</clus>
<clus scale="  104.071">  1  3  2 -1</clus>
</clustering>
</event>
<event>
 6    0  0.2433432E+002  0.1198232E+03  0.7546771E-02  0.1243389E+00
         21   -1    0    0  503  502  0.00000000000E+00  0.00000000000E+00  0.30928004045E+03  0.30928004045E+03  0.00000000000E+00 0. -1.
          4   -1    0    0  504    0 -0.00000000000E+00 -0.00000000000E+00 -0.89441076856E+03  0.89441076856E+03  0.00000000000E+00 0.  1.
         21    1    1    2  503  505 -0.37302111945E+02  0.31774178272E+02  0.20107110448E+03  0.20695563538E+03  0.00000000000E+00 0. -1.
         21    1    1    2  504  502  0.94189970635E+02 -0.42901468563E+02 -0.20594675547E+03  0.23049154575E+03  0.00000000000E+00 0.  1.
         21    1    1    2  505  501 -0.89553466056E+02  0.69840595568E+00  0.70876730723E+02  0.11420955307E+03  0.00000000000E+00 0.  1.
          4    1    1    2  501    0  0.32665607366E+02  0.10428884334E+02 -0.65113180784E+03  0.65203407481E+03  0.00000000000E+00 0.  1.
<scales pt_clust_3="48.78238" pt_clust_4="14000.00000" pt_clust_5="119.82319" pt_clust_6="34.28999"></scales>
<clustering>
<clus scale="   34.290">  2  6  1 -1</clus>
<clus scale="   48.782">  1  3  2 -1</clus>
<clus scale="  119.823">  1  5  2 -1</clus>
<clus scale="   48.782">  1  3  2 -1</clus>
</clustering>
</event>
<event>
 6    0  0.2433432E+002  0.1036030E+03  0.7546771E-02  0.1272897E+00
         21   -1    0    0  503  502  0.00000000000E+00  0.00000000000E+00  0.55761949840E+02  0.55761949840E+02  0.00000000000E+00 0.  1.
          2   -1    0    0  504    0 -0.00000000000E+00 -0.00000000000E+00 -0.12557943236E+04  0.12557943236E+04  0.00000000000E+00 0. -1.
         21    1    1    2  503  501  0.34830243332E+02  0.35960406206E+02 -0.37507403211E+02  0.62554791669E+02  0.00000000000E+00 0.  1.
         21    1    1    2  504  505  0.11813185570E+03 -0.20040286957E+02 -0.25509446479E+03  0.28183316767E+03  0.00000000000E+00 0.  1.
         21    1    1    2  505  502 -0.53253552510E+02  0.26887481582E+01  0.76446679754E+00  0.53326865940E+02  0.00000000000E+00 0.  1.
          2    1    1    2  501    0 -0.99708546525E+02 -0.18608867407E+02 -0.90819497260E+03  0.91384144820E+03  0.00000000000E+00 0. -1.
<scales pt_clust_3="50.06293" pt_clust_4="103.60298" pt_clust_5="40.30283" pt_clust_6="14000.00000"></scales>
<clustering>
<clus scale="   50.063">  1  3  2 -1</clus>
<clus scale="   40.303">  1  5  2 -1</clus>
<clus scale="  103.603">  1  4  2 -1</clus>
<clus scale="   50.063">  1  3  2 -1</clus>
</clustering>
</event>
<event>
 6    0  0.2433432E+002  0.1463555E+03  0.7546771E-02  0.1205024E+00
          1   -1    0    0  505    0 -0.00000000000E+00  0.00000000000E+00  0.20805650859E+04  0.20805650859E+04  0.00000000000E+00 0.  1.
         21   -1    0    0  503  502  0.00000000000E+00 -0.00000000000E+00 -0.12154500928E+03  0.12154500928E+03  0.00000000000E+00 0. -1.
         21    1    1    2  503  504  0.48002968578E+02 -0.71249850195E+01 -0.28839970015E+02  0.56451698595E+02  0.00000000000E+00 0. -1.
         21    1    1    2  504  501  0.70597807035E+02 -0.50724127650E+02 -0.11163958897E+02  0.87644859874E+02  0.00000000000E+00 0. -1.
         21    1    1    2  505  502 -0.18609672573E+02 -0.41065642487E+02 -0.82361970343E+01  0.45831668612E+02  0.00000000000E+00 0. -1.
          1    1    1    2  501    0 -0.99991103041E+02  0.98914755157E+02  0.20072602026E+04  0.20121818681E+04  0.00000000000E+00 0.  1.
<scales pt_clust_3="31.26339" pt_clust_4="31.26339" pt_clust_5="45.08555" pt_clust_6="140.24657"></scales>
<clustering>
<clus scale="   31.263">  3  4 -1 -1</clus>
<clus scale="   45.086">  2  5  1 -1</clus>
<clus scale="  140.247">  1  6  2 -1</clus>
<clus scale="   45.086">  2  3  1 -1</clus>
</clustering>
</event>
<event>
 6    0  0.2433432E+002  0.6678053E+02  0.7546771E-02  0.1371396E+00
         21   -1    0    0  505  502  0.00000000000E+00  0.00000000000E+00  0.10552514537E+03  0.10552514537E+03  0.00000000000E+00 0. -1.
          2   -1    0    0  503    0 -0.00000000000E+00 -0.00000000000E+00 -0.99435761946E+03  0.99435761946E+03  0.00000000000E+00 0. -1.
         21    1    1    2  503  504  0.24849625714E+02  0.23596722129E+02 -0.52169632131E+02  0.62417783604E+02  0.00000000000E+00 0.  1.
         21    1    1    2  504  502 -0.42568483658E+02 -0.45771024259E+02  0.39124913755E+02  0.73741584869E+02  0.00000000000E+00 0. -1.
         21    1    1    2  505  501  0.89649545995E+01  0.91191449254E+02 -0.67217821202E+01  0.91877272395E+02  0.00000000000E+00 0. -1.
          2    1    1    2  501    0  0.87539033443E+01 -0.69017147123E+02 -0.86906597359E+03  0.87184612397E+03  0.00000000000E+00 0. -1.
<scales pt_clust_3="34.26820" pt_clust_4="14000.00000" pt_clust_5="66.78053" pt_clust_6="56.84893"></scales>
<clustering>
<clus scale="   34.268">  2  3  1 -1</clus>
<clus scale="   56.849">  2  6  1 -1</clus>
<clus scale="   66.781">  2  5  1 -1</clus>
<clus scale="   66.781">  1  3  2 -1</clus>
</clustering>
</event>
<event>
 6    0  0.2433432E+002  0.1265260E+03  0.7546771E-02  0.1232703E+00
          2   -1    0    0  505    0 -0.00000000000E+00  0.00000000000E+00  0.19401489631E+04  0.19401489631E+04  0.00000000000E+00 0.  1.
         21   -1    0    0  504  502  0.00000000000E+00 -0.00000000000E+00 -0.13994486275E+03  0.13994486275E+03  0.00000000000E+00 0.  1.
         21    1    1    2  503  501  0.82174263442E+02 -0.94864512445E+02  0.10858937803E+04  0.10931226771E+04  0.00000000000E+00 0.  1.
         21    1    1    2  504  503 -0.32747879822E+02 -0.11092959179E+02 -0.98512119034E+02  0.10440361571E+03  0.00000000000E+00 0.  1.
         21    1    1    2  505  502 -0.72976253442E+02  0.85426182328E+02  0.56790191964E+02  0.12588999999E+03  0.00000000000E+00 0.  1.
          2    1    1    2  501    0  0.23549869823E+02  0.20531289295E+02  0.75603224721E+03  0.75667753306E+03  0.00000000000E+00 0.  1.
<scales pt_clust_3="126.52602" pt_clust_4="34.50379" pt_clust_5="14000.00000" pt_clust_6="31.24308"></scales>
<clustering>
<clus scale="   31.243">  1  6  2 -1</clus>
<clus scale="   34.504">  2  4  1 -1</clus>
<clus scale="  126.526">  1  3  2 -1</clus>
<clus scale="   34.504">  2  3  1 -1</clus>
</clustering>
</event>
<event>
 6    0  0.2433432E+002  0.1195512E+03  0.7546771E-02  0.1243839E+00
          2   -1    0    0  504    0 -0.00000000000E+00  0.00000000000E+00  0.59835863857E+03  0.59835863857E+03  0.00000000000E+00 0. -1.
         21   -1    0    0  503  502  0.00000000000E+00 -0.00000000000E+00 -0.12324854651E+03  0.12324854651E+03  0.00000000000E+00 0.  1.
         21    1    1    2  503  505  0.35755130051E+02  0.28255945472E+02  0.30726086778E+02  0.54962898287E+02  0.00000000000E+00 0.  1.
         21    1    1    2  504  502  0.73007959672E+02  0.66980430198E+02 -0.61027016236E+02  0.11636510179E+03  0.00000000000E+00 0.  1.
         21    1    1    2  505  501 -0.52197281002E+02  0.12652713675E+02  0.34425363389E+02  0.63794615383E+02  0.00000000000E+00 0. -1.
          2    1    1    2  501    0 -0.56565808721E+02 -0.10788908934E+03  0.47098565812E+03  0.48648456962E+03  0.00000000000E+00 0. -1.
<scales pt_clust_3="45.57223" pt_clust_4="14000.00000" pt_clust_5="50.22117" pt_clust_6="119.55119"></scales>
<clustering>
<clus scale="   45.572">  2  3  1 -1</clus>
<clus scale="   50.221">  2  5  1 -1</clus>
<clus scale="  119.551">  1  6  2 -1</clus>
<clus scale="   45.572">  2  3  1 -1</clus>
</clustering>
</event>
<event>
 6    0  0.2433432E+002  0.1047086E+03  0.7546771E-02  0.1270695E+00
         21   -1    0    0  503  502  0.00000000000E+00  0.00000000000E+00  0.37096012607E+03  0.37096012607E+03  0.00000000000E+00 0.  1.
          2   -1    0    0  504    0 -0.00000000000E+00 -0.00000000000E+00 -0.47151694867E+04  0.47151694867E+04  0.00000000000E+00 0.  1.
         21    1    1    2  503  501 -0.87037391333E+01  0.63208165129E+02 -0.26208325650E+02  0.68977558287E+02  0.00000000000E+00 0. -1.
         21    1    1    2  504  505 -0.27921222423E+02  0.42407552585E+02 -0.88736863875E+02  0.10223612956E+03  0.00000000000E+00 0.  1.
         21    1    1    2  505  502  0.47959537551E+02 -0.28770408180E+00  0.34053162058E+03  0.34389240269E+03  0.00000000000E+00 0.  1.
          2    1    1    2  501    0 -0.11334575994E+02 -0.10532801363E+03 -0.45697957917E+04  0.45710235223E+04  0.00000000000E+00 0.  1.
<scales pt_clust_3="14000.00000" pt_clust_4="45.50017" pt_clust_5="47.96040" pt_clust_6="104.70858"></scales>
<clustering>
<clus scale="   47.960">  1  5  2 -1</clus>
<clus scale="   45.500">  1  4  2 -1</clus>
<clus scale="  104.709">  2  6  1 -1</clus>
<clus scale="   47.960">  1  3  2 -1</clus>
</clustering>
</event>
<event>
 6    0  0.2433432E+002  0.8739455E+02  0.7546771E-02  0.1309287E+00
         -2   -1    0    0    0  501 -0.00000000000E+00  0.00000000000E+00  0.12002806593E+04  0.12002806593E+04  0.00000000000E+00 0.  1.
         21   -1    0    0  504  502  0.00000000000E+00 -0.00000000000E+00 -0.84555096774E+03  0.84555096774E+03  0.00000000000E+00 0. -1.
         21    1    1    2  503  501 -0.10174199928E+03  0.97066667795E+01 -0.14856684917E+03  0.18032682128E+03  0.00000000000E+00 0.  1.
         21    1    1    2  504  503  0.55185888314E+02  0.85305730347E+02 -0.63905367289E+03  0.64707970663E+03  0.00000000000E+00 0. -1.
         21    1    1    2  505  502  0.18531675047E+02 -0.40135857836E+02 -0.24099011701E+02  0.50349502771E+02  0.00000000000E+00 0.  1.
         -2    1    1    2    0  505  0.28024435924E+02 -0.54876539291E+02  0.11664492253E+04  0.11680755963E+04  0.00000000000E+00 0.  1.
<scales pt_clust_3="87.39455" pt_clust_4="14000.00000" pt_clust_5="44.20758" pt_clust_6="61.66265"></scales>
<clustering>
<clus scale="   44.208">  2  5  1 -1</clus>
<clus scale="   61.663">  1  6  2 -1</clus>
<clus scale="   87.395">  1  3  2 -1</clus>
<clus scale="   44.208">  2  3  1 -1</clus>
</clustering>
</event>
<event>
 6    0  0.2433432E+002  0.1200050E+03  0.7546771E-02  0.1243089E+00
          1   -1    0    0  503    0 -0.00000000000E+00  0.00000000000E+00  0.16250128904E+04  0.16250128904E+04  0.00000000000E+00 0. -1.
         21   -1    0    0  505  502  0.00000000000E+00 -0.00000000000E+00 -0.23211487893E+04  0.23211487893E+04  0.00000000000E+00 0.  1.
         21    1    1    2  503  504  0.11236842503E+02  0.10885462961E+03 -0.25840048410E+03  0.28061790250E+03  0.00000000000E+00 0. -1.
         21    1    1    2  504  502  0.26167766122E+02 -0.43209484081E+02 -0.17856139322E+04  0.17863283367E+04  0.00000000000E+00 0.  1.
         21    1    1    2  505  501  0.34220134517E+02  0.30908510841E+02 -0.26140840374E+03  0.26544435800E+03  0.00000000000E+00 0.  1.
          1    1    1    2  501    0 -0.71624743142E+02 -0.96553656367E+02  0.16092869211E+04  0.16137710826E+04  0.00000000000E+00 0. -1.
<scales pt_clust_3="120.00499" pt_clust_4="58.22117" pt_clust_5="46.11240" pt_clust_6="14000.00000"></scales>
<clustering>
<clus scale="   46.112">  2  5  1 -1</clus>
<clus scale="   58.221">  2  4  1 -1</clus>
<clus scale="  120.005">  2  3  1 -1</clus>
<clus scale="   46.112">  2  3  1 -1</clus>
</clustering>
</event>
<event>
 6    0  0.2433432E+002  0.1693897E+03  0.7546771E-02  0.1178486E+00
          2   -1    0    0  503    0 -0.00000000000E+00  0.00000000000E+00  0.33486724699E+04  0.33486724699E+04  0.00000000000E+00 0. -1.
         21   -1    0    0  505  502  0.00000000000E+00 -0.00000000000E+00 -0.33782618640E+02  0.33782618640E+02  0.00000000000E+00 0. -1.
         21    1    1    2  503  504  0.13350264926E+03  0.78246486128E+02  0.28023165288E+03  0.32011755532E+03  0.00000000000E+00 0. -1.
         21    1    1    2  504  502  0.35332139893E+02 -0.54096402438E+01  0.30230503617E+02  0.46813541480E+02  0.00000000000E+00 0. -1.
         21    1    1    2  505  501 -0.37228357960E+02  0.67808104149E+01  0.98351786325E+02  0.10538028231E+03  0.00000000000E+00 0. -1.
          2    1    1    2  501    0 -0.13160643119E+03 -0.79617656299E+02  0.29060759084E+04  0.29101437094E+04  0.00000000000E+00 0. -1.
<scales pt_clust_3="32.02944" pt_clust_4="32.02944" pt_clust_5="37.84085" pt_clust_6="155.72920"></scales>
<clustering>
<clus scale="   32.029">  3  4 -1 -1</clus>
<clus scale="   37.841">  2  5  1 -1</clus>
<clus scale="  155.729">  1  6  2 -1</clus>
<clus scale="   37.841">  2  3  1 -1</clus>
</clustering>
</event>
<event>
 6    0  0.2433432E+002  0.2800883E+03  0.7546771E-02  0.1095641E+00
         21   -1    0    0  503  502  0.00000000000E+00  0.00000000000E+00  0.52264559800E+03  0.52264559800E+03  0.00000000000E+00 0. -1.
          1   -1    0    0  502    0 -0.00000000000E+00 -0.00000000000E+00 -0.47580452044E+03  0.47580452044E+03  0.00000000000E+00 0. -1.
         21    1    1    2  503  505  0.71732732605E+02 -0.25428038775E+03  0.38733008636E+03  0.46885893009E+03  0.00000000000E+00 0. -1.
         21    1    1    2  504  501  0.35302918869E+02  0.88072169208E+02 -0.35306415894E+02  0.10124004185E+03  0.00000000000E+00 0. -1.
         21    1    1    2  505  504 -0.68639711912E+02  0.16415933039E+03 -0.71881422975E+02  0.19190267006E+03  0.00000000000E+00 0. -1.
          1    1    1    2  501    0 -0.38395939562E+02  0.20488881514E+01 -0.23330116994E+03  0.23644847644E+03  0.00000000000E+00 0. -1.
<scales pt_clust_3="262.17953" pt_clust_4="68.91452" pt_clust_5="68.91452" pt_clust_6="38.45057"></scales>
<clustering>
<clus scale="   38.451">  2  6  1 -1</clus>
<clus scale="   68.915">  4  5 -1 -1</clus>
<clus scale="  262.180">  1  3  2 -1</clus>
<clus scale="  262.180">  1  3  2 -1</clus>
</clustering>
</event>
<event>
 6    0  0.2433432E+002  0.3015956E+03  0.7546771E-02  0.1084446E+00
         21   -1    0    0  504  502  0.00000000000E+00  0.00000000000E+00  0.13366987793E+03  0.13366987793E+03  0.00000000000E+00 0. -1.
          2   -1    0    0  503    0 -0.00000000000E+00 -0.00000000000E+00 -0.18201756130E+04  0.18201756130E+04  0.00000000000E+00 0.  1.
         21    1    1    2  503  502 -0.68389640649E+02  0.28780797214E+02 -0.10234137207E+03  0.12640899364E+03  0.00000000000E+00 0.  1.
         21    1    1    2  504  505  0.10356269694E+03  0.26348126795E+02 -0.24540629567E+02  0.10964350634E+03  0.00000000000E+00 0. -1.
         21    1    1    2  505  501  0.23902535116E+03 -0.65750328091E+02 -0.16822195137E+03  0.29959113649E+03  0.00000000000E+00 0. -1.
          2    1    1    2  501    0 -0.27419840745E+03  0.10621404083E+02 -0.13914017820E+04  0.14182018544E+04  0.00000000000E+00 0.  1.
<scales pt_clust_3="74.19890" pt_clust_4="70.08986" pt_clust_5="70.08986" pt_clust_6="282.06994"></scales>
<clustering>
<clus scale="   70.090">  4  5 -1 -1</clus>
<clus scale="   74.199">  1  3  2 -1</clus>
<clus scale="  282.070">  2  6  1 -1</clus>
<clus scale="   74.199">  1  3  2 -1</clus>
</clustering>
</event>
<event>
 6    0  0.2433432E+002  0.8311174E+02  0.7546771E-02  0.1320446E+00
          1   -1    0    0  503    0 -0.00000000000E+00  0.00000000000E+00  0.13926862719E+04  0.13926862719E+04  0.00000000000E+00 0. -1.
         21   -1    0    0  505  502  0.00000000000E+00 -0.00000000000E+00 -0.13999628490E+03  0.13999628490E+03  0.00000000000E+00 0.  1.
         21    1    1    2  503  504  0.30442013218E+02  0.48792362414E+01  0.52095985778E+02  0.60535236427E+02  0.00000000000E+00 0. -1.
         21    1    1    2  504  502  0.23637279832E+02 -0.10263142987E+03  0.55904306703E+03  0.56887703609E+03  0.00000000000E+00 0. -1.
         21    1    1    2  505  501 -0.49223188619E+02  0.30484789166E+02 -0.12289728739E+03  0.13585281710E+03  0.00000000000E+00 0.  1.
          1    1    1    2  501    0 -0.48561044311E+01  0.67267404458E+02  0.76444822161E+03  0.76741746721E+03  0.00000000000E+00 0. -1.
<scales pt_clust_3="30.83055" pt_clust_4="14000.00000" pt_clust_5="57.78566" pt_clust_6="83.11174"></scales>
<clustering>
<clus scale="   30.831">  1  3  2 -1</clus>
<clus scale="   57.786">  2  5  1 -1</clus>
<clus scale="   83.112">  1  6  2 -1</clus>
<clus scale="   57.786">  2  3  1 -1</clus>
</clustering>
</event>
<event>
 6    0  0.2433432E+002  0.8771147E+02  0.7546771E-02  0.1308490E+00
         21   -1    0    0  505  502  0.00000000000E+00  0.00000000000E+00  0.25829463130E+03  0.25829463130E+03  0.00000000000E+00 0.  1.
          1   -1    0    0  504    0 -0.00000000000E+00 -0.00000000000E+00 -0.10791282334E+03  0.10791282334E+03  0.00000000000E+00 0.  1.
         21    1    1    2  503  502 -0.46516224481E+01 -0.40047392509E+02  0.69028055406E+02  0.79939374974E+02  0.00000000000E+00 0. -1.
         21    1    1    2  504  503 -0.75575687256E+02  0.24898943998E+02  0.10788932187E+03  0.13405874716E+03  0.00000000000E+00 0.  1.
         21    1    1    2  505  501 -0.23413860949E+01  0.50103192984E+02  0.16434562679E+02  0.52781690827E+02  0.00000000000E+00 0. -1.
          1    1    1    2  501    0  0.82568695799E+02 -0.34954744473E+02 -0.42970131987E+02  0.99427641681E+02  0.00000000000E+00 0.  1.
<scales pt_clust_3="40.31664" pt_clust_4="14000.00000" pt_clust_5="42.68444" pt_clust_6="87.71147"></scales>
<clustering>
<clus scale="   40.317">  1  3  2 -1</clus>
<clus scale="   42.684">  1  5  2 -1</clus>
<clus scale="   87.711">  2  6  1 -1</clus>
<clus scale="   40.317">  1  3  2 -1</clus>
</clustering>
</event>
<event>
 6    0  0.2433432E+002  0.1355063E+03  0.7546771E-02  0.1219507E+00
         21   -1    0    0  503  502  0.00000000000E+00  0.00000000000E+00  0.45837069641E+03  0.45837069641E+03  0.00000000000E+00 0.  1.
         -3   -1    0    0    0  501 -0.00000000000E+00 -0.00000000000E+00 -0.54844461340E+03  0.54844461340E+03  0.00000000000E+00 0. -1.
         21    1    1    2  503  505  0.48259106195E+02  0.11714139496E+02 -0.27813479003E+02  0.56918819463E+02  0.00000000000E+00 0.  1.
         21    1    1    2  504  502 -0.12755030535E+03  0.18137367313E+02  0.39235416044E+03  0.41296468579E+03  0.00000000000E+00 0.  1.
         21    1    1    2  505  501  0.45342917605E+02 -0.24428704270E+01  0.27341484189E+02  0.53004759697E+02  0.00000000000E+00 0.  1.
         -3    1    1    2    0  504  0.33948281552E+02 -0.27408636382E+02 -0.48195608262E+03  0.48392704486E+03  0.00000000000E+00 0. -1.
<scales pt_clust_3="49.13233" pt_clust_4="122.98892" pt_clust_5="49.13233" pt_clust_6="43.63163"></scales>
<clustering>
<clus scale="   43.632">  2  6  1 -1</clus>
<clus scale="   49.132">  3  5 -1 -1</clus>
<clus scale="  122.989">  1  4  2 -1</clus>
<clus scale="  122.989">  1  3  2 -1</clus>
</clustering>
</event>
<event>
 6    0  0.2433432E+002  0.8882577E+02  0.7546771E-02  0.1305720E+00
          1   -1    0    0  503    0 -0.00000000000E+00  0.00000000000E+00  0.10875821394E+04  0.10875821394E+04  0.00000000000E+00 0.  1.
         21   -1    0    0  505  502  0.00000000000E+00 -0.00000000000E+00 -0.18243502194E+03  0.18243502194E+03  0.00000000000E+00 0. -1.
         21    1    1    2  503  502 -0.81845362191E+02 -0.42007707999E+02 -0.14412651044E+03  0.17098468310E+03  0.00000000000E+00 0. -1.
         21    1    1    2  504  501  0.70989386987E+02  0.18061412089E+01  0.12020853608E+03  0.13961678752E+03  0.00000000000E+00 0.  1.
         21    1    1    2  505  504  0.14599877854E+02 -0.30112039424E+02  0.64044020075E+01  0.34072095866E+02  0.00000000000E+00 0. -1.
          1    1    1    2  501    0 -0.37439026505E+01  0.70313606215E+02  0.92266068985E+03  0.92534359490E+03  0.00000000000E+00 0.  1.
<scales pt_clust_3="88.82577" pt_clust_4="14000.00000" pt_clust_5="33.46478" pt_clust_6="70.16787"></scales>
<clustering>
<clus scale="   33.465">  2  5  1 -1</clus>
<clus scale="   70.168">  1  6  2 -1</clus>
<clus scale="   88.826">  2  3  1 -1</clus>
<clus scale="   33.465">  2  3  1 -1</clus>
</clustering>
</event>
<event>
 6    0  0.2433432E+002  0.2288351E+03  0.7546771E-02  0.1127462E+00
         21   -1    0    0  503  502  0.00000000000E+00  0.00000000000E+00  0.46021364936E+03  0.46021364936E+03  0.00000000000E+00 0.  1.
          2   -1    0    0  505    0 -0.00000000000E+00 -0.00000000000E+00 -0.37877534908E+03  0.37877534908E+03  0.00000000000E+00 0. -1.
         21    1    1    2  503  504 -0.18272831042E+03 -0.52695926044E+02  0.28991915762E+03  0.34672700213E+03  0.00000000000E+00 0.  1.
         21    1    1    2  504  501 -0.58514465893E+02 -0.16504303211E+02  0.24163756340E+02  0.65423404556E+02  0.00000000000E+00 0.  1.
         21    1    1    2  505  502  0.34299689486E+02  0.67973254705E+02  0.38840759310E+02  0.85471847048E+02  0.00000000000E+00 0. -1.
          2    1    1    2  501    0  0.20694308683E+03  0.12269745507E+01 -0.27148537298E+03  0.34136674471E+03  0.00000000000E+00 0. -1.
<scales pt_clust_3="51.30371" pt_clust_4="51.30371" pt_clust_5="76.13693" pt_clust_6="210.07704"></scales>
<clustering>
<clus scale="   51.304">  3  4 -1 -1</clus>
<clus scale="   76.137">  1  5  2 -1</clus>
<clus scale="  210.077">  2  6  1 -1</clus>
<clus scale="   76.137">  1  3  2 -1</clus>
</clustering>
</event>
<event>
 6    0  0.2433432E+002  0.1582194E+03  0.7546771E-02  0.1190722E+00
         21   -1    0    0  501  502  0.00000000000E+00  0.00000000000E+00  0.40784309593E+03  0.40784309593E+03  0.00000000000E+00 0.  1.
          2   -1    0    0  504    0 -0.00000000000E+00 -0.00000000000E+00 -0.70390749849E+03  0.70390749849E+03  0.00000000000E+00 0. -1.
         21    1    1    2  503  505  0.90781095673E+02  0.61826385747E+02 -0.11890647981E+01  0.10984135460E+03  0.00000000000E+00 0.  1.
         21    1    1    2  504  503  0.25585576513E+00  0.40346232229E+02  0.60161630453E+01  0.40793113819E+02  0.00000000000E+00 0.  1.
         21    1    1    2  505  502 -0.70224411983E+02 -0.13009247903E+03  0.31304253724E+03  0.34619525020E+03  0.00000000000E+00 0.  1.
          2    1    1    2  501    0 -0.20812539455E+02  0.27919861058E+02 -0.61393403804E+03  0.61492087581E+03  0.00000000000E+00 0. -1.
<scales pt_clust_3="40.37305" pt_clust_4="40.37305" pt_clust_5="145.23401" pt_clust_6="34.82356"></scales>
<clustering>
<clus scale="   34.824">  2  6  1 -1</clus>
<clus scale="   40.373">  3  4 -1 -1</clus>
<clus scale="  145.234">  1  5  2 -1</clus>
<clus scale="  145.234">  1  3  2 -1</clus>
</clustering>
</event>
<event>
 6    0  0.2433432E+002  0.9010298E+02  0.7546771E-02  0.1302603E+00
          2   -1    0    0  504    0 -0.00000000000E+00  0.00000000000E+00  0.29683988851E+04  0.29683988851E+04  0.00000000000E+00 0. -1.
         21   -1    0    0  503  502  0.00000000000E+00 -0.00000000000E+00 -0.83796373566E+01  0.83796373566E+01  0.00000000000E+00 0. -1.
         21    1    1    2  503  501  0.38475308527E+01 -0.10213716129E+03  0.53715437438E+03  0.54679212241E+03  0.00000000000E+00 0. -1.
         21    1    1    2  504  505  0.33406317300E+02  0.30731635739E+02  0.67718853015E+03  0.67870812640E+03  0.00000000000E+00 0. -1.
         21    1    1    2  505  502 -0.42329961698E+01  0.77018278215E+02  0.57829570653E+03  0.58341722432E+03  0.00000000000E+00 0. -1.
          2    1    1    2  501    0 -0.33020851983E+02 -0.56127526624E+01  0.11673806367E+04  0.11678610493E+04  0.00000000000E+00 0. -1.
<scales pt_clust_3="14000.00000" pt_clust_4="35.48189" pt_clust_5="90.10298" pt_clust_6="33.49447"></scales>
<clustering>
<clus scale="   33.494">  1  6  2 -1</clus>
<clus scale="   35.482">  1  4  2 -1</clus>
<clus scale="   90.103">  1  5  2 -1</clus>
<clus scale="   90.103">  2  3  1 -1</clus>
</clustering>
</event>
<event>
 6    0  0.2433432E+002  0.4908168E+03  0.7546771E-02  0.1016204E+00
          1   -1    0    0  505    0 -0.00000000000E+00  0.00000000000E+00  0.31308631996E+04  0.31308631996E+04  0.00000000000E+00 0. -1.
         21   -1    0    0  501  502  0.00000000000E+00 -0.00000000000E+00 -0.11514407135E+03  0.11514407135E+03  0.00000000000E+00 0. -1.
         21    1    1    2  503  504  0.28164969246E+03  0.34758222291E+02  0.42791745325E+03  0.51346667864E+03  0.00000000000E+00 0. -1.
         21    1    1    2  504  502  0.64524313066E+02  0.68757663538E+02  0.48708441517E+02  0.10612971095E+03  0.00000000000E+00 0. -1.
         21    1    1    2  505  503  0.14478743986E+03  0.29865204674E+02  0.36975014789E+03  0.39820912227E+03  0.00000000000E+00 0.  1.
          1    1    1    2  501    0 -0.49096144539E+03 -0.13338109050E+03  0.21693430856E+04  0.22282017591E+04  0.00000000000E+00 0. -1.
<scales pt_clust_3="67.91597" pt_clust_4="94.29212" pt_clust_5="67.91597" pt_clust_6="481.71234"></scales>
<clustering>
<clus scale="   67.916">  3  5 -1 -1</clus>
<clus scale="   94.292">  2  4  1 -1</clus>
<clus scale="  481.712">  1  6  2 -1</clus>
<clus scale="   94.292">  2  3  1 -1</clus>
</clustering>
</event>
<event>
 6    0  0.2433432E+002  0.8827116E+02  0.7546771E-02  0.1307093E+00
         21   -1    0    0  505  502  0.00000000000E+00  0.00000000000E+00  0.55298353416E+03  0.55298353416E+03  0.00000000000E+00 0. -1.
          2   -1    0    0  503    0 -0.00000000000E+00 -0.00000000000E+00 -0.28884623905E+04  0.28884623905E+04  0.00000000000E+00 0. -1.
         21    1    1    2  503  502 -0.53845356185E+02  0.43920029319E+02  0.40505740399E+03  0.41097419857E+03  0.00000000000E+00 0. -1.
         21    1    1    2  504  501  0.57250892967E+02 -0.65562754637E+02  0.57796900634E+02  0.10448263618E+03  0.00000000000E+00 0.  1.
         21    1    1    2  505  504  0.40917874650E+01 -0.37089585293E+02  0.58041182048E+02  0.69001151261E+02  0.00000000000E+00 0.  1.
          2    1    1    2  501    0 -0.74973242477E+01  0.58732310610E+02 -0.28563743430E+04  0.28569879386E+04  0.00000000000E+00 0. -1.
<scales pt_clust_3="73.58031" pt_clust_4="31.92708" pt_clust_5="31.92708" pt_clust_6="59.20890"></scales>
<clustering>
<clus scale="   31.927">  4  5 -1 -1</clus>
<clus scale="   59.209">  2  6  1 -1</clus>
<clus scale="   73.580">  1  3  2 -1</clus>
<clus scale="   73.580">  1  3  2 -1</clus>
</clustering>
</event>
<event>
 6    0  0.2433432E+002  0.8724636E+02  0.7546771E-02  0.1309660E+00
         21   -1    0    0  505  502  0.00000000000E+00  0.00000000000E+00  0.39007564390E+02  0.39007564390E+02  0.00000000000E+00 0.  1.
          1   -1    0    0  503    0 -0.00000000000E+00 -0.00000000000E+00 -0.15688898456E+04  0.15688898456E+04  0.00000000000E+00 0.  1.
         21    1    1    2  503  502  0.35816882046E+02  0.12754031273E+02 -0.97027448049E+02  0.10421055622E+03  0.00000000000E+00 0.  1.
         21    1    1    2  504  501 -0.59467452991E+02  0.95546312492E+02 -0.99620275367E+03  0.10025394766E+04  0.00000000000E+00 0.  1.
         21    1    1    2  505  504  0.13713202583E+02 -0.39567116372E+02  0.14777569437E+02  0.44407039775E+02  0.00000000000E+00 0.  1.
          1    1    1    2  501    0  0.99373683623E+01 -0.68733227393E+02 -0.45142964895E+03  0.45674033738E+03  0.00000000000E+00 0.  1.
<scales pt_clust_3="38.01992" pt_clust_4="87.24636" pt_clust_5="52.34784" pt_clust_6="14000.00000"></scales>
<clustering>
<clus scale="   38.020">  1  3  2 -1</clus>
<clus scale="   52.348">  1  5  2 -1</clus>
<clus scale="   87.246">  1  4  2 -1</clus>
<clus scale="   38.020">  1  3  2 -1</clus>
</clustering>
</event>
<event>
 6    0  0.2433432E+002  0.1192599E+03  0.7546771E-02  0.1244323E+00
          1   -1    0    0  502    0 -0.00000000000E+00  0.00000000000E+00  0.49343692211E+03  0.49343692211E+03  0.00000000000E+00 0. -1.
         21   -1    0    0  504  502  0.00000000000E+00 -0.00000000000E+00 -0.32259295526E+03  0.32259295526E+03  0.00000000000E+00 0.  1.
         21    1    1    2  503  505  0.11865431329E+03 -0.47414448851E+02 -0.18133351214E+03  0.22183060800E+03  0.00000000000E+00 0.  1.
         21    1    1    2  504  503  0.85843055144E+01 -0.33949515042E+02 -0.64221648373E+00  0.35023882063E+02  0.00000000000E+00 0. -1.
         21    1    1    2  505  501 -0.66648833930E+02  0.89539908241E+02 -0.70133407360E+02  0.13182623813E+03  0.00000000000E+00 0.  1.
          1    1    1    2  501    0 -0.60589784873E+02 -0.81759443475E+01  0.42295310283E+03  0.42734914917E+03  0.00000000000E+00 0. -1.
<scales pt_clust_3="14000.00000" pt_clust_4="35.01799" pt_clust_5="119.25990" pt_clust_6="61.11083"></scales>
<clustering>
<clus scale="   35.018">  2  4  1 -1</clus>
<clus scale="   61.111">  1  6  2 -1</clus>
<clus scale="  119.260">  1  5  2 -1</clus>
<clus scale="   35.018">  2  3  1 -1</clus>
</clustering>
</event>
<event>
 6    0  0.2433432E+002  0.1758284E+03  0.7546771E-02  0.1171902E+00
         21   -1    0    0  503  502  0.00000000000E+00  0.00000000000E+00  0.54199757302E+03  0.54199757302E+03  0.00000000000E+00 0. -1.
          1   -1    0    0  504    0 -0.00000000000E+00 -0.00000000000E+00 -0.29395721505E+03  0.29395721505E+03  0.00000000000E+00 0. -1.
         21    1    1    2  503  501 -0.20734759640E+03 -0.12027244833E+02  0.11262123961E+03  0.23626515605E+03  0.00000000000E+00 0. -1.
         21    1    1    2  504  505  0.44371981902E+02  0.63223693159E+02  0.13756032300E+03  0.15776232319E+03  0.00000000000E+00 0. -1.
         21    1    1    2  505  502  0.12823986081E+02  0.39512599090E+02  0.18254175726E+03  0.18720895611E+03  0.00000000000E+00 0. -1.
          1    1    1    2  501    0  0.15015162842E+03 -0.90709047415E+02 -0.18468296190E+03  0.25471835272E+03  0.00000000000E+00 0. -1.
<scales pt_clust_3="175.82844" pt_clust_4="128.60732" pt_clust_5="38.20330" pt_clust_6="14000.00000"></scales>
<clustering>
<clus scale="   38.203">  4  5 -1 -1</clus>
<clus scale="  128.607">  1  4  2 -1</clus>
<clus scale="  175.828">  1  3  2 -1</clus>
<clus scale="  128.607">  1  3  2 -1</clus>
</clustering>
</event>
<event>
 6    0  0.2433432E+002  0.8261227E+02  0.7546771E-02  0.1321797E+00
         21   -1    0    0  504  502  0.00000000000E+00  0.00000000000E+00  0.21199322362E+03  0.21199322362E+03  0.00000000000E+00 0. -1.
          2   -1    0    0  503    0 -0.00000000000E+00 -0.00000000000E+00 -0.71665025137E+03  0.71665025137E+03  0.00000000000E+00 0.  1.
         21    1    1    2  503  505 -0.35938185904E+01  0.99667841299E+02  0.11031899959E+03  0.14871743607E+03  0.00000000000E+00 0. -1.
         21    1    1    2  504  501  0.72486488778E+02 -0.40498723918E+02  0.24682607998E+02  0.86623719800E+02  0.00000000000E+00 0. -1.
         21    1    1    2  505  502 -0.31240646954E+02 -0.85470872115E+01  0.14941473788E+02  0.35669011213E+02  0.00000000000E+00 0. -1.
          2    1    1    2  501    0 -0.37652023233E+02 -0.50622030169E+02 -0.65460010913E+03  0.65763330791E+03  0.00000000000E+00 0.  1.
<scales pt_clust_3="14000.00000" pt_clust_4="82.61227" pt_clust_5="32.38874" pt_clust_6="63.29672"></scales>
<clustering>
<clus scale="   32.389">  1  5  2 -1</clus>
<clus scale="   63.297">  2  6  1 -1</clus>
<clus scale="   82.612">  2  4  1 -1</clus>
<clus scale="   32.389">  1  3  2 -1</clus>
</clustering>
</event>
<event>
 6    0  0.2433432E+002  0.9265775E+02  0.7546771E-02  0.1296540E+00
         -2   -1    0    0    0  501 -0.00000000000E+00  0.00000000000E+00  0.62555716515E+03  0.62555716515E+03  0.00000000000E+00 0.  1.
         21   -1    0    0  504  502  0.00000000000E+00 -0.00000000000E+00 -0.87457344179E+02  0.87457344179E+02  0.00000000000E+00 0. -1.
         21    1    1    2  503  502 -0.48740520591E+01 -0.65913537044E+02 -0.21707184779E+02  0.69566893133E+02  0.00000000000E+00 0. -1.
         21    1    1    2  504  505 -0.32501600206E+02  0.14405076304E+02 -0.81237703790E+01  0.36467189149E+02  0.00000000000E+00 0.  1.
         21    1    1    2  505  501 -0.57083094782E+02 -0.31425218209E+01  0.44920743458E+02  0.72706453263E+02  0.00000000000E+00 0. -1.
         -2    1    1    2    0  503  0.94458747046E+02  0.54650982561E+02  0.52301003267E+03  0.53427397378E+03  0.00000000000E+00 0.  1.
<scales pt_clust_3="62.29130" pt_clust_4="35.55081" pt_clust_5="92.65775" pt_clust_6="14000.00000"></scales>
<clustering>
<clus scale="   35.551">  2  4  1 -1</clus>
<clus scale="   62.291">  2  3  1 -1</clus>
<clus scale="   92.658">  2  5  1 -1</clus>
<clus scale="   35.551">  2  3  1 -1</clus>
</clustering>
</event>
<event>
 6    0  0.2433432E+002  0.3351352E+03  0.7546771E-02  0.1068887E+00
          2   -1    0    0  504    0 -0.00000000000E+00  0.00000000000E+00  0.99283949043E+03  0.99283949043E+03  0.00000000000E+00 0. -1.
         21   -1    0    0  505  502  0.00000000000E+00 -0.00000000000E+00 -0.57515820270E+03  0.57515820270E+03  0.00000000000E+00 0.  1.
         21    1    1    2  503  501  0.86996841383E+02  0.11088147622E+03 -0.10574577185E+03  0.17619682303E+03  0.00000000000E+00 0.  1.
         21    1    1    2  504  502 -0.14246583018E+03 -0.23611625220E+03 -0.26619811363E+02  0.27704875326E+03  0.00000000000E+00 0.  1.
         21    1    1    2  505  503  0.75155213144E+02  0.21251696412E+03 -0.23441097667E+03  0.32520804431E+03  0.00000000000E+00 0.  1.
          2    1    1    2  501    0 -0.19686224348E+02 -0.87282188138E+02  0.78445784762E+03  0.78954407254E+03  0.00000000000E+00 0. -1.
<scales pt_clust_3="54.89869" pt_clust_4="327.86466" pt_clust_5="54.89869" pt_clust_6="89.47473"></scales>
<clustering>
<clus scale="   54.899">  3  5 -1 -1</clus>
<clus scale="   89.475">  1  6  2 -1</clus>
<clus scale="  327.865">  1  4  2 -1</clus>
<clus scale="  335.135">  2  3  1 -1</clus>
</clustering>
</event>
<event>
 6    0  0.2433432E+002  0.9882498E+02  0.7546771E-02  0.1282786E+00
          2   -1    0    0  505    0 -0.00000000000E+00  0.00000000000E+00  0.83868928727E+02  0.83868928727E+02  0.00000000000E+00 0.  1.
         21   -1    0    0  504  502  0.00000000000E+00 -0.00000000000E+00 -0.64842754459E+03  0.64842754459E+03  0.00000000000E+00 0.  1.
         21    1    1    2  503  502 -0.37037403961E+02  0.37596949759E+02 -0.38091916120E+03  0.38455780748E+03  0.00000000000E+00 0.  1.
         21    1    1    2  504  501 -0.71386707537E+01 -0.90093550329E+02 -0.18209533672E+02  0.92192166411E+02  0.00000000000E+00 0.  1.
         21    1    1    2  505  503  0.99800563615E+02  0.59606784237E+02 -0.16196371572E+03  0.19936239975E+03  0.00000000000E+00 0.  1.
          2    1    1    2  501    0 -0.55624488900E+02 -0.71101836671E+01 -0.34662052686E+01  0.56184099674E+02  0.00000000000E+00 0.  1.
<scales pt_clust_3="52.77594" pt_clust_4="98.82498" pt_clust_5="14000.00000" pt_clust_6="59.85195"></scales>
<clustering>
<clus scale="   52.776">  2  3  1 -1</clus>
<clus scale="   59.852">  1  6  2 -1</clus>
<clus scale="   98.825">  1  4  2 -1</clus>
<clus scale="   52.776">  2  3  1 -1</clus>
</clustering>
</event>
<event>
 6    0  0.2433432E+002  0.1209129E+03  0.7546771E-02  0.1241599E+00
          2   -1    0    0  503    0 -0.00000000000E+00  0.00000000000E+00  0.29953783169E+03  0.29953783169E+03  0.00000000000E+00 0. -1.
         21   -1    0    0  504  502  0.00000000000E+00 -0.00000000000E+00 -0.61135366318E+03  0.61135366318E+03  0.00000000000E+00 0. -1.
         21    1    1    2  503  502 -0.42756029493E+02 -0.22462004601E+02 -0.19867902302E+02  0.52224067733E+02  0.00000000000E+00 0. -1.
         21    1    1    2  504  505  0.65789107593E+02  0.10379291461E+03 -0.53445666117E+03  0.54840231443E+03  0.00000000000E+00 0. -1.
         21    1    1    2  505  501 -0.68169554539E+02 -0.73012609373E+02  0.48761356456E+02  0.11115574289E+03  0.00000000000E+00 0. -1.
          2    1    1    2  501    0  0.45136476439E+02 -0.83183006385E+01  0.19374737552E+03  0.19910936983E+03  0.00000000000E+00 0. -1.
<scales pt_clust_3="42.86623" pt_clust_4="120.91286" pt_clust_5="14000.00000" pt_clust_6="45.89658"></scales>
<clustering>
<clus scale="   45.897">  1  6  2 -1</clus>
<clus scale="   42.866">  1  3  2 -1</clus>
<clus scale="  120.913">  2  4  1 -1</clus>
<clus scale="  120.913">  2  3  1 -1</clus>
</clustering>
</event>
<event>
 6    0  0.2433432E+002  0.7696658E+02  0.7546771E-02  0.1337887E+00
          2   -1    0    0  504    0 -0.00000000000E+00  0.00000000000E+00  0.24825792426E+04  0.24825792426E+04  0.00000000000E+00 0. -1.
         21   -1    0    0  503  502  0.00000000000E+00 -0.00000000000E+00 -0.46102190257E+02  0.46102190257E+02  0.00000000000E+00 0.  1.
         21    1    1    2  503  505  0.78853074737E+02 -0.88547565761E-01 -0.48761127435E+01  0.79003744921E+02  0.00000000000E+00 0.  1.
         21    1    1    2  504  502 -0.43985153888E+02 -0.10552529095E+02  0.37686877278E+03  0.37957360489E+03  0.00000000000E+00 0. -1.
         21    1    1    2  505  501 -0.43185940612E+02  0.63284232119E+02  0.63175815851E+03  0.63638690303E+03  0.00000000000E+00 0. -1.
          2    1    1    2  501    0  0.83180197639E+01 -0.52643155458E+02  0.14327262338E+04  0.14337171800E+04  0.00000000000E+00 0. -1.
<scales pt_clust_3="14000.00000" pt_clust_4="45.23328" pt_clust_5="76.96658" pt_clust_6="63.62313"></scales>
<clustering>
<clus scale="   45.233">  1  4  2 -1</clus>
<clus scale="   63.623">  1  6  2 -1</clus>
<clus scale="   76.967">  1  5  2 -1</clus>
<clus scale="   76.967">  2  3  1 -1</clus>
</clustering>
</event>
<event>
 6    0  0.2433432E+002  0.2341509E+03  0.7546771E-02  0.1123752E+00
          2   -1    0    0  504    0 -0.00000000000E+00  0.00000000000E+00  0.44202768672E+03  0.44202768672E+03  0.00000000000E+00 0. -1.
         21   -1    0    0  505  502  0.00000000000E+00 -0.00000000000E+00 -0.37468630778E+03  0.37468630778E+03  0.00000000000E+00 0. -1.
         21    1    1    2  503  502  0.44398051890E+02 -0.31923203392E+01 -0.75878295180E+02  0.87970981580E+02  0.00000000000E+00 0. -1.
         21    1    1    2  504  503  0.93476834467E+02 -0.12325733124E+03 -0.21058004645E+03  0.26129340644E+03  0.00000000000E+00 0. -1.
         21    1    1    2  505  501  0.38015159690E+02 -0.17305810378E+02 -0.57378825427E+01  0.42161199404E+02  0.00000000000E+00 0. -1.
          2    1    1    2  501    0 -0.17589004605E+03  0.14375546196E+03  0.35953760312E+03  0.42528840708E+03  0.00000000000E+00 0. -1.
<scales pt_clust_3="37.65741" pt_clust_4="37.65741" pt_clust_5="41.76893" pt_clust_6="223.37952"></scales>
<clustering>
<clus scale="   37.657">  3  4 -1 -1</clus>
<clus scale="   41.769">  2  5  1 -1</clus>
<clus scale="  223.380">  1  6  2 -1</clus>
<clus scale="   41.769">  2  3  1 -1</clus>
</clustering>
</event>
<event>
 6    0  0.2433432E+002  0.1134774E+03  0.7546771E-02  0.1254262E+00
         21   -1    0    0  504  502  0.00000000000E+00  0.00000000000E+00  0.17781906348E+03  0.17781906348E+03  0.00000000000E+00 0. -1.
          1   -1    0    0  503    0 -0.00000000000E+00 -0.00000000000E+00 -0.70018080636E+03  0.70018080636E+03  0.00000000000E+00 0.  1.
         21    1    1    2  503  502  0.61691833563E+01  0.11392915606E+03  0.13558490169E+03  0.17720377250E+03  0.00000000000E+00 0. -1.
         21    1    1    2  504  505 -0.40498903513E+02 -0.10319447105E+03 -0.25251268799E+03  0.27577512150E+03  0.00000000000E+00 0.  1.
         21    1    1    2  505  501  0.24138193614E+02 -0.41126797962E+02 -0.53652343099E+02  0.71781890624E+02  0.00000000000E+00 0. -1.
          1    1    1    2  501    0  0.10191526543E+02  0.30392112951E+02 -0.35178161348E+03  0.35323908522E+03  0.00000000000E+00 0.  1.
<scales pt_clust_3="113.47739" pt_clust_4="14000.00000" pt_clust_5="44.10559" pt_clust_6="32.05539"></scales>
<clustering>
<clus scale="   32.055">  2  6  1 -1</clus>
<clus scale="   44.106">  2  5  1 -1</clus>
<clus scale="  113.477">  1  3  2 -1</clus>
<clus scale="  113.477">  1  3  2 -1</clus>
</clustering>
</event>
<event>
 6    0  0.2433432E+002  0.1509140E+03  0.7546771E-02  0.1199354E+00
         21   -1    0    0  501  502  0.00000000000E+00  0.00000000000E+00  0.88652841247E+02  0.88652841247E+02  0.00000000000E+00 0.  1.
          1   -1    0    0  503    0 -0.00000000000E+00 -0.00000000000E+00 -0.19631510618E+04  0.19631510618E+04  0.00000000000E+00 0. -1.
         21    1    1    2  503  505  0.57599312515E+02  0.81697243684E+02 -0.14410656869E+03  0.17538193626E+03  0.00000000000E+00 0. -1.
         21    1    1    2  504  502 -0.20558056494E+02  0.68533066639E+02  0.21174237807E+02  0.74617446060E+02  0.00000000000E+00 0.  1.
         21    1    1    2  505  504  0.85681561963E+02 -0.40356983226E+02 -0.85434069349E+02  0.12754997593E+03  0.00000000000E+00 0.  1.
          1    1    1    2  501    0 -0.12272281798E+03 -0.10987332710E+03 -0.16661318203E+04  0.16742545448E+04  0.00000000000E+00 0. -1.
<scales pt_clust_3="14000.00000" pt_clust_4="71.55009" pt_clust_5="75.22272" pt_clust_6="150.91403"></scales>
<clustering>
<clus scale="   71.550">  1  4  2 -1</clus>
<clus scale="   75.223">  1  5  2 -1</clus>
<clus scale="  150.914">  2  6  1 -1</clus>
<clus scale="   71.550">  1  3  2 -1</clus>
</clustering>
</event>
<event>
 6    0  0.2433432E+002  0.8353995E+02  0.7546771E-02  0.1319295E+00
          1   -1    0    0  503    0 -0.00000000000E+00  0.00000000000E+00  0.58931261823E+03  0.58931261823E+03  0.00000000000E+00 0.  1.
         21   -1    0    0  505  502  0.00000000000E+00 -0.00000000000E+00 -0.11786004286E+03  0.11786004286E+03  0.00000000000E+00 0. -1.
         21    1    1    2  503  502  0.51855349538E+02 -0.90229116587E+02 -0.70419247266E+02  0.12565484925E+03  0.00000000000E+00 0. -1.
         21    1    1    2  504  501 -0.32274797452E+02 -0.13738072848E+02  0.24182420996E+02  0.42605007703E+02  0.00000000000E+00 0.  1.
         21    1    1    2  505  504 -0.22817692274E+02  0.20677706837E+02  0.26274930644E+02  0.40479459249E+02  0.00000000000E+00 0.  1.
          1    1    1    2  501    0  0.32371401877E+01  0.83289482598E+02  0.49141447099E+03  0.49843334488E+03  0.00000000000E+00 0.  1.
<scales pt_clust_3="14000.00000" pt_clust_4="36.22428" pt_clust_5="30.79309" pt_clust_6="83.53995"></scales>
<clustering>
<clus scale="   30.793">  2  5  1 -1</clus>
<clus scale="   36.224">  2  4  1 -1</clus>
<clus scale="   83.540">  1  6  2 -1</clus>
<clus scale="   30.793">  2  3  1 -1</clus>
</clustering>
</event>
<event>
 6    0  0.2433432E+002  0.1326397E+03  0.7546771E-02  0.1223591E+00
         -1   -1    0    0    0  501 -0.00000000000E+00  0.00000000000E+00  0.43485430832E+03  0.43485430832E+03  0.00000000000E+00 0.  1.
         21   -1    0    0  503  502  0.00000000000E+00 -0.00000000000E+00 -0.71008477639E+03  0.71008477639E+03  0.00000000000E+00 0. -1.
         21    1    1    2  503  504 -0.13125654460E+03 -0.72230254836E+02 -0.54198790360E+03  0.56231341604E+03  0.00000000000E+00 0. -1.
         21    1    1    2  504  501  0.32033427295E+02  0.58865184033E+02 -0.96292087909E+02  0.11731758841E+03  0.00000000000E+00 0.  1.
         21    1    1    2  505  502  0.60543562605E+02  0.51687910735E+02 -0.16980515974E+02  0.81397180613E+02  0.00000000000E+00 0.  1.
         -1    1    1    2    0  505  0.38679554699E+02 -0.38322839931E+02  0.38003003941E+03  0.38391089965E+03  0.00000000000E+00 0.  1.
<scales pt_clust_3="132.63966" pt_clust_4="64.83929" pt_clust_5="14000.00000" pt_clust_6="54.44950"></scales>
<clustering>
<clus scale="   54.449">  1  6  2 -1</clus>
<clus scale="   64.839">  1  4  2 -1</clus>
<clus scale="  132.640">  2  3  1 -1</clus>
<clus scale="  132.640">  2  3  1 -1</clus>
</clustering>
</event>
<event>
 6    0  0.2433432E+002  0.8667338E+02  0.7546771E-02  0.1311114E+00
         21   -1    0    0  505  502  0.00000000000E+00  0.00000000000E+00  0.89540931873E+03  0.89540931873E+03  0.00000000000E+00 0.  1.
          2   -1    0    0  503    0 -0.00000000000E+00 -0.00000000000E+00 -0.17056555724E+03  0.17056555724E+03  0.00000000000E+00 0.  1.
         21    1    1    2  503  502 -0.38047879147E+02  0.77994918807E+02  0.73756475544E+03  0.74265242000E+03  0.00000000000E+00 0.  1.
         21    1    1    2  504  501  0.74328366094E+02 -0.14660856070E+02  0.61665846859E+02  0.97684816505E+02  0.00000000000E+00 0. -1.
         21    1    1    2  505  504  0.54177185457E+01 -0.91759822782E+02  0.40279335308E+02  0.10035756874E+03  0.00000000000E+00 0. -1.
          2    1    1    2  501    0 -0.41698205493E+02  0.28425760044E+02 -0.11466617612E+03  0.12528007073E+03  0.00000000000E+00 0.  1.
<scales pt_clust_3="86.67338" pt_clust_4="59.65813" pt_clust_5="14000.00000" pt_clust_6="50.46548"></scales>
<clustering>
<clus scale="   50.465">  2  6  1 -1</clus>
<clus scale="   59.658">  2  4  1 -1</clus>
<clus scale="   86.673">  1  3  2 -1</clus>
<clus scale="   86.673">  1  3  2 -1</clus>
</clustering>
</event>
<event>
 6    0  0.2433432E+002  0.9794320E+02  0.7546771E-02  0.1284682E+00
          2   -1    0    0  504    0 -0.00000000000E+00  0.00000000000E+00  0.72149857448E+03  0.72149857448E+03  0.00000000000E+00 0.  1.
         21   -1    0    0  505  502  0.00000000000E+00 -0.00000000000E+00 -0.47639239453E+02  0.47639239453E+02  0.00000000000E+00 0. -1.
         21    1    1    2  503  501 -0.25906884676E+02 -0.62851193327E+02  0.96451100379E+02  0.11800107601E+03  0.00000000000E+00 0.  1.
         21    1    1    2  504  502  0.23513073324E+02 -0.21915540187E+02  0.84206704026E+02  0.90132816009E+02  0.00000000000E+00 0. -1.
         21    1    1    2  505  503 -0.48390975850E+02 -0.30436963980E+02  0.56347988851E+01  0.57444288476E+02  0.00000000000E+00 0. -1.
          2    1    1    2  501    0  0.50784787201E+02  0.11520369749E+03  0.48756673173E+03  0.50355963343E+03  0.00000000000E+00 0.  1.
<scales pt_clust_3="14000.00000" pt_clust_4="32.14274" pt_clust_5="56.77882" pt_clust_6="97.94320"></scales>
<clustering>
<clus scale="   32.143">  1  4  2 -1</clus>
<clus scale="   56.779">  2  5  1 -1</clus>
<clus scale="   97.943">  1  6  2 -1</clus>
<clus scale="   56.779">  2  3  1 -1</clus>
</clustering>
</event>
<event>
 6    0  0.2433432E+002  0.6349843E+02  0.7546771E-02  0.1383710E+00
          1   -1    0    0  503    0 -0.00000000000E+00  0.00000000000E+00  0.48938173956E+03  0.48938173956E+03  0.00000000000E+00 0. -1.
         21   -1    0    0  504  502  0.00000000000E+00 -0.00000000000E+00 -0.15846500956E+04  0.15846500956E+04  0.00000000000E+00 0. -1.
         21    1    1    2  503  502  0.14120083704E+02 -0.53326133177E+02 -0.76291652067E+02  0.94146000544E+02  0.00000000000E+00 0. -1.
         21    1    1    2  504  505 -0.63830601641E+02  0.37367301531E+02 -0.73641485066E+03  0.74011991813E+03  0.00000000000E+00 0. -1.
         21    1    1    2  505  501  0.75883574099E+02 -0.41876270894E+02 -0.75657376266E+03  0.76152202675E+03  0.00000000000E+00 0. -1.
          1    1    1    2  501    0 -0.26173056162E+02  0.57835102540E+02  0.47401190930E+03  0.47824388978E+03  0.00000000000E+00 0. -1.
<scales pt_clust_3="55.16388" pt_clust_4="57.95353" pt_clust_5="63.49843" pt_clust_6="14000.00000"></scales>
<clustering>
<clus scale="   55.164">  2  3  1 -1</clus>
<clus scale="   57.954">  2  4  1 -1</clus>
<clus scale="   63.498">  2  5  1 -1</clus>
<clus scale="   55.164">  2  3  1 -1</clus>
</clustering>
</event>
<event>
 6    0  0.2433432E+002  0.1665287E+03  0.7546771E-02  0.1181517E+00
          1   -1    0    0  503    0 -0.00000000000E+00  0.00000000000E+00  0.13411147782E+04  0.13411147782E+04  0.00000000000E+00 0.  1.
         21   -1    0    0  504  502  0.00000000000E+00 -0.00000000000E+00 -0.22632061642E+03  0.22632061642E+03  0.00000000000E+00 0. -1.
         21    1    1    2  503  505 -0.84647272710E+02  0.29044922630E+02  0.49080262809E+02  0.10206684332E+03  0.00000000000E+00 0.  1.
         21    1    1    2  504  501  0.19780412702E+03 -0.10693381011E+01  0.35391559028E+03  0.40544279644E+03  0.00000000000E+00 0.  1.
         21    1    1    2  505  502 -0.16198715673E+03  0.22131075072E+02 -0.13390730658E+03  0.21133099674E+03  0.00000000000E+00 0. -1.
          1    1    1    2  501    0  0.48830302426E+02 -0.50106659601E+02  0.84570561532E+03  0.84859475815E+03  0.00000000000E+00 0.  1.
<scales pt_clust_3="80.08293" pt_clust_4="14000.00000" pt_clust_5="166.52866" pt_clust_6="69.96482"></scales>
<clustering>
<clus scale="   69.965">  1  6  2 -1</clus>
<clus scale="   80.083">  1  3  2 -1</clus>
<clus scale="  166.529">  2  5  1 -1</clus>
<clus scale="  166.529">  2  3  1 -1</clus>
</clustering>
</event>
<event>
 6    0  0.2433432E+002  0.8108495E+02  0.7546771E-02  0.1326000E+00
          4   -1    0    0  504    0 -0.00000000000E+00  0.00000000000E+00  0.42984682204E+02  0.42984682204E+02  0.00000000000E+00 0. -1.
         21   -1    0    0  501  502  0.00000000000E+00 -0.00000000000E+00 -0.13862982782E+04  0.13862982782E+04  0.00000000000E+00 0.  1.
         21    1    1    2  503  502  0.39582273755E+02 -0.66030787483E+02 -0.93848545670E+03  0.94163781452E+03  0.00000000000E+00 0.  1.
         21    1    1    2  504  505 -0.29728447242E+02 -0.18591071957E+02 -0.80100857866E+02  0.87438869863E+02  0.00000000000E+00 0.  1.
         21    1    1    2  505  503 -0.12296545162E+01  0.12357763163E+03 -0.33660669910E+03  0.35857636979E+03  0.00000000000E+00 0. -1.
          4    1    1    2  501    0 -0.86241719963E+01 -0.38955772188E+02  0.11879417670E+02  0.41629906240E+02  0.00000000000E+00 0. -1.
<scales pt_clust_3="81.08495" pt_clust_4="35.06292" pt_clust_5="14000.00000" pt_clust_6="59.12604"></scales>
<clustering>
<clus scale="   35.063">  1  4  2 -1</clus>
<clus scale="   59.126">  1  6  2 -1</clus>
<clus scale="   81.085">  2  3  1 -1</clus>
<clus scale="   81.085">  2  3  1 -1</clus>
</clustering>
</event>
<event>
 6    0  0.2433432E+002  0.2319999E+03  0.7546771E-02  0.1125240E+00
         21   -1    0    0  505  502  0.00000000000E+00  0.00000000000E+00  0.37453399829E+03  0.37453399829E+03  0.00000000000E+00 0. -1.
          2   -1    0    0  504    0 -0.00000000000E+00 -0.00000000000E+00 -0.13069878463E+04  0.13069878463E+04  0.00000000000E+00 0. -1.
         21    1    1    2  503  502 -0.10663127410E+03 -0.65782513424E+02 -0.50273997767E+02  0.13500015756E+03  0.00000000000E+00 0.  1.
         21    1    1    2  504  503  0.17119858655E+03 -0.15645898547E+03 -0.99714301811E+03  0.10237590384E+04  0.00000000000E+00 0. -1.
         21    1    1    2  505  501 -0.41340515625E+02  0.24602358524E+03  0.26800820687E+03  0.36614893374E+03  0.00000000000E+00 0. -1.
          2    1    1    2  501    0 -0.23226796828E+02 -0.23782086350E+02 -0.15304503903E+03  0.15661371489E+03  0.00000000000E+00 0. -1.
<scales pt_clust_3="127.88492" pt_clust_4="14000.00000" pt_clust_5="231.99994" pt_clust_6="33.24262"></scales>
<clustering>
<clus scale="   33.243">  2  6  1 -1</clus>
<clus scale="  127.885">  1  3  2 -1</clus>
<clus scale="  232.000">  1  5  2 -1</clus>
<clus scale="  127.885">  1  3  2 -1</clus>
</clustering>
</event>
<event>
 6    0  0.2433432E+002  0.1205121E+03  0.7546771E-02  0.1242255E+00
         -4   -1    0    0    0  501 -0.00000000000E+00  0.00000000000E+00  0.23773984238E+03  0.23773984238E+03  0.00000000000E+00 0. -1.
         21   -1    0    0  501  502  0.00000000000E+00 -0.00000000000E+00 -0.54404513988E+03  0.54404513988E+03  0.00000000000E+00 0.  1.
         21    1    1    2  503  504 -0.55646946885E+02  0.11446258674E+02  0.71414584079E+02  0.91255916819E+02  0.00000000000E+00 0.  1.
         21    1    1    2  504  505  0.71180673966E+02 -0.65796317790E+01 -0.41787789282E+02  0.82802169257E+02  0.00000000000E+00 0.  1.
         21    1    1    2  505  502  0.52519141648E+02  0.29486796710E+02 -0.45901436177E+03  0.46294915026E+03  0.00000000000E+00 0.  1.
         -4    1    1    2    0  503 -0.68052868729E+02 -0.34353423605E+02  0.12308226947E+03  0.14477774592E+03  0.00000000000E+00 0. -1.
<scales pt_clust_3="39.14831" pt_clust_4="111.65436" pt_clust_5="60.23065" pt_clust_6="39.14831"></scales>
<clustering>
<clus scale="   39.148">  3  6 -1 -1</clus>
<clus scale="   60.231">  2  5  1 -1</clus>
<clus scale="  111.654">  2  4  1 -1</clus>
<clus scale="   60.231">  2  3  1 -1</clus>
</clustering>
</event>
<event>
 6    0  0.2433432E+002  0.8212414E+02  0.7546771E-02  0.1323129E+00
         21   -1    0    0  503  502  0.00000000000E+00  0.00000000000E+00  0.44219077932E+03  0.44219077932E+03  0.00000000000E+00 0.  1.
          1   -1    0    0  504    0 -0.00000000000E+00 -0.00000000000E+00 -0.12705635076E+04  0.12705635076E+04  0.00000000000E+00 0.  1.
         21    1    1    2  503  505 -0.26955358589E+02 -0.14539095819E+02  0.39765304672E+03  0.39883069369E+03  0.00000000000E+00 0.  1.
         21    1    1    2  504  502  0.24776838189E+02  0.54089290112E+02 -0.47595569439E+02  0.76189771266E+02  0.00000000000E+00 0. -1.
         21    1    1    2  505  501  0.81709857339E+02 -0.57612901803E+02 -0.60554704094E+02  0.11688720815E+03  0.00000000000E+00 0.  1.
          1    1    1    2  501    0 -0.79531336939E+02  0.18062707510E+02 -0.11178755015E+04  0.11208466138E+04  0.00000000000E+00 0.  1.
<scales pt_clust_3="30.62640" pt_clust_4="51.89046" pt_clust_5="14000.00000" pt_clust_6="82.12414"></scales>
<clustering>
<clus scale="   30.626">  1  3  2 -1</clus>
<clus scale="   51.890">  1  4  2 -1</clus>
<clus scale="   82.124">  2  6  1 -1</clus>
<clus scale="   30.626">  1  3  2 -1</clus>
</clustering>
</event>
<event>
 6    0  0.2433432E+002  0.1844579E+03  0.7546771E-02  0.1163557E+00
         21   -1    0    0  504  502  0.00000000000E+00  0.00000000000E+00  0.37285600728E+03  0.37285600728E+03  0.00000000000E+00 0.  1.
          1   -1    0    0  503    0 -0.00000000000E+00 -0.00000000000E+00 -0.10983744923E+04  0.10983744923E+04  0.00000000000E+00 0.  1.
         21    1    1    2  503  505 -0.13465600658E+03  0.66822388889E+02 -0.39279036850E+03  0.42057311535E+03  0.00000000000E+00 0.  1.
         21    1    1    2  504  501  0.11473780707E+02 -0.55964859125E+02  0.39925753615E+02  0.69697768273E+02  0.00000000000E+00 0. -1.
         21    1    1    2  505  502  0.16075387720E+03 -0.24411359212E+02  0.28176978608E+03  0.32531820705E+03  0.00000000000E+00 0.  1.
          1    1    1    2  501    0 -0.37571651326E+02  0.13553829448E+02 -0.65442365619E+03  0.65564140890E+03  0.00000000000E+00 0.  1.
<scales pt_clust_3="184.45794" pt_clust_4="56.44133" pt_clust_5="14000.00000" pt_clust_6="39.94165"></scales>
<clustering>
<clus scale="   39.942">  2  6  1 -1</clus>
<clus scale="   56.441">  1  4  2 -1</clus>
<clus scale="  184.458">  2  3  1 -1</clus>
<clus scale="   56.441">  1  3  2 -1</clus>
</clustering>
</event>
<event>
 6    0  0.2433432E+002  0.2014323E+03  0.7546771E-02  0.1148536E+00
          2   -1    0    0  503    0 -0.00000000000E+00  0.00000000000E+00  0.16177747969E+04  0.16177747969E+04  0.00000000000E+00 0.  1.
         21   -1    0    0  504  502  0.00000000000E+00 -0.00000000000E+00 -0.16385281196E+03  0.16385281196E+03  0.00000000000E+00 0. -1.
         21    1    1    2  503  502  0.19510059539E+02 -0.30362289538E+02  0.63371304468E+02  0.72927589286E+02  0.00000000000E+00 0.  1.
         21    1    1    2  504  505  0.33199269567E+02  0.11059602878E+03 -0.75146110774E+02  0.13777013844E+03  0.00000000000E+00 0. -1.
         21    1    1    2  505  501  0.82610562073E+01  0.81474258407E+02 -0.12346402054E+02  0.82817470840E+02  0.00000000000E+00 0. -1.
          2    1    1    2  501    0 -0.60970385314E+02 -0.16170799765E+03  0.14780431933E+04  0.14881124103E+04  0.00000000000E+00 0.  1.
<scales pt_clust_3="36.09032" pt_clust_4="41.12742" pt_clust_5="41.12742" pt_clust_6="195.39948"></scales>
<clustering>
<clus scale="   36.090">  1  3  2 -1</clus>
<clus scale="   41.127">  4  5 -1 -1</clus>
<clus scale="  195.399">  1  6  2 -1</clus>
<clus scale="  201.432">  2  3  1 -1</clus>
</clustering>
</event>
<event>
 6    0  0.2433432E+002  0.1538935E+03  0.7546771E-02  0.1195769E+00
         21   -1    0    0  505  502  0.00000000000E+00  0.00000000000E+00  0.20077675981E+03  0.20077675981E+03  0.00000000000E+00 0.  1.
          1   -1    0    0  504    0 -0.00000000000E+00 -0.00000000000E+00 -0.56264260193E+03  0.56264260193E+03  0.00000000000E+00 0. -1.
         21    1    1    2  503  501 -0.65052402555E+01 -0.68871687239E+02  0.76862210547E+01  0.69603918338E+02  0.00000000000E+00 0.  1.
         21    1    1    2  504  502 -0.58175075785E+02  0.16436304206E+03  0.77289656198E+02  0.19071769712E+03  0.00000000000E+00 0.  1.
         21    1    1    2  505  503  0.29096710523E+02 -0.49606584684E+02 -0.52995280770E+01  0.57753933244E+02  0.00000000000E+00 0.  1.
          1    1    1    2  501    0  0.35583605518E+02 -0.45884770139E+02 -0.44154219130E+03  0.44534381304E+03  0.00000000000E+00 0. -1.
<scales pt_clust_3="37.22514" pt_clust_4="148.37911" pt_clust_5="37.22514" pt_clust_6="58.06552"></scales>
<clustering>
<clus scale="   37.225">  3  5 -1 -1</clus>
<clus scale="   58.066">  2  6  1 -1</clus>
<clus scale="  148.379">  1  4  2 -1</clus>
<clus scale="  148.379">  1  3  2 -1</clus>
</clustering>
</event>
<event>
 6    0  0.2433432E+002  0.6751440E+02  0.7546771E-02  0.1368755E+00
          2   -1    0    0  505    0 -0.00000000000E+00  0.00000000000E+00  0.21931544505E+04  0.21931544505E+04  0.00000000000E+00 0.  1.
         21   -1    0    0  504  502  0.00000000000E+00 -0.00000000000E+00 -0.69952686133E+02  0.69952686133E+02  0.00000000000E+00 0.  1.
         21    1    1    2  503  502  0.32514645777E+02  0.21948178678E+02 -0.17411860809E+02  0.42919664888E+02  0.00000000000E+00 0.  1.
         21    1    1    2  504  501  0.10656816358E+03 -0.23694742549E+02  0.12814618538E+03  0.16834387170E+03  0.00000000000E+00 0.  1.
         21    1    1    2  505  503 -0.72883188429E+02 -0.31644697081E+01  0.50435074786E+02  0.88688611403E+02  0.00000000000E+00 0.  1.
          2    1    1    2  501    0 -0.66199620926E+02  0.49110335786E+01  0.19620323650E+04  0.19631549886E+04  0.00000000000E+00 0.  1.
<scales pt_clust_3="39.22913" pt_clust_4="67.51440" pt_clust_5="57.72697" pt_clust_6="14000.00000"></scales>
<clustering>
<clus scale="   39.229">  2  3  1 -1</clus>
<clus scale="   57.727">  2  5  1 -1</clus>
<clus scale="   67.514">  2  4  1 -1</clus>
<clus scale="   39.229">  2  3  1 -1</clus>
</clustering>
</event>
<event>
 6    0  0.2433432E+002  0.1045384E+03  0.7546771E-02  0.1271032E+00
          2   -1    0    0  503    0 -0.00000000000E+00  0.00000000000E+00  0.51952044178E+03  0.51952044178E+03  0.00000000000E+00 0.  1.
         21   -1    0    0  505  502  0.00000000000E+00 -0.00000000000E+00 -0.15259907865E+03  0.15259907865E+03  0.00000000000E+00 0. -1.
         21    1    1    2  503  504 -0.48493277103E+02 -0.62290981830E+02  0.12376402544E+03  0.14679679266E+03  0.00000000000E+00 0.  1.
         21    1    1    2  504  502  0.12357577462E+02  0.28574278289E+02 -0.55096827997E+02  0.63283959704E+02  0.00000000000E+00 0. -1.
         21    1    1    2  505  501  0.89110957715E+02  0.37023265842E+02 -0.50745683805E+02  0.10902572826E+03  0.00000000000E+00 0. -1.
          2    1    1    2  501    0 -0.52975258074E+02 -0.33065623014E+01  0.34899984949E+03  0.35301303980E+03  0.00000000000E+00 0.  1.
<scales pt_clust_3="14000.00000" pt_clust_4="31.13196" pt_clust_5="104.53843" pt_clust_6="52.77853"></scales>
<clustering>
<clus scale="   31.132">  2  4  1 -1</clus>
<clus scale="   52.779">  1  6  2 -1</clus>
<clus scale="  104.538">  2  5  1 -1</clus>
<clus scale="   31.132">  2  3  1 -1</clus>
</clustering>
</event>
<event>
 6    0  0.2433432E+002  0.1202981E+03  0.7546771E-02  0.1242606E+00
          2   -1    0    0  503    0 -0.00000000000E+00  0.00000000000E+00  0.44003540582E+04  0.44003540582E+04  0.00000000000E+00 0.  1.
         21   -1    0    0  505  502  0.00000000000E+00 -0.00000000000E+00 -0.26363063874E+02  0.26363063874E+02  0.00000000000E+00 0.  1.
         21    1    1    2  503  504 -0.73456633632E+01  0.82189573244E+02  0.12442034001E+03  0.14929670368E+03  0.00000000000E+00 0.  1.
         21    1    1    2  504  502  0.33386685052E+02  0.39483776009E+02  0.55202210767E+02  0.75636785893E+02  0.00000000000E+00 0.  1.
         21    1    1    2  505  501  0.22222853118E+02 -0.25710088419E+02  0.93094109109E+02  0.99102860695E+02  0.00000000000E+00 0. -1.
          2    1    1    2  501    0 -0.48263874807E+02 -0.95963260833E+02  0.41012743345E+04  0.41026807718E+04  0.00000000000E+00 0.  1.
<scales pt_clust_3="46.24065" pt_clust_4="46.24065" pt_clust_5="33.98329" pt_clust_6="107.81173"></scales>
<clustering>
<clus scale="   33.983">  2  5  1 -1</clus>
<clus scale="   46.241">  3  4 -1 -1</clus>
<clus scale="  107.812">  1  6  2 -1</clus>
<clus scale="   33.983">  2  3  1 -1</clus>
</clustering>
</event>
<event>
 6    0  0.2433432E+002  0.9502549E+02  0.7546771E-02  0.1291119E+00
         21   -1    0    0  503  502  0.00000000000E+00  0.00000000000E+00  0.68509223865E+02  0.68509223865E+02  0.00000000000E+00 0.  1.
          4   -1    0    0  504    0 -0.00000000000E+00 -0.00000000000E+00 -0.12498982552E+04  0.12498982552E+04  0.00000000000E+00 0. -1.
         21    1    1    2  503  505  0.32185212610E+02  0.26562597618E+02 -0.61175467796E+02  0.74053341336E+02  0.00000000000E+00 0.  1.
         21    1    1    2  504  502  0.69771862344E+02  0.38937860864E+02 -0.10870382779E+02  0.80637677331E+02  0.00000000000E+00 0.  1.
         21    1    1    2  505  501 -0.77763864580E+01 -0.46210179542E+02  0.32547815106E+01  0.46972827063E+02  0.00000000000E+00 0.  1.
          4    1    1    2  501    0 -0.94180688496E+02 -0.19290278941E+02 -0.11125979623E+04  0.11167436333E+04  0.00000000000E+00 0. -1.
<scales pt_clust_3="41.73080" pt_clust_4="95.02549" pt_clust_5="35.84878" pt_clust_6="14000.00000"></scales>
<clustering>
<clus scale="   41.731">  1  3  2 -1</clus>
<clus scale="   35.849">  1  5  2 -1</clus>
<clus scale="   95.025">  1  4  2 -1</clus>
<clus scale="   41.731">  1  3  2 -1</clus>
</clustering>
</event>
<event>
 6    0  0.2433432E+002  0.1315345E+03  0.7546771E-02  0.1225196E+00
         21   -1    0    0  501  502  0.00000000000E+00  0.00000000000E+00  0.27656007095E+03  0.27656007095E+03  0.00000000000E+00 0.  1.
          2   -1    0    0  505    0 -0.00000000000E+00 -0.00000000000E+00 -0.10356619939E+04  0.10356619939E+04  0.00000000000E+00 0. -1.
         21    1    1    2  503  504 -0.99844979705E+02  0.38868953269E+02 -0.29356905486E+03  0.31251016859E+03  0.00000000000E+00 0. -1.
         21    1    1    2  504  502 -0.35354643964E+02  0.24684797988E+02  0.25264100430E+03  0.25629429794E+03  0.00000000000E+00 0.  1.
         21    1    1    2  505  503  0.48275908869E+01  0.30752870774E+02 -0.11039574187E+03  0.11470076076E+03  0.00000000000E+00 0. -1.
          2    1    1    2  501    0  0.13037203278E+03 -0.94306622032E+02 -0.60777813054E+03  0.62871683757E+03  0.00000000000E+00 0. -1.
<scales pt_clust_3="14000.00000" pt_clust_4="43.14653" pt_clust_5="31.12948" pt_clust_6="131.53449"></scales>
<clustering>
<clus scale="   31.129">  2  5  1 -1</clus>
<clus scale="   43.147">  1  4  2 -1</clus>
<clus scale="  131.534">  2  6  1 -1</clus>
<clus scale="   43.147">  1  3  2 -1</clus>
</clustering>
</event>
<event>
 6    0  0.2433432E+002  0.8806901E+02  0.7546771E-02  0.1307596E+00
         21   -1    0    0  505  502  0.00000000000E+00  0.00000000000E+00  0.44686298445E+03  0.44686298445E+03  0.00000000000E+00 0.  1.
          1   -1    0    0  503    0 -0.00000000000E+00 -0.00000000000E+00 -0.90219539525E+02  0.90219539525E+02  0.00000000000E+00 0.  1.
         21    1    1    2  503  504 -0.23177691954E+02  0.95994109232E+02  0.25466633899E+03  0.27314285388E+03  0.00000000000E+00 0.  1.
         21    1    1    2  504  502  0.51741903545E+01 -0.34689663475E+02  0.52782159568E+02  0.63372717841E+02  0.00000000000E+00 0.  1.
         21    1    1    2  505  501  0.27295218034E+02  0.25716983900E+02  0.94751841263E+02  0.10190340333E+03  0.00000000000E+00 0.  1.
          1    1    1    2  501    0 -0.92917164345E+01 -0.87021429656E+02 -0.45556894893E+02  0.98663548922E+02  0.00000000000E+00 0.  1.
<scales pt_clust_3="88.06901" pt_clust_4="35.07342" pt_clust_5="33.24553" pt_clust_6="14000.00000"></scales>
<clustering>
<clus scale="   35.073">  1  4  2 -1</clus>
<clus scale="   33.246">  1  5  2 -1</clus>
<clus scale="   88.069">  1  3  2 -1</clus>
<clus scale="   35.073">  1  3  2 -1</clus>
</clustering>
</event>
<event>
 6    0  0.2433432E+002  0.1518264E+03  0.7546771E-02  0.1198247E+00
         21   -1    0    0  504  502  0.00000000000E+00  0.00000000000E+00  0.55096501003E+02  0.55096501003E+02  0.00000000000E+00 0.  1.
          2   -1    0    0  503    0 -0.00000000000E+00 -0.00000000000E+00 -0.14148434879E+04  0.14148434879E+04  0.00000000000E+00 0. -1.
         21    1    1    2  503  502  0.49006553038E+02 -0.39934334868E+02 -0.15475627000E+03  0.16717026185E+03  0.00000000000E+00 0.  1.
         21    1    1    2  504  505 -0.24546841840E+02  0.18625530028E+02 -0.56712348163E+01  0.31330826952E+02  0.00000000000E+00 0.  1.
         21    1    1    2  505  501  0.10569065475E+03  0.10215730669E+03 -0.14650535053E+03  0.20753420813E+03  0.00000000000E+00 0.  1.
          2    1    1    2  501    0 -0.13015036594E+03 -0.80848501851E+02 -0.10528141316E+04  0.10639046920E+04  0.00000000000E+00 0. -1.
<scales pt_clust_3="58.69494" pt_clust_4="30.81327" pt_clust_5="14000.00000" pt_clust_6="151.82636"></scales>
<clustering>
<clus scale="   30.813">  1  4  2 -1</clus>
<clus scale="   58.695">  1  3  2 -1</clus>
<clus scale="  151.826">  2  6  1 -1</clus>
<clus scale="   30.813">  1  3  2 -1</clus>
</clustering>
</event>
<event>
 6    0  0.4413750E+002  0.1167782E+03  0.7546771E-02  0.1248509E+00
          2   -1    0    0  505    0 -0.00000000000E+00  0.00000000000E+00  0.27718712231E+04  0.27718712231E+04  0.00000000000E+00 0.  1.
         21   -1    0    0  503  502  0.00000000000E+00 -0.00000000000E+00 -0.20316170721E+03  0.20316170721E+03  0.00000000000E+00 0.  1.
         21    1    1    2  503  501 -0.27774405203E+02  0.71334583002E+02 -0.16975592877E+03  0.18621792521E+03  0.00000000000E+00 0.  1.
         21    1    1    2  504  502 -0.19260608844E+02  0.29103183073E+02  0.36033720675E+02  0.50163685508E+02  0.00000000000E+00 0.  1.
         21    1    1    2  505  504 -0.41677442050E+02 -0.23954606450E+02  0.17487120919E+02  0.51153022824E+02  0.00000000000E+00 0.  1.
          2    1    1    2  501    0  0.88712456097E+02 -0.76483159625E+02  0.26849446030E+04  0.26874982967E+04  0.00000000000E+00 0.  1.
<scales pt_clust_3="116.77818" pt_clust_4="34.89937" pt_clust_5="48.35217" pt_clust_6="14000.00000"></scales>
<clustering>
<clus scale="   34.899">  2  4  1 -1</clus>
<clus scale="   48.352">  2  5  1 -1</clus>
<clus scale="  116.778">  2  3  1 -1</clus>
<clus scale="   34.899">  2  3  1 -1</clus>
</clustering>
</event>
<event>
 6    0  0.2433432E+002  0.1168873E+03  0.7546771E-02  0.1248322E+00
         21   -1    0    0  503  502  0.00000000000E+00  0.00000000000E+00  0.12764662877E+03  0.12764662877E+03  0.00000000000E+00 0. -1.
         -3   -1    0    0    0  501 -0.00000000000E+00 -0.00000000000E+00 -0.45943707417E+03  0.45943707417E+03  0.00000000000E+00 0. -1.
         21    1    1    2  503  504 -0.10021794929E+03 -0.15904508228E+02  0.45093448685E+02  0.11104057752E+03  0.00000000000E+00 0. -1.
         21    1    1    2  504  505  0.89209344276E+02 -0.65477386317E+01 -0.75415717361E+02  0.11699876244E+03  0.00000000000E+00 0. -1.
         21    1    1    2  505  501  0.97656018799E+02  0.21469302218E+02 -0.10868724204E+03  0.14768393795E+03  0.00000000000E+00 0. -1.
         -3    1    1    2    0  502 -0.86647413790E+02  0.98294464221E+00 -0.19278093468E+03  0.21136042504E+03  0.00000000000E+00 0. -1.
<scales pt_clust_3="112.43182" pt_clust_4="30.23286" pt_clust_5="30.23286" pt_clust_6="86.65299"></scales>
<clustering>
<clus scale="   30.233">  4  5 -1 -1</clus>
<clus scale="   86.653">  2  6  1 -1</clus>
<clus scale="  112.432">  1  3  2 -1</clus>
<clus scale="  112.432">  1  3  2 -1</clus>
</clustering>
</event>
<event>
 6    0  0.2433432E+002  0.1058111E+03  0.7546771E-02  0.1268530E+00
         21   -1    0    0  501  502  0.00000000000E+00  0.00000000000E+00  0.90016725432E+02  0.90016725432E+02  0.00000000000E+00 0.  1.
          2   -1    0    0  503    0 -0.00000000000E+00 -0.00000000000E+00 -0.20556156752E+04  0.20556156752E+04  0.00000000000E+00 0. -1.
         21    1    1    2  503  504 -0.85618781561E+02 -0.75334249147E+02 -0.10045815465E+03  0.15197916201E+03  0.00000000000E+00 0. -1.
         21    1    1    2  504  505  0.66881481123E+02  0.67839947545E+02 -0.29836908531E+02  0.99828012656E+02  0.00000000000E+00 0.  1.
         21    1    1    2  505  502  0.48497118925E+02 -0.28719133191E+02  0.15396132704E+01  0.56383770398E+02  0.00000000000E+00 0. -1.
          2    1    1    2  501    0 -0.29759818487E+02  0.36213434794E+02 -0.18368434998E+04  0.18374414555E+04  0.00000000000E+00 0. -1.
<scales pt_clust_3="105.81107" pt_clust_4="14000.00000" pt_clust_5="50.87224" pt_clust_6="46.87280"></scales>
<clustering>
<clus scale="   46.873">  2  6  1 -1</clus>
<clus scale="   50.872">  1  5  2 -1</clus>
<clus scale="  105.811">  2  3  1 -1</clus>
<clus scale="   50.872">  1  3  2 -1</clus>
</clustering>
</event>
<event>
 6    0  0.2433432E+002  0.6968382E+02  0.7546771E-02  0.1361172E+00
         21   -1    0    0  504  502  0.00000000000E+00  0.00000000000E+00  0.27942848717E+02  0.27942848717E+02  0.00000000000E+00 0. -1.
          2   -1    0    0  505    0 -0.00000000000E+00 -0.00000000000E+00 -0.12509475567E+04  0.12509475567E+04  0.00000000000E+00 0. -1.
         21    1    1    2  503  502 -0.35691773297E+02 -0.17210335855E+02 -0.52160521723E+01  0.39966305078E+02  0.00000000000E+00 0. -1.
         21    1    1    2  504  501  0.32855582174E+02  0.47533767030E+02 -0.21029286419E+03  0.21808722341E+03  0.00000000000E+00 0. -1.
         21    1    1    2  505  503  0.30765815190E+02 -0.86375207845E+02 -0.41322448709E+03  0.42327495632E+03  0.00000000000E+00 0.  1.
          2    1    1    2  501    0 -0.27929624067E+02  0.56051776670E+02 -0.59427130452E+03  0.59756192059E+03  0.00000000000E+00 0. -1.
<scales pt_clust_3="39.62447" pt_clust_4="45.65283" pt_clust_5="14000.00000" pt_clust_6="69.68382"></scales>
<clustering>
<clus scale="   39.624">  1  3  2 -1</clus>
<clus scale="   45.653">  1  4  2 -1</clus>
<clus scale="   69.684">  2  6  1 -1</clus>
<clus scale="   39.624">  1  3  2 -1</clus>
</clustering>
</event>
<event>
 6    0  0.2433432E+002  0.6861825E+02  0.7546771E-02  0.1364856E+00
         -3   -1    0    0    0  501 -0.00000000000E+00  0.00000000000E+00  0.19149148846E+04  0.19149148846E+04  0.00000000000E+00 0. -1.
         21   -1    0    0  503  502  0.00000000000E+00 -0.00000000000E+00 -0.21105229451E+03  0.21105229451E+03  0.00000000000E+00 0. -1.
         21    1    1    2  503  504  0.10019741004E+00  0.36002231529E+02 -0.57593802972E+02  0.67920665893E+02  0.00000000000E+00 0. -1.
         21    1    1    2  504  501 -0.38860335944E+02 -0.48350775174E+02 -0.58836673432E+02  0.85496650871E+02  0.00000000000E+00 0. -1.
         21    1    1    2  505  502  0.98020859032E+02  0.46285721875E+02 -0.36592316906E+02  0.11440915397E+03  0.00000000000E+00 0. -1.
         -3    1    1    2    0  505 -0.59260720498E+02 -0.33937178230E+02  0.18568853834E+04  0.18581407084E+04  0.00000000000E+00 0. -1.
<scales pt_clust_3="36.00237" pt_clust_4="49.56674" pt_clust_5="68.61825" pt_clust_6="14000.00000"></scales>
<clustering>
<clus scale="   36.002">  2  3  1 -1</clus>
<clus scale="   49.567">  2  4  1 -1</clus>
<clus scale="   68.618">  2  5  1 -1</clus>
<clus scale="   36.002">  2  3  1 -1</clus>
</clustering>
</event>
<event>
 6    0  0.2433432E+002  0.2881600E+03  0.7546771E-02  0.1091314E+00
         21   -1    0    0  503  502  0.00000000000E+00  0.00000000000E+00  0.26759772537E+04  0.26759772537E+04  0.00000000000E+00 0. -1.
          1   -1    0    0  505    0 -0.00000000000E+00 -0.00000000000E+00 -0.11542281679E+04  0.11542281679E+04  0.00000000000E+00 0.  1.
         21    1    1    2  503  501  0.14626774460E+03 -0.16172497248E+03  0.19099505754E+03  0.28987640787E+03  0.00000000000E+00 0.  1.
         21    1    1    2  504  502 -0.45706962076E+02  0.69959546273E+02  0.10655376059E+04  0.10688095499E+04  0.00000000000E+00 0. -1.
         21    1    1    2  505  504 -0.12124789139E+03  0.16248814770E+03  0.13596126326E+04  0.13746453943E+04  0.00000000000E+00 0. -1.
          1    1    1    2  501    0  0.20687108859E+02 -0.70722721489E+02 -0.10943962101E+04  0.10968740696E+04  0.00000000000E+00 0.  1.
<scales pt_clust_3="275.36091" pt_clust_4="54.52454" pt_clust_5="54.52454" pt_clust_6="73.68623"></scales>
<clustering>
<clus scale="   54.525">  4  5 -1 -1</clus>
<clus scale="   73.686">  2  6  1 -1</clus>
<clus scale="  275.361">  2  3  1 -1</clus>
<clus scale="  288.160">  1  3  2 -1</clus>
</clustering>
</event>
<event>
 6    0  0.2433432E+002  0.1505836E+03  0.7546771E-02  0.1199758E+00
         -2   -1    0    0    0  501 -0.00000000000E+00  0.00000000000E+00  0.12193853643E+04  0.12193853643E+04  0.00000000000E+00 0. -1.
         21   -1    0    0  504  502  0.00000000000E+00 -0.00000000000E+00 -0.10462732564E+03  0.10462732564E+03  0.00000000000E+00 0.  1.
         21    1    1    2  503  501  0.80397045111E+02  0.21061287257E+01 -0.36181637914E+02  0.88188613567E+02  0.00000000000E+00 0.  1.
         21    1    1    2  504  503  0.49740822817E+02 -0.48278408046E+01  0.78643426714E+01  0.50589577849E+02  0.00000000000E+00 0.  1.
         21    1    1    2  505  502  0.11798250309E+02  0.39381550603E+02  0.94668327523E+01  0.42186800786E+02  0.00000000000E+00 0. -1.
         -2    1    1    2    0  505 -0.14193611824E+03 -0.36659838524E+02  0.11336085012E+04  0.11430476978E+04  0.00000000000E+00 0. -1.
<scales pt_clust_3="30.67454" pt_clust_4="30.67454" pt_clust_5="41.11089" pt_clust_6="145.46879"></scales>
<clustering>
<clus scale="   30.675">  3  4 -1 -1</clus>
<clus scale="   41.111">  2  5  1 -1</clus>
<clus scale="  145.469">  1  6  2 -1</clus>
<clus scale="   41.111">  2  3  1 -1</clus>
</clustering>
</event>
<event>
 6    0  0.2433432E+002  0.7571945E+02  0.7546771E-02  0.1341657E+00
          2   -1    0    0  505    0 -0.00000000000E+00  0.00000000000E+00  0.79230862723E+03  0.79230862723E+03  0.00000000000E+00 0. -1.
         21   -1    0    0  504  502  0.00000000000E+00 -0.00000000000E+00 -0.11562732054E+03  0.11562732054E+03  0.00000000000E+00 0.  1.
         21    1    1    2  503  502  0.11612593747E+02 -0.63534810936E+02 -0.42200071097E+02  0.77151607467E+02  0.00000000000E+00 0.  1.
         21    1    1    2  504  501  0.71567935240E+02  0.30145227452E+02  0.49449465918E+02  0.92064943232E+02  0.00000000000E+00 0. -1.
         21    1    1    2  505  503 -0.71426954498E+02  0.98228860354E+02  0.79589374181E+02  0.14520739416E+03  0.00000000000E+00 0. -1.
          2    1    1    2  501    0 -0.11753574489E+02 -0.64839276871E+02  0.58984253769E+03  0.59351200291E+03  0.00000000000E+00 0. -1.
<scales pt_clust_3="64.58734" pt_clust_4="75.71945" pt_clust_5="14000.00000" pt_clust_6="67.88214"></scales>
<clustering>
<clus scale="   64.587">  2  3  1 -1</clus>
<clus scale="   67.882">  1  6  2 -1</clus>
<clus scale="   75.719">  1  4  2 -1</clus>
<clus scale="   64.587">  2  3  1 -1</clus>
</clustering>
</event>
<event>
 6    0  0.2433432E+002  0.8739618E+02  0.7546771E-02  0.1309283E+00
          2   -1    0    0  503    0 -0.00000000000E+00  0.00000000000E+00  0.68972738830E+03  0.68972738830E+03  0.00000000000E+00 0. -1.
         21   -1    0    0  504  502  0.00000000000E+00 -0.00000000000E+00 -0.60171445243E+03  0.60171445243E+03  0.00000000000E+00 0. -1.
         21    1    1    2  503  502  0.35812183607E+02 -0.21414087505E+02 -0.14888101745E+02  0.44302722399E+02  0.00000000000E+00 0. -1.
         21    1    1    2  504  505 -0.14270829899E+03  0.44228673689E+02 -0.39682840065E+03  0.42402194960E+03  0.00000000000E+00 0. -1.
         21    1    1    2  505  501  0.52716698612E+02 -0.32853874222E+01 -0.15608451520E+03  0.16477930686E+03  0.00000000000E+00 0. -1.
          2    1    1    2  501    0  0.54179416772E+02 -0.19529198762E+02  0.65581395347E+03  0.65833786187E+03  0.00000000000E+00 0. -1.
<scales pt_clust_3="41.72620" pt_clust_4="87.39618" pt_clust_5="14000.00000" pt_clust_6="57.68199"></scales>
<clustering>
<clus scale="   41.726">  2  3  1 -1</clus>
<clus scale="   57.682">  1  6  2 -1</clus>
<clus scale="   87.396">  2  4  1 -1</clus>
<clus scale="   41.726">  2  3  1 -1</clus>
</clustering>
</event>
<event>
 6    0  0.2433432E+002  0.1508814E+03  0.7546771E-02  0.1199394E+00
         21   -1    0    0  503  502  0.00000000000E+00  0.00000000000E+00  0.11761456304E+02  0.11761456304E+02  0.00000000000E+00 0.  1.
         -4   -1    0    0    0  501 -0.00000000000E+00 -0.00000000000E+00 -0.31508377381E+04  0.31508377381E+04  0.00000000000E+00 0.  1.
         21    1    1    2  503  501 -0.15610891511E+03  0.53503195686E+02 -0.15367840100E+04  0.15456188660E+04  0.00000000000E+00 0.  1.
         21    1    1    2  504  505  0.58353734870E+02  0.18037177958E+02 -0.75637134800E+03  0.75883339030E+03  0.00000000000E+00 0.  1.
         21    1    1    2  505  502  0.50972949879E+02 -0.19770861836E+02 -0.16863628964E+03  0.17727754167E+03  0.00000000000E+00 0.  1.
         -4    1    1    2    0  504  0.46782230360E+02 -0.51769511808E+02 -0.67728463408E+03  0.68086939643E+03  0.00000000000E+00 0.  1.
<scales pt_clust_3="132.59712" pt_clust_4="65.85155" pt_clust_5="54.67292" pt_clust_6="65.85155"></scales>
<clustering>
<clus scale="   54.673">  1  5  2 -1</clus>
<clus scale="   65.852">  4  6 -1 -1</clus>
<clus scale="  132.597">  1  3  2 -1</clus>
<clus scale="   54.673">  1  3  2 -1</clus>
</clustering>
</event>
<event>
 6    0  0.2433432E+002  0.1063268E+03  0.7546771E-02  0.1267527E+00
         21   -1    0    0  503  502  0.00000000000E+00  0.00000000000E+00  0.23673044999E+02  0.23673044999E+02  0.00000000000E+00 0.  1.
          2   -1    0    0  505    0 -0.00000000000E+00 -0.00000000000E+00 -0.25555892180E+04  0.25555892180E+04  0.00000000000E+00 0. -1.
         21    1    1    2  503  501 -0.29968613197E+02  0.16646759623E+02 -0.39976222543E+02  0.52662422577E+02  0.00000000000E+00 0.  1.
         21    1    1    2  504  502  0.10111927370E+03 -0.73882879180E+02 -0.34149879668E+03  0.36373783895E+03  0.00000000000E+00 0.  1.
         21    1    1    2  505  504 -0.86431698742E+02 -0.64922524216E+02 -0.95513084181E+03  0.96122853562E+03  0.00000000000E+00 0.  1.
          2    1    1    2  501    0  0.15281038235E+02  0.12215864377E+03 -0.11953103119E+04  0.12016334658E+04  0.00000000000E+00 0. -1.
<scales pt_clust_3="34.28166" pt_clust_4="103.44313" pt_clust_5="106.32684" pt_clust_6="14000.00000"></scales>
<clustering>
<clus scale="   34.282">  1  3  2 -1</clus>
<clus scale="  103.443">  1  4  2 -1</clus>
<clus scale="  106.327">  2  5  1 -1</clus>
<clus scale="   34.282">  1  3  2 -1</clus>
</clustering>
</event>
<event>
 6    0  0.2433432E+002  0.1180438E+03  0.7546771E-02  0.1246360E+00
         21   -1    0    0  505  502  0.00000000000E+00  0.00000000000E+00  0.56769024303E+03  0.56769024303E+03  0.00000000000E+00 0.  1.
         -1   -1    0    0    0  501 -0.00000000000E+00 -0.00000000000E+00 -0.29042735406E+03  0.29042735406E+03  0.00000000000E+00 0.  1.
         21    1    1    2  503  502  0.14390232312E+03  0.17253334580E+02  0.26257138100E+03  0.29991546521E+03  0.00000000000E+00 0.  1.
         21    1    1    2  504  501 -0.10975633481E+03 -0.12838249079E+02  0.75257635694E+02  0.13369736497E+03  0.00000000000E+00 0.  1.
         21    1    1    2  505  504 -0.36514066722E+02 -0.34678517199E+02  0.17750307359E+03  0.18450804253E+03  0.00000000000E+00 0.  1.
         -1    1    1    2    0  503  0.23680784089E+01  0.30263431698E+02 -0.23806920132E+03  0.23999672437E+03  0.00000000000E+00 0.  1.
<scales pt_clust_3="14000.00000" pt_clust_4="118.04377" pt_clust_5="48.83981" pt_clust_6="30.35594"></scales>
<clustering>
<clus scale="   30.356">  2  6  1 -1</clus>
<clus scale="   48.840">  1  5  2 -1</clus>
<clus scale="  118.044">  2  4  1 -1</clus>
<clus scale="   48.840">  1  3  2 -1</clus>
</clustering>
</event>
<event>
 6    0  0.2433432E+002  0.9921647E+02  0.7546771E-02  0.1281952E+00
         21   -1    0    0  505  502  0.00000000000E+00  0.00000000000E+00  0.36177405803E+03  0.36177405803E+03  0.00000000000E+00 0.  1.
         -3   -1    0    0    0  501 -0.00000000000E+00 -0.00000000000E+00 -0.19886931809E+03  0.19886931809E+03  0.00000000000E+00 0.  1.
         21    1    1    2  503  502 -0.81005620168E+02  0.52437577448E+02  0.23358777304E+02  0.99283646713E+02  0.00000000000E+00 0. -1.
         21    1    1    2  504  501  0.18577401633E+02 -0.27904245722E+02  0.31694119529E+01  0.33672124270E+02  0.00000000000E+00 0. -1.
         21    1    1    2  505  504  0.10206436042E+03 -0.72186222588E+01  0.26920513065E+03  0.28799417449E+03  0.00000000000E+00 0.  1.
         -3    1    1    2    0  503 -0.39636141881E+02 -0.17314709467E+02 -0.13282857997E+03  0.13969343064E+03  0.00000000000E+00 0.  1.
<scales pt_clust_3="14000.00000" pt_clust_4="33.52263" pt_clust_5="99.21647" pt_clust_6="45.97727"></scales>
<clustering>
<clus scale="   33.523">  2  4  1 -1</clus>
<clus scale="   45.977">  2  6  1 -1</clus>
<clus scale="   99.216">  1  5  2 -1</clus>
<clus scale="   99.216">  1  3  2 -1</clus>
</clustering>
</event>
<event>
 6    0  0.2433432E+002  0.1064696E+03  0.7546771E-02  0.1267251E+00
         -2   -1    0    0    0  501 -0.00000000000E+00  0.00000000000E+00  0.66917837881E+03  0.66917837881E+03  0.00000000000E+00 0.  1.
         21   -1    0    0  505  502  0.00000000000E+00 -0.00000000000E+00 -0.96825073523E+02  0.96825073523E+02  0.00000000000E+00 0. -1.
         21    1    1    2  503  502 -0.28724266428E+02 -0.23894268146E+02  0.13173070517E+02  0.39617538021E+02  0.00000000000E+00 0.  1.
         21    1    1    2  504  501  0.70024952808E+02  0.29538463849E+02  0.11564506039E+03  0.13838278381E+03  0.00000000000E+00 0. -1.
         21    1    1    2  505  504  0.11261388671E+03 -0.22345997728E+02 -0.35569802675E+01  0.11486462990E+03  0.00000000000E+00 0. -1.
         -2    1    1    2    0  503 -0.15391457309E+03  0.16701802026E+02  0.44709215465E+03  0.47313850060E+03  0.00000000000E+00 0.  1.
<scales pt_clust_3="37.36334" pt_clust_4="71.15350" pt_clust_5="106.46959" pt_clust_6="14000.00000"></scales>
<clustering>
<clus scale="   37.363">  2  3  1 -1</clus>
<clus scale="   71.154">  1  4  2 -1</clus>
<clus scale="  106.470">  2  5  1 -1</clus>
<clus scale="   37.363">  2  3  1 -1</clus>
</clustering>
</event>
<event>
 6    0  0.2433432E+002  0.1088086E+03  0.7546771E-02  0.1262792E+00
          2   -1    0    0  504    0 -0.00000000000E+00  0.00000000000E+00  0.13931396899E+04  0.13931396899E+04  0.00000000000E+00 0.  1.
         21   -1    0    0  505  502  0.00000000000E+00 -0.00000000000E+00 -0.25064833855E+03  0.25064833855E+03  0.00000000000E+00 0. -1.
         21    1    1    2  503  501 -0.14040035458E+02 -0.64411276567E+02  0.81797186170E+02  0.10505577000E+03  0.00000000000E+00 0. -1.
         21    1    1    2  504  502  0.29741865974E+02  0.89803357247E+02 -0.20619494286E+03  0.22686025660E+03  0.00000000000E+00 0. -1.
         21    1    1    2  505  503 -0.39037546136E+02 -0.55949477998E+02  0.30237652661E+02  0.74622983960E+02  0.00000000000E+00 0. -1.
          2    1    1    2  501    0  0.23335715621E+02  0.30557397318E+02  0.12366514554E+04  0.12372490179E+04  0.00000000000E+00 0.  1.
<scales pt_clust_3="45.00000" pt_clust_4="97.00824" pt_clust_5="45.00000" pt_clust_6="38.44880"></scales>
<clustering>
<clus scale="   38.449">  1  6  2 -1</clus>
<clus scale="   45.000">  3  5 -1 -1</clus>
<clus scale="   97.008">  2  4  1 -1</clus>
<clus scale="   97.008">  2  3  1 -1</clus>
</clustering>
</event>
<event>
 6    0  0.2433432E+002  0.1597985E+03  0.7546771E-02  0.1188924E+00
         21   -1    0    0  505  502  0.00000000000E+00  0.00000000000E+00  0.41017099144E+03  0.41017099144E+03  0.00000000000E+00 0. -1.
          1   -1    0    0  503    0 -0.00000000000E+00 -0.00000000000E+00 -0.84360532183E+03  0.84360532183E+03  0.00000000000E+00 0.  1.
         21    1    1    2  503  504 -0.16778651342E+03  0.13719867288E+03 -0.42821426192E+02  0.22092864112E+03  0.00000000000E+00 0. -1.
         21    1    1    2  504  502  0.81963696200E+02 -0.18727362508E+02  0.29183702094E+03  0.30370645102E+03  0.00000000000E+00 0. -1.
         21    1    1    2  505  501 -0.32094506080E+02 -0.19068047692E+02 -0.91946276962E+01  0.38447222809E+02  0.00000000000E+00 0.  1.
          1    1    1    2  501    0  0.11791732330E+03 -0.99403262677E+02 -0.67325529745E+03  0.69069399832E+03  0.00000000000E+00 0.  1.
<scales pt_clust_3="159.79852" pt_clust_4="66.59993" pt_clust_5="37.33159" pt_clust_6="14000.00000"></scales>
<clustering>
<clus scale="   37.332">  1  5  2 -1</clus>
<clus scale="   66.600">  1  4  2 -1</clus>
<clus scale="  159.799">  1  3  2 -1</clus>
<clus scale="   37.332">  1  3  2 -1</clus>
</clustering>
</event>
<event>
 6    0  0.2433432E+002  0.1705905E+03  0.7546771E-02  0.1177233E+00
         21   -1    0    0  503  502  0.00000000000E+00  0.00000000000E+00  0.84320415775E+03  0.84320415775E+03  0.00000000000E+00 0. -1.
          2   -1    0    0  504    0 -0.00000000000E+00 -0.00000000000E+00 -0.26606292744E+04  0.26606292744E+04  0.00000000000E+00 0.  1.
         21    1    1    2  503  505  0.55059246492E+02 -0.15217673816E+02  0.64129196008E+02  0.85881616201E+02  0.00000000000E+00 0. -1.
         21    1    1    2  504  502  0.50776002963E+01 -0.40977760881E+02  0.12314929285E+03  0.12988728668E+03  0.00000000000E+00 0. -1.
         21    1    1    2  505  501  0.11041212991E+03  0.45830971636E+02  0.63332466112E+03  0.64450868325E+03  0.00000000000E+00 0. -1.
          2    1    1    2  501    0 -0.17054897670E+03  0.10364463061E+02 -0.26380282667E+04  0.26435558461E+04  0.00000000000E+00 0.  1.
<scales pt_clust_3="58.91361" pt_clust_4="41.29115" pt_clust_5="14000.00000" pt_clust_6="170.59055"></scales>
<clustering>
<clus scale="   41.291">  1  4  2 -1</clus>
<clus scale="   58.914">  1  3  2 -1</clus>
<clus scale="  170.591">  2  6  1 -1</clus>
<clus scale="   41.291">  1  3  2 -1</clus>
</clustering>
</event>
<event>
 6    0  0.2433432E+002  0.1434557E+03  0.7546771E-02  0.1208753E+00
          1   -1    0    0  505    0 -0.00000000000E+00  0.00000000000E+00  0.47556203657E+03  0.47556203657E+03  0.00000000000E+00 0.  1.
         21   -1    0    0  503  502  0.00000000000E+00 -0.00000000000E+00 -0.22928087781E+03  0.22928087781E+03  0.00000000000E+00 0. -1.
         21    1    1    2  503  501 -0.68962712358E+02  0.10398311239E+03 -0.70685540855E+02  0.14340428531E+03  0.00000000000E+00 0. -1.
         21    1    1    2  504  502  0.11201687744E+03 -0.84767258679E+01 -0.49185766932E+02  0.12263309252E+03  0.00000000000E+00 0. -1.
         21    1    1    2  505  504  0.47967754055E+02 -0.35195266201E+02  0.29748893303E+01  0.59568969763E+02  0.00000000000E+00 0. -1.
          1    1    1    2  501    0 -0.91021919134E+02 -0.60311120323E+02  0.36317757721E+03  0.37923656679E+03  0.00000000000E+00 0.  1.
<scales pt_clust_3="130.45962" pt_clust_4="43.42015" pt_clust_5="43.42015" pt_clust_6="109.18984"></scales>
<clustering>
<clus scale="   43.420">  4  5 -1 -1</clus>
<clus scale="  109.190">  1  6  2 -1</clus>
<clus scale="  130.460">  2  3  1 -1</clus>
<clus scale="  130.460">  2  3  1 -1</clus>
</clustering>
</event>
<event>
 6    0  0.2433432E+002  0.8664955E+02  0.7546771E-02  0.1311174E+00
          1   -1    0    0  505    0 -0.00000000000E+00  0.00000000000E+00  0.21103504864E+03  0.21103504864E+03  0.00000000000E+00 0.  1.
         21   -1    0    0  504  502  0.00000000000E+00 -0.00000000000E+00 -0.14458566225E+03  0.14458566225E+03  0.00000000000E+00 0. -1.
         21    1    1    2  503  502  0.33139295755E+02  0.13732639250E+02 -0.16904783124E+02  0.39655642680E+02  0.00000000000E+00 0. -1.
         21    1    1    2  504  501 -0.82590594062E+02 -0.45219481705E+02 -0.49384393983E+02  0.10632415587E+03  0.00000000000E+00 0. -1.
         21    1    1    2  505  503  0.84025304564E+01 -0.45906081782E+02 -0.44356208280E+01  0.46879052836E+02  0.00000000000E+00 0. -1.
          1    1    1    2  501    0  0.41048767851E+02  0.77392924237E+02  0.13717418432E+03  0.16276185950E+03  0.00000000000E+00 0.  1.
<scales pt_clust_3="35.87197" pt_clust_4="86.64955" pt_clust_5="45.66517" pt_clust_6="14000.00000"></scales>
<clustering>
<clus scale="   35.872">  2  3  1 -1</clus>
<clus scale="   45.665">  2  5  1 -1</clus>
<clus scale="   86.650">  2  4  1 -1</clus>
<clus scale="   35.872">  2  3  1 -1</clus>
</clustering>
</event>
<event>
 6    0  0.2433432E+002  0.6900022E+02  0.7546771E-02  0.1363526E+00
          2   -1    0    0  503    0 -0.00000000000E+00  0.00000000000E+00  0.27361393240E+04  0.27361393240E+04  0.00000000000E+00 0. -1.
         21   -1    0    0  504  502  0.00000000000E+00 -0.00000000000E+00 -0.56402245289E+03  0.56402245289E+03  0.00000000000E+00 0. -1.
         21    1    1    2  503  505 -0.24640418027E+01  0.57218248972E+02  0.43543750352E+02  0.71944824082E+02  0.00000000000E+00 0. -1.
         21    1    1    2  504  501  0.69688434698E+02 -0.96347067481E+02 -0.87920632172E+02  0.14788263219E+03  0.00000000000E+00 0. -1.
         21    1    1    2  505  502  0.17704681379E+01  0.40111197023E+02 -0.43053664168E+03  0.43240472073E+03  0.00000000000E+00 0. -1.
          2    1    1    2  501    0 -0.68994861033E+02 -0.98237851419E+00  0.26470303946E+04  0.26479295999E+04  0.00000000000E+00 0. -1.
<scales pt_clust_3="61.55747" pt_clust_4="14000.00000" pt_clust_5="40.15025" pt_clust_6="69.00022"></scales>
<clustering>
<clus scale="   40.150">  2  5  1 -1</clus>
<clus scale="   61.557">  2  3  1 -1</clus>
<clus scale="   69.000">  1  6  2 -1</clus>
<clus scale="   40.150">  2  3  1 -1</clus>
</clustering>
</event>
<event>
 6    0  0.2433432E+002  0.3450042E+03  0.7546771E-02  0.1064684E+00
         21   -1    0    0  503  502  0.00000000000E+00  0.00000000000E+00  0.87311820661E+02  0.87311820661E+02  0.00000000000E+00 0.  1.
          2   -1    0    0  504    0 -0.00000000000E+00 -0.00000000000E+00 -0.20043856072E+04  0.20043856072E+04  0.00000000000E+00 0.  1.
         21    1    1    2  503  501  0.30591518817E+02 -0.28232316505E+02 -0.25232346379E+02  0.48678291081E+02  0.00000000000E+00 0. -1.
         21    1    1    2  504  505 -0.27957787652E+02  0.29585285484E+02 -0.96670509035E+02  0.10489096398E+03  0.00000000000E+00 0.  1.
         21    1    1    2  505  502 -0.31939592543E+03  0.70338190576E+02 -0.46248408492E+03  0.56643865250E+03  0.00000000000E+00 0.  1.
          2    1    1    2  501    0  0.31676219426E+03 -0.71691159554E+02 -0.13326868462E+04  0.13716895203E+04  0.00000000000E+00 0.  1.
<scales pt_clust_3="41.62817" pt_clust_4="30.32844" pt_clust_5="30.32844" pt_clust_6="334.12216"></scales>
<clustering>
<clus scale="   30.328">  4  5 -1 -1</clus>
<clus scale="   41.628">  1  3  2 -1</clus>
<clus scale="  334.122">  2  6  1 -1</clus>
<clus scale="   41.628">  1  3  2 -1</clus>
</clustering>
</event>
<event>
 6    0  0.2433432E+002  0.1457920E+03  0.7546771E-02  0.1205741E+00
         21   -1    0    0  505  502  0.00000000000E+00  0.00000000000E+00  0.71851404367E+02  0.71851404367E+02  0.00000000000E+00 0. -1.
         -1   -1    0    0    0  501 -0.00000000000E+00 -0.00000000000E+00 -0.36508872981E+03  0.36508872981E+03  0.00000000000E+00 0. -1.
         21    1    1    2  503  502  0.14950929111E+02 -0.71199605920E+02 -0.10131063279E+03  0.12472673523E+03  0.00000000000E+00 0. -1.
         21    1    1    2  504  503  0.41366900018E+02 -0.45899765019E+02 -0.24699579111E+02  0.66543805528E+02  0.00000000000E+00 0. -1.
         21    1    1    2  505  501 -0.87567050117E+02  0.10361631913E+03 -0.94376564868E+02  0.16526120493E+03  0.00000000000E+00 0. -1.
         -1    1    1    2    0  504  0.31249220989E+02  0.13483051805E+02 -0.72850548669E+02  0.80408388491E+02  0.00000000000E+00 0. -1.
<scales pt_clust_3="58.43994" pt_clust_4="58.43994" pt_clust_5="132.03565" pt_clust_6="34.03390"></scales>
<clustering>
<clus scale="   34.034">  2  6  1 -1</clus>
<clus scale="   58.440">  3  4 -1 -1</clus>
<clus scale="  132.036">  1  5  2 -1</clus>
<clus scale="  132.036">  1  3  2 -1</clus>
</clustering>
</event>
<event>
 6    0  0.2433432E+002  0.5677446E+03  0.7546771E-02  0.9974682E-01
         -1   -1    0    0    0  501 -0.00000000000E+00  0.00000000000E+00  0.15255497331E+04  0.15255497331E+04  0.00000000000E+00 0.  1.
         21   -1    0    0  501  502  0.00000000000E+00 -0.00000000000E+00 -0.36705262060E+03  0.36705262060E+03  0.00000000000E+00 0.  1.
         21    1    1    2  503  504  0.15571742888E+02  0.19907067908E+03 -0.63530215510E+01  0.19977981712E+03  0.00000000000E+00 0.  1.
         21    1    1    2  504  502  0.10728135010E+02  0.12838569366E+03 -0.10672794335E+03  0.16729863451E+03  0.00000000000E+00 0.  1.
         21    1    1    2  505  503 -0.75082317322E+02  0.18194968662E+03  0.52981065505E+02  0.20383825975E+03  0.00000000000E+00 0.  1.
         -1    1    1    2    0  505  0.48782439424E+02 -0.50940605936E+03  0.12185970119E+04  0.13216856423E+04  0.00000000000E+00 0.  1.
<scales pt_clust_3="156.42632" pt_clust_4="95.17661" pt_clust_5="156.42632" pt_clust_6="511.73651"></scales>
<clustering>
<clus scale="   95.177">  3  4 -1 -1</clus>
<clus scale="  156.426">  3  5 -1 -1</clus>
<clus scale="  511.737">  1  6  2 -1</clus>
<clus scale="  567.745">  2  3  1 -1</clus>
</clustering>
</event>
<event>
 6    0  0.2433432E+002  0.6169747E+02  0.7546771E-02  0.1390843E+00
         21   -1    0    0  501  502  0.00000000000E+00  0.00000000000E+00  0.31066146000E+03  0.31066146000E+03  0.00000000000E+00 0.  1.
          2   -1    0    0  504    0 -0.00000000000E+00 -0.00000000000E+00 -0.23919891360E+04  0.23919891360E+04  0.00000000000E+00 0.  1.
         21    1    1    2  503  502 -0.60768751921E+02  0.35171898346E+01  0.28348087246E+03  0.28994243719E+03  0.00000000000E+00 0.  1.
         21    1    1    2  504  505  0.24069509593E+02  0.45544882586E+02 -0.99589740585E+02  0.11212401193E+03  0.00000000000E+00 0.  1.
         21    1    1    2  505  503  0.98741528118E+02 -0.21986760606E+02 -0.13206461192E+03  0.16635615029E+03  0.00000000000E+00 0.  1.
          2    1    1    2  501    0 -0.62042285790E+02 -0.27075311814E+02 -0.21331541959E+04  0.21342279966E+04  0.00000000000E+00 0.  1.
<scales pt_clust_3="14000.00000" pt_clust_4="51.51386" pt_clust_5="61.69747" pt_clust_6="42.48015"></scales>
<clustering>
<clus scale="   51.514">  2  4  1 -1</clus>
<clus scale="   42.480">  2  6  1 -1</clus>
<clus scale="   61.697">  2  5  1 -1</clus>
<clus scale="   61.697">  1  3  2 -1</clus>
</clustering>
</event>
<event>
 6    0  0.2433432E+002  0.1173133E+03  0.7546771E-02  0.1247596E+00
         21   -1    0    0  505  502  0.00000000000E+00  0.00000000000E+00  0.29443216005E+02  0.29443216005E+02  0.00000000000E+00 0. -1.
          1   -1    0    0  504    0 -0.00000000000E+00 -0.00000000000E+00 -0.16140548821E+04  0.16140548821E+04  0.00000000000E+00 0. -1.
         21    1    1    2  503  502 -0.44045761130E+02  0.26457352873E+02 -0.66169714806E+02  0.83776200392E+02  0.00000000000E+00 0. -1.
         21    1    1    2  504  503 -0.90446894317E+02 -0.40156312148E+02 -0.21202947090E+03  0.23398646676E+03  0.00000000000E+00 0. -1.
         21    1    1    2  505  501  0.36066849275E+02 -0.61286474211E+02 -0.19695743685E+03  0.20940172270E+03  0.00000000000E+00 0. -1.
          1    1    1    2  501    0  0.98425806172E+02  0.74985433486E+02 -0.11094550436E+04  0.11163337083E+04  0.00000000000E+00 0. -1.
<scales pt_clust_3="51.38113" pt_clust_4="117.31331" pt_clust_5="57.97716" pt_clust_6="14000.00000"></scales>
<clustering>
<clus scale="   51.381">  1  3  2 -1</clus>
<clus scale="   57.977">  1  5  2 -1</clus>
<clus scale="  117.313">  1  4  2 -1</clus>
<clus scale="   51.381">  1  3  2 -1</clus>
</clustering>
</event>
<event>
 6    0  0.2433432E+002  0.9280079E+02  0.7546771E-02  0.1296208E+00
          2   -1    0    0  505    0 -0.00000000000E+00  0.00000000000E+00  0.17352613306E+04  0.17352613306E+04  0.00000000000E+00 0.  1.
         21   -1    0    0  504  502  0.00000000000E+00 -0.00000000000E+00 -0.41022657944E+02  0.41022657944E+02  0.00000000000E+00 0. -1.
         21    1    1    2  503  502  0.61258227920E+02 -0.85026054462E+01  0.24023649936E+03  0.24806942660E+03  0.00000000000E+00 0. -1.
         21    1    1    2  504  501 -0.10150432866E+03 -0.26553071090E+02  0.52303228609E+02  0.11723404814E+03  0.00000000000E+00 0. -1.
         21    1    1    2  505  503  0.72280941533E+01 -0.50373377141E+02  0.22319202119E+03  0.22892007512E+03  0.00000000000E+00 0. -1.
          2    1    1    2  501    0  0.33018006589E+02  0.85429053677E+02  0.11785069235E+04  0.11820604387E+04  0.00000000000E+00 0.  1.
<scales pt_clust_3="92.80079" pt_clust_4="14000.00000" pt_clust_5="50.88932" pt_clust_6="60.12138"></scales>
<clustering>
<clus scale="   50.889">  1  5  2 -1</clus>
<clus scale="   60.121">  1  6  2 -1</clus>
<clus scale="   92.801">  1  3  2 -1</clus>
<clus scale="   92.801">  2  3  1 -1</clus>
</clustering>
</event>
<event>
 6    0  0.2433432E+002  0.1067767E+03  0.7546771E-02  0.1266658E+00
          1   -1    0    0  505    0 -0.00000000000E+00  0.00000000000E+00  0.91685652379E+03  0.91685652379E+03  0.00000000000E+00 0. -1.
         21   -1    0    0  504  502  0.00000000000E+00 -0.00000000000E+00 -0.11670407503E+03  0.11670407503E+03  0.00000000000E+00 0. -1.
         21    1    1    2  503  501 -0.52037499595E+02 -0.10087290424E+03  0.35106051565E+03  0.36895356052E+03  0.00000000000E+00 0. -1.
         21    1    1    2  504  503  0.11234274608E+03  0.24274153488E+02 -0.52630619097E+02  0.12641245663E+03  0.00000000000E+00 0. -1.
         21    1    1    2  505  502 -0.17589885466E+02 -0.35042380304E+02  0.24511357553E+02  0.46240449145E+02  0.00000000000E+00 0. -1.
          1    1    1    2  501    0 -0.42715361017E+02  0.11164113105E+03  0.47721119465E+03  0.49195413253E+03  0.00000000000E+00 0. -1.
<scales pt_clust_3="106.77674" pt_clust_4="97.61239" pt_clust_5="39.20934" pt_clust_6="14000.00000"></scales>
<clustering>
<clus scale="   39.209">  2  5  1 -1</clus>
<clus scale="   97.612">  2  4  1 -1</clus>
<clus scale="  106.777">  2  3  1 -1</clus>
<clus scale="   39.209">  2  3  1 -1</clus>
</clustering>
</event>
<event>
 6    0  0.2433432E+002  0.1239928E+03  0.7546771E-02  0.1236652E+00
          2   -1    0    0  503    0 -0.00000000000E+00  0.00000000000E+00  0.15316559638E+04  0.15316559638E+04  0.00000000000E+00 0. -1.
         21   -1    0    0  504  502  0.00000000000E+00 -0.00000000000E+00 -0.32537524663E+03  0.32537524663E+03  0.00000000000E+00 0.  1.
         21    1    1    2  503  505 -0.83877621421E+02 -0.51609173627E+02 -0.85069126443E+02  0.13013730615E+03  0.00000000000E+00 0.  1.
         21    1    1    2  504  501 -0.87597789611E+01 -0.47020277426E+02 -0.18991630828E+03  0.19584648164E+03  0.00000000000E+00 0.  1.
         21    1    1    2  505  502 -0.15293713143E+02  0.36347838464E+02 -0.48362360610E+01  0.39729739515E+02  0.00000000000E+00 0.  1.
          2    1    1    2  501    0  0.10793111353E+03  0.62281612589E+02  0.14861023880E+04  0.14913176832E+04  0.00000000000E+00 0. -1.
<scales pt_clust_3="123.99277" pt_clust_4="30.21036" pt_clust_5="39.43429" pt_clust_6="14000.00000"></scales>
<clustering>
<clus scale="   39.434">  2  5  1 -1</clus>
<clus scale="   30.210">  2  4  1 -1</clus>
<clus scale="  123.993">  2  3  1 -1</clus>
<clus scale="   39.434">  2  3  1 -1</clus>
</clustering>
</event>
<event>
 6    0  0.2433432E+002  0.1143507E+03  0.7546771E-02  0.1252719E+00
         -2   -1    0    0    0  501 -0.00000000000E+00  0.00000000000E+00  0.36119960303E+03  0.36119960303E+03  0.00000000000E+00 0.  1.
         21   -1    0    0  504  502  0.00000000000E+00 -0.00000000000E+00 -0.24577866055E+03  0.24577866055E+03  0.00000000000E+00 0.  1.
         21    1    1    2  503  505  0.82774565735E+02  0.37955605753E+02  0.13111148300E+02  0.92000863857E+02  0.00000000000E+00 0.  1.
         21    1    1    2  504  503 -0.91827916223E+02 -0.39758087397E+02 -0.16975635852E+03  0.19705403565E+03  0.00000000000E+00 0.  1.
         21    1    1    2  505  501  0.68318395077E+02  0.19046511960E+02  0.48319260306E+02  0.85819133299E+02  0.00000000000E+00 0.  1.
         -2    1    1    2    0  502 -0.59265044588E+02 -0.17244030316E+02  0.22374689238E+03  0.23210423077E+03  0.00000000000E+00 0.  1.
<scales pt_clust_3="37.10738" pt_clust_4="106.33975" pt_clust_5="37.10738" pt_clust_6="61.72278"></scales>
<clustering>
<clus scale="   37.107">  3  5 -1 -1</clus>
<clus scale="   61.723">  1  6  2 -1</clus>
<clus scale="  106.340">  2  4  1 -1</clus>
<clus scale="  106.340">  2  3  1 -1</clus>
</clustering>
</event>
<event>
 6    0  0.2433432E+002  0.9411136E+02  0.7546771E-02  0.1293190E+00
         21   -1    0    0  503  502  0.00000000000E+00  0.00000000000E+00  0.21952632795E+03  0.21952632795E+03  0.00000000000E+00 0. -1.
         -2   -1    0    0    0  501 -0.00000000000E+00 -0.00000000000E+00 -0.27175183042E+03  0.27175183042E+03  0.00000000000E+00 0. -1.
         21    1    1    2  503  504  0.37052405363E+02  0.62700854970E+02  0.96667187740E+02  0.12103232272E+03  0.00000000000E+00 0. -1.
         21    1    1    2  504  505 -0.33016825381E+02 -0.60833356831E+02  0.50897173533E+02  0.85914668918E+02  0.00000000000E+00 0. -1.
         21    1    1    2  505  501 -0.26759136070E+02 -0.60892463494E+02  0.81267673444E+01  0.67007371393E+02  0.00000000000E+00 0. -1.
         -2    1    1    2    0  502  0.22723556088E+02  0.59024965355E+02 -0.20791663109E+03  0.21732379534E+03  0.00000000000E+00 0. -1.
<scales pt_clust_3="85.70860" pt_clust_4="38.10484" pt_clust_5="38.10484" pt_clust_6="63.24798"></scales>
<clustering>
<clus scale="   38.105">  4  5 -1 -1</clus>
<clus scale="   63.248">  2  6  1 -1</clus>
<clus scale="   85.709">  1  3  2 -1</clus>
<clus scale="   85.709">  1  3  2 -1</clus>
</clustering>
</event>
<event>
 6    0  0.2433432E+002  0.1197508E+03  0.7546771E-02  0.1243509E+00
         -2   -1    0    0    0  501 -0.00000000000E+00  0.00000000000E+00  0.28498235770E+03  0.28498235770E+03  0.00000000000E+00 0.  1.
         21   -1    0    0  505  502  0.00000000000E+00 -0.00000000000E+00 -0.59668870671E+03  0.59668870671E+03  0.00000000000E+00 0. -1.
         21    1    1    2  503  504 -0.44591619443E+02 -0.36453536735E+02 -0.12277569714E+03  0.13561395457E+03  0.00000000000E+00 0. -1.
         21    1    1    2  504  502 -0.52940510892E+02 -0.39680490335E+02 -0.25657484672E+03  0.26496771685E+03  0.00000000000E+00 0. -1.
         21    1    1    2  505  501  0.54615346787E+02  0.91569749333E+02 -0.19084443819E+03  0.21860799319E+03  0.00000000000E+00 0.  1.
         -2    1    1    2    0  503  0.42916783549E+02 -0.15435722263E+02  0.25848863304E+03  0.26248139980E+03  0.00000000000E+00 0.  1.
<scales pt_clust_3="32.98669" pt_clust_4="32.98669" pt_clust_5="114.41296" pt_clust_6="45.60824"></scales>
<clustering>
<clus scale="   32.987">  3  4 -1 -1</clus>
<clus scale="   45.608">  1  6  2 -1</clus>
<clus scale="  114.413">  1  5  2 -1</clus>
<clus scale="  119.751">  2  3  1 -1</clus>
</clustering>
</event>
<event>
 6    0  0.2433432E+002  0.1108096E+03  0.7546771E-02  0.1259078E+00
         -2   -1    0    0    0  501 -0.00000000000E+00  0.00000000000E+00  0.97944158584E+03  0.97944158584E+03  0.00000000000E+00 0.  1.
         21   -1    0    0  505  502  0.00000000000E+00 -0.00000000000E+00 -0.10158438772E+03  0.10158438772E+03  0.00000000000E+00 0.  1.
         21    1    1    2  503  501 -0.80617811736E+02  0.25563024753E+02  0.19813015474E+03  0.21542575988E+03  0.00000000000E+00 0.  1.
         21    1    1    2  504  502  0.12439476237E+03 -0.61313409918E+02  0.98670248919E+02  0.17020343464E+03  0.00000000000E+00 0.  1.
         21    1    1    2  505  503  0.38322565523E+01  0.74329568715E+02 -0.30748943268E+02  0.80529922934E+02  0.00000000000E+00 0.  1.
         -2    1    1    2    0  504 -0.47609207189E+02 -0.38579183550E+02  0.61180573773E+03  0.61486685611E+03  0.00000000000E+00 0.  1.
<scales pt_clust_3="14000.00000" pt_clust_4="110.80957" pt_clust_5="71.70915" pt_clust_6="61.27797"></scales>
<clustering>
<clus scale="   61.278">  1  6  2 -1</clus>
<clus scale="   71.709">  2  5  1 -1</clus>
<clus scale="  110.810">  2  4  1 -1</clus>
<clus scale="   71.709">  2  3  1 -1</clus>
</clustering>
</event>
<event>
 6    0  0.2433432E+002  0.9520338E+02  0.7546771E-02  0.1290719E+00
          1   -1    0    0  503    0 -0.00000000000E+00  0.00000000000E+00  0.27373284423E+04  0.27373284423E+04  0.00000000000E+00 0. -1.
         21   -1    0    0  504  502  0.00000000000E+00 -0.00000000000E+00 -0.23345409858E+03  0.23345409858E+03  0.00000000000E+00 0.  1.
         21    1    1    2  503  505  0.65050767118E+02 -0.10852090986E+03  0.32598024755E+03  0.34967343618E+03  0.00000000000E+00 0.  1.
         21    1    1    2  504  501  0.34194916305E+02  0.31664297939E+02  0.98105039261E+02  0.10861178018E+03  0.00000000000E+00 0.  1.
         21    1    1    2  505  502 -0.84589592601E+02  0.42834429917E+02 -0.20580854980E+03  0.22659952942E+03  0.00000000000E+00 0.  1.
          1    1    1    2  501    0 -0.14656090823E+02  0.34022181999E+02  0.22855976067E+04  0.22858977951E+04  0.00000000000E+00 0. -1.
<scales pt_clust_3="95.20338" pt_clust_4="50.07534" pt_clust_5="14000.00000" pt_clust_6="37.04470"></scales>
<clustering>
<clus scale="   37.045">  1  6  2 -1</clus>
<clus scale="   50.075">  1  4  2 -1</clus>
<clus scale="   95.203">  1  3  2 -1</clus>
<clus scale="   95.203">  2  3  1 -1</clus>
</clustering>
</event>
<event>
 6    0  0.2433432E+002  0.1425271E+03  0.7546771E-02  0.1209968E+00
         -2   -1    0    0    0  501 -0.00000000000E+00  0.00000000000E+00  0.17055187014E+04  0.17055187014E+04  0.00000000000E+00 0.  1.
         21   -1    0    0  505  502  0.00000000000E+00 -0.00000000000E+00 -0.91123345838E+02  0.91123345838E+02  0.00000000000E+00 0.  1.
         21    1    1    2  503  504  0.13750106445E+03 -0.31670994437E+02  0.41033929306E+03  0.43392157130E+03  0.00000000000E+00 0.  1.
         21    1    1    2  504  502 -0.24505756764E+02  0.17687109134E+03  0.67783394184E+02  0.19099346479E+03  0.00000000000E+00 0.  1.
         21    1    1    2  505  501 -0.45043535122E+02 -0.35189080677E+02  0.44805820765E+02  0.72627494997E+02  0.00000000000E+00 0.  1.
         -2    1    1    2    0  503 -0.67951772564E+02 -0.11001101622E+03  0.10914668475E+04  0.10990995161E+04  0.00000000000E+00 0.  1.
<scales pt_clust_3="14000.00000" pt_clust_4="142.52711" pt_clust_5="57.15935" pt_clust_6="131.95868"></scales>
<clustering>
<clus scale="   57.159">  2  5  1 -1</clus>
<clus scale="  131.959">  1  6  2 -1</clus>
<clus scale="  142.527">  2  4  1 -1</clus>
<clus scale="   57.159">  2  3  1 -1</clus>
</clustering>
</event>
<event>
 6    0  0.2433432E+002  0.8823160E+02  0.7546771E-02  0.1307192E+00
          2   -1    0    0  505    0 -0.00000000000E+00  0.00000000000E+00  0.98068953607E+03  0.98068953607E+03  0.00000000000E+00 0. -1.
         21   -1    0    0  503  502  0.00000000000E+00 -0.00000000000E+00 -0.29217983092E+02  0.29217983092E+02  0.00000000000E+00 0.  1.
         21    1    1    2  503  504  0.24285511547E+02  0.64539622912E+02  0.11520731413E+03  0.13426791957E+03  0.00000000000E+00 0.  1.
         21    1    1    2  504  501  0.28512758663E+01 -0.11260596494E+03  0.40097089332E+03  0.41649236536E+03  0.00000000000E+00 0. -1.
         21    1    1    2  505  502 -0.52859070302E+02  0.29744772964E+02  0.70546050316E+02  0.93035359122E+02  0.00000000000E+00 0.  1.
          2    1    1    2  501    0  0.25722282889E+02  0.18321569065E+02  0.36474729520E+03  0.36611187510E+03  0.00000000000E+00 0. -1.
<scales pt_clust_3="88.23160" pt_clust_4="14000.00000" pt_clust_5="58.99029" pt_clust_6="31.58031"></scales>
<clustering>
<clus scale="   31.580">  1  6  2 -1</clus>
<clus scale="   58.990">  2  5  1 -1</clus>
<clus scale="   88.232">  2  3  1 -1</clus>
<clus scale="   58.990">  2  3  1 -1</clus>
</clustering>
</event>
<event>
 6    0  0.2433432E+002  0.1421744E+03  0.7546771E-02  0.1210433E+00
         21   -1    0    0  504  502  0.00000000000E+00  0.00000000000E+00  0.17911179893E+03  0.17911179893E+03  0.00000000000E+00 0.  1.
         -4   -1    0    0    0  501 -0.00000000000E+00 -0.00000000000E+00 -0.26910071783E+04  0.26910071783E+04  0.00000000000E+00 0.  1.
         21    1    1    2  503  502  0.21606754196E+01  0.55494693178E+02 -0.17241776092E+02  0.58151597845E+02  0.00000000000E+00 0.  1.
         21    1    1    2  504  501 -0.15548136061E+03  0.48244011605E+01  0.58687831368E+02  0.16625880396E+03  0.00000000000E+00 0.  1.
         21    1    1    2  505  503  0.12490750757E+03  0.37836147550E+01 -0.39743066225E+02  0.13113242353E+03  0.00000000000E+00 0.  1.
         -4    1    1    2    0  505  0.28413177613E+02 -0.64102709093E+02 -0.25135983684E+04  0.25145761519E+04  0.00000000000E+00 0.  1.
<scales pt_clust_3="55.53674" pt_clust_4="142.17442" pt_clust_5="14000.00000" pt_clust_6="69.96392"></scales>
<clustering>
<clus scale="   55.537">  1  3  2 -1</clus>
<clus scale="   69.964">  2  6  1 -1</clus>
<clus scale="  142.174">  1  4  2 -1</clus>
<clus scale="   55.537">  1  3  2 -1</clus>
</clustering>
</event>
<event>
 6    0  0.2433432E+002  0.2165870E+03  0.7546771E-02  0.1136453E+00
          3   -1    0    0  502    0 -0.00000000000E+00  0.00000000000E+00  0.22235565245E+04  0.22235565245E+04  0.00000000000E+00 0. -1.
         21   -1    0    0  503  502  0.00000000000E+00 -0.00000000000E+00 -0.24126041167E+03  0.24126041167E+03  0.00000000000E+00 0.  1.
         21    1    1    2  503  504 -0.19177532524E+03 -0.54708840137E+01 -0.94665028311E+02  0.21393731214E+03  0.00000000000E+00 0.  1.
         21    1    1    2  504  505  0.14915221269E+03  0.45239437292E+02  0.13285548491E+03  0.20480129177E+03  0.00000000000E+00 0.  1.
         21    1    1    2  505  501  0.19705020294E+03  0.16510128707E+02  0.15985552284E+03  0.25427377964E+03  0.00000000000E+00 0.  1.
          3    1    1    2  501    0 -0.15442709040E+03 -0.56278681985E+02  0.17842501334E+04  0.17918045526E+04  0.00000000000E+00 0. -1.
<scales pt_clust_3="213.32807" pt_clust_4="33.23162" pt_clust_5="33.23162" pt_clust_6="164.36245"></scales>
<clustering>
<clus scale="   33.232">  4  5 -1 -1</clus>
<clus scale="  164.362">  1  6  2 -1</clus>
<clus scale="  213.328">  2  3  1 -1</clus>
<clus scale="  213.328">  2  3  1 -1</clus>
</clustering>
</event>
<event>
 6    0  0.2433432E+002  0.8931479E+02  0.7546771E-02  0.1304520E+00
          2   -1    0    0  503    0 -0.00000000000E+00  0.00000000000E+00  0.10789997685E+04  0.10789997685E+04  0.00000000000E+00 0.  1.
         21   -1    0    0  504  502  0.00000000000E+00 -0.00000000000E+00 -0.74868774579E+03  0.74868774579E+03  0.00000000000E+00 0.  1.
         21    1    1    2  503  505 -0.45393102842E+02  0.23661092738E+02  0.39588589002E+02  0.64711957739E+02  0.00000000000E+00 0.  1.
         21    1    1    2  504  501 -0.87174998396E+02 -0.83564113747E+02  0.21320481609E+03  0.24502802912E+03  0.00000000000E+00 0.  1.
         21    1    1    2  505  502  0.83862655499E+02  0.29982753128E+02 -0.71642967664E+03  0.72194417516E+03  0.00000000000E+00 0.  1.
          2    1    1    2  501    0  0.48705445740E+02  0.29920267881E+02  0.79394829424E+03  0.79600335226E+03  0.00000000000E+00 0.  1.
<scales pt_clust_3="51.18966" pt_clust_4="14000.00000" pt_clust_5="89.31479" pt_clust_6="50.10878"></scales>
<clustering>
<clus scale="   51.190">  1  3  2 -1</clus>
<clus scale="   50.109">  1  6  2 -1</clus>
<clus scale="   89.315">  2  5  1 -1</clus>
<clus scale="   89.315">  2  3  1 -1</clus>
</clustering>
</event>
<event>
 6    0  0.2433432E+002  0.8365402E+02  0.7546771E-02  0.1318990E+00
         -1   -1    0    0    0  501 -0.00000000000E+00  0.00000000000E+00  0.96432643848E+03  0.96432643848E+03  0.00000000000E+00 0.  1.
         21   -1    0    0  504  502  0.00000000000E+00 -0.00000000000E+00 -0.47161483515E+02  0.47161483515E+02  0.00000000000E+00 0.  1.
         21    1    1    2  503  505 -0.13310921553E+02  0.96498911596E+02  0.71553518343E+02  0.12086821981E+03  0.00000000000E+00 0.  1.
         21    1    1    2  504  503 -0.35210271855E+02 -0.39525481309E+02  0.36423675314E+02  0.64255046808E+02  0.00000000000E+00 0. -1.
         21    1    1    2  505  501 -0.18256172953E+02  0.38711451300E+02  0.12080264820E+03  0.12816061847E+03  0.00000000000E+00 0.  1.
         -1    1    1    2    0  502  0.66777366361E+02 -0.95684881587E+02  0.68838511310E+03  0.69820403692E+03  0.00000000000E+00 0.  1.
<scales pt_clust_3="83.65402" pt_clust_4="51.98310" pt_clust_5="42.80028" pt_clust_6="14000.00000"></scales>
<clustering>
<clus scale="   42.800">  1  5  2 -1</clus>
<clus scale="   51.983">  2  4  1 -1</clus>
<clus scale="   83.654">  2  3  1 -1</clus>
<clus scale="   51.983">  2  3  1 -1</clus>
</clustering>
</event>
<event>
 6    0  0.2433432E+002  0.1529763E+03  0.7546771E-02  0.1196863E+00
         21   -1    0    0  504  502  0.00000000000E+00  0.00000000000E+00  0.53585597632E+03  0.53585597632E+03  0.00000000000E+00 0.  1.
          2   -1    0    0  505    0 -0.00000000000E+00 -0.00000000000E+00 -0.35826809799E+04  0.35826809799E+04  0.00000000000E+00 0.  1.
         21    1    1    2  503  501  0.60779461423E+02 -0.11330848283E+03 -0.69155044962E+02  0.14599786113E+03  0.00000000000E+00 0. -1.
         21    1    1    2  504  503  0.18606891842E+02 -0.27872040819E+02  0.49360118050E+03  0.49473749855E+03  0.00000000000E+00 0.  1.
         21    1    1    2  505  502  0.19036573278E+02  0.10627053223E+03 -0.18984069768E+04  0.19014743929E+04  0.00000000000E+00 0. -1.
          2    1    1    2  501    0 -0.98422926544E+02  0.34909991413E+02 -0.15728641623E+04  0.15763272037E+04  0.00000000000E+00 0.  1.
<scales pt_clust_3="152.97626" pt_clust_4="33.51219" pt_clust_5="14000.00000" pt_clust_6="103.31869"></scales>
<clustering>
<clus scale="   33.512">  1  4  2 -1</clus>
<clus scale="  103.319">  2  6  1 -1</clus>
<clus scale="  152.976">  1  3  2 -1</clus>
<clus scale="   33.512">  1  3  2 -1</clus>
</clustering>
</event>
<event>
 6    0  0.2433432E+002  0.1088898E+03  0.7546771E-02  0.1262640E+00
         -3   -1    0    0    0  501 -0.00000000000E+00  0.00000000000E+00  0.19917904088E+02  0.19917904088E+02  0.00000000000E+00 0.  1.
         21   -1    0    0  505  502  0.00000000000E+00 -0.00000000000E+00 -0.93011661671E+03  0.93011661671E+03  0.00000000000E+00 0.  1.
         21    1    1    2  503  501  0.50853412833E+02 -0.76639775774E+02 -0.25226539006E+03  0.26850987291E+03  0.00000000000E+00 0.  1.
         21    1    1    2  504  502 -0.42704336175E+01  0.61181800250E+02 -0.25317792573E+03  0.26050050165E+03  0.00000000000E+00 0.  1.
         21    1    1    2  505  503 -0.15187420479E+02 -0.43419080821E+02 -0.21539238825E+03  0.22024930247E+03  0.00000000000E+00 0.  1.
         -3    1    1    2    0  504 -0.31395558737E+02  0.58877056345E+02 -0.18936300858E+03  0.20077484377E+03  0.00000000000E+00 0.  1.
<scales pt_clust_3="103.00832" pt_clust_4="33.84559" pt_clust_5="45.99863" pt_clust_6="33.84559"></scales>
<clustering>
<clus scale="   33.846">  4  6 -1 -1</clus>
<clus scale="   45.999">  2  5  1 -1</clus>
<clus scale="  103.008">  1  3  2 -1</clus>
<clus scale="   45.999">  2  3  1 -1</clus>
</clustering>
</event>
<event>
 6    0  0.2433432E+002  0.8347344E+02  0.7546771E-02  0.1319474E+00
         21   -1    0    0  501  502  0.00000000000E+00  0.00000000000E+00  0.14293667071E+04  0.14293667071E+04  0.00000000000E+00 0.  1.
          1   -1    0    0  505    0 -0.00000000000E+00 -0.00000000000E+00 -0.12467790321E+04  0.12467790321E+04  0.00000000000E+00 0. -1.
         21    1    1    2  503  504  0.15940048117E+01  0.11119285089E+03  0.88100825225E+03  0.88799883528E+03  0.00000000000E+00 0.  1.
         21    1    1    2  504  502  0.34069150727E+02 -0.40386817377E+02  0.42323351660E+03  0.42651894638E+03  0.00000000000E+00 0.  1.
         21    1    1    2  505  503 -0.11685752045E+03 -0.87447558800E+02  0.73629009226E+02  0.16347472779E+03  0.00000000000E+00 0.  1.
          1    1    1    2  501    0  0.81194364914E+02  0.16641525288E+02 -0.11952831031E+04  0.11981532297E+04  0.00000000000E+00 0. -1.
<scales pt_clust_3="81.96396" pt_clust_4="52.83751" pt_clust_5="14000.00000" pt_clust_6="83.47344"></scales>
<clustering>
<clus scale="   52.838">  1  4  2 -1</clus>
<clus scale="   81.964">  1  3  2 -1</clus>
<clus scale="   83.473">  2  6  1 -1</clus>
<clus scale="   52.838">  1  3  2 -1</clus>
</clustering>
</event>
<event>
 6    0  0.2433432E+002  0.1414673E+03  0.7546771E-02  0.1211368E+00
         21   -1    0    0  503  502  0.00000000000E+00  0.00000000000E+00  0.73714976810E+02  0.73714976810E+02  0.00000000000E+00 0.  1.
          2   -1    0    0  505    0 -0.00000000000E+00 -0.00000000000E+00 -0.88541012558E+03  0.88541012558E+03  0.00000000000E+00 0.  1.
         21    1    1    2  503  504  0.58370963050E+02  0.25219827370E+02 -0.23467680361E+02  0.67778617878E+02  0.00000000000E+00 0.  1.
         21    1    1    2  504  501  0.64852167530E+02  0.10140629261E+03 -0.10205916588E+03  0.15781353920E+03  0.00000000000E+00 0.  1.
         21    1    1    2  505  502 -0.52642533654E+02 -0.80468584652E+02 -0.90906777816E+02  0.13232713901E+03  0.00000000000E+00 0.  1.
          2    1    1    2  501    0 -0.70580596927E+02 -0.46157535331E+02 -0.59526152472E+03  0.60120580631E+03  0.00000000000E+00 0.  1.
<scales pt_clust_3="45.48653" pt_clust_4="45.48653" pt_clust_5="126.87114" pt_clust_6="84.33350"></scales>
<clustering>
<clus scale="   45.487">  3  4 -1 -1</clus>
<clus scale="   84.333">  2  6  1 -1</clus>
<clus scale="  126.871">  1  5  2 -1</clus>
<clus scale="  126.871">  1  3  2 -1</clus>
</clustering>
</event>
<event>
 6    0  0.2433432E+002  0.1211028E+03  0.7546771E-02  0.1241289E+00
          2   -1    0    0  504    0 -0.00000000000E+00  0.00000000000E+00  0.50822589369E+03  0.50822589369E+03  0.00000000000E+00 0. -1.
         21   -1    0    0  501  502  0.00000000000E+00 -0.00000000000E+00 -0.16839357134E+04  0.16839357134E+04  0.00000000000E+00 0.  1.
         21    1    1    2  503  505 -0.34801697884E+02  0.17155473624E+02 -0.71177550079E+03  0.71283226076E+03  0.00000000000E+00 0. -1.
         21    1    1    2  504  503  0.15047633511E+03  0.42340961787E+02  0.10694663234E+02  0.15668522679E+03  0.00000000000E+00 0. -1.
         21    1    1    2  505  502 -0.70406976333E+02 -0.34204825157E+02 -0.89533719296E+03  0.89875235826E+03  0.00000000000E+00 0.  1.
          2    1    1    2  501    0 -0.45267660888E+02 -0.25291610253E+02  0.42070821079E+03  0.42389176130E+03  0.00000000000E+00 0. -1.
<scales pt_clust_3="38.78181" pt_clust_4="107.85022" pt_clust_5="38.78181" pt_clust_6="51.85390"></scales>
<clustering>
<clus scale="   38.782">  3  5 -1 -1</clus>
<clus scale="   51.854">  1  6  2 -1</clus>
<clus scale="  107.850">  1  4  2 -1</clus>
<clus scale="  121.103">  2  3  1 -1</clus>
</clustering>
</event>
<event>
 6    0  0.2433432E+002  0.1408128E+03  0.7546771E-02  0.1212239E+00
         21   -1    0    0  503  502  0.00000000000E+00  0.00000000000E+00  0.22996387773E+02  0.22996387773E+02  0.00000000000E+00 0.  1.
          2   -1    0    0  505    0 -0.00000000000E+00 -0.00000000000E+00 -0.11156578024E+04  0.11156578024E+04  0.00000000000E+00 0.  1.
         21    1    1    2  503  501  0.10550276051E+02 -0.62865535122E+02 -0.28230272196E+03  0.28941010808E+03  0.00000000000E+00 0.  1.
         21    1    1    2  504  502  0.18158975602E+02  0.44304214666E+02 -0.60730754188E+02  0.77335867076E+02  0.00000000000E+00 0. -1.
         21    1    1    2  505  504 -0.12662522688E+02  0.87305713259E+02 -0.21137508105E+03  0.22904596032E+03  0.00000000000E+00 0.  1.
          2    1    1    2  501    0 -0.16046728965E+02 -0.68744392803E+02 -0.53825285742E+03  0.54286225470E+03  0.00000000000E+00 0.  1.
<scales pt_clust_3="42.65014" pt_clust_4="36.66497" pt_clust_5="36.66497" pt_clust_6="139.16115"></scales>
<clustering>
<clus scale="   36.665">  4  5 -1 -1</clus>
<clus scale="   42.650">  3  6 -1 -1</clus>
<clus scale="  139.161">  2  3  1 -1</clus>
<clus scale="  140.813">  1  3  2 -1</clus>
</clustering>
</event>
<event>
 6    0  0.2433432E+002  0.1207335E+03  0.7546771E-02  0.1241892E+00
          1   -1    0    0  505    0 -0.00000000000E+00  0.00000000000E+00  0.23841420332E+04  0.23841420332E+04  0.00000000000E+00 0. -1.
         21   -1    0    0  503  502  0.00000000000E+00 -0.00000000000E+00 -0.31792701102E+02  0.31792701102E+02  0.00000000000E+00 0. -1.
         21    1    1    2  503  504 -0.24498317655E+02 -0.18757778824E+02  0.10326500160E+03  0.10777607522E+03  0.00000000000E+00 0.  1.
         21    1    1    2  504  501 -0.93339026304E+02  0.45368717197E+02  0.49866836543E+03  0.50935315156E+03  0.00000000000E+00 0. -1.
         21    1    1    2  505  502  0.14620328738E+03 -0.72552964715E+01  0.19915989912E+03  0.24716938724E+03  0.00000000000E+00 0. -1.
          1    1    1    2  501    0 -0.28365943422E+02 -0.19355641901E+02  0.15512560660E+04  0.15516361203E+04  0.00000000000E+00 0. -1.
<scales pt_clust_3="30.85485" pt_clust_4="14000.00000" pt_clust_5="120.73353" pt_clust_6="34.53868"></scales>
<clustering>
<clus scale="   30.855">  2  3  1 -1</clus>
<clus scale="   34.539">  1  6  2 -1</clus>
<clus scale="  120.734">  2  5  1 -1</clus>
<clus scale="   30.855">  2  3  1 -1</clus>
</clustering>
</event>
<event>
 6    0  0.2433432E+002  0.1487614E+03  0.7546771E-02  0.1202003E+00
         21   -1    0    0  503  502  0.00000000000E+00  0.00000000000E+00  0.77876995898E+02  0.77876995898E+02  0.00000000000E+00 0. -1.
          4   -1    0    0  504    0 -0.00000000000E+00 -0.00000000000E+00 -0.13152168762E+04  0.13152168762E+04  0.00000000000E+00 0. -1.
         21    1    1    2  503  501 -0.16193326016E+02 -0.67254845639E+02 -0.91315940397E+02  0.11456019832E+03  0.00000000000E+00 0. -1.
         21    1    1    2  504  505  0.52587322892E+02 -0.80472836232E+02 -0.34912426892E+02  0.10227502849E+03  0.00000000000E+00 0. -1.
         21    1    1    2  505  502  0.76833515154E+02  0.37227563817E+02 -0.41354346376E+02  0.94865497009E+02  0.00000000000E+00 0.  1.
          4    1    1    2  501    0 -0.11322751203E+03  0.11050011805E+03 -0.10697571666E+04  0.10813931482E+04  0.00000000000E+00 0. -1.
<scales pt_clust_3="69.17686" pt_clust_4="148.76144" pt_clust_5="71.01156" pt_clust_6="14000.00000"></scales>
<clustering>
<clus scale="   69.177">  1  3  2 -1</clus>
<clus scale="   71.012">  1  5  2 -1</clus>
<clus scale="  148.761">  1  4  2 -1</clus>
<clus scale="   69.177">  1  3  2 -1</clus>
</clustering>
</event>
<event>
 6    0  0.2433432E+002  0.1106692E+03  0.7546771E-02  0.1259336E+00
          1   -1    0    0  504    0 -0.00000000000E+00  0.00000000000E+00  0.76880866822E+03  0.76880866822E+03  0.00000000000E+00 0. -1.
         21   -1    0    0  505  502  0.00000000000E+00 -0.00000000000E+00 -0.16364478893E+03  0.16364478893E+03  0.00000000000E+00 0. -1.
         21    1    1    2  503  501  0.78148397075E+02  0.66382459947E+01 -0.86328508648E+02  0.11663554210E+03  0.00000000000E+00 0. -1.
         21    1    1    2  504  502  0.44968289204E+02 -0.53508391858E+02  0.26020446555E+02  0.74581221981E+02  0.00000000000E+00 0. -1.
         21    1    1    2  505  503 -0.11548232498E+02  0.58231362182E+02 -0.67286352014E+01  0.59745524913E+02  0.00000000000E+00 0. -1.
          1    1    1    2  501    0 -0.11156845378E+03 -0.11361216318E+02  0.67220057659E+03  0.68149116816E+03  0.00000000000E+00 0. -1.
<scales pt_clust_3="110.66920" pt_clust_4="60.44679" pt_clust_5="59.36542" pt_clust_6="14000.00000"></scales>
<clustering>
<clus scale="   59.365">  2  5  1 -1</clus>
<clus scale="   60.447">  2  4  1 -1</clus>
<clus scale="  110.669">  2  3  1 -1</clus>
<clus scale="   59.365">  2  3  1 -1</clus>
</clustering>
</event>
<event>
 6    0  0.2433432E+002  0.6380895E+02  0.7546771E-02  0.1382509E+00
         21   -1    0    0  504  502  0.00000000000E+00  0.00000000000E+00  0.11789032185E+03  0.11789032185E+03  0.00000000000E+00 0. -1.
         -2   -1    0    0    0  501 -0.00000000000E+00 -0.00000000000E+00 -0.27236895796E+03  0.27236895796E+03  0.00000000000E+00 0. -1.
         21    1    1    2  503  502 -0.50681488232E+02 -0.17515842824E+02  0.52057544104E+02  0.74735573172E+02  0.00000000000E+00 0. -1.
         21    1    1    2  504  501  0.51868707828E+02 -0.52141434174E+02 -0.40699811666E+02  0.84056925230E+02  0.00000000000E+00 0. -1.
         21    1    1    2  505  503  0.50984281926E+02  0.36962509331E+02 -0.98112569078E+01  0.63732918195E+02  0.00000000000E+00 0. -1.
         -2    1    1    2    0  505 -0.52171501522E+02  0.32694767668E+02 -0.15602511164E+03  0.16773386321E+03  0.00000000000E+00 0. -1.
<scales pt_clust_3="53.62292" pt_clust_4="14000.00000" pt_clust_5="38.36665" pt_clust_6="63.80895"></scales>
<clustering>
<clus scale="   53.623">  1  3  2 -1</clus>
<clus scale="   38.367">  1  5  2 -1</clus>
<clus scale="   63.809">  2  6  1 -1</clus>
<clus scale="   53.623">  1  3  2 -1</clus>
</clustering>
</event>
<event>
 6    0  0.2433432E+002  0.9661086E+02  0.7546771E-02  0.1287589E+00
         21   -1    0    0  505  502  0.00000000000E+00  0.00000000000E+00  0.11069314429E+04  0.11069314429E+04  0.00000000000E+00 0.  1.
          1   -1    0    0  503    0 -0.00000000000E+00 -0.00000000000E+00 -0.28702538008E+04  0.28702538008E+04  0.00000000000E+00 0.  1.
         21    1    1    2  503  502 -0.22165145674E+02  0.21313251541E+02  0.53718055096E+03  0.53805993412E+03  0.00000000000E+00 0.  1.
         21    1    1    2  504  501  0.13850253055E+03 -0.48982950199E+02  0.26608327593E+03  0.30394504455E+03  0.00000000000E+00 0.  1.
         21    1    1    2  505  504 -0.35221452209E+02 -0.24562525683E+02  0.28185423701E+03  0.28510643501E+03  0.00000000000E+00 0.  1.
          1    1    1    2  501    0 -0.81115932669E+02  0.52232224342E+02 -0.28484404218E+04  0.28500738299E+04  0.00000000000E+00 0.  1.
<scales pt_clust_3="30.74977" pt_clust_4="96.61086" pt_clust_5="48.31591" pt_clust_6="14000.00000"></scales>
<clustering>
<clus scale="   30.750">  1  3  2 -1</clus>
<clus scale="   48.316">  1  5  2 -1</clus>
<clus scale="   96.611">  1  4  2 -1</clus>
<clus scale="   30.750">  1  3  2 -1</clus>
</clustering>
</event>
<event>
 6    0  0.2433432E+002  0.1359005E+03  0.7546771E-02  0.1218954E+00
         21   -1    0    0  505  502  0.00000000000E+00  0.00000000000E+00  0.23001980434E+03  0.23001980434E+03  0.00000000000E+00 0.  1.
          2   -1    0    0  503    0 -0.00000000000E+00 -0.00000000000E+00 -0.54090746432E+03  0.54090746432E+03  0.00000000000E+00 0. -1.
         21    1    1    2  503  504  0.37528636756E+02 -0.55424376612E+02 -0.11630535585E+03  0.13419089350E+03  0.00000000000E+00 0.  1.
         21    1    1    2  504  502 -0.12321736177E+03 -0.35992519398E+02  0.19011956805E+03  0.22939797263E+03  0.00000000000E+00 0.  1.
         21    1    1    2  505  501  0.43053166116E+02  0.13710107155E+02 -0.12326512361E+03  0.13128531086E+03  0.00000000000E+00 0.  1.
          2    1    1    2  501    0  0.42635558902E+02  0.77706788855E+02 -0.26143674856E+03  0.27605309166E+03  0.00000000000E+00 0. -1.
<scales pt_clust_3="66.93475" pt_clust_4="127.43437" pt_clust_5="33.71203" pt_clust_6="33.71203"></scales>
<clustering>
<clus scale="   33.712">  5  6 -1 -1</clus>
<clus scale="   66.935">  2  3  1 -1</clus>
<clus scale="  127.434">  1  4  2 -1</clus>
<clus scale="  127.434">  1  3  2 -1</clus>
</clustering>
</event>
<event>
 6    0  0.2433432E+002  0.9144030E+02  0.7546771E-02  0.1299401E+00
         -4   -1    0    0    0  501 -0.00000000000E+00  0.00000000000E+00  0.29652874741E+02  0.29652874741E+02  0.00000000000E+00 0. -1.
         21   -1    0    0  505  502  0.00000000000E+00 -0.00000000000E+00 -0.11576832200E+04  0.11576832200E+04  0.00000000000E+00 0.  1.
         21    1    1    2  503  502  0.26295564938E+02  0.18853259775E+02 -0.29512912264E+03  0.29689745901E+03  0.00000000000E+00 0.  1.
         21    1    1    2  504  501 -0.73307763813E+02 -0.29675973941E+02 -0.29658413551E+03  0.30694761948E+03  0.00000000000E+00 0.  1.
         21    1    1    2  505  504 -0.50125514064E+02  0.81323920197E+01 -0.45197487376E+03  0.45481863360E+03  0.00000000000E+00 0.  1.
         -4    1    1    2    0  503  0.97137712939E+02  0.26903221470E+01 -0.84342213391E+02  0.12867238269E+03  0.00000000000E+00 0. -1.
<scales pt_clust_3="32.35587" pt_clust_4="91.44030" pt_clust_5="40.53154" pt_clust_6="14000.00000"></scales>
<clustering>
<clus scale="   32.356">  2  3  1 -1</clus>
<clus scale="   40.532">  2  5  1 -1</clus>
<clus scale="   91.440">  2  4  1 -1</clus>
<clus scale="   32.356">  2  3  1 -1</clus>
</clustering>
</event>
<event>
 6    0  0.2433432E+002  0.1046969E+03  0.7546771E-02  0.1270718E+00
          2   -1    0    0  503    0 -0.00000000000E+00  0.00000000000E+00  0.12438742818E+04  0.12438742818E+04  0.00000000000E+00 0.  1.
         21   -1    0    0  505  502  0.00000000000E+00 -0.00000000000E+00 -0.17666444707E+03  0.17666444707E+03  0.00000000000E+00 0.  1.
         21    1    1    2  503  504 -0.23039028098E+02 -0.55654086003E+02  0.62515245748E+02  0.86812038656E+02  0.00000000000E+00 0.  1.
         21    1    1    2  504  502 -0.12968559749E+02  0.12401453402E+03 -0.77036250148E+02  0.14656865977E+03  0.00000000000E+00 0.  1.
         21    1    1    2  505  501  0.64200869680E+01 -0.84698372685E+02 -0.18066549983E+02  0.86841419153E+02  0.00000000000E+00 0.  1.
          2    1    1    2  501    0  0.29587500879E+02  0.16337924673E+02  0.10997973892E+04  0.11003166113E+04  0.00000000000E+00 0.  1.
<scales pt_clust_3="47.79300" pt_clust_4="104.69690" pt_clust_5="14000.00000" pt_clust_6="33.79864"></scales>
<clustering>
<clus scale="   33.799">  1  6  2 -1</clus>
<clus scale="   47.793">  1  3  2 -1</clus>
<clus scale="  104.697">  1  4  2 -1</clus>
<clus scale="  104.697">  2  3  1 -1</clus>
</clustering>
</event>
<event>
 6    0  0.2433432E+002  0.1578175E+03  0.7546771E-02  0.1191183E+00
          1   -1    0    0  505    0 -0.00000000000E+00  0.00000000000E+00  0.18660106086E+04  0.18660106086E+04  0.00000000000E+00 0.  1.
         21   -1    0    0  503  502  0.00000000000E+00 -0.00000000000E+00 -0.12531588674E+03  0.12531588674E+03  0.00000000000E+00 0.  1.
         21    1    1    2  503  501  0.11837788766E+03 -0.10523005591E+03 -0.23589451863E+02  0.16013479070E+03  0.00000000000E+00 0.  1.
         21    1    1    2  504  502 -0.14809735336E+03  0.65261959148E+02  0.22673029031E+03  0.27856520588E+03  0.00000000000E+00 0. -1.
         21    1    1    2  505  504 -0.39792775368E+02 -0.29454103855E+02  0.98679668466E+02  0.11040238301E+03  0.00000000000E+00 0. -1.
          1    1    1    2  501    0  0.69512241067E+02  0.69422200613E+02  0.14388742150E+04  0.14422241158E+04  0.00000000000E+00 0.  1.
<scales pt_clust_3="157.81746" pt_clust_4="14000.00000" pt_clust_5="49.50767" pt_clust_6="58.49724"></scales>
<clustering>
<clus scale="   49.508">  1  5  2 -1</clus>
<clus scale="   58.497">  1  6  2 -1</clus>
<clus scale="  157.817">  2  3  1 -1</clus>
<clus scale="  157.817">  2  3  1 -1</clus>
</clustering>
</event>
<event>
 6    0  0.2433432E+002  0.9637185E+02  0.7546771E-02  0.1288116E+00
         21   -1    0    0  505  502  0.00000000000E+00  0.00000000000E+00  0.35776557951E+02  0.35776557951E+02  0.00000000000E+00 0.  1.
          2   -1    0    0  504    0 -0.00000000000E+00 -0.00000000000E+00 -0.19973526226E+04  0.19973526226E+04  0.00000000000E+00 0.  1.
         21    1    1    2  503  502  0.38016526951E+02 -0.47718201143E+02 -0.36578835867E+02  0.71135745410E+02  0.00000000000E+00 0.  1.
         21    1    1    2  504  503 -0.19494686265E+02 -0.72229001576E+02 -0.85197661540E+02  0.11338303662E+03  0.00000000000E+00 0.  1.
         21    1    1    2  505  501 -0.16133758370E+02  0.88810453021E+02 -0.47771447966E+03  0.48616737735E+03  0.00000000000E+00 0.  1.
          2    1    1    2  501    0 -0.23880823161E+01  0.31136749698E+02 -0.13620850876E+04  0.13624430212E+04  0.00000000000E+00 0.  1.
<scales pt_clust_3="58.83791" pt_clust_4="96.37185" pt_clust_5="14000.00000" pt_clust_6="31.22819"></scales>
<clustering>
<clus scale="   31.228">  2  6  1 -1</clus>
<clus scale="   58.838">  1  3  2 -1</clus>
<clus scale="   96.372">  1  4  2 -1</clus>
<clus scale="   58.838">  1  3  2 -1</clus>
</clustering>
</event>
<event>
 6    0  0.2433432E+002  0.1131068E+03  0.7546771E-02  0.1254922E+00
         -3   -1    0    0    0  501 -0.00000000000E+00  0.00000000000E+00  0.35711233847E+03  0.35711233847E+03  0.00000000000E+00 0. -1.
         21   -1    0    0  504  502  0.00000000000E+00 -0.00000000000E+00 -0.16407194049E+03  0.16407194049E+03  0.00000000000E+00 0. -1.
         21    1    1    2  503  505 -0.57747831502E+02  0.19442472177E+02 -0.38889046592E+02  0.72285404560E+02  0.00000000000E+00 0. -1.
         21    1    1    2  504  503  0.50113991512E+02 -0.13305581214E+02 -0.19006103286E+02  0.55223931396E+02  0.00000000000E+00 0. -1.
         21    1    1    2  505  501 -0.94339959910E+02 -0.92728290401E+01 -0.26207065552E+02  0.98350514381E+02  0.00000000000E+00 0. -1.
         -3    1    1    2    0  502  0.10197379990E+03  0.31359380771E+01  0.27714261341E+03  0.29532442863E+03  0.00000000000E+00 0. -1.
<scales pt_clust_3="32.51746" pt_clust_4="51.85027" pt_clust_5="32.51746" pt_clust_6="105.58485"></scales>
<clustering>
<clus scale="   32.517">  3  5 -1 -1</clus>
<clus scale="   51.850">  2  4  1 -1</clus>
<clus scale="  105.585">  1  6  2 -1</clus>
<clus scale="   51.850">  2  3  1 -1</clus>
</clustering>
</event>
<event>
 6    0  0.2433432E+002  0.1082624E+03  0.7546771E-02  0.1263822E+00
          1   -1    0    0  503    0 -0.00000000000E+00  0.00000000000E+00  0.53827507423E+03  0.53827507423E+03  0.00000000000E+00 0.  1.
         21   -1    0    0  504  502  0.00000000000E+00 -0.00000000000E+00 -0.20380300334E+03  0.20380300334E+03  0.00000000000E+00 0. -1.
         21    1    1    2  503  505 -0.23769659078E+02 -0.45050980754E+02  0.25916557893E+02  0.57151163878E+02  0.00000000000E+00 0. -1.
         21    1    1    2  504  501  0.59495729569E+02  0.27116083945E+02 -0.97106184466E+02  0.11706679677E+03  0.00000000000E+00 0. -1.
         21    1    1    2  505  502 -0.43582158246E+02  0.90890531220E+02 -0.45626945919E+02  0.11064497899E+03  0.00000000000E+00 0.  1.
          1    1    1    2  501    0  0.78560877559E+01 -0.72955634412E+02  0.45128864338E+03  0.45721513793E+03  0.00000000000E+00 0.  1.
<scales pt_clust_3="50.93709" pt_clust_4="64.57675" pt_clust_5="14000.00000" pt_clust_6="108.26237"></scales>
<clustering>
<clus scale="   50.937">  1  3  2 -1</clus>
<clus scale="   64.577">  2  4  1 -1</clus>
<clus scale="  108.262">  1  6  2 -1</clus>
<clus scale="   64.577">  2  3  1 -1</clus>
</clustering>
</event>
<event>
 6    0  0.2433432E+002  0.1196397E+03  0.7546771E-02  0.1243693E+00
          2   -1    0    0  503    0 -0.00000000000E+00  0.00000000000E+00  0.56356116317E+03  0.56356116317E+03  0.00000000000E+00 0.  1.
         21   -1    0    0  504  502  0.00000000000E+00 -0.00000000000E+00 -0.77026989868E+03  0.77026989868E+03  0.00000000000E+00 0. -1.
         21    1    1    2  503  502 -0.14287665786E+03 -0.46823954726E+02 -0.12948798330E+03  0.19842721566E+03  0.00000000000E+00 0.  1.
         21    1    1    2  504  505  0.42653388862E+02  0.15774370487E+02 -0.58315198668E+03  0.58492254351E+03  0.00000000000E+00 0. -1.
         21    1    1    2  505  501  0.98758194418E+01 -0.46036147341E+02  0.21600533216E+02  0.51801946940E+02  0.00000000000E+00 0.  1.
          2    1    1    2  501    0  0.90347449552E+02  0.77085731580E+02  0.48433070125E+03  0.49867935573E+03  0.00000000000E+00 0.  1.
<scales pt_clust_3="119.63971" pt_clust_4="45.47683" pt_clust_5="46.70120" pt_clust_6="14000.00000"></scales>
<clustering>
<clus scale="   45.477">  2  4  1 -1</clus>
<clus scale="   46.701">  2  5  1 -1</clus>
<clus scale="  119.640">  2  3  1 -1</clus>
<clus scale="   45.477">  2  3  1 -1</clus>
</clustering>
</event>
<event>
 6    0  0.2433432E+002  0.1421757E+03  0.7546771E-02  0.1210431E+00
         -2   -1    0    0    0  501 -0.00000000000E+00  0.00000000000E+00  0.61118601532E+03  0.61118601532E+03  0.00000000000E+00 0. -1.
         21   -1    0    0  504  502  0.00000000000E+00 -0.00000000000E+00 -0.10077076694E+04  0.10077076694E+04  0.00000000000E+00 0. -1.
         21    1    1    2  503  502  0.13060455750E+03 -0.14698987167E-02 -0.95464845946E+03  0.96354098595E+03  0.00000000000E+00 0. -1.
         21    1    1    2  504  505 -0.37042064261E+02 -0.18183880964E+02 -0.16660786563E+02  0.44501122014E+02  0.00000000000E+00 0. -1.
         21    1    1    2  505  501 -0.61715913479E+02  0.10893373864E+02  0.38460798539E+02  0.73530623518E+02  0.00000000000E+00 0.  1.
         -2    1    1    2    0  503 -0.31846579760E+02  0.72919769986E+01  0.53632679336E+03  0.53732095329E+03  0.00000000000E+00 0. -1.
<scales pt_clust_3="128.70112" pt_clust_4="43.95112" pt_clust_5="43.95112" pt_clust_6="32.67074"></scales>
<clustering>
<clus scale="   32.671">  1  6  2 -1</clus>
<clus scale="   43.951">  4  5 -1 -1</clus>
<clus scale="  128.701">  2  3  1 -1</clus>
<clus scale="  128.701">  2  3  1 -1</clus>
</clustering>
</event>
<event>
 6    0  0.2433432E+002  0.1155984E+03  0.7546771E-02  0.1250540E+00
         -1   -1    0    0    0  501 -0.00000000000E+00  0.00000000000E+00  0.11309537627E+04  0.11309537627E+04  0.00000000000E+00 0.  1.
         21   -1    0    0  503  502  0.00000000000E+00 -0.00000000000E+00 -0.13906331150E+03  0.13906331150E+03  0.00000000000E+00 0.  1.
         21    1    1    2  503  504 -0.39040277175E+02 -0.69529087477E+02 -0.25737239994E+02  0.83790469444E+02  0.00000000000E+00 0.  1.
         21    1    1    2  504  501 -0.66619672912E+02 -0.34631881211E+02 -0.48837920740E+02  0.89569473133E+02  0.00000000000E+00 0.  1.
         21    1    1    2  505  502  0.49378101791E+02  0.17333446406E+02  0.42333216054E+02  0.67310819949E+02  0.00000000000E+00 0.  1.
         -1    1    1    2    0  505  0.56281848296E+02  0.86827522282E+02  0.10241323959E+04  0.10293463116E+04  0.00000000000E+00 0.  1.
<scales pt_clust_3="48.31093" pt_clust_4="48.31093" pt_clust_5="52.33207" pt_clust_6="104.32785"></scales>
<clustering>
<clus scale="   48.311">  3  4 -1 -1</clus>
<clus scale="   52.332">  2  5  1 -1</clus>
<clus scale="  104.328">  1  6  2 -1</clus>
<clus scale="   52.332">  2  3  1 -1</clus>
</clustering>
</event>
<event>
 6    0  0.2433432E+002  0.8944183E+02  0.7546771E-02  0.1304209E+00
         -2   -1    0    0    0  501 -0.00000000000E+00  0.00000000000E+00  0.13410466339E+04  0.13410466339E+04  0.00000000000E+00 0.  1.
         21   -1    0    0  504  502  0.00000000000E+00 -0.00000000000E+00 -0.35273512963E+02  0.35273512963E+02  0.00000000000E+00 0.  1.
         21    1    1    2  503  502  0.23091540462E+02 -0.36053635866E+02  0.41141495346E+02  0.59377660272E+02  0.00000000000E+00 0.  1.
         21    1    1    2  504  501 -0.28414982178E+02  0.50875941960E+02  0.33778366024E+02  0.67355405824E+02  0.00000000000E+00 0.  1.
         21    1    1    2  505  503  0.66163937782E+02 -0.49505761495E+02  0.20056222611E+03  0.21691863366E+03  0.00000000000E+00 0.  1.
         -2    1    1    2    0  505 -0.60840496066E+02  0.34683455401E+02  0.10302910334E+04  0.10326684471E+04  0.00000000000E+00 0.  1.
<scales pt_clust_3="36.92815" pt_clust_4="58.27326" pt_clust_5="36.92815" pt_clust_6="73.26554"></scales>
<clustering>
<clus scale="   36.928">  3  5 -1 -1</clus>
<clus scale="   58.273">  2  4  1 -1</clus>
<clus scale="   73.266">  1  6  2 -1</clus>
<clus scale="   58.273">  2  3  1 -1</clus>
</clustering>
</event>
<event>
 6    0  0.2433432E+002  0.1374673E+03  0.7546771E-02  0.1216778E+00
         21   -1    0    0  501  502  0.00000000000E+00  0.00000000000E+00  0.13330067365E+03  0.13330067365E+03  0.00000000000E+00 0.  1.
          2   -1    0    0  503    0 -0.00000000000E+00 -0.00000000000E+00 -0.12627452858E+04  0.12627452858E+04  0.00000000000E+00 0.  1.
         21    1    1    2  503  504  0.11813568481E+03  0.30232644553E+02 -0.30135574412E+03  0.32509281342E+03  0.00000000000E+00 0.  1.
         21    1    1    2  504  505 -0.10972505019E+03  0.16878861083E+02  0.29346305077E+02  0.11482895198E+03  0.00000000000E+00 0.  1.
         21    1    1    2  505  502 -0.36386763806E+02 -0.65619244300E+02  0.20314410989E+02  0.77733886412E+02  0.00000000000E+00 0.  1.
          2    1    1    2  501    0  0.27976129189E+02  0.18507738665E+02 -0.87774958410E+03  0.87839030766E+03  0.00000000000E+00 0.  1.
<scales pt_clust_3="137.46735" pt_clust_4="14000.00000" pt_clust_5="72.82116" pt_clust_6="33.54400"></scales>
<clustering>
<clus scale="   33.544">  2  6  1 -1</clus>
<clus scale="   72.821">  1  5  2 -1</clus>
<clus scale="  137.467">  2  3  1 -1</clus>
<clus scale="   72.821">  1  3  2 -1</clus>
</clustering>
</event>
<event>
 6    0  0.2433432E+002  0.1186394E+03  0.7546771E-02  0.1245359E+00
          2   -1    0    0  505    0 -0.00000000000E+00  0.00000000000E+00  0.44703690718E+03  0.44703690718E+03  0.00000000000E+00 0.  1.
         21   -1    0    0  503  502  0.00000000000E+00 -0.00000000000E+00 -0.55832331899E+03  0.55832331899E+03  0.00000000000E+00 0. -1.
         21    1    1    2  503  501  0.66395893725E+02 -0.79931519657E+02 -0.52724186878E+03  0.53738389512E+03  0.00000000000E+00 0. -1.
         21    1    1    2  504  502 -0.15405423416E+02  0.81390270272E+02  0.14424567763E+03  0.16633856642E+03  0.00000000000E+00 0.  1.
         21    1    1    2  505  504 -0.51737660408E+02  0.43157414012E+02  0.78996400573E+02  0.10382571547E+03  0.00000000000E+00 0.  1.
          2    1    1    2  501    0  0.74719009895E+00 -0.44616164627E+02  0.19271337877E+03  0.19781204917E+03  0.00000000000E+00 0.  1.
<scales pt_clust_3="104.61321" pt_clust_4="54.89227" pt_clust_5="54.89227" pt_clust_6="44.62242"></scales>
<clustering>
<clus scale="   44.622">  1  6  2 -1</clus>
<clus scale="   54.892">  4  5 -1 -1</clus>
<clus scale="  104.613">  2  3  1 -1</clus>
<clus scale="  104.613">  2  3  1 -1</clus>
</clustering>
</event>
<event>
 6    0  0.2433432E+002  0.1098560E+03  0.7546771E-02  0.1260837E+00
         21   -1    0    0  504  502  0.00000000000E+00  0.00000000000E+00  0.29329963129E+03  0.29329963129E+03  0.00000000000E+00 0.  1.
          1   -1    0    0  505    0 -0.00000000000E+00 -0.00000000000E+00 -0.77794909677E+03  0.77794909677E+03  0.00000000000E+00 0.  1.
         21    1    1    2  503  502  0.39562119587E+02 -0.15797139584E+02  0.18184128024E+03  0.18676445626E+03  0.00000000000E+00 0.  1.
         21    1    1    2  504  501  0.39367788723E+02  0.12614888240E+02 -0.84549613688E+01  0.42195314503E+02  0.00000000000E+00 0. -1.
         21    1    1    2  505  503 -0.15396337693E+03  0.79646369374E+02  0.22598992777E+01  0.17335908610E+03  0.00000000000E+00 0.  1.
          1    1    1    2  501    0  0.75033468617E+02 -0.76464118031E+02 -0.66029568363E+03  0.66892987119E+03  0.00000000000E+00 0.  1.
<scales pt_clust_3="66.22290" pt_clust_4="41.33955" pt_clust_5="109.85600" pt_clust_6="14000.00000"></scales>
<clustering>
<clus scale="   41.340">  1  4  2 -1</clus>
<clus scale="   66.223">  1  3  2 -1</clus>
<clus scale="  109.856">  1  5  2 -1</clus>
<clus scale="   41.340">  1  3  2 -1</clus>
</clustering>
</event>
<event>
 6    0  0.2433432E+002  0.2478186E+03  0.7546771E-02  0.1114691E+00
         21   -1    0    0  501  502  0.00000000000E+00  0.00000000000E+00  0.96303685456E+02  0.96303685456E+02  0.00000000000E+00 0. -1.
          2   -1    0    0  503    0 -0.00000000000E+00 -0.00000000000E+00 -0.56159578070E+03  0.56159578070E+03  0.00000000000E+00 0.  1.
         21    1    1    2  503  504 -0.38938599305E+02  0.15238812704E+02 -0.73991943211E+02  0.84989667541E+02  0.00000000000E+00 0. -1.
         21    1    1    2  504  505 -0.32051166191E+02  0.58208586987E+02 -0.78162187130E+02  0.10259066405E+03  0.00000000000E+00 0. -1.
         21    1    1    2  505  502  0.17617475832E+02  0.13464938507E+03 -0.13065721146E+03  0.18844664831E+03  0.00000000000E+00 0. -1.
          2    1    1    2  501    0  0.53372289664E+02 -0.20809678476E+03 -0.18248075345E+03  0.28187248626E+03  0.00000000000E+00 0.  1.
<scales pt_clust_3="31.74473" pt_clust_4="93.70120" pt_clust_5="93.70120" pt_clust_6="214.83220"></scales>
<clustering>
<clus scale="   31.745">  3  4 -1 -1</clus>
<clus scale="   93.701">  3  5 -1 -1</clus>
<clus scale="  214.832">  1  6  2 -1</clus>
<clus scale="  214.832">  1  3  2 -1</clus>
</clustering>
</event>
<event>
 6    0  0.2433432E+002  0.9577146E+02  0.7546771E-02  0.1289448E+00
          2   -1    0    0  505    0 -0.00000000000E+00  0.00000000000E+00  0.25020756218E+03  0.25020756218E+03  0.00000000000E+00 0.  1.
         21   -1    0    0  503  502  0.00000000000E+00 -0.00000000000E+00 -0.92674621414E+03  0.92674621414E+03  0.00000000000E+00 0.  1.
         21    1    1    2  503  501 -0.30419687394E+02 -0.60013588037E+02 -0.27210726786E+02  0.72576936987E+02  0.00000000000E+00 0. -1.
         21    1    1    2  504  502 -0.13080169541E+02  0.10005481221E+03 -0.85681042281E+03  0.86273179895E+03  0.00000000000E+00 0.  1.
         21    1    1    2  505  504  0.67555749116E+02 -0.20679375175E+02  0.65493628695E+02  0.96337070725E+02  0.00000000000E+00 0. -1.
          2    1    1    2  501    0 -0.24055892181E+02 -0.19361848997E+02  0.14198886894E+03  0.14530796967E+03  0.00000000000E+00 0.  1.
<scales pt_clust_3="95.77146" pt_clust_4="14000.00000" pt_clust_5="60.67348" pt_clust_6="30.87988"></scales>
<clustering>
<clus scale="   30.880">  1  6  2 -1</clus>
<clus scale="   60.673">  1  5  2 -1</clus>
<clus scale="   95.771">  1  3  2 -1</clus>
<clus scale="   95.771">  2  3  1 -1</clus>
</clustering>
</event>
<event>
 6    0  0.2433432E+002  0.7603426E+02  0.7546771E-02  0.1340698E+00
         21   -1    0    0  501  502  0.00000000000E+00  0.00000000000E+00  0.18230895280E+03  0.18230895280E+03  0.00000000000E+00 0. -1.
          2   -1    0    0  503    0 -0.00000000000E+00 -0.00000000000E+00 -0.28502147601E+04  0.28502147601E+04  0.00000000000E+00 0. -1.
         21    1    1    2  503  504 -0.30812821390E+02 -0.53689626568E+02 -0.59244696173E+03  0.59567223238E+03  0.00000000000E+00 0.  1.
         21    1    1    2  504  505 -0.70640932892E+02 -0.61771767647E+02 -0.30221589878E+03  0.31644958864E+03  0.00000000000E+00 0.  1.
         21    1    1    2  505  502  0.74456017296E+02  0.14648533145E+02  0.16381363980E+03  0.18053583196E+03  0.00000000000E+00 0. -1.
          2    1    1    2  501    0  0.26997736985E+02  0.10081286107E+03 -0.19370565866E+04  0.19398660599E+04  0.00000000000E+00 0. -1.
<scales pt_clust_3="61.90320" pt_clust_4="14000.00000" pt_clust_5="76.03426" pt_clust_6="54.68589"></scales>
<clustering>
<clus scale="   61.903">  2  3  1 -1</clus>
<clus scale="   54.686">  2  6  1 -1</clus>
<clus scale="   76.034">  1  5  2 -1</clus>
<clus scale="   76.034">  1  3  2 -1</clus>
</clustering>
</event>
<event>
 6    0  0.2433432E+002  0.1249995E+03  0.7546771E-02  0.1235070E+00
         21   -1    0    0  504  502  0.00000000000E+00  0.00000000000E+00  0.61402946314E+03  0.61402946314E+03  0.00000000000E+00 0.  1.
         -2   -1    0    0    0  501 -0.00000000000E+00 -0.00000000000E+00 -0.93980771925E+02  0.93980771925E+02  0.00000000000E+00 0. -1.
         21    1    1    2  503  505 -0.48410973227E+02  0.26347419436E+02  0.96409383202E+02  0.11105214095E+03  0.00000000000E+00 0. -1.
         21    1    1    2  504  501  0.34760478780E+02 -0.41533166631E+01  0.12848416463E+03  0.13316801975E+03  0.00000000000E+00 0. -1.
         21    1    1    2  505  502 -0.63873311311E+02  0.55733965674E+02  0.33599749367E+03  0.34652617589E+03  0.00000000000E+00 0.  1.
         -2    1    1    2    0  503  0.77523805759E+02 -0.77928068446E+02 -0.40842350275E+02  0.11726389848E+03  0.00000000000E+00 0. -1.
<scales pt_clust_3="47.31753" pt_clust_4="35.00773" pt_clust_5="47.31753" pt_clust_6="112.10607"></scales>
<clustering>
<clus scale="   35.008">  1  4  2 -1</clus>
<clus scale="   47.318">  3  5 -1 -1</clus>
<clus scale="  112.106">  2  6  1 -1</clus>
<clus scale="   35.008">  1  3  2 -1</clus>
</clustering>
</event>
<event>
 6    0  0.2433432E+002  0.1252014E+03  0.7546771E-02  0.1234755E+00
          2   -1    0    0  505    0 -0.00000000000E+00  0.00000000000E+00  0.15810729990E+04  0.15810729990E+04  0.00000000000E+00 0. -1.
         21   -1    0    0  504  502  0.00000000000E+00 -0.00000000000E+00 -0.16118871091E+03  0.16118871091E+03  0.00000000000E+00 0. -1.
         21    1    1    2  503  502  0.18270848922E+02  0.87453254225E+02 -0.56939074668E+02  0.10594316315E+03  0.00000000000E+00 0. -1.
         21    1    1    2  504  501 -0.39382075308E+02 -0.29994265689E+02  0.24327484947E+02  0.55158230153E+02  0.00000000000E+00 0. -1.
         21    1    1    2  505  503 -0.17697207158E+02  0.54868655684E+02 -0.48577848992E+02  0.75389441770E+02  0.00000000000E+00 0. -1.
          2    1    1    2  501    0  0.38808433544E+02 -0.11232764422E+03  0.15010737268E+04  0.15057708748E+04  0.00000000000E+00 0. -1.
<scales pt_clust_3="31.02713" pt_clust_4="49.50357" pt_clust_5="31.02713" pt_clust_6="119.09469"></scales>
<clustering>
<clus scale="   31.027">  3  5 -1 -1</clus>
<clus scale="   49.504">  2  4  1 -1</clus>
<clus scale="  119.095">  1  6  2 -1</clus>
<clus scale="   49.504">  2  3  1 -1</clus>
</clustering>
</event>
<event>
 6    0  0.2433432E+002  0.9907219E+02  0.7546771E-02  0.1282259E+00
          2   -1    0    0  503    0 -0.00000000000E+00  0.00000000000E+00  0.20095799933E+03  0.20095799933E+03  0.00000000000E+00 0.  1.
         21   -1    0    0  504  502  0.00000000000E+00 -0.00000000000E+00 -0.49820925968E+03  0.49820925968E+03  0.00000000000E+00 0. -1.
         21    1    1    2  503  505 -0.15919424082E+02  0.64015687592E+02 -0.76099722870E+02  0.10071049668E+03  0.00000000000E+00 0. -1.
         21    1    1    2  504  501  0.39754688813E+02 -0.58690698828E+01 -0.98573515033E+02  0.10645007811E+03  0.00000000000E+00 0.  1.
         21    1    1    2  505  502 -0.52180912728E+02  0.42704566676E+02 -0.28822849966E+03  0.29601046550E+03  0.00000000000E+00 0. -1.
          2    1    1    2  501    0  0.28345647997E+02 -0.10085118438E+03  0.16565047722E+03  0.19599621872E+03  0.00000000000E+00 0.  1.
<scales pt_clust_3="99.07219" pt_clust_4="40.18559" pt_clust_5="44.65103" pt_clust_6="14000.00000"></scales>
<clustering>
<clus scale="   40.186">  2  4  1 -1</clus>
<clus scale="   44.651">  2  5  1 -1</clus>
<clus scale="   99.072">  2  3  1 -1</clus>
<clus scale="   40.186">  2  3  1 -1</clus>
</clustering>
</event>
<event>
 6    0  0.2433432E+002  0.1434855E+03  0.7546771E-02  0.1208714E+00
          1   -1    0    0  504    0 -0.00000000000E+00  0.00000000000E+00  0.54963413515E+03  0.54963413515E+03  0.00000000000E+00 0. -1.
         21   -1    0    0  505  502  0.00000000000E+00 -0.00000000000E+00 -0.67030595271E+02  0.67030595271E+02  0.00000000000E+00 0. -1.
         21    1    1    2  503  502 -0.94219097914E+02 -0.31431714916E+01  0.53682988590E+02  0.10848493537E+03  0.00000000000E+00 0. -1.
         21    1    1    2  504  503 -0.59997745690E+02 -0.40163728206E+02  0.42422051750E+02  0.83740581715E+02  0.00000000000E+00 0. -1.
         21    1    1    2  505  501  0.29980534304E+02  0.34199260890E+01  0.22153095953E+02  0.37433781427E+02  0.00000000000E+00 0.  1.
          1    1    1    2  501    0  0.12423630930E+03  0.39886973608E+02  0.36434540358E+03  0.38700543190E+03  0.00000000000E+00 0. -1.
<scales pt_clust_3="40.15654" pt_clust_4="40.15654" pt_clust_5="30.17496" pt_clust_6="136.13208"></scales>
<clustering>
<clus scale="   30.175">  2  5  1 -1</clus>
<clus scale="   40.157">  3  4 -1 -1</clus>
<clus scale="  136.132">  1  6  2 -1</clus>
<clus scale="   30.175">  2  3  1 -1</clus>
</clustering>
</event>
<event>
 6    0  0.2433432E+002  0.1552287E+03  0.7546771E-02  0.1194191E+00
         21   -1    0    0  503  502  0.00000000000E+00  0.00000000000E+00  0.23172424815E+03  0.23172424815E+03  0.00000000000E+00 0. -1.
          2   -1    0    0  502    0 -0.00000000000E+00 -0.00000000000E+00 -0.15284106213E+04  0.15284106213E+04  0.00000000000E+00 0.  1.
         21    1    1    2  503  504  0.74450487147E+02  0.18260855165E+02  0.17966101761E+03  0.19533155177E+03  0.00000000000E+00 0. -1.
         21    1    1    2  504  505  0.28662926893E+01  0.50504096840E+02 -0.13358266759E+02  0.52319429682E+02  0.00000000000E+00 0. -1.
         21    1    1    2  505  501  0.44393389092E+02  0.25290860237E+02 -0.10863354544E+02  0.52234213678E+02  0.00000000000E+00 0. -1.
          2    1    1    2  501    0 -0.12171016893E+03 -0.94055812242E+02 -0.14521257695E+04  0.14602496744E+04  0.00000000000E+00 0.  1.
<scales pt_clust_3="76.65725" pt_clust_4="48.40408" pt_clust_5="48.40408" pt_clust_6="147.40939"></scales>
<clustering>
<clus scale="   48.404">  4  5 -1 -1</clus>
<clus scale="   76.657">  1  3  2 -1</clus>
<clus scale="  147.409">  2  6  1 -1</clus>
<clus scale="   76.657">  1  3  2 -1</clus>
</clustering>
</event>
<event>
 6    0  0.2433432E+002  0.9837322E+02  0.7546771E-02  0.1283755E+00
          2   -1    0    0  504    0 -0.00000000000E+00  0.00000000000E+00  0.14330542465E+04  0.14330542465E+04  0.00000000000E+00 0.  1.
         21   -1    0    0  503  502  0.00000000000E+00 -0.00000000000E+00 -0.32857330339E+02  0.32857330339E+02  0.00000000000E+00 0.  1.
         21    1    1    2  503  501 -0.75710074398E+02 -0.55747843570E+02  0.13632199688E+03  0.16560049595E+03  0.00000000000E+00 0.  1.
         21    1    1    2  504  505  0.72537157469E+02 -0.63197045612E+02  0.71264600908E+03  0.71911045052E+03  0.00000000000E+00 0.  1.
         21    1    1    2  505  502  0.41742969576E+02  0.15007114255E+02  0.45815771273E+02  0.63771262216E+02  0.00000000000E+00 0. -1.
          2    1    1    2  501    0 -0.38570052648E+02  0.10393777493E+03  0.50541313892E+03  0.51742936814E+03  0.00000000000E+00 0.  1.
<scales pt_clust_3="68.40096" pt_clust_4="98.37322" pt_clust_5="44.35864" pt_clust_6="14000.00000"></scales>
<clustering>
<clus scale="   44.359">  2  5  1 -1</clus>
<clus scale="   68.401">  2  3  1 -1</clus>
<clus scale="   98.373">  1  4  2 -1</clus>
<clus scale="   44.359">  2  3  1 -1</clus>
</clustering>
</event>
<event>
 6    0  0.2433432E+002  0.8065769E+02  0.7546771E-02  0.1327195E+00
         21   -1    0    0  503  502  0.00000000000E+00  0.00000000000E+00  0.54655105980E+03  0.54655105980E+03  0.00000000000E+00 0. -1.
          2   -1    0    0  505    0 -0.00000000000E+00 -0.00000000000E+00 -0.27885789946E+03  0.27885789946E+03  0.00000000000E+00 0.  1.
         21    1    1    2  503  504  0.44729970594E+02  0.24067426862E+02  0.38004643906E+03  0.38342575181E+03  0.00000000000E+00 0. -1.
         21    1    1    2  504  501 -0.14564075082E+03  0.34113826690E+02  0.18145740833E+02  0.15067929314E+03  0.00000000000E+00 0.  1.
         21    1    1    2  505  502  0.31810380625E+02 -0.28560768188E+02  0.67282382234E+02  0.79715348297E+02  0.00000000000E+00 0.  1.
          2    1    1    2  501    0  0.69100399604E+02 -0.29620485364E+02 -0.19778140179E+03  0.21158856602E+03  0.00000000000E+00 0.  1.
<scales pt_clust_3="70.40719" pt_clust_4="80.65769" pt_clust_5="42.75065" pt_clust_6="14000.00000"></scales>
<clustering>
<clus scale="   42.751">  1  5  2 -1</clus>
<clus scale="   70.407">  1  3  2 -1</clus>
<clus scale="   80.658">  1  4  2 -1</clus>
<clus scale="   42.751">  1  3  2 -1</clus>
</clustering>
</event>
<event>
 6    0  0.2433432E+002  0.1230422E+03  0.7546771E-02  0.1238161E+00
         -2   -1    0    0    0  501 -0.00000000000E+00  0.00000000000E+00  0.20197701124E+04  0.20197701124E+04  0.00000000000E+00 0. -1.
         21   -1    0    0  504  502  0.00000000000E+00 -0.00000000000E+00 -0.87592951726E+02  0.87592951726E+02  0.00000000000E+00 0.  1.
         21    1    1    2  503  505  0.39390096501E+02 -0.34415031445E+02  0.19060967585E+02  0.55671308382E+02  0.00000000000E+00 0. -1.
         21    1    1    2  504  501 -0.12725490340E+03  0.56720163772E+02  0.18221158564E+02  0.14050977915E+03  0.00000000000E+00 0.  1.
         21    1    1    2  505  502 -0.34844764084E+02 -0.17229382233E+02  0.55879279577E+02  0.68069839740E+02  0.00000000000E+00 0.  1.
         -2    1    1    2    0  503  0.12270957099E+03 -0.50757500943E+01  0.18390157550E+04  0.18431121369E+04  0.00000000000E+00 0. -1.
<scales pt_clust_3="49.61852" pt_clust_4="14000.00000" pt_clust_5="38.87170" pt_clust_6="123.04216"></scales>
<clustering>
<clus scale="   38.872">  2  5  1 -1</clus>
<clus scale="   49.619">  2  3  1 -1</clus>
<clus scale="  123.042">  1  6  2 -1</clus>
<clus scale="   38.872">  2  3  1 -1</clus>
</clustering>
</event>
<event>
 6    0  0.2433432E+002  0.1355742E+03  0.7546771E-02  0.1219411E+00
         21   -1    0    0  503  502  0.00000000000E+00  0.00000000000E+00  0.14296619202E+03  0.14296619202E+03  0.00000000000E+00 0.  1.
          2   -1    0    0  505    0 -0.00000000000E+00 -0.00000000000E+00 -0.27013062909E+03  0.27013062909E+03  0.00000000000E+00 0. -1.
         21    1    1    2  503  504 -0.53981861512E+02 -0.60001276045E+02  0.20959448614E+02  0.83387606906E+02  0.00000000000E+00 0.  1.
         21    1    1    2  504  501 -0.43347592512E+02 -0.17017894723E+01  0.18714826024E+01  0.43421334746E+02  0.00000000000E+00 0.  1.
         21    1    1    2  505  502  0.14060772112E+03  0.47696315735E+02 -0.21559147655E+02  0.15003421817E+03  0.00000000000E+00 0. -1.
          2    1    1    2  501    0 -0.43278267097E+02  0.14006749782E+02 -0.12843622063E+03  0.13625366128E+03  0.00000000000E+00 0. -1.
<scales pt_clust_3="34.99882" pt_clust_4="34.99882" pt_clust_5="126.89127" pt_clust_6="45.48843"></scales>
<clustering>
<clus scale="   34.999">  3  4 -1 -1</clus>
<clus scale="   45.488">  2  6  1 -1</clus>
<clus scale="  126.891">  2  5  1 -1</clus>
<clus scale="  135.574">  1  3  2 -1</clus>
</clustering>
</event>
<event>
 6    0  0.2433432E+002  0.1061577E+03  0.7546771E-02  0.1267855E+00
         21   -1    0    0  505  502  0.00000000000E+00  0.00000000000E+00  0.76508558816E+03  0.76508558816E+03  0.00000000000E+00 0. -1.
          1   -1    0    0  503    0 -0.00000000000E+00 -0.00000000000E+00 -0.57763959273E+02  0.57763959273E+02  0.00000000000E+00 0.  1.
         21    1    1    2  503  504 -0.48831876980E+02 -0.58432329174E+00  0.10639937078E+03  0.11707143010E+03  0.00000000000E+00 0. -1.
         21    1    1    2  504  502 -0.67542507262E+02  0.88542264593E+01  0.37003623810E+03  0.37625417622E+03  0.00000000000E+00 0. -1.
         21    1    1    2  505  501  0.34066236195E+02  0.29627131780E+02  0.23453119875E+03  0.23883709631E+03  0.00000000000E+00 0. -1.
          1    1    1    2  501    0  0.82308148048E+02 -0.37897034947E+02 -0.36451787450E+01  0.90686844806E+02  0.00000000000E+00 0.  1.
<scales pt_clust_3="44.54531" pt_clust_4="44.54531" pt_clust_5="45.14726" pt_clust_6="92.20398"></scales>
<clustering>
<clus scale="   44.545">  3  4 -1 -1</clus>
<clus scale="   45.147">  1  5  2 -1</clus>
<clus scale="   92.204">  2  6  1 -1</clus>
<clus scale="   45.147">  1  3  2 -1</clus>
</clustering>
</event>
<event>
 6    0  0.2433432E+002  0.1468869E+03  0.7546771E-02  0.1204351E+00
          2   -1    0    0  505    0 -0.00000000000E+00  0.00000000000E+00  0.13156629683E+04  0.13156629683E+04  0.00000000000E+00 0. -1.
         21   -1    0    0  501  502  0.00000000000E+00 -0.00000000000E+00 -0.25040798786E+02  0.25040798786E+02  0.00000000000E+00 0.  1.
         21    1    1    2  503  502  0.54311290787E+02 -0.29799637234E+02  0.15731623683E+03  0.16907434180E+03  0.00000000000E+00 0.  1.
         21    1    1    2  504  503  0.26386804272E+02  0.66798063422E+02  0.17800133227E+03  0.19194457274E+03  0.00000000000E+00 0.  1.
         21    1    1    2  505  504  0.34537101582E+02  0.58210788803E+02  0.28965708052E+03  0.29746013450E+03  0.00000000000E+00 0.  1.
          2    1    1    2  501    0 -0.11523519664E+03 -0.95209214991E+02  0.66564751993E+03  0.68222471807E+03  0.00000000000E+00 0. -1.
<scales pt_clust_3="61.94945" pt_clust_4="37.26642" pt_clust_5="37.26642" pt_clust_6="141.78195"></scales>
<clustering>
<clus scale="   37.266">  4  5 -1 -1</clus>
<clus scale="   61.949">  2  3  1 -1</clus>
<clus scale="  141.782">  1  6  2 -1</clus>
<clus scale="   61.949">  2  3  1 -1</clus>
</clustering>
</event>
<event>
 6    0  0.2433432E+002  0.9627710E+02  0.7546771E-02  0.1288325E+00
         21   -1    0    0  505  502  0.00000000000E+00  0.00000000000E+00  0.13545414247E+03  0.13545414247E+03  0.00000000000E+00 0.  1.
          2   -1    0    0  503    0 -0.00000000000E+00 -0.00000000000E+00 -0.60384204202E+03  0.60384204202E+03  0.00000000000E+00 0.  1.
         21    1    1    2  503  502  0.81757974682E+02  0.35753006963E+02 -0.67157659007E+02  0.11168166857E+03  0.00000000000E+00 0.  1.
         21    1    1    2  504  501 -0.34016930318E+02  0.86064782614E+02 -0.10588343308E+03  0.14062574358E+03  0.00000000000E+00 0.  1.
         21    1    1    2  505  504  0.19635619891E+02 -0.47692492844E+02  0.81834987250E+02  0.96732086613E+02  0.00000000000E+00 0.  1.
          2    1    1    2  501    0 -0.67376664255E+02 -0.74125296733E+02 -0.37718179470E+03  0.39025668573E+03  0.00000000000E+00 0.  1.
<scales pt_clust_3="96.27710" pt_clust_4="73.14091" pt_clust_5="51.57646" pt_clust_6="14000.00000"></scales>
<clustering>
<clus scale="   51.576">  1  5  2 -1</clus>
<clus scale="   73.141">  1  4  2 -1</clus>
<clus scale="   96.277">  1  3  2 -1</clus>
<clus scale="   51.576">  1  3  2 -1</clus>
</clustering>
</event>
<event>
 6    0  0.2433432E+002  0.1530133E+03  0.7546771E-02  0.1196818E+00
         -2   -1    0    0    0  501 -0.00000000000E+00  0.00000000000E+00  0.69256314758E+03  0.69256314758E+03  0.00000000000E+00 0. -1.
         21   -1    0    0  505  502  0.00000000000E+00 -0.00000000000E+00 -0.12460923764E+03  0.12460923764E+03  0.00000000000E+00 0.  1.
         21    1    1    2  503  501  0.61879306322E+02 -0.27436274885E+02  0.15218194157E+03  0.16655672028E+03  0.00000000000E+00 0.  1.
         21    1    1    2  504  503 -0.11566548545E+03 -0.10720788741E+03  0.93061392875E+02  0.18311870055E+03  0.00000000000E+00 0. -1.
         21    1    1    2  505  504  0.94005499350E+02  0.11808168693E+03  0.94456386573E+01  0.15122677932E+03  0.00000000000E+00 0.  1.
         -2    1    1    2    0  502 -0.40219320225E+02  0.16562475367E+02  0.31326493684E+03  0.31627018507E+03  0.00000000000E+00 0. -1.
<scales pt_clust_3="49.34955" pt_clust_4="14000.00000" pt_clust_5="153.01327" pt_clust_6="43.49608"></scales>
<clustering>
<clus scale="   43.496">  1  6  2 -1</clus>
<clus scale="   49.350">  1  3  2 -1</clus>
<clus scale="  153.013">  2  5  1 -1</clus>
<clus scale="  153.013">  2  3  1 -1</clus>
</clustering>
</event>
<event>
 6    0  0.2433432E+002  0.1721964E+03  0.7546771E-02  0.1175577E+00
          2   -1    0    0  504    0 -0.00000000000E+00  0.00000000000E+00  0.53725804892E+03  0.53725804892E+03  0.00000000000E+00 0. -1.
         21   -1    0    0  503  502  0.00000000000E+00 -0.00000000000E+00 -0.12315149937E+04  0.12315149937E+04  0.00000000000E+00 0.  1.
         21    1    1    2  503  501  0.33436610991E+02  0.17527753516E+03 -0.10345893786E+04  0.10498644692E+04  0.00000000000E+00 0.  1.
         21    1    1    2  504  505 -0.26182573678E+02  0.22633531255E+02 -0.13449121790E+02  0.37130617802E+02  0.00000000000E+00 0.  1.
         21    1    1    2  505  502  0.10332500773E+03 -0.67842650832E+02 -0.12359176440E+03  0.17479590019E+03  0.00000000000E+00 0.  1.
          2    1    1    2  501    0 -0.11057904504E+03 -0.13006841558E+03  0.47737332000E+03  0.50698205549E+03  0.00000000000E+00 0. -1.
<scales pt_clust_3="14000.00000" pt_clust_4="34.60930" pt_clust_5="121.93539" pt_clust_6="172.19640"></scales>
<clustering>
<clus scale="   34.609">  1  4  2 -1</clus>
<clus scale="  121.935">  2  5  1 -1</clus>
<clus scale="  172.196">  1  6  2 -1</clus>
<clus scale="  121.935">  2  3  1 -1</clus>
</clustering>
</event>
<event>
 6    0  0.2433432E+002  0.1386300E+03  0.7546771E-02  0.1215184E+00
         21   -1    0    0  505  502  0.00000000000E+00  0.00000000000E+00  0.10774346063E+04  0.10774346063E+04  0.00000000000E+00 0. -1.
          1   -1    0    0  504    0 -0.00000000000E+00 -0.00000000000E+00 -0.55870201843E+03  0.55870201843E+03  0.00000000000E+00 0.  1.
         21    1    1    2  503  501 -0.81806438421E+02  0.39994134161E+02  0.21761294253E+03  0.23589662331E+03  0.00000000000E+00 0. -1.
         21    1    1    2  504  502  0.17668756522E+03 -0.55908967560E+02  0.69283137620E+02  0.19784959316E+03  0.00000000000E+00 0. -1.
         21    1    1    2  505  503 -0.66381793617E+02 -0.71096496928E+01  0.71486436750E+03  0.71797503686E+03  0.00000000000E+00 0. -1.
          1    1    1    2  501    0 -0.28499333179E+02  0.23024483092E+02 -0.48302785973E+03  0.48441537144E+03  0.00000000000E+00 0.  1.
<scales pt_clust_3="138.62997" pt_clust_4="14000.00000" pt_clust_5="67.30053" pt_clust_6="36.63794"></scales>
<clustering>
<clus scale="   36.638">  2  6  1 -1</clus>
<clus scale="   67.301">  1  5  2 -1</clus>
<clus scale="  138.630">  1  3  2 -1</clus>
<clus scale="   67.301">  1  3  2 -1</clus>
</clustering>
</event>
<event>
 6    0  0.2433432E+002  0.4171137E+03  0.7546771E-02  0.1038010E+00
          2   -1    0    0  504    0 -0.00000000000E+00  0.00000000000E+00  0.82343187170E+03  0.82343187170E+03  0.00000000000E+00 0.  1.
         21   -1    0    0  501  502  0.00000000000E+00 -0.00000000000E+00 -0.37608077877E+03  0.37608077877E+03  0.00000000000E+00 0.  1.
         21    1    1    2  503  505 -0.34690134592E+03 -0.34677468493E+02 -0.11375694601E+03  0.36672021131E+03  0.00000000000E+00 0.  1.
         21    1    1    2  504  503 -0.19810018198E+02 -0.31586428983E+02  0.91347303517E+02  0.98663413567E+02  0.00000000000E+00 0.  1.
         21    1    1    2  505  502 -0.37624120917E+02 -0.48372811162E+02 -0.40210562877E+02  0.73296607707E+02  0.00000000000E+00 0. -1.
          2    1    1    2  501    0  0.40433548503E+03  0.11463670864E+03  0.50997129830E+03  0.66083241787E+03  0.00000000000E+00 0.  1.
<scales pt_clust_3="51.66525" pt_clust_4="37.28457" pt_clust_5="51.66525" pt_clust_6="398.53764"></scales>
<clustering>
<clus scale="   37.285">  1  4  2 -1</clus>
<clus scale="   51.665">  3  5 -1 -1</clus>
<clus scale="  398.538">  1  6  2 -1</clus>
<clus scale="  417.114">  2  3  1 -1</clus>
</clustering>
</event>
<event>
 6    0  0.2433432E+002  0.1938346E+03  0.7546771E-02  0.1155048E+00
         21   -1    0    0  503  502  0.00000000000E+00  0.00000000000E+00  0.62085090736E+03  0.62085090736E+03  0.00000000000E+00 0. -1.
          1   -1    0    0  505    0 -0.00000000000E+00 -0.00000000000E+00 -0.19484409527E+04  0.19484409527E+04  0.00000000000E+00 0.  1.
         21    1    1    2  503  504  0.43033788333E+02  0.23093012861E+03  0.47627190230E+03  0.53105136866E+03  0.00000000000E+00 0. -1.
         21    1    1    2  504  501 -0.83935099382E+02 -0.91364023507E+02  0.11210478061E+02  0.12457190902E+03  0.00000000000E+00 0.  1.
         21    1    1    2  505  502  0.12618926796E+03 -0.93745224366E+02 -0.80900038432E+02  0.17679568620E+03  0.00000000000E+00 0.  1.
          1    1    1    2  501    0 -0.85287956916E+02 -0.45820880737E+02 -0.17341723872E+04  0.17368728961E+04  0.00000000000E+00 0.  1.
<scales pt_clust_3="193.83458" pt_clust_4="14000.00000" pt_clust_5="142.53993" pt_clust_6="96.81730"></scales>
<clustering>
<clus scale="   96.817">  2  6  1 -1</clus>
<clus scale="  142.540">  2  5  1 -1</clus>
<clus scale="  193.835">  1  3  2 -1</clus>
<clus scale="  193.835">  1  3  2 -1</clus>
</clustering>
</event>
<event>
 6    0  0.2433432E+002  0.9616031E+02  0.7546771E-02  0.1288584E+00
         21   -1    0    0  504  502  0.00000000000E+00  0.00000000000E+00  0.82069027452E+03  0.82069027452E+03  0.00000000000E+00 0.  1.
         -2   -1    0    0    0  501 -0.00000000000E+00 -0.00000000000E+00 -0.18754120528E+03  0.18754120528E+03  0.00000000000E+00 0.  1.
         21    1    1    2  503  501 -0.48010026386E+02 -0.58979606754E+02  0.99669363452E+01  0.76700042155E+02  0.00000000000E+00 0.  1.
         21    1    1    2  504  503  0.14221987495E+01 -0.65681300958E+02  0.40612624828E+01  0.65822107212E+02  0.00000000000E+00 0.  1.
         21    1    1    2  505  502  0.25110630616E+02  0.76983021405E+02  0.73454374988E+03  0.73899353843E+03  0.00000000000E+00 0.  1.
         -2    1    1    2    0  505  0.21477197021E+02  0.47677886307E+02 -0.11542287948E+03  0.12671579200E+03  0.00000000000E+00 0.  1.
<scales pt_clust_3="45.58070" pt_clust_4="45.58070" pt_clust_5="82.71517" pt_clust_6="52.29198"></scales>
<clustering>
<clus scale="   45.581">  3  4 -1 -1</clus>
<clus scale="   52.292">  2  6  1 -1</clus>
<clus scale="   82.715">  1  5  2 -1</clus>
<clus scale="   82.715">  1  3  2 -1</clus>
</clustering>
</event>
<event>
 6    0  0.2433432E+002  0.1359066E+03  0.7546771E-02  0.1218946E+00
         21   -1    0    0  503  502  0.00000000000E+00  0.00000000000E+00  0.89945937154E+02  0.89945937154E+02  0.00000000000E+00 0. -1.
         -1   -1    0    0    0  501 -0.00000000000E+00 -0.00000000000E+00 -0.51012963505E+03  0.51012963505E+03  0.00000000000E+00 0. -1.
         21    1    1    2  503  505 -0.85593389008E+02  0.11014664035E+03 -0.25594822405E+03  0.29149271692E+03  0.00000000000E+00 0. -1.
         21    1    1    2  504  502  0.38282999895E+02 -0.13154619024E+03 -0.51415969586E+01  0.13710005203E+03  0.00000000000E+00 0. -1.
         21    1    1    2  505  501  0.14437959910E+02  0.26861307090E+02 -0.69670562895E+02  0.76052428226E+02  0.00000000000E+00 0. -1.
         -1    1    1    2    0  504  0.32872429203E+02 -0.54617571976E+01 -0.89423313987E+02  0.95430375027E+02  0.00000000000E+00 0. -1.
<scales pt_clust_3="135.90660" pt_clust_4="14000.00000" pt_clust_5="30.49565" pt_clust_6="35.92488"></scales>
<clustering>
<clus scale="   30.496">  2  5  1 -1</clus>
<clus scale="   35.925">  2  6  1 -1</clus>
<clus scale="  135.907">  2  3  1 -1</clus>
<clus scale="  135.907">  1  3  2 -1</clus>
</clustering>
</event>
<event>
 6    0  0.2433432E+002  0.1215823E+03  0.7546771E-02  0.1240509E+00
          1   -1    0    0  504    0 -0.00000000000E+00  0.00000000000E+00  0.20532101024E+04  0.20532101024E+04  0.00000000000E+00 0.  1.
         21   -1    0    0  503  502  0.00000000000E+00 -0.00000000000E+00 -0.23898647044E+03  0.23898647044E+03  0.00000000000E+00 0. -1.
         21    1    1    2  503  501  0.13010778459E+02  0.92348364288E+02 -0.69667373420E+02  0.11640895009E+03  0.00000000000E+00 0. -1.
         21    1    1    2  504  505  0.13578244061E+03 -0.94874504707E+02  0.25692893439E+03  0.30569677812E+03  0.00000000000E+00 0. -1.
         21    1    1    2  505  502 -0.11050712607E+03 -0.23548861354E+02 -0.94931117435E+02  0.14757469580E+03  0.00000000000E+00 0. -1.
          1    1    1    2  501    0 -0.38286093001E+02  0.26075001772E+02  0.17218931884E+04  0.17225161488E+04  0.00000000000E+00 0.  1.
<scales pt_clust_3="94.75173" pt_clust_4="121.58230" pt_clust_5="14000.00000" pt_clust_6="46.32203"></scales>
<clustering>
<clus scale="   46.322">  1  6  2 -1</clus>
<clus scale="   94.752">  2  3  1 -1</clus>
<clus scale="  121.582">  1  4  2 -1</clus>
<clus scale="   94.752">  2  3  1 -1</clus>
</clustering>
</event>
<event>
 6    0  0.2433432E+002  0.1117102E+03  0.7546771E-02  0.1257435E+00
         21   -1    0    0  501  502  0.00000000000E+00  0.00000000000E+00  0.33947369757E+03  0.33947369757E+03  0.00000000000E+00 0. -1.
          2   -1    0    0  505    0 -0.00000000000E+00 -0.00000000000E+00 -0.66746820998E+03  0.66746820998E+03  0.00000000000E+00 0. -1.
         21    1    1    2  503  502 -0.63438790443E+02 -0.10016326404E+03  0.29163689347E+03  0.31481619594E+03  0.00000000000E+00 0. -1.
         21    1    1    2  504  503  0.40572630693E+02 -0.85884113315E+00 -0.18286888506E+03  0.18731765825E+03  0.00000000000E+00 0. -1.
         21    1    1    2  505  504  0.32350871632E+02  0.97027607190E+01 -0.40684709786E+03  0.40824659644E+03  0.00000000000E+00 0. -1.
          2    1    1    2  501    0 -0.94847118823E+01  0.91319344458E+02 -0.29915422954E+02  0.96561456919E+02  0.00000000000E+00 0. -1.
<scales pt_clust_3="111.71017" pt_clust_4="63.89721" pt_clust_5="33.77458" pt_clust_6="14000.00000"></scales>
<clustering>
<clus scale="   33.775">  2  5  1 -1</clus>
<clus scale="   63.897">  2  4  1 -1</clus>
<clus scale="  111.710">  1  3  2 -1</clus>
<clus scale="  111.710">  1  3  2 -1</clus>
</clustering>
</event>
<event>
 6    0  0.2433432E+002  0.1378897E+03  0.7546771E-02  0.1216197E+00
          1   -1    0    0  503    0 -0.00000000000E+00  0.00000000000E+00  0.60257907945E+03  0.60257907945E+03  0.00000000000E+00 0. -1.
         21   -1    0    0  504  502  0.00000000000E+00 -0.00000000000E+00 -0.34749344547E+03  0.34749344547E+03  0.00000000000E+00 0.  1.
         21    1    1    2  503  505  0.65664399557E+02 -0.16048666512E+03 -0.14141116328E+03  0.22375187184E+03  0.00000000000E+00 0.  1.
         21    1    1    2  504  501 -0.63752952432E+02  0.83056005354E+02 -0.17081258540E+02  0.10608726767E+03  0.00000000000E+00 0.  1.
         21    1    1    2  505  502  0.27791765472E+02  0.29675761323E+02 -0.97725794980E+02  0.10584594486E+03  0.00000000000E+00 0.  1.
          1    1    1    2  501    0 -0.29703212597E+02  0.47754898445E+02  0.51130385079E+03  0.51438744055E+03  0.00000000000E+00 0. -1.
<scales pt_clust_3="137.88971" pt_clust_4="14000.00000" pt_clust_5="40.65751" pt_clust_6="56.30543"></scales>
<clustering>
<clus scale="   40.658">  2  5  1 -1</clus>
<clus scale="   56.305">  1  6  2 -1</clus>
<clus scale="  137.890">  2  3  1 -1</clus>
<clus scale="   40.658">  2  3  1 -1</clus>
</clustering>
</event>
<event>
 6    0  0.2433432E+002  0.1387305E+03  0.7546771E-02  0.1215047E+00
         21   -1    0    0  505  502  0.00000000000E+00  0.00000000000E+00  0.12693923540E+03  0.12693923540E+03  0.00000000000E+00 0.  1.
          2   -1    0    0  504    0 -0.00000000000E+00 -0.00000000000E+00 -0.36940002520E+03  0.36940002520E+03  0.00000000000E+00 0.  1.
         21    1    1    2  503  501 -0.13918126595E+02 -0.81843837966E+02 -0.82846933983E+02  0.11728487768E+03  0.00000000000E+00 0.  1.
         21    1    1    2  504  502 -0.20057502673E+02  0.14160529374E+03 -0.13173207899E+03  0.19444203060E+03  0.00000000000E+00 0. -1.
         21    1    1    2  505  503  0.21228745422E+02 -0.23513917013E+02  0.71422969054E+02  0.78133247942E+02  0.00000000000E+00 0.  1.
          2    1    1    2  501    0  0.12746883846E+02 -0.36247538760E+02 -0.99304745885E+02  0.10647910438E+03  0.00000000000E+00 0.  1.
<scales pt_clust_3="36.39851" pt_clust_4="127.67932" pt_clust_5="31.67908" pt_clust_6="36.39851"></scales>
<clustering>
<clus scale="   31.679">  1  5  2 -1</clus>
<clus scale="   36.399">  3  6 -1 -1</clus>
<clus scale="  127.679">  1  4  2 -1</clus>
<clus scale="   31.679">  1  3  2 -1</clus>
</clustering>
</event>
<event>
 6    0  0.2433432E+002  0.9198367E+02  0.7546771E-02  0.1298118E+00
          2   -1    0    0  502    0 -0.00000000000E+00  0.00000000000E+00  0.99100202847E+03  0.99100202847E+03  0.00000000000E+00 0.  1.
         21   -1    0    0  504  502  0.00000000000E+00 -0.00000000000E+00 -0.36206474039E+03  0.36206474039E+03  0.00000000000E+00 0.  1.
         21    1    1    2  503  501  0.39292066464E+02  0.10932674865E+03  0.15828494255E+03  0.19634237315E+03  0.00000000000E+00 0.  1.
         21    1    1    2  504  505  0.29824639830E+02  0.15671902193E+02 -0.17750563749E+03  0.18067476028E+03  0.00000000000E+00 0.  1.
         21    1    1    2  505  503 -0.34746527717E+02 -0.10373693260E+03 -0.14512300541E+03  0.18173981146E+03  0.00000000000E+00 0.  1.
          2    1    1    2  501    0 -0.34370178577E+02 -0.21261718249E+02  0.79328098843E+03  0.79430982396E+03  0.00000000000E+00 0.  1.
<scales pt_clust_3="91.98367" pt_clust_4="33.69151" pt_clust_5="14000.00000" pt_clust_6="40.32048"></scales>
<clustering>
<clus scale="   33.692">  2  4  1 -1</clus>
<clus scale="   40.320">  1  6  2 -1</clus>
<clus scale="   91.984">  1  3  2 -1</clus>
<clus scale="   33.692">  2  3  1 -1</clus>
</clustering>
</event>
<event>
 6    0  0.2433432E+002  0.9098316E+02  0.7546771E-02  0.1300488E+00
          2   -1    0    0  505    0 -0.00000000000E+00  0.00000000000E+00  0.77848461315E+03  0.77848461315E+03  0.00000000000E+00 0. -1.
         21   -1    0    0  503  502  0.00000000000E+00 -0.00000000000E+00 -0.58324983099E+03  0.58324983099E+03  0.00000000000E+00 0. -1.
         21    1    1    2  503  501 -0.26580825923E+02  0.10261855904E+03  0.26891716945E+02  0.10936303492E+03  0.00000000000E+00 0. -1.
         21    1    1    2  504  502  0.61404967309E+01 -0.90008097000E+02 -0.51557434701E+03  0.52340812997E+03  0.00000000000E+00 0. -1.
         21    1    1    2  505  504  0.74133528160E+02  0.13276536465E+02  0.45963983858E+02  0.88231140931E+02  0.00000000000E+00 0. -1.
          2    1    1    2  501    0 -0.53693198968E+02 -0.25886998509E+02  0.63795342837E+03  0.64073213832E+03  0.00000000000E+00 0. -1.
<scales pt_clust_3="14000.00000" pt_clust_4="90.98316" pt_clust_5="48.24789" pt_clust_6="59.60785"></scales>
<clustering>
<clus scale="   59.608">  1  6  2 -1</clus>
<clus scale="   48.248">  1  5  2 -1</clus>
<clus scale="   90.983">  2  4  1 -1</clus>
<clus scale="   90.983">  2  3  1 -1</clus>
</clustering>
</event>
<event>
 6    0  0.2433432E+002  0.1526113E+03  0.7546771E-02  0.1197300E+00
         21   -1    0    0  505  502  0.00000000000E+00  0.00000000000E+00  0.90077859117E+03  0.90077859117E+03  0.00000000000E+00 0.  1.
         -4   -1    0    0    0  501 -0.00000000000E+00 -0.00000000000E+00 -0.25430899580E+03  0.25430899580E+03  0.00000000000E+00 0.  1.
         21    1    1    2  503  502 -0.94432343605E+02  0.33174093064E+02  0.60005748624E+03  0.60834774165E+03  0.00000000000E+00 0.  1.
         21    1    1    2  504  501  0.65991361024E+02 -0.21598087055E+02  0.59892970380E+01  0.69693678144E+02  0.00000000000E+00 0. -1.
         21    1    1    2  505  504 -0.68211235352E+02 -0.44467122388E+02  0.23969209817E+03  0.25314501679E+03  0.00000000000E+00 0.  1.
         -4    1    1    2    0  503  0.96652217932E+02  0.32891116379E+02 -0.19926928608E+03  0.22390115038E+03  0.00000000000E+00 0.  1.
<scales pt_clust_3="152.61135" pt_clust_4="69.43585" pt_clust_5="80.12721" pt_clust_6="14000.00000"></scales>
<clustering>
<clus scale="   69.436">  2  4  1 -1</clus>
<clus scale="   80.127">  1  5  2 -1</clus>
<clus scale="  152.611">  1  3  2 -1</clus>
<clus scale="   80.127">  1  3  2 -1</clus>
</clustering>
</event>
<event>
 6    0  0.2433432E+002  0.8676038E+02  0.7546771E-02  0.1310892E+00
          2   -1    0    0  504    0 -0.00000000000E+00  0.00000000000E+00  0.19139448190E+04  0.19139448190E+04  0.00000000000E+00 0.  1.
         21   -1    0    0  503  502  0.00000000000E+00 -0.00000000000E+00 -0.51412634365E+02  0.51412634365E+02  0.00000000000E+00 0.  1.
         21    1    1    2  503  501 -0.40949415148E+02 -0.20093304077E+02 -0.30197995941E+02  0.54703879465E+02  0.00000000000E+00 0.  1.
         21    1    1    2  504  505 -0.21235704254E+02 -0.33739035281E+02  0.36761790306E+03  0.36977317410E+03  0.00000000000E+00 0.  1.
         21    1    1    2  505  502 -0.27352105071E+02 -0.33458104266E+02  0.85053880811E+02  0.95403066166E+02  0.00000000000E+00 0. -1.
          2    1    1    2  501    0  0.89537224473E+02  0.87290443624E+02  0.14400583967E+04  0.14454773336E+04  0.00000000000E+00 0.  1.
<scales pt_clust_3="86.76038" pt_clust_4="39.86575" pt_clust_5="45.52649" pt_clust_6="14000.00000"></scales>
<clustering>
<clus scale="   39.866">  1  4  2 -1</clus>
<clus scale="   45.526">  2  5  1 -1</clus>
<clus scale="   86.760">  2  3  1 -1</clus>
<clus scale="   45.526">  2  3  1 -1</clus>
</clustering>
</event>
<event>
 6    0  0.2433432E+002  0.1281926E+03  0.7546771E-02  0.1230163E+00
         21   -1    0    0  505  502  0.00000000000E+00  0.00000000000E+00  0.24360173001E+03  0.24360173001E+03  0.00000000000E+00 0.  1.
          1   -1    0    0  503    0 -0.00000000000E+00 -0.00000000000E+00 -0.97313057129E+02  0.97313057129E+02  0.00000000000E+00 0.  1.
         21    1    1    2  503  504 -0.10770541757E+02 -0.57761053446E+02  0.38560562689E+02  0.70279875212E+02  0.00000000000E+00 0.  1.
         21    1    1    2  504  502  0.41203036483E+02 -0.55677061492E+02  0.49640639205E+02  0.85216303912E+02  0.00000000000E+00 0.  1.
         21    1    1    2  505  501 -0.35343597551E+02 -0.59352957032E+01  0.55317341444E+02  0.65912107290E+02  0.00000000000E+00 0.  1.
          1    1    1    2  501    0  0.49111028241E+01  0.11937341064E+03  0.27701295473E+01  0.11950650073E+03  0.00000000000E+00 0.  1.
<scales pt_clust_3="50.58582" pt_clust_4="50.58582" pt_clust_5="35.83849" pt_clust_6="117.59282"></scales>
<clustering>
<clus scale="   35.838">  1  5  2 -1</clus>
<clus scale="   50.586">  3  4 -1 -1</clus>
<clus scale="  117.593">  2  6  1 -1</clus>
<clus scale="   35.838">  1  3  2 -1</clus>
</clustering>
</event>
<event>
 6    0  0.2433432E+002  0.1164568E+03  0.7546771E-02  0.1249059E+00
          3   -1    0    0  504    0 -0.00000000000E+00  0.00000000000E+00  0.25943178450E+03  0.25943178450E+03  0.00000000000E+00 0. -1.
         21   -1    0    0  501  502  0.00000000000E+00 -0.00000000000E+00 -0.39599411487E+03  0.39599411487E+03  0.00000000000E+00 0.  1.
         21    1    1    2  503  505  0.43068396531E+02  0.17008044737E+00 -0.10489640563E+03  0.11339387823E+03  0.00000000000E+00 0.  1.
         21    1    1    2  504  503  0.32388436458E+02 -0.36778000700E+02 -0.14747232370E+03  0.15540179667E+03  0.00000000000E+00 0.  1.
         21    1    1    2  505  502 -0.32952988699E+02 -0.67057189984E+02 -0.11091617509E+03  0.13373467796E+03  0.00000000000E+00 0.  1.
          3    1    1    2  501    0 -0.42503844289E+02  0.10366511024E+03  0.22672257405E+03  0.25289554650E+03  0.00000000000E+00 0. -1.
<scales pt_clust_3="36.63631" pt_clust_4="36.63631" pt_clust_5="74.71657" pt_clust_6="109.70381"></scales>
<clustering>
<clus scale="   36.636">  3  4 -1 -1</clus>
<clus scale="   74.717">  2  5  1 -1</clus>
<clus scale="  109.704">  1  6  2 -1</clus>
<clus scale="   74.717">  2  3  1 -1</clus>
</clustering>
</event>
<event>
 6    0  0.2433432E+002  0.2609173E+03  0.7546771E-02  0.1106593E+00
         21   -1    0    0  505  502  0.00000000000E+00  0.00000000000E+00  0.11192671390E+04  0.11192671390E+04  0.00000000000E+00 0.  1.
         -4   -1    0    0    0  501 -0.00000000000E+00 -0.00000000000E+00 -0.12468622625E+04  0.12468622625E+04  0.00000000000E+00 0.  1.
         21    1    1    2  503  504  0.72365962168E+02  0.24720348991E+03  0.14697528904E+03  0.29656050562E+03  0.00000000000E+00 0.  1.
         21    1    1    2  504  501  0.60647737775E+02  0.21898247661E+02 -0.29768445504E+02  0.71020009121E+02  0.00000000000E+00 0.  1.
         21    1    1    2  505  503  0.65399961401E+02 -0.27747296627E+02  0.85361157991E+03  0.85656278041E+03  0.00000000000E+00 0.  1.
         -4    1    1    2    0  502 -0.19841366134E+03 -0.24135444095E+03 -0.10984135469E+04  0.11419861064E+04  0.00000000000E+00 0.  1.
<scales pt_clust_3="260.91729" pt_clust_4="64.48008" pt_clust_5="71.10104" pt_clust_6="14000.00000"></scales>
<clustering>
<clus scale="   64.480">  2  4  1 -1</clus>
<clus scale="   71.101">  1  5  2 -1</clus>
<clus scale="  260.917">  1  3  2 -1</clus>
<clus scale="   71.101">  1  3  2 -1</clus>
</clustering>
</event>
<event>
 6    0  0.2433432E+002  0.1113950E+03  0.7546771E-02  0.1258008E+00
          2   -1    0    0  505    0 -0.00000000000E+00  0.00000000000E+00  0.18838269174E+04  0.18838269174E+04  0.00000000000E+00 0.  1.
         21   -1    0    0  503  502  0.00000000000E+00 -0.00000000000E+00 -0.14331249188E+02  0.14331249188E+02  0.00000000000E+00 0.  1.
         21    1    1    2  503  501  0.60064734671E+02 -0.23889882712E+01  0.33898931207E+03  0.34427784319E+03  0.00000000000E+00 0. -1.
         21    1    1    2  504  502  0.24438013180E+01 -0.55131542938E+02  0.10003489782E+03  0.11424727556E+03  0.00000000000E+00 0.  1.
         21    1    1    2  505  504 -0.10809432531E+02 -0.38075156288E+02  0.17281501544E+03  0.17728956800E+03  0.00000000000E+00 0.  1.
          2    1    1    2  501    0 -0.51699103458E+02  0.95595687497E+02  0.12576564429E+04  0.12623434798E+04  0.00000000000E+00 0.  1.
<scales pt_clust_3="60.11223" pt_clust_4="35.82210" pt_clust_5="35.82210" pt_clust_6="103.05178"></scales>
<clustering>
<clus scale="   35.822">  4  5 -1 -1</clus>
<clus scale="   60.112">  2  3  1 -1</clus>
<clus scale="  103.052">  1  6  2 -1</clus>
<clus scale="   60.112">  2  3  1 -1</clus>
</clustering>
</event>
<event>
 6    0  0.2433432E+002  0.1365630E+03  0.7546771E-02  0.1218030E+00
          2   -1    0    0  502    0 -0.00000000000E+00  0.00000000000E+00  0.10056840458E+04  0.10056840458E+04  0.00000000000E+00 0. -1.
         21   -1    0    0  505  502  0.00000000000E+00 -0.00000000000E+00 -0.75589555220E+03  0.75589555220E+03  0.00000000000E+00 0.  1.
         21    1    1    2  503  501  0.66702083088E+02  0.10604406437E+03  0.26561440611E+03  0.29367588292E+03  0.00000000000E+00 0. -1.
         21    1    1    2  504  503 -0.57985334529E+02 -0.60928265350E+02 -0.33137518625E+03  0.34188311834E+03  0.00000000000E+00 0. -1.
         21    1    1    2  505  504 -0.35399039239E+02 -0.20826824734E+02 -0.40374163031E+03  0.40582527355E+03  0.00000000000E+00 0.  1.
          2    1    1    2  501    0  0.26682290681E+02 -0.24288974284E+02  0.71929090405E+03  0.72019532320E+03  0.00000000000E+00 0. -1.
<scales pt_clust_3="124.02777" pt_clust_4="39.92240" pt_clust_5="39.92240" pt_clust_6="36.08184"></scales>
<clustering>
<clus scale="   36.082">  1  6  2 -1</clus>
<clus scale="   39.922">  4  5 -1 -1</clus>
<clus scale="  124.028">  1  3  2 -1</clus>
<clus scale="  136.563">  2  3  1 -1</clus>
</clustering>
</event>
<event>
 6    0  0.2433432E+002  0.1365992E+03  0.7546771E-02  0.1217980E+00
          2   -1    0    0  505    0 -0.00000000000E+00  0.00000000000E+00  0.17129091634E+04  0.17129091634E+04  0.00000000000E+00 0. -1.
         21   -1    0    0  503  502  0.00000000000E+00 -0.00000000000E+00 -0.63684664509E+03  0.63684664509E+03  0.00000000000E+00 0.  1.
         21    1    1    2  503  504  0.96949753554E+02  0.62267719128E+02 -0.39982784401E+03  0.41609954147E+03  0.00000000000E+00 0.  1.
         21    1    1    2  504  501 -0.12718441091E+02 -0.13060875727E+03 -0.18492469076E+03  0.22675437697E+03  0.00000000000E+00 0.  1.
         21    1    1    2  505  502  0.11725948684E+02 -0.29868416672E+02 -0.74947301449E+01  0.32951345450E+02  0.00000000000E+00 0.  1.
          2    1    1    2  501    0 -0.95957261148E+02  0.98209454814E+02  0.16683097832E+04  0.16739505446E+04  0.00000000000E+00 0. -1.
<scales pt_clust_3="113.00670" pt_clust_4="14000.00000" pt_clust_5="32.08770" pt_clust_6="136.59924"></scales>
<clustering>
<clus scale="   32.088">  2  5  1 -1</clus>
<clus scale="  113.007">  2  3  1 -1</clus>
<clus scale="  136.599">  1  6  2 -1</clus>
<clus scale="   32.088">  2  3  1 -1</clus>
</clustering>
</event>
<event>
 6    0  0.2433432E+002  0.9258952E+02  0.7546771E-02  0.1296699E+00
          2   -1    0    0  504    0 -0.00000000000E+00  0.00000000000E+00  0.14024251240E+04  0.14024251240E+04  0.00000000000E+00 0. -1.
         21   -1    0    0  503  502  0.00000000000E+00 -0.00000000000E+00 -0.54664738554E+03  0.54664738554E+03  0.00000000000E+00 0. -1.
         21    1    1    2  503  505  0.32485162163E+00 -0.34965244200E+02 -0.47309159411E+03  0.47438205093E+03  0.00000000000E+00 0. -1.
         21    1    1    2  504  502  0.16744903431E+03  0.16732785520E+02  0.54870447555E+02  0.17700263054E+03  0.00000000000E+00 0. -1.
         21    1    1    2  505  501 -0.78051202030E+02  0.66004779353E+01  0.14276393109E+03  0.16284070888E+03  0.00000000000E+00 0. -1.
          2    1    1    2  501    0 -0.89722683906E+02  0.11631980744E+02  0.11312349539E+04  0.11348471192E+04  0.00000000000E+00 0. -1.
<scales pt_clust_3="34.96675" pt_clust_4="14000.00000" pt_clust_5="78.02693" pt_clust_6="92.58952"></scales>
<clustering>
<clus scale="   34.967">  2  3  1 -1</clus>
<clus scale="   78.027">  2  5  1 -1</clus>
<clus scale="   92.590">  1  6  2 -1</clus>
<clus scale="   34.967">  2  3  1 -1</clus>
</clustering>
</event>
<event>
 6    0  0.2433432E+002  0.2137846E+03  0.7546771E-02  0.1138604E+00
         21   -1    0    0  505  502  0.00000000000E+00  0.00000000000E+00  0.58180279500E+02  0.58180279500E+02  0.00000000000E+00 0.  1.
          2   -1    0    0  504    0 -0.00000000000E+00 -0.00000000000E+00 -0.13898883912E+04  0.13898883912E+04  0.00000000000E+00 0.  1.
         21    1    1    2  503  502  0.86565404781E+01 -0.39271033454E+02 -0.16733053739E+02  0.43556226294E+02  0.00000000000E+00 0.  1.
         21    1    1    2  504  503 -0.31135666676E+02 -0.30182939585E+02 -0.10760915884E+03  0.11601797554E+03  0.00000000000E+00 0.  1.
         21    1    1    2  505  501 -0.19821061869E+03  0.67661512803E+02 -0.40008919891E+03  0.45159372977E+03  0.00000000000E+00 0.  1.
          2    1    1    2  501    0  0.22068974489E+03  0.17924602351E+01 -0.80727670023E+03  0.83690073913E+03  0.00000000000E+00 0.  1.
<scales pt_clust_3="40.21380" pt_clust_4="45.46112" pt_clust_5="213.78464" pt_clust_6="14000.00000"></scales>
<clustering>
<clus scale="   40.214">  1  3  2 -1</clus>
<clus scale="   45.461">  1  4  2 -1</clus>
<clus scale="  213.785">  1  5  2 -1</clus>
<clus scale="   40.214">  1  3  2 -1</clus>
</clustering>
</event>
<event>
 6    0  0.2433432E+002  0.1257432E+03  0.7546771E-02  0.1233912E+00
         21   -1    0    0  505  502  0.00000000000E+00  0.00000000000E+00  0.96400387663E+02  0.96400387663E+02  0.00000000000E+00 0.  1.
         -2   -1    0    0    0  501 -0.00000000000E+00 -0.00000000000E+00 -0.45800718214E+03  0.45800718214E+03  0.00000000000E+00 0. -1.
         21    1    1    2  503  504 -0.16287766153E+02 -0.11025531083E+03 -0.64075209186E+02  0.12855799207E+03  0.00000000000E+00 0.  1.
         21    1    1    2  504  502 -0.26927295252E+02  0.14879051739E+02  0.35000135560E+02  0.46599086895E+02  0.00000000000E+00 0.  1.
         21    1    1    2  505  501  0.30555607996E+02 -0.36717459172E+02 -0.65544577381E+02  0.81104306988E+02  0.00000000000E+00 0.  1.
         -2    1    1    2    0  503  0.12659453410E+02  0.13209371827E+03 -0.26698714347E+03  0.29814618385E+03  0.00000000000E+00 0. -1.
<scales pt_clust_3="125.74315" pt_clust_4="30.76468" pt_clust_5="43.78594" pt_clust_6="14000.00000"></scales>
<clustering>
<clus scale="   30.765">  1  4  2 -1</clus>
<clus scale="   43.786">  1  5  2 -1</clus>
<clus scale="  125.743">  1  3  2 -1</clus>
<clus scale="   30.765">  1  3  2 -1</clus>
</clustering>
</event>
<event>
 6    0  0.2924189E+002  0.9396939E+02  0.7546771E-02  0.1293514E+00
          2   -1    0    0  504    0 -0.00000000000E+00  0.00000000000E+00  0.13764253557E+04  0.13764253557E+04  0.00000000000E+00 0. -1.
         21   -1    0    0  503  502  0.00000000000E+00 -0.00000000000E+00 -0.55324111066E+03  0.55324111066E+03  0.00000000000E+00 0.  1.
         21    1    1    2  503  501  0.81917810417E+02 -0.77718169669E+02 -0.25948149872E+02  0.11586176264E+03  0.00000000000E+00 0.  1.
         21    1    1    2  504  505 -0.83578636427E+02  0.69422401521E+01 -0.17154573899E+01  0.83884003000E+02  0.00000000000E+00 0. -1.
         21    1    1    2  505  502 -0.71741256948E+02  0.57552330279E+02 -0.43363141882E+03  0.44327788808E+03  0.00000000000E+00 0.  1.
          2    1    1    2  501    0  0.73402082958E+02  0.13223599238E+02  0.12844792711E+04  0.12866428126E+04  0.00000000000E+00 0. -1.
<scales pt_clust_3="93.96939" pt_clust_4="52.02021" pt_clust_5="14000.00000" pt_clust_6="74.58371"></scales>
<clustering>
<clus scale="   74.584">  1  6  2 -1</clus>
<clus scale="   52.020">  1  4  2 -1</clus>
<clus scale="   93.969">  1  3  2 -1</clus>
<clus scale="   93.969">  2  3  1 -1</clus>
</clustering>
</event>
<event>
 6    0  0.2433432E+002  0.1197964E+03  0.7546771E-02  0.1243433E+00
         -1   -1    0    0    0  501 -0.00000000000E+00  0.00000000000E+00  0.49589043369E+03  0.49589043369E+03  0.00000000000E+00 0.  1.
         21   -1    0    0  504  502  0.00000000000E+00 -0.00000000000E+00 -0.33629977648E+03  0.33629977648E+03  0.00000000000E+00 0.  1.
         21    1    1    2  503  501  0.33986929362E+02  0.82682653979E+02  0.71752287065E+02  0.11462950465E+03  0.00000000000E+00 0. -1.
         21    1    1    2  504  503  0.17949177766E+03 -0.26842138673E+02 -0.15545833990E+03  0.23896672174E+03  0.00000000000E+00 0.  1.
         21    1    1    2  505  502 -0.75609377236E+02  0.89443374958E+00 -0.87564826186E+02  0.11569432450E+03  0.00000000000E+00 0.  1.
         -1    1    1    2    0  505 -0.13786932979E+03 -0.56734949056E+02  0.33086153623E+03  0.36289965927E+03  0.00000000000E+00 0.  1.
<scales pt_clust_3="87.08181" pt_clust_4="119.79642" pt_clust_5="75.61467" pt_clust_6="14000.00000"></scales>
<clustering>
<clus scale="   75.615">  2  5  1 -1</clus>
<clus scale="   87.082">  1  3  2 -1</clus>
<clus scale="  119.796">  2  4  1 -1</clus>
<clus scale="   75.615">  2  3  1 -1</clus>
</clustering>
</event>
<event>
 6    0  0.2433432E+002  0.1723958E+03  0.7546771E-02  0.1175372E+00
         21   -1    0    0  505  502  0.00000000000E+00  0.00000000000E+00  0.49746876909E+03  0.49746876909E+03  0.00000000000E+00 0.  1.
         -3   -1    0    0    0  501 -0.00000000000E+00 -0.00000000000E+00 -0.15391762969E+03  0.15391762969E+03  0.00000000000E+00 0.  1.
         21    1    1    2  503  504  0.13513363124E+02 -0.10979049826E+03  0.23330217625E+03  0.25819850877E+03  0.00000000000E+00 0.  1.
         21    1    1    2  504  502 -0.27152076034E+02 -0.48366819433E+02  0.15193828732E+03  0.16174618267E+03  0.00000000000E+00 0. -1.
         21    1    1    2  505  501  0.39426198937E+02 -0.53579508978E+01  0.31205890448E+02  0.50566198187E+02  0.00000000000E+00 0. -1.
         -3    1    1    2    0  503 -0.25787486027E+02  0.16351526859E+03 -0.72895214610E+02  0.18087550915E+03  0.00000000000E+00 0.  1.
<scales pt_clust_3="37.09035" pt_clust_4="37.09035" pt_clust_5="39.78860" pt_clust_6="164.24595"></scales>
<clustering>
<clus scale="   37.090">  3  4 -1 -1</clus>
<clus scale="   39.789">  1  5  2 -1</clus>
<clus scale="  164.246">  2  6  1 -1</clus>
<clus scale="   39.789">  1  3  2 -1</clus>
</clustering>
</event>
<event>
 6    0  0.2433432E+002  0.1588898E+03  0.7546771E-02  0.1189956E+00
         21   -1    0    0  503  502  0.00000000000E+00  0.00000000000E+00  0.48784479595E+03  0.48784479595E+03  0.00000000000E+00 0.  1.
          1   -1    0    0  504    0 -0.00000000000E+00 -0.00000000000E+00 -0.70727077297E+03  0.70727077297E+03  0.00000000000E+00 0.  1.
         21    1    1    2  503  501 -0.10654819649E+03 -0.14396239471E+03  0.30895702998E+03  0.35711641749E+03  0.00000000000E+00 0.  1.
         21    1    1    2  504  505 -0.28140362861E+02  0.18071446800E+03  0.30041867410E+02  0.18534322961E+03  0.00000000000E+00 0.  1.
         21    1    1    2  505  502  0.65232763649E+02  0.17543265365E+01  0.20429303335E+02  0.68379438061E+02  0.00000000000E+00 0.  1.
          1    1    1    2  501    0  0.69455795704E+02 -0.38506399821E+02 -0.57885417774E+03  0.58427648376E+03  0.00000000000E+00 0.  1.
<scales pt_clust_3="14000.00000" pt_clust_4="158.88984" pt_clust_5="65.25635" pt_clust_6="79.75955"></scales>
<clustering>
<clus scale="   65.256">  1  5  2 -1</clus>
<clus scale="   79.760">  2  6  1 -1</clus>
<clus scale="  158.890">  2  4  1 -1</clus>
<clus scale="   65.256">  1  3  2 -1</clus>
</clustering>
</event>
<event>
 6    0  0.2433432E+002  0.2433512E+03  0.7546771E-02  0.1117580E+00
          2   -1    0    0  505    0 -0.00000000000E+00  0.00000000000E+00  0.98691858931E+03  0.98691858931E+03  0.00000000000E+00 0. -1.
         21   -1    0    0  504  502  0.00000000000E+00 -0.00000000000E+00 -0.14122066777E+04  0.14122066777E+04  0.00000000000E+00 0.  1.
         21    1    1    2  503  501 -0.37892879465E+02 -0.21016372693E+03 -0.95830021463E+03  0.98180647980E+03  0.00000000000E+00 0.  1.
         21    1    1    2  504  503  0.27235291968E+02 -0.23047551579E+02 -0.10912872734E+03  0.11481302144E+03  0.00000000000E+00 0.  1.
         21    1    1    2  505  502  0.41786641645E+02  0.32093463632E+03 -0.24785938482E+03  0.40765112395E+03  0.00000000000E+00 0. -1.
          2    1    1    2  501    0 -0.31129054148E+02 -0.87723357812E+02  0.89000023843E+03  0.89485464179E+03  0.00000000000E+00 0. -1.
<scales pt_clust_3="14000.00000" pt_clust_4="35.67844" pt_clust_5="243.35120" pt_clust_6="93.10635"></scales>
<clustering>
<clus scale="   35.678">  2  4  1 -1</clus>
<clus scale="   93.106">  1  6  2 -1</clus>
<clus scale="  243.351">  1  5  2 -1</clus>
<clus scale="   35.678">  2  3  1 -1</clus>
</clustering>
</event>
<event>
 6    0  0.2433432E+002  0.2132112E+03  0.7546771E-02  0.1139048E+00
          2   -1    0    0  503    0 -0.00000000000E+00  0.00000000000E+00  0.47330742653E+03  0.47330742653E+03  0.00000000000E+00 0.  1.
         21   -1    0    0  504  502  0.00000000000E+00 -0.00000000000E+00 -0.89570527843E+03  0.89570527843E+03  0.00000000000E+00 0.  1.
         21    1    1    2  503  505  0.33567545794E+02  0.72197236845E+02 -0.23003780339E+03  0.24342681062E+03  0.00000000000E+00 0.  1.
         21    1    1    2  504  501  0.16289069436E+03 -0.15247160975E+03 -0.36245690569E+03  0.42562422226E+03  0.00000000000E+00 0.  1.
         21    1    1    2  505  502  0.11611746200E+02  0.28831183208E+02 -0.23745777824E+03  0.23948333183E+03  0.00000000000E+00 0.  1.
          2    1    1    2  501    0 -0.20806998635E+03  0.51443189699E+02  0.40755463543E+03  0.46047834026E+03  0.00000000000E+00 0.  1.
<scales pt_clust_3="121.03754" pt_clust_4="213.21119" pt_clust_5="30.62285" pt_clust_6="14000.00000"></scales>
<clustering>
<clus scale="   30.623">  3  5 -1 -1</clus>
<clus scale="  121.038">  2  3  1 -1</clus>
<clus scale="  213.211">  2  4  1 -1</clus>
<clus scale="  121.038">  2  3  1 -1</clus>
</clustering>
</event>
<event>
 6    0  0.2433432E+002  0.1981428E+03  0.7546771E-02  0.1151315E+00
         21   -1    0    0  501  502  0.00000000000E+00  0.00000000000E+00  0.66354577940E+02  0.66354577940E+02  0.00000000000E+00 0.  1.
          2   -1    0    0  505    0 -0.00000000000E+00 -0.00000000000E+00 -0.13049208392E+04  0.13049208392E+04  0.00000000000E+00 0.  1.
         21    1    1    2  503  504 -0.14220846265E+02  0.12012839865E+03 -0.44149422384E+03  0.45776655002E+03  0.00000000000E+00 0.  1.
         21    1    1    2  504  502 -0.25439992840E+02 -0.57013825446E+02  0.94663572914E+01  0.63145715991E+02  0.00000000000E+00 0. -1.
         21    1    1    2  505  503 -0.58703061689E+02  0.75643356295E+02 -0.22663833776E+03  0.24603435319E+03  0.00000000000E+00 0.  1.
          2    1    1    2  501    0  0.98363900793E+02 -0.13875792950E+03 -0.57990005690E+03  0.60432879790E+03  0.00000000000E+00 0.  1.
<scales pt_clust_3="66.04420" pt_clust_4="62.43212" pt_clust_5="66.04420" pt_clust_6="184.31071"></scales>
<clustering>
<clus scale="   62.432">  1  4  2 -1</clus>
<clus scale="   66.044">  3  5 -1 -1</clus>
<clus scale="  184.311">  2  6  1 -1</clus>
<clus scale="   62.432">  1  3  2 -1</clus>
</clustering>
</event>
<event>
 6    0  0.2433432E+002  0.8024274E+02  0.7546771E-02  0.1328364E+00
         -1   -1    0    0    0  501 -0.00000000000E+00  0.00000000000E+00  0.35353701527E+03  0.35353701527E+03  0.00000000000E+00 0.  1.
         21   -1    0    0  505  502  0.00000000000E+00 -0.00000000000E+00 -0.50343883117E+03  0.50343883117E+03  0.00000000000E+00 0. -1.
         21    1    1    2  503  501 -0.52357595927E+02  0.13234171828E+03 -0.10967628719E+02  0.14274430682E+03  0.00000000000E+00 0. -1.
         21    1    1    2  504  502 -0.36813865251E+02 -0.35654500931E+02 -0.34259014577E+02  0.61645633999E+02  0.00000000000E+00 0. -1.
         21    1    1    2  505  503  0.30910745995E+02 -0.46528442382E+02 -0.37110535681E+03  0.37528596566E+03  0.00000000000E+00 0. -1.
         -1    1    1    2    0  504  0.58260715182E+02 -0.50158774971E+02  0.26643018421E+03  0.27729993996E+03  0.00000000000E+00 0.  1.
<scales pt_clust_3="14000.00000" pt_clust_4="51.24943" pt_clust_5="75.74509" pt_clust_6="80.24274"></scales>
<clustering>
<clus scale="   51.249">  2  4  1 -1</clus>
<clus scale="   75.745">  2  5  1 -1</clus>
<clus scale="   80.243">  1  6  2 -1</clus>
<clus scale="   51.249">  2  3  1 -1</clus>
</clustering>
</event>
<event>
 6    0  0.2433432E+002  0.1211043E+03  0.7546771E-02  0.1241286E+00
          4   -1    0    0  505    0 -0.00000000000E+00  0.00000000000E+00  0.18657782376E+03  0.18657782376E+03  0.00000000000E+00 0. -1.
         21   -1    0    0  504  502  0.00000000000E+00 -0.00000000000E+00 -0.81764007082E+03  0.81764007082E+03  0.00000000000E+00 0.  1.
         21    1    1    2  503  502 -0.18371366576E+02  0.69174115808E+02 -0.98617462492E+02  0.12185224379E+03  0.00000000000E+00 0. -1.
         21    1    1    2  504  501  0.21976574679E+02 -0.39748914037E+02 -0.49567668632E+03  0.49775327560E+03  0.00000000000E+00 0.  1.
         21    1    1    2  505  503 -0.11542654007E+03  0.34570478711E+02  0.12777655503E+03  0.17562816450E+03  0.00000000000E+00 0. -1.
          4    1    1    2  501    0  0.11182133197E+03 -0.63995680482E+02 -0.16454465326E+03  0.20898421070E+03  0.00000000000E+00 0. -1.
<scales pt_clust_3="56.56571" pt_clust_4="45.41967" pt_clust_5="121.10433" pt_clust_6="14000.00000"></scales>
<clustering>
<clus scale="   45.420">  2  4  1 -1</clus>
<clus scale="   56.566">  2  3  1 -1</clus>
<clus scale="  121.104">  1  5  2 -1</clus>
<clus scale="   45.420">  2  3  1 -1</clus>
</clustering>
</event>
<event>
 6    0  0.2433432E+002  0.5447783E+02  0.7546771E-02  0.1422585E+00
          2   -1    0    0  504    0 -0.00000000000E+00  0.00000000000E+00  0.60190206384E+03  0.60190206384E+03  0.00000000000E+00 0.  1.
         21   -1    0    0  503  502  0.00000000000E+00 -0.00000000000E+00 -0.78042454935E+02  0.78042454935E+02  0.00000000000E+00 0.  1.
         21    1    1    2  503  501  0.47565032973E+02  0.13791775827E+02 -0.32768546029E+02  0.59383693478E+02  0.00000000000E+00 0.  1.
         21    1    1    2  504  505 -0.46907662612E+02 -0.54550888326E+01  0.12379372917E+03  0.13249518553E+03  0.00000000000E+00 0.  1.
         21    1    1    2  505  502 -0.73773167404E+02 -0.41091588738E+02  0.52611548101E+02  0.99493587168E+02  0.00000000000E+00 0.  1.
          2    1    1    2  501    0  0.73115797043E+02  0.32754901744E+02  0.38022287766E+03  0.38857205260E+03  0.00000000000E+00 0.  1.
<scales pt_clust_3="14000.00000" pt_clust_4="47.22379" pt_clust_5="54.47783" pt_clust_6="45.07140"></scales>
<clustering>
<clus scale="   47.224">  1  4  2 -1</clus>
<clus scale="   45.071">  1  6  2 -1</clus>
<clus scale="   54.478">  1  5  2 -1</clus>
<clus scale="   54.478">  2  3  1 -1</clus>
</clustering>
</event>
<event>
 6    0  0.2433432E+002  0.1642586E+03  0.7546771E-02  0.1183971E+00
         21   -1    0    0  501  502  0.00000000000E+00  0.00000000000E+00  0.96253376699E+03  0.96253376699E+03  0.00000000000E+00 0. -1.
          1   -1    0    0  505    0 -0.00000000000E+00 -0.00000000000E+00 -0.11825795734E+03  0.11825795734E+03  0.00000000000E+00 0. -1.
         21    1    1    2  503  502 -0.96961848245E+02 -0.85509862848E+01  0.70205830923E+03  0.70877400413E+03  0.00000000000E+00 0. -1.
         21    1    1    2  504  503 -0.82724596091E+01 -0.38389192587E+02  0.85479607663E+02  0.94068735623E+02  0.00000000000E+00 0.  1.
         21    1    1    2  505  504 -0.36132466080E+02 -0.69765678886E+02  0.52668955439E+02  0.94587652062E+02  0.00000000000E+00 0.  1.
          1    1    1    2  501    0  0.14136677393E+03  0.11670585776E+03  0.40689373196E+01  0.18336133251E+03  0.00000000000E+00 0. -1.
<scales pt_clust_3="97.33817" pt_clust_4="37.65621" pt_clust_5="37.65621" pt_clust_6="155.38328"></scales>
<clustering>
<clus scale="   37.656">  4  5 -1 -1</clus>
<clus scale="   97.338">  1  3  2 -1</clus>
<clus scale="  155.383">  2  6  1 -1</clus>
<clus scale="   97.338">  1  3  2 -1</clus>
</clustering>
</event>
<event>
 6    0  0.2433432E+002  0.9844556E+02  0.7546771E-02  0.1283599E+00
          1   -1    0    0  505    0 -0.00000000000E+00  0.00000000000E+00  0.25114039630E+04  0.25114039630E+04  0.00000000000E+00 0. -1.
         21   -1    0    0  504  502  0.00000000000E+00 -0.00000000000E+00 -0.23938029919E+02  0.23938029919E+02  0.00000000000E+00 0. -1.
         21    1    1    2  503  501  0.32330411252E+01  0.31817067716E+02  0.99892151561E+02  0.10488670219E+03  0.00000000000E+00 0.  1.
         21    1    1    2  504  503 -0.40131363142E+02  0.79267213699E+02  0.11473515118E+03  0.14511365336E+03  0.00000000000E+00 0. -1.
         21    1    1    2  505  502  0.38145096604E+02 -0.28889416963E+02  0.99082988134E+02  0.11003220140E+03  0.00000000000E+00 0. -1.
          1    1    1    2  501    0 -0.12467745871E+01 -0.82194864452E+02  0.21737556422E+04  0.21753094360E+04  0.00000000000E+00 0. -1.
<scales pt_clust_3="31.37115" pt_clust_4="31.37115" pt_clust_5="47.85025" pt_clust_6="83.41123"></scales>
<clustering>
<clus scale="   31.371">  3  4 -1 -1</clus>
<clus scale="   47.850">  2  5  1 -1</clus>
<clus scale="   83.411">  1  6  2 -1</clus>
<clus scale="   47.850">  2  3  1 -1</clus>
</clustering>
</event>
<event>
 6    0  0.2433432E+002  0.6538705E+02  0.7546771E-02  0.1376521E+00
         21   -1    0    0  505  502  0.00000000000E+00  0.00000000000E+00  0.26786884795E+03  0.26786884795E+03  0.00000000000E+00 0. -1.
          2   -1    0    0  504    0 -0.00000000000E+00 -0.00000000000E+00 -0.78760810196E+02  0.78760810196E+02  0.00000000000E+00 0. -1.
         21    1    1    2  503  501  0.11365767092E+02  0.67258329067E+02  0.20801515895E+02  0.71313158351E+02  0.00000000000E+00 0. -1.
         21    1    1    2  504  502 -0.85536996620E+02 -0.46542864899E+02  0.74090686700E+02  0.12236112912E+03  0.00000000000E+00 0. -1.
         21    1    1    2  505  503  0.56722717829E+02  0.66642768821E+01  0.10433845512E+03  0.11894701560E+03  0.00000000000E+00 0. -1.
          2    1    1    2  501    0  0.17448511700E+02 -0.27379741050E+02 -0.10122619952E+02  0.34008355079E+02  0.00000000000E+00 0. -1.
<scales pt_clust_3="58.29289" pt_clust_4="14000.00000" pt_clust_5="65.38705" pt_clust_6="32.46692"></scales>
<clustering>
<clus scale="   32.467">  2  6  1 -1</clus>
<clus scale="   58.293">  2  3  1 -1</clus>
<clus scale="   65.387">  1  5  2 -1</clus>
<clus scale="   65.387">  1  3  2 -1</clus>
</clustering>
</event>
<event>
 6    0  0.2433432E+002  0.1150107E+03  0.7546771E-02  0.1251562E+00
          1   -1    0    0  504    0 -0.00000000000E+00  0.00000000000E+00  0.10821324329E+04  0.10821324329E+04  0.00000000000E+00 0. -1.
         21   -1    0    0  505  502  0.00000000000E+00 -0.00000000000E+00 -0.54719548657E+02  0.54719548657E+02  0.00000000000E+00 0. -1.
         21    1    1    2  503  501 -0.86914986476E+02  0.71675591986E+02  0.53647770552E+02  0.12477855844E+03  0.00000000000E+00 0. -1.
         21    1    1    2  504  502 -0.37803081702E+01 -0.34510429277E+02  0.58522860782E+02  0.68045467835E+02  0.00000000000E+00 0. -1.
         21    1    1    2  505  503  0.40878775125E+01  0.38890320181E+02  0.25128090516E+02  0.46482132904E+02  0.00000000000E+00 0.  1.
          1    1    1    2  501    0  0.86607417134E+02 -0.76055482890E+02  0.89011416237E+03  0.89754582236E+03  0.00000000000E+00 0. -1.
<scales pt_clust_3="115.01074" pt_clust_4="34.71686" pt_clust_5="31.68501" pt_clust_6="14000.00000"></scales>
<clustering>
<clus scale="   34.717">  2  4  1 -1</clus>
<clus scale="   31.685">  2  5  1 -1</clus>
<clus scale="  115.011">  2  3  1 -1</clus>
<clus scale="   34.717">  2  3  1 -1</clus>
</clustering>
</event>
<event>
 6    0  0.2433432E+002  0.1019353E+03  0.7546771E-02  0.1276278E+00
         21   -1    0    0  505  502  0.00000000000E+00  0.00000000000E+00  0.11992887473E+03  0.11992887473E+03  0.00000000000E+00 0.  1.
          2   -1    0    0  503    0 -0.00000000000E+00 -0.00000000000E+00 -0.24175459728E+04  0.24175459728E+04  0.00000000000E+00 0.  1.
         21    1    1    2  503  502 -0.65319220855E+01 -0.53017894726E+02 -0.54374738508E+02  0.76224506264E+02  0.00000000000E+00 0.  1.
         21    1    1    2  504  501  0.92470661126E+02  0.46732606865E+02 -0.36886661052E+02  0.10997902290E+03  0.00000000000E+00 0.  1.
         21    1    1    2  505  504 -0.63862711076E+02 -0.64958826993E+02  0.42962540362E+02  0.10071680567E+03  0.00000000000E+00 0.  1.
          2    1    1    2  501    0 -0.22076027965E+02  0.71244114854E+02 -0.22493182389E+04  0.22505545127E+04  0.00000000000E+00 0.  1.
<scales pt_clust_3="53.41875" pt_clust_4="101.93533" pt_clust_5="14000.00000" pt_clust_6="74.30991"></scales>
<clustering>
<clus scale="   53.419">  1  3  2 -1</clus>
<clus scale="   74.310">  2  6  1 -1</clus>
<clus scale="  101.935">  2  4  1 -1</clus>
<clus scale="   53.419">  1  3  2 -1</clus>
</clustering>
</event>
<event>
 6    0  0.2433432E+002  0.8174381E+02  0.7546771E-02  0.1324174E+00
         21   -1    0    0  501  502  0.00000000000E+00  0.00000000000E+00  0.19483094717E+02  0.19483094717E+02  0.00000000000E+00 0. -1.
          2   -1    0    0  504    0 -0.00000000000E+00 -0.00000000000E+00 -0.96752339061E+03  0.96752339061E+03  0.00000000000E+00 0. -1.
         21    1    1    2  503  502 -0.95522056316E+02  0.21604180477E+02 -0.24386926502E+03  0.26279920525E+03  0.00000000000E+00 0. -1.
         21    1    1    2  504  505 -0.19551921601E+00  0.33648622610E+02 -0.12636725858E+03  0.13077060860E+03  0.00000000000E+00 0. -1.
         21    1    1    2  505  503  0.55607229783E+02  0.10954357475E+02 -0.28445937527E+03  0.29005050962E+03  0.00000000000E+00 0. -1.
          2    1    1    2  501    0  0.40110345750E+02 -0.66207160562E+02 -0.29334439702E+03  0.30338616186E+03  0.00000000000E+00 0. -1.
<scales pt_clust_3="81.74381" pt_clust_4="33.64919" pt_clust_5="59.91554" pt_clust_6="14000.00000"></scales>
<clustering>
<clus scale="   33.649">  2  4  1 -1</clus>
<clus scale="   59.916">  2  5  1 -1</clus>
<clus scale="   81.744">  1  3  2 -1</clus>
<clus scale="   81.744">  1  3  2 -1</clus>
</clustering>
</event>
<event>
 6    0  0.2433432E+002  0.1232302E+03  0.7546771E-02  0.1237861E+00
         21   -1    0    0  505  502  0.00000000000E+00  0.00000000000E+00  0.87747268626E+02  0.87747268626E+02  0.00000000000E+00 0.  1.
          1   -1    0    0  503    0 -0.00000000000E+00 -0.00000000000E+00 -0.86804184495E+03  0.86804184495E+03  0.00000000000E+00 0.  1.
         21    1    1    2  503  504 -0.54159473328E+02  0.73598129658E+01 -0.12726597301E+03  0.13850647380E+03  0.00000000000E+00 0.  1.
         21    1    1    2  504  502  0.16989117723E+03 -0.98274970107E+02 -0.16897268379E+03  0.25898407233E+03  0.00000000000E+00 0.  1.
         21    1    1    2  505  501 -0.79211329750E+02  0.60789641485E+02 -0.33583779465E+02  0.10534555290E+03  0.00000000000E+00 0.  1.
          1    1    1    2  501    0 -0.36520374155E+02  0.30125515656E+02 -0.45047214006E+03  0.45295301455E+03  0.00000000000E+00 0.  1.
<scales pt_clust_3="67.97017" pt_clust_4="14000.00000" pt_clust_5="123.23018" pt_clust_6="47.34221"></scales>
<clustering>
<clus scale="   47.342">  2  6  1 -1</clus>
<clus scale="   67.970">  2  3  1 -1</clus>
<clus scale="  123.230">  1  5  2 -1</clus>
<clus scale="  123.230">  1  3  2 -1</clus>
</clustering>
</event>
<event>
 6    0  0.2433432E+002  0.8877233E+02  0.7546771E-02  0.1305852E+00
         21   -1    0    0  504  502  0.00000000000E+00  0.00000000000E+00  0.98713806448E+02  0.98713806448E+02  0.00000000000E+00 0.  1.
          3   -1    0    0  505    0 -0.00000000000E+00 -0.00000000000E+00 -0.20188605965E+04  0.20188605965E+04  0.00000000000E+00 0.  1.
         21    1    1    2  503  501 -0.12057745208E+03  0.70346274320E+01 -0.31381534488E+03  0.33625656665E+03  0.00000000000E+00 0.  1.
         21    1    1    2  504  503  0.89897727474E+01 -0.10134640834E+03  0.25592093082E+02  0.10491361078E+03  0.00000000000E+00 0.  1.
         21    1    1    2  505  502  0.33252651344E+02  0.56924452287E+02 -0.30514930133E+02  0.72644979528E+02  0.00000000000E+00 0.  1.
          3    1    1    2  501    0  0.78335027985E+02  0.37387328623E+02 -0.16014086081E+04  0.16037592460E+04  0.00000000000E+00 0.  1.
<scales pt_clust_3="88.77233" pt_clust_4="65.01827" pt_clust_5="65.92520" pt_clust_6="14000.00000"></scales>
<clustering>
<clus scale="   65.925">  1  5  2 -1</clus>
<clus scale="   65.018">  1  4  2 -1</clus>
<clus scale="   88.772">  1  3  2 -1</clus>
<clus scale="   65.925">  1  3  2 -1</clus>
</clustering>
</event>
<event>
 6    0  0.2433432E+002  0.8197566E+02  0.7546771E-02  0.1323536E+00
          2   -1    0    0  504    0 -0.00000000000E+00  0.00000000000E+00  0.25239578682E+04  0.25239578682E+04  0.00000000000E+00 0. -1.
         21   -1    0    0  501  502  0.00000000000E+00 -0.00000000000E+00 -0.65637990596E+02  0.65637990596E+02  0.00000000000E+00 0.  1.
         21    1    1    2  503  502 -0.29642830179E+02  0.59199299778E+02 -0.17971274976E+02  0.68601903760E+02  0.00000000000E+00 0.  1.
         21    1    1    2  504  505  0.43952972643E+01 -0.49419813993E+02  0.30335563717E+03  0.30738620537E+03  0.00000000000E+00 0.  1.
         21    1    1    2  505  503  0.79822007224E+02  0.12293700498E+02  0.61911516601E+02  0.10176307679E+03  0.00000000000E+00 0.  1.
          2    1    1    2  501    0 -0.54574474309E+02 -0.22073186282E+02  0.21110239988E+04  0.21118446729E+04  0.00000000000E+00 0. -1.
<scales pt_clust_3="65.67980" pt_clust_4="49.61488" pt_clust_5="14000.00000" pt_clust_6="81.97566"></scales>
<clustering>
<clus scale="   49.615">  1  4  2 -1</clus>
<clus scale="   65.680">  2  3  1 -1</clus>
<clus scale="   81.976">  1  6  2 -1</clus>
<clus scale="   65.680">  2  3  1 -1</clus>
</clustering>
</event>
<event>
 6    0  0.2433432E+002  0.1554813E+03  0.7546771E-02  0.1193895E+00
          2   -1    0    0  504    0 -0.00000000000E+00  0.00000000000E+00  0.10369793618E+04  0.10369793618E+04  0.00000000000E+00 0. -1.
         21   -1    0    0  503  502  0.00000000000E+00 -0.00000000000E+00 -0.10321200326E+03  0.10321200326E+03  0.00000000000E+00 0. -1.
         21    1    1    2  503  501 -0.59140552148E+02 -0.16849981453E+03  0.71030786861E+02  0.19218523639E+03  0.00000000000E+00 0. -1.
         21    1    1    2  504  505  0.80277286275E+02  0.22546285808E+02  0.15230948034E+03  0.17364030493E+03  0.00000000000E+00 0. -1.
         21    1    1    2  505  502 -0.17045146553E+02  0.28012847209E+02 -0.17339396442E+02  0.37093278350E+02  0.00000000000E+00 0. -1.
          2    1    1    2  501    0 -0.40915875735E+01  0.11794068151E+03  0.72776648779E+03  0.73727254540E+03  0.00000000000E+00 0. -1.
<scales pt_clust_3="155.48131" pt_clust_4="82.26275" pt_clust_5="32.79111" pt_clust_6="14000.00000"></scales>
<clustering>
<clus scale="   32.791">  2  5  1 -1</clus>
<clus scale="   82.263">  1  4  2 -1</clus>
<clus scale="  155.481">  2  3  1 -1</clus>
<clus scale="   32.791">  2  3  1 -1</clus>
</clustering>
</event>
<event>
 6    0  0.2433432E+002  0.1243066E+03  0.7546771E-02  0.1236157E+00
         21   -1    0    0  504  502  0.00000000000E+00  0.00000000000E+00  0.25941351858E+02  0.25941351858E+02  0.00000000000E+00 0.  1.
          1   -1    0    0  502    0 -0.00000000000E+00 -0.00000000000E+00 -0.92609096673E+03  0.92609096673E+03  0.00000000000E+00 0.  1.
         21    1    1    2  503  501  0.10466847504E+03  0.23077503969E+02 -0.31358365574E+03  0.33139518705E+03  0.00000000000E+00 0.  1.
         21    1    1    2  504  505 -0.75646943403E+02 -0.24247335532E+02 -0.12396001887E+03  0.14722934356E+03  0.00000000000E+00 0.  1.
         21    1    1    2  505  503 -0.24144446942E+02 -0.40547505012E+02 -0.13275298589E+03  0.14089148215E+03  0.00000000000E+00 0. -1.
          1    1    1    2  501    0 -0.48770846964E+01  0.41717336575E+02 -0.32985295439E+03  0.33251630583E+03  0.00000000000E+00 0.  1.
<scales pt_clust_3="111.78899" pt_clust_4="41.90088" pt_clust_5="41.90088" pt_clust_6="42.00145"></scales>
<clustering>
<clus scale="   41.901">  4  5 -1 -1</clus>
<clus scale="   42.001">  2  6  1 -1</clus>
<clus scale="  111.789">  2  3  1 -1</clus>
<clus scale="  124.307">  1  3  2 -1</clus>
</clustering>
</event>
<event>
 6    0  0.2433432E+002  0.9250077E+02  0.7546771E-02  0.1296906E+00
         21   -1    0    0  503  502  0.00000000000E+00  0.00000000000E+00  0.28435961122E+03  0.28435961122E+03  0.00000000000E+00 0. -1.
          2   -1    0    0  505    0 -0.00000000000E+00 -0.00000000000E+00 -0.19697854746E+04  0.19697854746E+04  0.00000000000E+00 0.  1.
         21    1    1    2  503  501 -0.19769013069E+02  0.31912030761E+02 -0.22673544953E+02  0.43855230312E+02  0.00000000000E+00 0.  1.
         21    1    1    2  504  502  0.74839408250E+02 -0.20487522849E+02  0.92619029743E+02  0.12082615731E+03  0.00000000000E+00 0. -1.
         21    1    1    2  505  504 -0.11026824742E+03  0.16121946431E+02  0.14790447590E+03  0.18518838392E+03  0.00000000000E+00 0. -1.
          2    1    1    2  501    0  0.55197852239E+02 -0.27546454342E+02 -0.19032758241E+04  0.19042753143E+04  0.00000000000E+00 0.  1.
<scales pt_clust_3="37.53920" pt_clust_4="92.50077" pt_clust_5="14000.00000" pt_clust_6="61.63134"></scales>
<clustering>
<clus scale="   37.539">  1  3  2 -1</clus>
<clus scale="   61.631">  2  6  1 -1</clus>
<clus scale="   92.501">  1  4  2 -1</clus>
<clus scale="   37.539">  1  3  2 -1</clus>
</clustering>
</event>
<event>
 6    0  0.2433432E+002  0.1108277E+03  0.7546771E-02  0.1259045E+00
         21   -1    0    0  503  502  0.00000000000E+00  0.00000000000E+00  0.28981902931E+03  0.28981902931E+03  0.00000000000E+00 0. -1.
         -3   -1    0    0    0  501 -0.00000000000E+00 -0.00000000000E+00 -0.23755341829E+03  0.23755341829E+03  0.00000000000E+00 0.  1.
         21    1    1    2  503  501  0.46889853537E+02  0.81270999234E+02  0.92172103650E+02  0.13152691881E+03  0.00000000000E+00 0. -1.
         21    1    1    2  504  502 -0.72982835442E+01 -0.62415144094E+02  0.88307483923E+02  0.10838416338E+03  0.00000000000E+00 0. -1.
         21    1    1    2  505  504 -0.34537520058E+02 -0.50605491791E+02  0.66319855285E+02  0.90288865848E+02  0.00000000000E+00 0. -1.
         -3    1    1    2    0  505 -0.50540499351E+01  0.31749636650E+02 -0.19453383185E+03  0.19717249956E+03  0.00000000000E+00 0.  1.
<scales pt_clust_3="106.04395" pt_clust_4="31.80407" pt_clust_5="31.80407" pt_clust_6="32.14938"></scales>
<clustering>
<clus scale="   31.804">  4  5 -1 -1</clus>
<clus scale="   32.149">  2  6  1 -1</clus>
<clus scale="  106.044">  1  3  2 -1</clus>
<clus scale="  106.044">  1  3  2 -1</clus>
</clustering>
</event>
<event>
 6    0  0.2433432E+002  0.1842174E+03  0.7546771E-02  0.1163783E+00
         -1   -1    0    0    0  501 -0.00000000000E+00  0.00000000000E+00  0.68931087326E+03  0.68931087326E+03  0.00000000000E+00 0.  1.
         21   -1    0    0  504  502  0.00000000000E+00 -0.00000000000E+00 -0.49738099909E+03  0.49738099909E+03  0.00000000000E+00 0. -1.
         21    1    1    2  503  502 -0.24188294228E+02 -0.31590305487E+02 -0.80844019408E+01  0.40600228240E+02  0.00000000000E+00 0. -1.
         21    1    1    2  504  501  0.10713914770E+03 -0.12199039208E+03 -0.36219298680E+03  0.39691839516E+03  0.00000000000E+00 0. -1.
         21    1    1    2  505  503 -0.86836121145E+02  0.24587347310E+03  0.10234156255E+03  0.28012153101E+03  0.00000000000E+00 0. -1.
         -1    1    1    2    0  505  0.38852676713E+01 -0.92292775540E+02  0.45986570036E+03  0.46905171793E+03  0.00000000000E+00 0.  1.
<scales pt_clust_3="39.78720" pt_clust_4="184.21744" pt_clust_5="14000.00000" pt_clust_6="92.67143"></scales>
<clustering>
<clus scale="   39.787">  2  3  1 -1</clus>
<clus scale="   92.671">  1  6  2 -1</clus>
<clus scale="  184.217">  2  4  1 -1</clus>
<clus scale="   39.787">  2  3  1 -1</clus>
</clustering>
</event>
<event>
 6    0  0.2433432E+002  0.1587953E+03  0.7546771E-02  0.1190064E+00
          2   -1    0    0  505    0 -0.00000000000E+00  0.00000000000E+00  0.95934898332E+03  0.95934898332E+03  0.00000000000E+00 0. -1.
         21   -1    0    0  504  502  0.00000000000E+00 -0.00000000000E+00 -0.46573903030E+02  0.46573903030E+02  0.00000000000E+00 0.  1.
         21    1    1    2  503  502  0.26468935930E+02 -0.92029719274E+02  0.93580471034E+02  0.13389316024E+03  0.00000000000E+00 0.  1.
         21    1    1    2  504  501  0.37179089895E+02  0.97856383963E+01  0.17961866825E+02  0.42434326955E+02  0.00000000000E+00 0.  1.
         21    1    1    2  505  503  0.21456245894E+02 -0.46575338240E+02  0.11051591612E+03  0.12183349431E+03  0.00000000000E+00 0.  1.
          2    1    1    2  501    0 -0.85104271719E+02  0.12881941912E+03  0.69071682631E+03  0.70776190485E+03  0.00000000000E+00 0. -1.
<scales pt_clust_3="34.57691" pt_clust_4="38.44533" pt_clust_5="34.57691" pt_clust_6="151.60254"></scales>
<clustering>
<clus scale="   34.577">  3  5 -1 -1</clus>
<clus scale="   38.445">  2  4  1 -1</clus>
<clus scale="  151.603">  1  6  2 -1</clus>
<clus scale="   38.445">  2  3  1 -1</clus>
</clustering>
</event>
<event>
 6    0  0.2433432E+002  0.8313041E+02  0.7546771E-02  0.1320395E+00
         21   -1    0    0  504  502  0.00000000000E+00  0.00000000000E+00  0.79937276414E+02  0.79937276414E+02  0.00000000000E+00 0.  1.
          2   -1    0    0  505    0 -0.00000000000E+00 -0.00000000000E+00 -0.44700302156E+03  0.44700302156E+03  0.00000000000E+00 0. -1.
         21    1    1    2  503  502  0.80079026893E+02 -0.26588600607E+02 -0.24647572785E+03  0.26051849963E+03  0.00000000000E+00 0. -1.
         21    1    1    2  504  501 -0.77250322244E+02  0.30361818635E+02  0.32055465739E+02  0.88977554481E+02  0.00000000000E+00 0.  1.
         21    1    1    2  505  503  0.34455247058E+02  0.21841236533E+02 -0.45323968830E+02  0.60979224443E+02  0.00000000000E+00 0. -1.
          2    1    1    2  501    0 -0.37283951707E+02 -0.25614454561E+02 -0.10732151421E+03  0.11646501943E+03  0.00000000000E+00 0. -1.
<scales pt_clust_3="14000.00000" pt_clust_4="83.13041" pt_clust_5="40.79465" pt_clust_6="33.65575"></scales>
<clustering>
<clus scale="   40.795">  2  5  1 -1</clus>
<clus scale="   33.656">  2  6  1 -1</clus>
<clus scale="   83.130">  1  4  2 -1</clus>
<clus scale="   83.130">  1  3  2 -1</clus>
</clustering>
</event>
<event>
 6    0  0.2433432E+002  0.1192416E+03  0.7546771E-02  0.1244353E+00
         21   -1    0    0  503  502  0.00000000000E+00  0.00000000000E+00  0.30705607543E+03  0.30705607543E+03  0.00000000000E+00 0.  1.
          2   -1    0    0  504    0 -0.00000000000E+00 -0.00000000000E+00 -0.29368795890E+04  0.29368795890E+04  0.00000000000E+00 0. -1.
         21    1    1    2  503  505 -0.40977711424E+02 -0.19977730196E+02 -0.96878143107E+02  0.10706846944E+03  0.00000000000E+00 0. -1.
         21    1    1    2  504  502  0.62802249781E+02  0.75429368015E+02  0.28707361689E+03  0.30338914557E+03  0.00000000000E+00 0.  1.
         21    1    1    2  505  501 -0.10740594524E+03 -0.62218843278E+02 -0.64905822048E+03  0.66082054682E+03  0.00000000000E+00 0. -1.
          2    1    1    2  501    0  0.85581406881E+02  0.67672054599E+01 -0.21709607669E+04  0.21726575026E+04  0.00000000000E+00 0. -1.
<scales pt_clust_3="40.46591" pt_clust_4="98.79299" pt_clust_5="40.46591" pt_clust_6="85.84854"></scales>
<clustering>
<clus scale="   40.466">  3  5 -1 -1</clus>
<clus scale="   85.849">  2  6  1 -1</clus>
<clus scale="   98.793">  1  4  2 -1</clus>
<clus scale="   98.793">  1  3  2 -1</clus>
</clustering>
</event>
<event>
 6    0  0.2433432E+002  0.1026449E+03  0.7546771E-02  0.1274830E+00
         21   -1    0    0  503  502  0.00000000000E+00  0.00000000000E+00  0.75462891858E+02  0.75462891858E+02  0.00000000000E+00 0.  1.
          2   -1    0    0  505    0 -0.00000000000E+00 -0.00000000000E+00 -0.65165767163E+03  0.65165767163E+03  0.00000000000E+00 0.  1.
         21    1    1    2  503  504 -0.31266898039E+01 -0.38464625445E+02  0.88444598854E+01  0.39592020287E+02  0.00000000000E+00 0.  1.
         21    1    1    2  504  501 -0.10089580849E+03  0.84003014837E+02 -0.11539894348E+03  0.17479527119E+03  0.00000000000E+00 0.  1.
         21    1    1    2  505  502  0.48136073396E+02 -0.65686308205E+02 -0.66217034363E+02  0.10495936493E+03  0.00000000000E+00 0.  1.
          2    1    1    2  501    0  0.55886424901E+02  0.20147918814E+02 -0.40342326181E+03  0.40777390707E+03  0.00000000000E+00 0.  1.
<scales pt_clust_3="38.59150" pt_clust_4="14000.00000" pt_clust_5="102.64493" pt_clust_6="58.74763"></scales>
<clustering>
<clus scale="   38.591">  1  3  2 -1</clus>
<clus scale="   58.748">  2  6  1 -1</clus>
<clus scale="  102.645">  1  5  2 -1</clus>
<clus scale="   38.591">  1  3  2 -1</clus>
</clustering>
</event>
<event>
 6    0  0.2433432E+002  0.8874090E+02  0.7546771E-02  0.1305930E+00
         21   -1    0    0  505  502  0.00000000000E+00  0.00000000000E+00  0.22634958798E+02  0.22634958798E+02  0.00000000000E+00 0. -1.
          1   -1    0    0  504    0 -0.00000000000E+00 -0.00000000000E+00 -0.12526931570E+04  0.12526931570E+04  0.00000000000E+00 0.  1.
         21    1    1    2  503  502  0.42911675709E+02 -0.38361114719E+02 -0.25489485589E+03  0.26131279072E+03  0.00000000000E+00 0.  1.
         21    1    1    2  504  503  0.73434854480E+02  0.71881274241E+01 -0.13044575929E+03  0.14986808582E+03  0.00000000000E+00 0. -1.
         21    1    1    2  505  501 -0.23571235758E+02  0.23301823449E+02 -0.31859447633E+02  0.45973933209E+02  0.00000000000E+00 0.  1.
          1    1    1    2  501    0 -0.92775294431E+02  0.78711638458E+01 -0.81285813536E+03  0.81817330603E+03  0.00000000000E+00 0.  1.
<scales pt_clust_3="50.74056" pt_clust_4="88.74090" pt_clust_5="33.14481" pt_clust_6="14000.00000"></scales>
<clustering>
<clus scale="   33.145">  1  5  2 -1</clus>
<clus scale="   50.741">  1  3  2 -1</clus>
<clus scale="   88.741">  1  4  2 -1</clus>
<clus scale="   33.145">  1  3  2 -1</clus>
</clustering>
</event>
<event>
 6    0  0.2433432E+002  0.1284507E+03  0.7546771E-02  0.1229773E+00
          1   -1    0    0  505    0 -0.00000000000E+00  0.00000000000E+00  0.12005321911E+04  0.12005321911E+04  0.00000000000E+00 0. -1.
         21   -1    0    0  504  502  0.00000000000E+00 -0.00000000000E+00 -0.24030827210E+03  0.24030827210E+03  0.00000000000E+00 0. -1.
         21    1    1    2  503  502 -0.33450138108E+02 -0.49368669221E+02 -0.12053827764E+03  0.13448291198E+03  0.00000000000E+00 0. -1.
         21    1    1    2  504  501  0.10840727026E+03 -0.48901209175E+02  0.77858958107E+01  0.11918089057E+03  0.00000000000E+00 0. -1.
         21    1    1    2  505  503 -0.81738135035E+02  0.13034996981E+03  0.47282957291E+02  0.16095935946E+03  0.00000000000E+00 0. -1.
          1    1    1    2  501    0  0.67810028843E+01 -0.32080091412E+02  0.10256933435E+04  0.10262173012E+04  0.00000000000E+00 0. -1.
<scales pt_clust_3="60.54981" pt_clust_4="14000.00000" pt_clust_5="128.45069" pt_clust_6="32.78894"></scales>
<clustering>
<clus scale="   32.789">  1  6  2 -1</clus>
<clus scale="   60.550">  2  3  1 -1</clus>
<clus scale="  128.451">  1  5  2 -1</clus>
<clus scale="   60.550">  2  3  1 -1</clus>
</clustering>
</event>
<event>
 6    0  0.2433432E+002  0.1030443E+03  0.7546771E-02  0.1274021E+00
          2   -1    0    0  505    0 -0.00000000000E+00  0.00000000000E+00  0.68686116915E+03  0.68686116915E+03  0.00000000000E+00 0.  1.
         21   -1    0    0  503  502  0.00000000000E+00 -0.00000000000E+00 -0.30625127411E+03  0.30625127411E+03  0.00000000000E+00 0.  1.
         21    1    1    2  503  504  0.11570406897E+02  0.29218300027E+02 -0.97526253666E+02  0.10246440126E+03  0.00000000000E+00 0.  1.
         21    1    1    2  504  501  0.12244153304E+03 -0.20044170855E+02 -0.14140485476E+03  0.18811972451E+03  0.00000000000E+00 0.  1.
         21    1    1    2  505  502 -0.71390122966E+02  0.10030311689E+02 -0.71304434042E+01  0.72443081332E+02  0.00000000000E+00 0.  1.
          2    1    1    2  501    0 -0.62621816974E+02 -0.19204440861E+02  0.62667144687E+03  0.63008523616E+03  0.00000000000E+00 0.  1.
<scales pt_clust_3="31.42584" pt_clust_4="103.04435" pt_clust_5="14000.00000" pt_clust_6="65.33828"></scales>
<clustering>
<clus scale="   31.426">  2  3  1 -1</clus>
<clus scale="   65.338">  1  6  2 -1</clus>
<clus scale="  103.044">  2  4  1 -1</clus>
<clus scale="   31.426">  2  3  1 -1</clus>
</clustering>
</event>
<event>
 6    0  0.2433432E+002  0.1619156E+03  0.7546771E-02  0.1186551E+00
         -2   -1    0    0    0  501 -0.00000000000E+00  0.00000000000E+00  0.25840929076E+03  0.25840929076E+03  0.00000000000E+00 0. -1.
         21   -1    0    0  505  502  0.00000000000E+00 -0.00000000000E+00 -0.49516299673E+03  0.49516299673E+03  0.00000000000E+00 0. -1.
         21    1    1    2  503  504  0.91604327759E+02  0.24127393259E+02 -0.34229975071E+01  0.94790299512E+02  0.00000000000E+00 0.  1.
         21    1    1    2  504  501 -0.37427359989E+01  0.41547572674E+02  0.18326796386E+02  0.45564024555E+02  0.00000000000E+00 0.  1.
         21    1    1    2  505  503 -0.63889177298E+02  0.14580130220E+03 -0.34565929336E+03  0.38055248493E+03  0.00000000000E+00 0. -1.
         -2    1    1    2    0  502 -0.23972414462E+02 -0.21147626813E+03  0.94001788510E+02  0.23266547849E+03  0.00000000000E+00 0. -1.
<scales pt_clust_3="96.49046" pt_clust_4="41.71581" pt_clust_5="14000.00000" pt_clust_6="161.91559"></scales>
<clustering>
<clus scale="   41.716">  1  4  2 -1</clus>
<clus scale="   96.490">  1  3  2 -1</clus>
<clus scale="  161.916">  1  6  2 -1</clus>
<clus scale="  161.916">  2  3  1 -1</clus>
</clustering>
</event>
<event>
 6    0  0.2433432E+002  0.7701293E+02  0.7546771E-02  0.1337749E+00
         21   -1    0    0  504  502  0.00000000000E+00  0.00000000000E+00  0.16382021500E+03  0.16382021500E+03  0.00000000000E+00 0.  1.
          1   -1    0    0  503    0 -0.00000000000E+00 -0.00000000000E+00 -0.64117053428E+03  0.64117053428E+03  0.00000000000E+00 0.  1.
         21    1    1    2  503  502 -0.52173437342E+02  0.40619301764E+02 -0.74793534342E+02  0.99830195929E+02  0.00000000000E+00 0.  1.
         21    1    1    2  504  505  0.72734768795E+02 -0.30386554741E+02  0.11503157212E+03  0.13944874286E+03  0.00000000000E+00 0.  1.
         21    1    1    2  505  501  0.69924584621E+01 -0.62444621445E+02 -0.21932781569E+02  0.66552777028E+02  0.00000000000E+00 0.  1.
          1    1    1    2  501    0 -0.27553789915E+02  0.52211874422E+02 -0.49565557549E+03  0.49915903346E+03  0.00000000000E+00 0.  1.
<scales pt_clust_3="14000.00000" pt_clust_4="77.01293" pt_clust_5="46.40038" pt_clust_6="59.03635"></scales>
<clustering>
<clus scale="   59.036">  2  6  1 -1</clus>
<clus scale="   46.400">  2  5  1 -1</clus>
<clus scale="   77.013">  1  4  2 -1</clus>
<clus scale="   77.013">  1  3  2 -1</clus>
</clustering>
</event>
<event>
 6    0  0.2433432E+002  0.7098541E+02  0.7546771E-02  0.1356774E+00
          2   -1    0    0  504    0 -0.00000000000E+00  0.00000000000E+00  0.17043368730E+04  0.17043368730E+04  0.00000000000E+00 0.  1.
         21   -1    0    0  503  502  0.00000000000E+00 -0.00000000000E+00 -0.73399116737E+02  0.73399116737E+02  0.00000000000E+00 0. -1.
         21    1    1    2  503  501  0.48488629553E+01  0.32246942088E+02  0.75156441568E+02  0.81925987667E+02  0.00000000000E+00 0. -1.
         21    1    1    2  504  505  0.10075584419E+03 -0.38058330129E+02  0.17405758682E+03  0.20468566184E+03  0.00000000000E+00 0.  1.
         21    1    1    2  505  502 -0.37217245910E+02  0.19764101533E+02 -0.45603248935E+02  0.62091862719E+02  0.00000000000E+00 0. -1.
          2    1    1    2  501    0 -0.68387461239E+02 -0.13952713492E+02  0.14273269768E+04  0.14290324775E+04  0.00000000000E+00 0.  1.
<scales pt_clust_3="32.60946" pt_clust_4="70.98541" pt_clust_5="55.74484" pt_clust_6="14000.00000"></scales>
<clustering>
<clus scale="   32.609">  2  3  1 -1</clus>
<clus scale="   55.745">  2  5  1 -1</clus>
<clus scale="   70.985">  2  4  1 -1</clus>
<clus scale="   32.609">  2  3  1 -1</clus>
</clustering>
</event>
<event>
 6    0  0.2433432E+002  0.1015387E+03  0.7546771E-02  0.1277093E+00
          2   -1    0    0  505    0 -0.00000000000E+00  0.00000000000E+00  0.49192842655E+03  0.49192842655E+03  0.00000000000E+00 0. -1.
         21   -1    0    0  504  502  0.00000000000E+00 -0.00000000000E+00 -0.17983512899E+03  0.17983512899E+03  0.00000000000E+00 0.  1.
         21    1    1    2  503  501  0.43953551360E+02  0.59068928829E+02 -0.25780218123E+01  0.73672920579E+02  0.00000000000E+00 0.  1.
         21    1    1    2  504  503  0.92601788489E+02 -0.26159475241E+01 -0.96522239898E+02  0.13378519054E+03  0.00000000000E+00 0.  1.
         21    1    1    2  505  502 -0.42443878476E+02 -0.40342344738E+01  0.36797813540E+01  0.42793675452E+02  0.00000000000E+00 0.  1.
          2    1    1    2  501    0 -0.94111461373E+02 -0.52418746831E+02  0.40751377792E+03  0.42151176896E+03  0.00000000000E+00 0. -1.
<scales pt_clust_3="101.53865" pt_clust_4="62.35182" pt_clust_5="42.63517" pt_clust_6="14000.00000"></scales>
<clustering>
<clus scale="   42.635">  2  5  1 -1</clus>
<clus scale="   62.352">  2  4  1 -1</clus>
<clus scale="  101.539">  2  3  1 -1</clus>
<clus scale="   42.635">  2  3  1 -1</clus>
</clustering>
</event>
<event>
 6    0  0.2433432E+002  0.8796411E+02  0.7546771E-02  0.1307858E+00
         21   -1    0    0  504  502  0.00000000000E+00  0.00000000000E+00  0.94282062157E+03  0.94282062157E+03  0.00000000000E+00 0.  1.
          4   -1    0    0  503    0 -0.00000000000E+00 -0.00000000000E+00 -0.14589147902E+03  0.14589147902E+03  0.00000000000E+00 0.  1.
         21    1    1    2  503  505 -0.34958744078E+02 -0.29968463048E+02  0.35474769519E+02  0.58126429767E+02  0.00000000000E+00 0.  1.
         21    1    1    2  504  501  0.50024039177E+02 -0.12208999003E+02  0.42874272829E+03  0.43182379649E+03  0.00000000000E+00 0.  1.
         21    1    1    2  505  502 -0.12411795513E+03 -0.16677870313E+02  0.42575990883E+03  0.44379603211E+03  0.00000000000E+00 0.  1.
          4    1    1    2  501    0  0.10905266003E+03  0.58855332365E+02 -0.93048264094E+02  0.15496584223E+03  0.00000000000E+00 0.  1.
<scales pt_clust_3="46.04587" pt_clust_4="51.18671" pt_clust_5="87.96411" pt_clust_6="14000.00000"></scales>
<clustering>
<clus scale="   46.046">  2  3  1 -1</clus>
<clus scale="   51.187">  1  4  2 -1</clus>
<clus scale="   87.964">  1  5  2 -1</clus>
<clus scale="   51.187">  1  3  2 -1</clus>
</clustering>
</event>
<event>
 6    0  0.2433432E+002  0.2049665E+03  0.7546771E-02  0.1145615E+00
         21   -1    0    0  504  502  0.00000000000E+00  0.00000000000E+00  0.48386631427E+03  0.48386631427E+03  0.00000000000E+00 0. -1.
          2   -1    0    0  505    0 -0.00000000000E+00 -0.00000000000E+00 -0.24763634688E+03  0.24763634688E+03  0.00000000000E+00 0.  1.
         21    1    1    2  503  501  0.46598123867E+02 -0.18495186312E+02  0.87646950364E+01  0.50894763421E+02  0.00000000000E+00 0.  1.
         21    1    1    2  504  503  0.95922032833E+02 -0.10050456189E+03  0.10221954259E+03  0.17248489276E+03  0.00000000000E+00 0.  1.
         21    1    1    2  505  502 -0.13851279522E+03  0.15072778605E+03  0.28181756955E+03  0.34831853587E+03  0.00000000000E+00 0. -1.
          2    1    1    2  501    0 -0.40073614827E+01 -0.31728037846E+02 -0.15657183978E+03  0.15980446910E+03  0.00000000000E+00 0.  1.
<scales pt_clust_3="33.30322" pt_clust_4="33.30322" pt_clust_5="197.23899" pt_clust_6="31.98011"></scales>
<clustering>
<clus scale="   31.980">  2  6  1 -1</clus>
<clus scale="   33.303">  3  4 -1 -1</clus>
<clus scale="  197.239">  1  5  2 -1</clus>
<clus scale="  197.239">  1  3  2 -1</clus>
</clustering>
</event>
<event>
 6    0  0.2433432E+002  0.1059669E+03  0.7546771E-02  0.1268226E+00
          2   -1    0    0  503    0 -0.00000000000E+00  0.00000000000E+00  0.75667840012E+03  0.75667840012E+03  0.00000000000E+00 0. -1.
         21   -1    0    0  505  502  0.00000000000E+00 -0.00000000000E+00 -0.20362119608E+03  0.20362119608E+03  0.00000000000E+00 0.  1.
         21    1    1    2  503  502 -0.42217512811E+01 -0.44397623364E+02  0.72029775188E+01  0.45175823505E+02  0.00000000000E+00 0.  1.
         21    1    1    2  504  501  0.47204260809E+02 -0.71305991893E+02  0.11308007099E+03  0.14177407793E+03  0.00000000000E+00 0.  1.
         21    1    1    2  505  504  0.40042895857E+02  0.36979578870E+02 -0.16031384250E+03  0.16932646237E+03  0.00000000000E+00 0.  1.
          2    1    1    2  501    0 -0.83025405385E+02  0.78724036386E+02  0.59308799804E+03  0.60402323239E+03  0.00000000000E+00 0. -1.
<scales pt_clust_3="44.59789" pt_clust_4="105.96689" pt_clust_5="36.37113" pt_clust_6="14000.00000"></scales>
<clustering>
<clus scale="   44.598">  2  3  1 -1</clus>
<clus scale="   36.371">  2  5  1 -1</clus>
<clus scale="  105.967">  2  4  1 -1</clus>
<clus scale="   44.598">  2  3  1 -1</clus>
</clustering>
</event>
<event>
 6    0  0.2433432E+002  0.2913528E+03  0.7546771E-02  0.1089645E+00
         21   -1    0    0  503  502  0.00000000000E+00  0.00000000000E+00  0.26997898402E+03  0.26997898402E+03  0.00000000000E+00 0. -1.
          2   -1    0    0  504    0 -0.00000000000E+00 -0.00000000000E+00 -0.22429848941E+04  0.22429848941E+04  0.00000000000E+00 0.  1.
         21    1    1    2  503  505  0.19690709417E+03  0.15946227280E+03 -0.57172179678E+03  0.62535304676E+03  0.00000000000E+00 0.  1.
         21    1    1    2  504  502 -0.28456211202E+03 -0.24455380032E+02  0.14444342626E+03  0.32005868931E+03  0.00000000000E+00 0. -1.
         21    1    1    2  505  501  0.68770662839E+02  0.27904115191E+02 -0.23085890310E+03  0.24249510687E+03  0.00000000000E+00 0.  1.
          2    1    1    2  501    0  0.18884355010E+02 -0.16291100796E+03 -0.13148686365E+04  0.13250570352E+04  0.00000000000E+00 0.  1.
<scales pt_clust_3="31.24889" pt_clust_4="285.57427" pt_clust_5="31.24889" pt_clust_6="164.00188"></scales>
<clustering>
<clus scale="   31.249">  3  5 -1 -1</clus>
<clus scale="  164.002">  2  6  1 -1</clus>
<clus scale="  285.574">  1  4  2 -1</clus>
<clus scale="  285.574">  1  3  2 -1</clus>
</clustering>
</event>
<event>
 6    0  0.2433432E+002  0.9433928E+02  0.7546771E-02  0.1292671E+00
         -3   -1    0    0    0  501 -0.00000000000E+00  0.00000000000E+00  0.20320412994E+03  0.20320412994E+03  0.00000000000E+00 0. -1.
         21   -1    0    0  503  502  0.00000000000E+00 -0.00000000000E+00 -0.25393101255E+03  0.25393101255E+03  0.00000000000E+00 0.  1.
         21    1    1    2  503  505 -0.29356957729E+02 -0.91455823448E+02 -0.18624107722E+03  0.20955127643E+03  0.00000000000E+00 0.  1.
         21    1    1    2  504  501  0.11787414774E+02 -0.42791638067E+02 -0.30296496212E+01  0.44488720057E+02  0.00000000000E+00 0.  1.
         21    1    1    2  505  504 -0.21054426665E+02  0.63587951025E+02  0.51318601785E+02  0.84381960673E+02  0.00000000000E+00 0. -1.
         -3    1    1    2    0  502  0.38623969620E+02  0.70659510490E+02  0.87225242448E+02  0.11871318533E+03  0.00000000000E+00 0. -1.
<scales pt_clust_3="14000.00000" pt_clust_4="44.38544" pt_clust_5="50.50735" pt_clust_6="94.33928"></scales>
<clustering>
<clus scale="   44.385">  1  4  2 -1</clus>
<clus scale="   50.507">  1  5  2 -1</clus>
<clus scale="   94.339">  1  6  2 -1</clus>
<clus scale="   94.339">  2  3  1 -1</clus>
</clustering>
</event>
<event>
 6    0  0.2433432E+002  0.1273053E+03  0.7546771E-02  0.1231510E+00
          2   -1    0    0  503    0 -0.00000000000E+00  0.00000000000E+00  0.90166459833E+03  0.90166459833E+03  0.00000000000E+00 0. -1.
         21   -1    0    0  504  502  0.00000000000E+00 -0.00000000000E+00 -0.49622621888E+03  0.49622621888E+03  0.00000000000E+00 0.  1.
         21    1    1    2  503  505 -0.53072172423E+02  0.42168070910E+02 -0.14321765242E+03  0.15844903804E+03  0.00000000000E+00 0.  1.
         21    1    1    2  504  501 -0.42396541272E+02 -0.91803282386E+02 -0.29875408140E+03  0.31540340918E+03  0.00000000000E+00 0.  1.
         21    1    1    2  505  502 -0.43191621881E+01 -0.30307653370E+02 -0.26702939212E+02  0.40623342765E+02  0.00000000000E+00 0.  1.
          2    1    1    2  501    0  0.99787875884E+02  0.79942864847E+02  0.87411305248E+03  0.88341502722E+03  0.00000000000E+00 0. -1.
<scales pt_clust_3="63.32830" pt_clust_4="127.30533" pt_clust_5="30.61387" pt_clust_6="14000.00000"></scales>
<clustering>
<clus scale="   30.614">  2  5  1 -1</clus>
<clus scale="   63.328">  2  3  1 -1</clus>
<clus scale="  127.305">  2  4  1 -1</clus>
<clus scale="   30.614">  2  3  1 -1</clus>
</clustering>
</event>
<event>
 6    0  0.2433432E+002  0.1377015E+03  0.7546771E-02  0.1216456E+00
          1   -1    0    0  502    0 -0.00000000000E+00  0.00000000000E+00  0.12776424697E+04  0.12776424697E+04  0.00000000000E+00 0. -1.
         21   -1    0    0  504  502  0.00000000000E+00 -0.00000000000E+00 -0.21087432337E+03  0.21087432337E+03  0.00000000000E+00 0. -1.
         21    1    1    2  503  501  0.51690263703E+02  0.32531707813E+02  0.10587407774E+03  0.12222731165E+03  0.00000000000E+00 0. -1.
         21    1    1    2  504  505 -0.12054411618E+03  0.75608501543E+02 -0.16771060556E+03  0.21994175744E+03  0.00000000000E+00 0. -1.
         21    1    1    2  505  503  0.58676906654E+02 -0.75856626330E+02  0.26064630435E+03  0.27772955029E+03  0.00000000000E+00 0. -1.
          1    1    1    2  501    0  0.10176945819E+02 -0.32283583026E+02  0.86795836980E+03  0.86861817369E+03  0.00000000000E+00 0. -1.
<scales pt_clust_3="59.38894" pt_clust_4="137.70154" pt_clust_5="14000.00000" pt_clust_6="33.84967"></scales>
<clustering>
<clus scale="   33.850">  1  6  2 -1</clus>
<clus scale="   59.389">  1  3  2 -1</clus>
<clus scale="  137.702">  2  4  1 -1</clus>
<clus scale="  137.702">  2  3  1 -1</clus>
</clustering>
</event>
<event>
 6    0  0.2433432E+002  0.1319469E+03  0.7546771E-02  0.1224595E+00
         21   -1    0    0  501  502  0.00000000000E+00  0.00000000000E+00  0.26652118625E+03  0.26652118625E+03  0.00000000000E+00 0. -1.
          2   -1    0    0  505    0 -0.00000000000E+00 -0.00000000000E+00 -0.12931956551E+04  0.12931956551E+04  0.00000000000E+00 0. -1.
         21    1    1    2  503  502  0.21769029312E+02  0.50676331158E+02  0.25066986653E+03  0.25666585897E+03  0.00000000000E+00 0. -1.
         21    1    1    2  504  503  0.23599297391E+02 -0.41573065836E+02 -0.19329228161E+03  0.19911592797E+03  0.00000000000E+00 0. -1.
         21    1    1    2  505  504  0.81003083259E+02 -0.13435598219E+02 -0.41933351143E+03  0.42729686238E+03  0.00000000000E+00 0. -1.
          2    1    1    2  501    0 -0.12637140996E+03  0.43323328968E+01 -0.66471854235E+03  0.67663819203E+03  0.00000000000E+00 0. -1.
<scales pt_clust_3="55.15416" pt_clust_4="42.58588" pt_clust_5="42.58588" pt_clust_6="119.56159"></scales>
<clustering>
<clus scale="   42.586">  4  5 -1 -1</clus>
<clus scale="   55.154">  1  3  2 -1</clus>
<clus scale="  119.562">  2  6  1 -1</clus>
<clus scale="   55.154">  1  3  2 -1</clus>
</clustering>
</event>
<event>
 6    0  0.2433432E+002  0.2781295E+03  0.7546771E-02  0.1096715E+00
         21   -1    0    0  505  502  0.00000000000E+00  0.00000000000E+00  0.20688031891E+03  0.20688031891E+03  0.00000000000E+00 0. -1.
          2   -1    0    0  504    0 -0.00000000000E+00 -0.00000000000E+00 -0.66819875354E+03  0.66819875354E+03  0.00000000000E+00 0.  1.
         21    1    1    2  503  502 -0.22224350777E+02 -0.81267536940E+02 -0.67187984972E+02  0.10776158709E+03  0.00000000000E+00 0. -1.
         21    1    1    2  504  503  0.18100909686E+02 -0.19599037873E+03 -0.12475161851E+02  0.19721942386E+03  0.00000000000E+00 0. -1.
         21    1    1    2  505  501  0.27893476603E+02  0.24429476451E+03 -0.69788101966E+02  0.25559412587E+03  0.00000000000E+00 0. -1.
          2    1    1    2  501    0 -0.23770035512E+02  0.32963151154E+02 -0.31186718584E+03  0.31450393563E+03  0.00000000000E+00 0.  1.
<scales pt_clust_3="64.07871" pt_clust_4="64.07871" pt_clust_5="259.95720" pt_clust_6="40.63968"></scales>
<clustering>
<clus scale="   40.640">  2  6  1 -1</clus>
<clus scale="   64.079">  3  4 -1 -1</clus>
<clus scale="  259.957">  1  5  2 -1</clus>
<clus scale="  259.957">  1  3  2 -1</clus>
</clustering>
</event>
<event>
 6    0  0.2433432E+002  0.1302555E+03  0.7546771E-02  0.1227077E+00
         21   -1    0    0  505  502  0.00000000000E+00  0.00000000000E+00  0.49532891441E+02  0.49532891441E+02  0.00000000000E+00 0.  1.
          1   -1    0    0  503    0 -0.00000000000E+00 -0.00000000000E+00 -0.87135004041E+03  0.87135004041E+03  0.00000000000E+00 0.  1.
         21    1    1    2  503  504 -0.10700674344E+03 -0.48750002823E+02 -0.14578731111E+03  0.18729908168E+03  0.00000000000E+00 0.  1.
         21    1    1    2  504  502 -0.43901420321E+02  0.52616044783E+02 -0.10856741174E+03  0.12838483465E+03  0.00000000000E+00 0.  1.
         21    1    1    2  505  501  0.28567741268E+02 -0.66483507443E+02 -0.17509167289E+03  0.18945518340E+03  0.00000000000E+00 0.  1.
          1    1    1    2  501    0  0.12234042249E+03  0.62617465483E+02 -0.39237075323E+03  0.41574383212E+03  0.00000000000E+00 0.  1.
<scales pt_clust_3="130.25545" pt_clust_4="68.52578" pt_clust_5="60.56208" pt_clust_6="14000.00000"></scales>
<clustering>
<clus scale="   68.526">  1  4  2 -1</clus>
<clus scale="   60.562">  1  5  2 -1</clus>
<clus scale="  130.255">  1  3  2 -1</clus>
<clus scale="   68.526">  1  3  2 -1</clus>
</clustering>
</event>
<event>
 6    0  0.2433432E+002  0.1420870E+03  0.7546771E-02  0.1210548E+00
         21   -1    0    0  505  502  0.00000000000E+00  0.00000000000E+00  0.14927490005E+04  0.14927490005E+04  0.00000000000E+00 0. -1.
          2   -1    0    0  504    0 -0.00000000000E+00 -0.00000000000E+00 -0.15666026394E+04  0.15666026394E+04  0.00000000000E+00 0.  1.
         21    1    1    2  503  502  0.95374457766E+02  0.10501044546E+03  0.14681807758E+04  0.14750180580E+04  0.00000000000E+00 0. -1.
         21    1    1    2  504  503 -0.67306633092E+02 -0.20823482589E+03 -0.84033614409E+03  0.86836441695E+03  0.00000000000E+00 0.  1.
         21    1    1    2  505  501 -0.18088100894E+02  0.61205513878E+02 -0.15580388514E+03  0.16836907361E+03  0.00000000000E+00 0.  1.
          2    1    1    2  501    0 -0.99797237790E+01  0.42018866548E+02 -0.54589438549E+03  0.54760009144E+03  0.00000000000E+00 0.  1.
<scales pt_clust_3="142.08704" pt_clust_4="14000.00000" pt_clust_5="70.67714" pt_clust_6="43.18773"></scales>
<clustering>
<clus scale="   43.188">  2  6  1 -1</clus>
<clus scale="   70.677">  2  5  1 -1</clus>
<clus scale="  142.087">  1  3  2 -1</clus>
<clus scale="  142.087">  1  3  2 -1</clus>
</clustering>
</event>
<event>
 6    0  0.2433432E+002  0.2409874E+03  0.7546771E-02  0.1119137E+00
         21   -1    0    0  505  502  0.00000000000E+00  0.00000000000E+00  0.69830043552E+03  0.69830043552E+03  0.00000000000E+00 0.  1.
         -1   -1    0    0    0  501 -0.00000000000E+00 -0.00000000000E+00 -0.12783774533E+03  0.12783774533E+03  0.00000000000E+00 0.  1.
         21    1    1    2  503  502  0.55100198250E+02  0.51399697306E+01  0.21742018341E+03  0.22435237305E+03  0.00000000000E+00 0.  1.
         21    1    1    2  504  501 -0.12381549784E+03 -0.14425976197E+03  0.14650321183E+03  0.24000905713E+03  0.00000000000E+00 0.  1.
         21    1    1    2  505  504 -0.22213024267E+02 -0.64700494298E+02  0.79840515083E+02  0.10513838623E+03  0.00000000000E+00 0.  1.
         -1    1    1    2    0  503  0.90928323860E+02  0.20382028654E+03  0.12669877987E+03  0.25663836444E+03  0.00000000000E+00 0.  1.
<scales pt_clust_3="55.33942" pt_clust_4="32.34003" pt_clust_5="32.34003" pt_clust_6="234.87944"></scales>
<clustering>
<clus scale="   32.340">  4  5 -1 -1</clus>
<clus scale="   55.339">  1  3  2 -1</clus>
<clus scale="  234.879">  2  6  1 -1</clus>
<clus scale="   55.339">  1  3  2 -1</clus>
</clustering>
</event>
<event>
 6    0  0.2433432E+002  0.9056396E+02  0.7546771E-02  0.1301492E+00
         21   -1    0    0  505  502  0.00000000000E+00  0.00000000000E+00  0.47414533280E+03  0.47414533280E+03  0.00000000000E+00 0. -1.
          1   -1    0    0  504    0 -0.00000000000E+00 -0.00000000000E+00 -0.26041526872E+03  0.26041526872E+03  0.00000000000E+00 0. -1.
         21    1    1    2  503  502 -0.54116961277E+00  0.50956070451E+02  0.32850279979E+03  0.33243180270E+03  0.00000000000E+00 0. -1.
         21    1    1    2  504  503 -0.38678490309E+02 -0.11988860571E+03  0.54847616496E+02  0.13739564923E+03  0.00000000000E+00 0. -1.
         21    1    1    2  505  501 -0.63765488688E+01  0.41193988962E+02  0.34276234730E+02  0.53967262014E+02  0.00000000000E+00 0. -1.
          1    1    1    2  501    0  0.45596208791E+02  0.27738546296E+02 -0.20389658693E+03  0.21076588758E+03  0.00000000000E+00 0. -1.
<scales pt_clust_3="90.56396" pt_clust_4="14000.00000" pt_clust_5="41.68459" pt_clust_6="53.49917"></scales>
<clustering>
<clus scale="   41.685">  1  5  2 -1</clus>
<clus scale="   53.499">  2  6  1 -1</clus>
<clus scale="   90.564">  1  3  2 -1</clus>
<clus scale="   41.685">  1  3  2 -1</clus>
</clustering>
</event>
<event>
 6    0  0.2433432E+002  0.8974212E+02  0.7546771E-02  0.1303477E+00
         21   -1    0    0  504  502  0.00000000000E+00  0.00000000000E+00  0.12742053945E+03  0.12742053945E+03  0.00000000000E+00 0.  1.
         -2   -1    0    0    0  501 -0.00000000000E+00 -0.00000000000E+00 -0.44944859276E+03  0.44944859276E+03  0.00000000000E+00 0.  1.
         21    1    1    2  503  501 -0.10588226560E+03  0.54719915568E+02  0.12151785527E+02  0.11980396162E+03  0.00000000000E+00 0.  1.
         21    1    1    2  504  503  0.18350135630E+02 -0.48832170260E+02  0.35380868907E+02  0.63032644039E+02  0.00000000000E+00 0. -1.
         21    1    1    2  505  502  0.74337174728E+02 -0.36704031705E+02 -0.14536515498E+03  0.16734464370E+03  0.00000000000E+00 0.  1.
         -2    1    1    2    0  505  0.13194955244E+02  0.30816286397E+02 -0.22419555277E+03  0.22668788285E+03  0.00000000000E+00 0.  1.
<scales pt_clust_3="14000.00000" pt_clust_4="50.69240" pt_clust_5="89.74212" pt_clust_6="33.52239"></scales>
<clustering>
<clus scale="   33.522">  2  6  1 -1</clus>
<clus scale="   50.692">  1  4  2 -1</clus>
<clus scale="   89.742">  2  5  1 -1</clus>
<clus scale="   50.692">  1  3  2 -1</clus>
</clustering>
</event>
<event>
 6    0  0.2433432E+002  0.1131032E+03  0.7546771E-02  0.1254929E+00
          2   -1    0    0  504    0 -0.00000000000E+00  0.00000000000E+00  0.14022913709E+04  0.14022913709E+04  0.00000000000E+00 0.  1.
         21   -1    0    0  503  502  0.00000000000E+00 -0.00000000000E+00 -0.17041877189E+04  0.17041877189E+04  0.00000000000E+00 0.  1.
         21    1    1    2  503  505 -0.23634561449E+02 -0.11169510327E+03 -0.16777471942E+04  0.16816271990E+04  0.00000000000E+00 0.  1.
         21    1    1    2  504  502 -0.52940330941E+02  0.62229864891E+02  0.91774704111E+02  0.12287323158E+03  0.00000000000E+00 0.  1.
         21    1    1    2  505  501  0.35854968642E+02  0.48554318695E+02  0.97278747174E+02  0.11448255453E+03  0.00000000000E+00 0.  1.
          2    1    1    2  501    0  0.40719923748E+02  0.91091968615E+00  0.11867973950E+04  0.11874961047E+04  0.00000000000E+00 0.  1.
<scales pt_clust_3="14000.00000" pt_clust_4="70.66727" pt_clust_5="113.10319" pt_clust_6="40.73011"></scales>
<clustering>
<clus scale="   40.730">  1  6  2 -1</clus>
<clus scale="   70.667">  1  4  2 -1</clus>
<clus scale="  113.103">  1  5  2 -1</clus>
<clus scale="  113.103">  2  3  1 -1</clus>
</clustering>
</event>
<event>
 6    0  0.2433432E+002  0.1349463E+03  0.7546771E-02  0.1220296E+00
          2   -1    0    0  505    0 -0.00000000000E+00  0.00000000000E+00  0.17203021382E+04  0.17203021382E+04  0.00000000000E+00 0.  1.
         21   -1    0    0  503  502  0.00000000000E+00 -0.00000000000E+00 -0.20330166802E+03  0.20330166802E+03  0.00000000000E+00 0.  1.
         21    1    1    2  503  501 -0.11968056054E+03  0.76265759340E+02 -0.33438008074E+02  0.14580124486E+03  0.00000000000E+00 0.  1.
         21    1    1    2  504  502  0.29909555919E+02 -0.14667303878E+02 -0.46414489361E+02  0.57131568865E+02  0.00000000000E+00 0.  1.
         21    1    1    2  505  504  0.17227248118E+03 -0.20211985575E+02  0.63759456204E+02  0.18480151620E+03  0.00000000000E+00 0.  1.
          2    1    1    2  501    0 -0.82501476557E+02 -0.41386469886E+02  0.15330935114E+04  0.15358694763E+04  0.00000000000E+00 0.  1.
<scales pt_clust_3="14000.00000" pt_clust_4="33.31233" pt_clust_5="134.94629" pt_clust_6="92.11591"></scales>
<clustering>
<clus scale="   33.312">  2  4  1 -1</clus>
<clus scale="   92.116">  1  6  2 -1</clus>
<clus scale="  134.946">  1  5  2 -1</clus>
<clus scale="   33.312">  2  3  1 -1</clus>
</clustering>
</event>
<event>
 6    0  0.2433432E+002  0.1156899E+03  0.7546771E-02  0.1250382E+00
         21   -1    0    0  504  502  0.00000000000E+00  0.00000000000E+00  0.44248973743E+02  0.44248973743E+02  0.00000000000E+00 0.  1.
          2   -1    0    0  505    0 -0.00000000000E+00 -0.00000000000E+00 -0.28407439365E+04  0.28407439365E+04  0.00000000000E+00 0.  1.
         21    1    1    2  503  501  0.11741198208E+03 -0.73549365894E+01 -0.10001874167E+03  0.15441313841E+03  0.00000000000E+00 0.  1.
         21    1    1    2  504  503 -0.10968556205E+02 -0.33962862275E+02 -0.47285476775E+02  0.59242734179E+02  0.00000000000E+00 0. -1.
         21    1    1    2  505  502 -0.11885297143E+03  0.11992909380E+02 -0.31439797952E+03  0.33632714464E+03  0.00000000000E+00 0.  1.
          2    1    1    2  501    0  0.12409545553E+02  0.29324889484E+02 -0.23347927648E+04  0.23350098931E+04  0.00000000000E+00 0.  1.
<scales pt_clust_3="115.68993" pt_clust_4="32.35148" pt_clust_5="14000.00000" pt_clust_6="31.84252"></scales>
<clustering>
<clus scale="   31.843">  2  6  1 -1</clus>
<clus scale="   32.351">  1  4  2 -1</clus>
<clus scale="  115.690">  1  3  2 -1</clus>
<clus scale="   32.351">  1  3  2 -1</clus>
</clustering>
</event>
<event>
 6    0  0.2433432E+002  0.6551030E+02  0.7546771E-02  0.1376062E+00
         21   -1    0    0  504  502  0.00000000000E+00  0.00000000000E+00  0.21178719417E+03  0.21178719417E+03  0.00000000000E+00 0.  1.
          1   -1    0    0  503    0 -0.00000000000E+00 -0.00000000000E+00 -0.37126556394E+03  0.37126556394E+03  0.00000000000E+00 0.  1.
         21    1    1    2  503  505  0.79600584982E+02  0.91085780681E+01 -0.14804945738E+03  0.16833853140E+03  0.00000000000E+00 0.  1.
         21    1    1    2  504  501  0.33903244897E+02 -0.16411470023E+02 -0.94288470480E+01  0.38828720292E+02  0.00000000000E+00 0.  1.
         21    1    1    2  505  502 -0.75919158275E+02 -0.33086245138E+02  0.17332012645E+03  0.19208926166E+03  0.00000000000E+00 0.  1.
          1    1    1    2  501    0 -0.37584671604E+02  0.40389137093E+02 -0.17532019179E+03  0.18379624475E+03  0.00000000000E+00 0.  1.
<scales pt_clust_3="65.51030" pt_clust_4="37.66652" pt_clust_5="14000.00000" pt_clust_6="54.41726"></scales>
<clustering>
<clus scale="   37.667">  1  4  2 -1</clus>
<clus scale="   54.417">  2  6  1 -1</clus>
<clus scale="   65.510">  2  3  1 -1</clus>
<clus scale="   37.667">  1  3  2 -1</clus>
</clustering>
</event>
<event>
 6    0  0.2433432E+002  0.1202937E+03  0.7546771E-02  0.1242613E+00
          2   -1    0    0  504    0 -0.00000000000E+00  0.00000000000E+00  0.44027993235E+03  0.44027993235E+03  0.00000000000E+00 0. -1.
         21   -1    0    0  501  502  0.00000000000E+00 -0.00000000000E+00 -0.11406102646E+04  0.11406102646E+04  0.00000000000E+00 0.  1.
         21    1    1    2  503  505  0.43515538292E+02  0.30040018274E+02 -0.21667358831E+03  0.22303239370E+03  0.00000000000E+00 0.  1.
         21    1    1    2  504  503  0.64809176304E+02 -0.89584871089E+02 -0.14628699293E+03  0.18337274269E+03  0.00000000000E+00 0.  1.
         21    1    1    2  505  502  0.14091920499E+02  0.49219814547E+02 -0.74601656067E+03  0.74777127596E+03  0.00000000000E+00 0.  1.
          2    1    1    2  501    0 -0.12241663510E+03  0.10325038267E+02  0.40864680963E+03  0.42671378462E+03  0.00000000000E+00 0. -1.
<scales pt_clust_3="77.13266" pt_clust_4="120.29372" pt_clust_5="51.19739" pt_clust_6="14000.00000"></scales>
<clustering>
<clus scale="   51.197">  2  5  1 -1</clus>
<clus scale="   77.133">  2  3  1 -1</clus>
<clus scale="  120.294">  2  4  1 -1</clus>
<clus scale="   51.197">  2  3  1 -1</clus>
</clustering>
</event>
<event>
 6    0  0.2433432E+002  0.8860205E+02  0.7546771E-02  0.1306273E+00
          2   -1    0    0  504    0 -0.00000000000E+00  0.00000000000E+00  0.86214783893E+03  0.86214783893E+03  0.00000000000E+00 0. -1.
         21   -1    0    0  505  502  0.00000000000E+00 -0.00000000000E+00 -0.11502308033E+03  0.11502308033E+03  0.00000000000E+00 0. -1.
         21    1    1    2  503  501  0.17031951200E+02  0.51096327525E+02 -0.11299859897E+02  0.55032798238E+02  0.00000000000E+00 0. -1.
         21    1    1    2  504  502  0.12302175729E+02 -0.64278289841E+02  0.55269301617E+02  0.85660596390E+02  0.00000000000E+00 0. -1.
         21    1    1    2  505  503  0.42359616394E+02  0.49641527286E+02 -0.48011508986E+02  0.81016808919E+02  0.00000000000E+00 0. -1.
          2    1    1    2  501    0 -0.71693743323E+02 -0.36459564970E+02  0.75116682586E+03  0.75546071572E+03  0.00000000000E+00 0. -1.
<scales pt_clust_3="32.95908" pt_clust_4="65.44495" pt_clust_5="32.95908" pt_clust_6="80.83403"></scales>
<clustering>
<clus scale="   32.959">  3  5 -1 -1</clus>
<clus scale="   65.445">  2  4  1 -1</clus>
<clus scale="   80.834">  1  6  2 -1</clus>
<clus scale="   65.445">  2  3  1 -1</clus>
</clustering>
</event>
<event>
 6    0  0.2433432E+002  0.1279450E+03  0.7546771E-02  0.1230537E+00
         21   -1    0    0  503  502  0.00000000000E+00  0.00000000000E+00  0.15363785397E+04  0.15363785397E+04  0.00000000000E+00 0.  1.
          2   -1    0    0  504    0 -0.00000000000E+00 -0.00000000000E+00 -0.18913751052E+04  0.18913751052E+04  0.00000000000E+00 0. -1.
         21    1    1    2  503  505 -0.52074262250E+02 -0.34166624824E+02  0.45721438725E+03  0.46143697614E+03  0.00000000000E+00 0.  1.
         21    1    1    2  504  502  0.94199148090E+02  0.10848401020E+03  0.12476704488E+03  0.19028682418E+03  0.00000000000E+00 0.  1.
         21    1    1    2  505  501 -0.31617383897E+02 -0.42306883463E+02  0.91861446739E+03  0.92013155095E+03  0.00000000000E+00 0.  1.
          2    1    1    2  501    0 -0.10507501943E+02 -0.32010501913E+02 -0.18555924651E+04  0.18558982936E+04  0.00000000000E+00 0. -1.
<scales pt_clust_3="49.91579" pt_clust_4="115.74050" pt_clust_5="49.91579" pt_clust_6="33.69095"></scales>
<clustering>
<clus scale="   33.691">  2  6  1 -1</clus>
<clus scale="   49.916">  3  5 -1 -1</clus>
<clus scale="  115.740">  2  4  1 -1</clus>
<clus scale="  127.945">  1  3  2 -1</clus>
</clustering>
</event>
<event>
 6    0  0.2433432E+002  0.1316698E+03  0.7546771E-02  0.1224999E+00
         21   -1    0    0  505  502  0.00000000000E+00  0.00000000000E+00  0.38928136285E+03  0.38928136285E+03  0.00000000000E+00 0.  1.
          1   -1    0    0  504    0 -0.00000000000E+00 -0.00000000000E+00 -0.77671763763E+03  0.77671763763E+03  0.00000000000E+00 0.  1.
         21    1    1    2  503  501 -0.44934197304E+02 -0.91111772352E+00  0.25619973717E+03  0.26011193273E+03  0.00000000000E+00 0.  1.
         21    1    1    2  504  502  0.22609645062E+02  0.10081534371E+03  0.20820039682E+02  0.10539641184E+03  0.00000000000E+00 0.  1.
         21    1    1    2  505  503 -0.37427924042E+02  0.23066404479E+02  0.53719778124E+02  0.69417022952E+02  0.00000000000E+00 0.  1.
          1    1    1    2  501    0  0.59752476283E+02 -0.12297063046E+03 -0.71817582975E+03  0.73107363296E+03  0.00000000000E+00 0.  1.
<scales pt_clust_3="76.39328" pt_clust_4="131.66975" pt_clust_5="43.96486" pt_clust_6="14000.00000"></scales>
<clustering>
<clus scale="   43.965">  1  5  2 -1</clus>
<clus scale="   76.393">  1  3  2 -1</clus>
<clus scale="  131.670">  1  4  2 -1</clus>
<clus scale="   43.965">  1  3  2 -1</clus>
</clustering>
</event>
<event>
 6    0  0.2433432E+002  0.1581086E+03  0.7546771E-02  0.1190849E+00
          4   -1    0    0  504    0 -0.00000000000E+00  0.00000000000E+00  0.45541264513E+03  0.45541264513E+03  0.00000000000E+00 0.  1.
         21   -1    0    0  505  502  0.00000000000E+00 -0.00000000000E+00 -0.34257297038E+03  0.34257297038E+03  0.00000000000E+00 0. -1.
         21    1    1    2  503  501 -0.23572825708E+02 -0.90285392079E+02 -0.19599329659E+03  0.21707257414E+03  0.00000000000E+00 0. -1.
         21    1    1    2  504  502  0.12438325008E+02  0.72086096334E+02  0.23249875690E+02  0.76757240266E+02  0.00000000000E+00 0. -1.
         21    1    1    2  505  503 -0.47045206437E+02 -0.46331485018E+02 -0.93934461307E+02  0.11481960187E+03  0.00000000000E+00 0. -1.
          4    1    1    2  501    0  0.58179707137E+02  0.64530780763E+02  0.37951755697E+03  0.38933619923E+03  0.00000000000E+00 0.  1.
<scales pt_clust_3="41.57975" pt_clust_4="73.15133" pt_clust_5="41.57975" pt_clust_6="150.18353"></scales>
<clustering>
<clus scale="   41.580">  3  5 -1 -1</clus>
<clus scale="   73.151">  1  4  2 -1</clus>
<clus scale="  150.184">  1  6  2 -1</clus>
<clus scale="  158.109">  2  3  1 -1</clus>
</clustering>
</event>
<event>
 6    0  0.2433432E+002  0.8668560E+02  0.7546771E-02  0.1311082E+00
          2   -1    0    0  505    0 -0.00000000000E+00  0.00000000000E+00  0.54443598729E+03  0.54443598729E+03  0.00000000000E+00 0.  1.
         21   -1    0    0  504  502  0.00000000000E+00 -0.00000000000E+00 -0.92768002026E+02  0.92768002026E+02  0.00000000000E+00 0.  1.
         21    1    1    2  503  502 -0.41500708506E+02 -0.40074269191E+00 -0.17956413188E+02  0.45220594598E+02  0.00000000000E+00 0.  1.
         21    1    1    2  504  501  0.13689394262E+02 -0.65824915275E+02 -0.84089978868E+01  0.67757141555E+02  0.00000000000E+00 0.  1.
         21    1    1    2  505  503 -0.58163459233E+02  0.15253253113E+02  0.33988137166E+02  0.69071290625E+02  0.00000000000E+00 0. -1.
          2    1    1    2  501    0  0.85974773478E+02  0.50972404854E+02  0.44404525918E+03  0.45515496254E+03  0.00000000000E+00 0.  1.
<scales pt_clust_3="41.50264" pt_clust_4="67.18109" pt_clust_5="14000.00000" pt_clust_6="86.68560"></scales>
<clustering>
<clus scale="   41.503">  2  3  1 -1</clus>
<clus scale="   67.181">  2  4  1 -1</clus>
<clus scale="   86.686">  1  6  2 -1</clus>
<clus scale="   41.503">  2  3  1 -1</clus>
</clustering>
</event>
<event>
 6    0  0.2506573E+002  0.9467653E+02  0.7546771E-02  0.1291906E+00
         21   -1    0    0  503  502  0.00000000000E+00  0.00000000000E+00  0.45183509650E+03  0.45183509650E+03  0.00000000000E+00 0.  1.
          2   -1    0    0  505    0 -0.00000000000E+00 -0.00000000000E+00 -0.23409574366E+04  0.23409574366E+04  0.00000000000E+00 0.  1.
         21    1    1    2  503  504  0.13486821670E+02  0.64828366419E+02  0.36591630242E+03  0.37185931725E+03  0.00000000000E+00 0.  1.
         21    1    1    2  504  501 -0.10199662012E+03 -0.57192459760E+02 -0.52315771439E+02  0.12810631487E+03  0.00000000000E+00 0. -1.
         21    1    1    2  505  502  0.27718754192E+02  0.23991691172E+02  0.36982549649E+02  0.52073405475E+02  0.00000000000E+00 0. -1.
          2    1    1    2  501    0  0.60791044257E+02 -0.31627597831E+02 -0.22397054208E+04  0.22407534955E+04  0.00000000000E+00 0.  1.
<scales pt_clust_3="14000.00000" pt_clust_4="94.67653" pt_clust_5="36.65966" pt_clust_6="68.54372"></scales>
<clustering>
<clus scale="   36.660">  1  5  2 -1</clus>
<clus scale="   68.544">  2  6  1 -1</clus>
<clus scale="   94.677">  2  4  1 -1</clus>
<clus scale="   36.660">  1  3  2 -1</clus>
</clustering>
</event>
<event>
 6    0  0.2433432E+002  0.1014034E+03  0.7546771E-02  0.1277372E+00
         21   -1    0    0  503  502  0.00000000000E+00  0.00000000000E+00  0.22449148107E+04  0.22449148107E+04  0.00000000000E+00 0.  1.
          4   -1    0    0  504    0 -0.00000000000E+00 -0.00000000000E+00 -0.40490267487E+03  0.40490267487E+03  0.00000000000E+00 0.  1.
         21    1    1    2  503  501  0.69189586721E+02  0.88555130559E+02  0.66856101330E+02  0.13076294714E+03  0.00000000000E+00 0.  1.
         21    1    1    2  504  505 -0.67608288979E+02 -0.76946759493E+02  0.40176206229E+03  0.41461360232E+03  0.00000000000E+00 0.  1.
         21    1    1    2  505  502  0.33334237430E+02 -0.17424586479E+02  0.17368587619E+04  0.17372659976E+04  0.00000000000E+00 0.  1.
          4    1    1    2  501    0 -0.34915535172E+02  0.58162154133E+01 -0.36546478970E+03  0.36717493850E+03  0.00000000000E+00 0.  1.
<scales pt_clust_3="101.40341" pt_clust_4="14000.00000" pt_clust_5="37.43619" pt_clust_6="35.39665"></scales>
<clustering>
<clus scale="   35.397">  2  6  1 -1</clus>
<clus scale="   37.436">  1  5  2 -1</clus>
<clus scale="  101.403">  2  3  1 -1</clus>
<clus scale="   37.436">  1  3  2 -1</clus>
</clustering>
</event>
<event>
 6    0  0.2433432E+002  0.5080816E+03  0.7546771E-02  0.1011691E+00
          2   -1    0    0  504    0 -0.00000000000E+00  0.00000000000E+00  0.15747972809E+04  0.15747972809E+04  0.00000000000E+00 0. -1.
         21   -1    0    0  505  502  0.00000000000E+00 -0.00000000000E+00 -0.53622441726E+03  0.53622441726E+03  0.00000000000E+00 0. -1.
         21    1    1    2  503  502 -0.34168047211E+02 -0.13664675003E+02 -0.84468176932E+02  0.92136049988E+02  0.00000000000E+00 0. -1.
         21    1    1    2  504  503 -0.77415172674E+02 -0.45639649308E+03 -0.18653701876E+03  0.49908609199E+03  0.00000000000E+00 0. -1.
         21    1    1    2  505  501  0.92714057327E+02 -0.44560348416E+02 -0.99476902340E+01  0.10334639625E+03  0.00000000000E+00 0. -1.
          2    1    1    2  501    0  0.18869162558E+02  0.51462151649E+03  0.13195257495E+04  0.14164531599E+04  0.00000000000E+00 0. -1.
<scales pt_clust_3="36.79917" pt_clust_4="508.08160" pt_clust_5="99.77944" pt_clust_6="14000.00000"></scales>
<clustering>
<clus scale="   36.799">  2  3  1 -1</clus>
<clus scale="   99.779">  2  5  1 -1</clus>
<clus scale="  508.082">  2  4  1 -1</clus>
<clus scale="   36.799">  2  3  1 -1</clus>
</clustering>
</event>
<event>
 6    0  0.2433432E+002  0.6589226E+02  0.7546771E-02  0.1374646E+00
          2   -1    0    0  503    0 -0.00000000000E+00  0.00000000000E+00  0.18036859698E+04  0.18036859698E+04  0.00000000000E+00 0. -1.
         21   -1    0    0  504  502  0.00000000000E+00 -0.00000000000E+00 -0.16370372700E+03  0.16370372700E+03  0.00000000000E+00 0.  1.
         21    1    1    2  503  505  0.75264097460E+01 -0.68213890497E+02  0.27160404783E+02  0.73806973169E+02  0.00000000000E+00 0.  1.
         21    1    1    2  504  501  0.53639747067E+02 -0.91585066037E+01  0.47567941485E+02  0.72275927983E+02  0.00000000000E+00 0.  1.
         21    1    1    2  505  502 -0.82173360948E+02  0.14817295544E+02 -0.11369463663E+03  0.14106198600E+03  0.00000000000E+00 0.  1.
          2    1    1    2  501    0  0.21007204135E+02  0.62555101556E+02  0.16789485332E+04  0.16802448097E+04  0.00000000000E+00 0. -1.
<scales pt_clust_3="65.89226" pt_clust_4="54.41600" pt_clust_5="37.70560" pt_clust_6="14000.00000"></scales>
<clustering>
<clus scale="   54.416">  2  4  1 -1</clus>
<clus scale="   37.706">  2  5  1 -1</clus>
<clus scale="   65.892">  2  3  1 -1</clus>
<clus scale="   54.416">  2  3  1 -1</clus>
</clustering>
</event>
<event>
 6    0  0.2433432E+002  0.1135729E+03  0.7546771E-02  0.1254093E+00
         -2   -1    0    0    0  501 -0.00000000000E+00  0.00000000000E+00  0.72985294352E+03  0.72985294352E+03  0.00000000000E+00 0.  1.
         21   -1    0    0  504  502  0.00000000000E+00 -0.00000000000E+00 -0.10040317806E+03  0.10040317806E+03  0.00000000000E+00 0.  1.
         21    1    1    2  503  502 -0.20427634510E+02  0.22345321198E+02 -0.57774120106E+02  0.65226149551E+02  0.00000000000E+00 0.  1.
         21    1    1    2  504  505  0.23757480341E+02  0.10813129575E+03  0.74423305375E+02  0.13340023754E+03  0.00000000000E+00 0. -1.
         21    1    1    2  505  501  0.28093796004E+02 -0.93848195925E+02  0.31307795136E+03  0.32804656511E+03  0.00000000000E+00 0. -1.
         -2    1    1    2    0  503 -0.31423641836E+02 -0.36628421023E+02  0.29972262884E+03  0.30358316938E+03  0.00000000000E+00 0.  1.
<scales pt_clust_3="30.27543" pt_clust_4="113.57292" pt_clust_5="14000.00000" pt_clust_6="48.10220"></scales>
<clustering>
<clus scale="   30.275">  2  3  1 -1</clus>
<clus scale="   48.102">  1  6  2 -1</clus>
<clus scale="  113.573">  2  4  1 -1</clus>
<clus scale="   30.275">  2  3  1 -1</clus>
</clustering>
</event>
<event>
 6    0  0.2433432E+002  0.1339830E+03  0.7546771E-02  0.1221663E+00
         21   -1    0    0  503  502  0.00000000000E+00  0.00000000000E+00  0.40316108134E+02  0.40316108134E+02  0.00000000000E+00 0.  1.
          1   -1    0    0  504    0 -0.00000000000E+00 -0.00000000000E+00 -0.17898678630E+04  0.17898678630E+04  0.00000000000E+00 0.  1.
         21    1    1    2  503  505  0.22455674110E+02 -0.58096267036E+02 -0.19869192165E+03  0.20822563068E+03  0.00000000000E+00 0.  1.
         21    1    1    2  504  502 -0.11243336650E+03 -0.42031386562E+02 -0.20034350518E+03  0.23354960807E+03  0.00000000000E+00 0.  1.
         21    1    1    2  505  501  0.55652843071E+02 -0.45527546427E+02 -0.74103309539E+02  0.10325355640E+03  0.00000000000E+00 0.  1.
          1    1    1    2  501    0  0.34324849318E+02  0.14565520002E+03 -0.12764130185E+04  0.12851551760E+04  0.00000000000E+00 0.  1.
<scales pt_clust_3="62.28510" pt_clust_4="133.98303" pt_clust_5="94.95137" pt_clust_6="14000.00000"></scales>
<clustering>
<clus scale="   62.285">  1  3  2 -1</clus>
<clus scale="   94.951">  1  5  2 -1</clus>
<clus scale="  133.983">  1  4  2 -1</clus>
<clus scale="   62.285">  1  3  2 -1</clus>
</clustering>
</event>
<event>
 6    0  0.2433432E+002  0.1054628E+03  0.7546771E-02  0.1269211E+00
         -1   -1    0    0    0  501 -0.00000000000E+00  0.00000000000E+00  0.21102635811E+02  0.21102635811E+02  0.00000000000E+00 0.  1.
         21   -1    0    0  504  502  0.00000000000E+00 -0.00000000000E+00 -0.22369802788E+04  0.22369802788E+04  0.00000000000E+00 0.  1.
         21    1    1    2  503  502  0.28316062891E+02  0.62685745245E+02 -0.50091961196E+03  0.50562017337E+03  0.00000000000E+00 0.  1.
         21    1    1    2  504  505 -0.39547040622E+02 -0.29879832073E+02 -0.53287481105E+03  0.53517505270E+03  0.00000000000E+00 0.  1.
         21    1    1    2  505  501  0.91340225611E+02  0.38856292300E+02 -0.10067456083E+04  0.10116271883E+04  0.00000000000E+00 0.  1.
         -1    1    1    2    0  503 -0.80109247880E+02 -0.71662205473E+02 -0.17533761169E+03  0.20566050024E+03  0.00000000000E+00 0.  1.
<scales pt_clust_3="56.36423" pt_clust_4="49.56584" pt_clust_5="14000.00000" pt_clust_6="105.46276"></scales>
<clustering>
<clus scale="   49.566">  2  4  1 -1</clus>
<clus scale="   56.364">  2  3  1 -1</clus>
<clus scale="  105.463">  1  6  2 -1</clus>
<clus scale="   49.566">  2  3  1 -1</clus>
</clustering>
</event>
<event>
 6    0  0.2433432E+002  0.1528081E+03  0.7546771E-02  0.1197064E+00
         21   -1    0    0  503  502  0.00000000000E+00  0.00000000000E+00  0.61567235731E+03  0.61567235731E+03  0.00000000000E+00 0.  1.
          1   -1    0    0  504    0 -0.00000000000E+00 -0.00000000000E+00 -0.14739635482E+04  0.14739635482E+04  0.00000000000E+00 0.  1.
         21    1    1    2  503  505  0.14537008930E+02 -0.33035237148E+02  0.40147902968E+02  0.53986161512E+02  0.00000000000E+00 0. -1.
         21    1    1    2  504  502  0.84263738003E+01  0.36960650249E+02  0.19593808237E+02  0.42673302702E+02  0.00000000000E+00 0.  1.
         21    1    1    2  505  501  0.37277539762E+02  0.13661076419E+03  0.52403226320E+03  0.54282771553E+03  0.00000000000E+00 0.  1.
          1    1    1    2  501    0 -0.60240922492E+02 -0.14053617729E+03 -0.14420651653E+04  0.14501487258E+04  0.00000000000E+00 0.  1.
<scales pt_clust_3="36.09226" pt_clust_4="36.34147" pt_clust_5="152.80810" pt_clust_6="14000.00000"></scales>
<clustering>
<clus scale="   36.092">  1  3  2 -1</clus>
<clus scale="   36.341">  1  4  2 -1</clus>
<clus scale="  152.808">  1  5  2 -1</clus>
<clus scale="   36.092">  1  3  2 -1</clus>
</clustering>
</event>
<event>
 6    0  0.2433432E+002  0.1061938E+03  0.7546771E-02  0.1267785E+00
         21   -1    0    0  505  502  0.00000000000E+00  0.00000000000E+00  0.61117410380E+03  0.61117410380E+03  0.00000000000E+00 0.  1.
          2   -1    0    0  502    0 -0.00000000000E+00 -0.00000000000E+00 -0.15413097786E+04  0.15413097786E+04  0.00000000000E+00 0.  1.
         21    1    1    2  503  501  0.60227281682E+02 -0.67282745718E+01  0.91952064876E+02  0.11012618840E+03  0.00000000000E+00 0.  1.
         21    1    1    2  504  503  0.70171614904E+02  0.36446599547E+01  0.21167083036E+03  0.22302887596E+03  0.00000000000E+00 0. -1.
         21    1    1    2  505  504 -0.33458725381E+02  0.10633328262E+02  0.29017767848E+03  0.29229375475E+03  0.00000000000E+00 0.  1.
          2    1    1    2  501    0 -0.96940171205E+02 -0.75497136445E+01 -0.15239362485E+04  0.15270350633E+04  0.00000000000E+00 0.  1.
<scales pt_clust_3="41.86034" pt_clust_4="41.86034" pt_clust_5="35.10775" pt_clust_6="97.39128"></scales>
<clustering>
<clus scale="   35.108">  1  5  2 -1</clus>
<clus scale="   41.860">  3  4 -1 -1</clus>
<clus scale="   97.391">  2  6  1 -1</clus>
<clus scale="   35.108">  1  3  2 -1</clus>
</clustering>
</event>
<event>
 6    0  0.2433432E+002  0.7366454E+02  0.7546771E-02  0.1348057E+00
          3   -1    0    0  503    0 -0.00000000000E+00  0.00000000000E+00  0.43565104828E+03  0.43565104828E+03  0.00000000000E+00 0.  1.
         21   -1    0    0  504  502  0.00000000000E+00 -0.00000000000E+00 -0.29191290148E+03  0.29191290148E+03  0.00000000000E+00 0.  1.
         21    1    1    2  503  502  0.37897111096E+02 -0.17139134020E+02 -0.49853969909E+02  0.64925798108E+02  0.00000000000E+00 0.  1.
         21    1    1    2  504  505 -0.34455084231E+02  0.40407839046E+02 -0.36982127935E+02  0.64711854188E+02  0.00000000000E+00 0. -1.
         21    1    1    2  505  501 -0.76685659803E+02 -0.30101908684E+02 -0.17092574375E+03  0.18974305047E+03  0.00000000000E+00 0.  1.
          3    1    1    2  501    0  0.73243632939E+02  0.68332036580E+01  0.40149998840E+03  0.40818324699E+03  0.00000000000E+00 0.  1.
<scales pt_clust_3="41.59256" pt_clust_4="45.10831" pt_clust_5="14000.00000" pt_clust_6="73.66454"></scales>
<clustering>
<clus scale="   41.593">  2  3  1 -1</clus>
<clus scale="   45.108">  2  4  1 -1</clus>
<clus scale="   73.665">  1  6  2 -1</clus>
<clus scale="   41.593">  2  3  1 -1</clus>
</clustering>
</event>
<event>
 6    0  0.2433432E+002  0.1076646E+03  0.7546771E-02  0.1264957E+00
         21   -1    0    0  504  502  0.00000000000E+00  0.00000000000E+00  0.89419852065E+03  0.89419852065E+03  0.00000000000E+00 0. -1.
         -4   -1    0    0    0  501 -0.00000000000E+00 -0.00000000000E+00 -0.67267141943E+03  0.67267141943E+03  0.00000000000E+00 0.  1.
         21    1    1    2  503  505  0.34721639194E+02 -0.38141208977E+02 -0.17794566751E+03  0.18527008565E+03  0.00000000000E+00 0.  1.
         21    1    1    2  504  501 -0.11620291443E+03  0.25975694896E+02 -0.12633079198E+03  0.17360104565E+03  0.00000000000E+00 0.  1.
         21    1    1    2  505  502  0.83458983735E+02  0.68016654119E+02  0.86123755784E+03  0.86794112602E+03  0.00000000000E+00 0. -1.
         -4    1    1    2    0  503 -0.19777084995E+01 -0.55851140037E+02 -0.33543399713E+03  0.34005768276E+03  0.00000000000E+00 0.  1.
<scales pt_clust_3="48.07145" pt_clust_4="94.34823" pt_clust_5="107.66461" pt_clust_6="48.07145"></scales>
<clustering>
<clus scale="   48.071">  3  6 -1 -1</clus>
<clus scale="  107.665">  1  5  2 -1</clus>
<clus scale="   94.348">  1  4  2 -1</clus>
<clus scale="  107.665">  1  3  2 -1</clus>
</clustering>
</event>
<event>
 6    0  0.2433432E+002  0.1079416E+03  0.7546771E-02  0.1264430E+00
         21   -1    0    0  505  502  0.00000000000E+00  0.00000000000E+00  0.23133093406E+02  0.23133093406E+02  0.00000000000E+00 0.  1.
          2   -1    0    0  502    0 -0.00000000000E+00 -0.00000000000E+00 -0.20541848824E+04  0.20541848824E+04  0.00000000000E+00 0. -1.
         21    1    1    2  503  501 -0.39718904448E+02  0.33163813836E+02 -0.19178968504E+03  0.19864720790E+03  0.00000000000E+00 0.  1.
         21    1    1    2  504  503 -0.85981228989E+02 -0.42712300923E+01 -0.58747594161E+03  0.59374994493E+03  0.00000000000E+00 0.  1.
         21    1    1    2  505  504  0.11484024165E+03  0.14003119743E+02 -0.19165112759E+03  0.22386273288E+03  0.00000000000E+00 0.  1.
          2    1    1    2  501    0  0.10859891783E+02 -0.42895703487E+02 -0.10601350348E+04  0.10610580901E+04  0.00000000000E+00 0. -1.
<scales pt_clust_3="44.99447" pt_clust_4="107.94157" pt_clust_5="14000.00000" pt_clust_6="44.24905"></scales>
<clustering>
<clus scale="   44.249">  2  6  1 -1</clus>
<clus scale="   44.994">  2  3  1 -1</clus>
<clus scale="  107.942">  2  4  1 -1</clus>
<clus scale="  107.942">  1  3  2 -1</clus>
</clustering>
</event>
<event>
 6    0  0.2433432E+002  0.1520977E+03  0.7546771E-02  0.1197919E+00
         21   -1    0    0  501  502  0.00000000000E+00  0.00000000000E+00  0.41170488408E+03  0.41170488408E+03  0.00000000000E+00 0.  1.
          2   -1    0    0  504    0 -0.00000000000E+00 -0.00000000000E+00 -0.13522994972E+04  0.13522994972E+04  0.00000000000E+00 0.  1.
         21    1    1    2  503  502  0.43936627728E+02  0.37255233526E+02  0.86320204825E+02  0.10377647827E+03  0.00000000000E+00 0.  1.
         21    1    1    2  504  505 -0.67293196056E+02 -0.81041111418E+02 -0.61325505013E+02  0.12188869324E+03  0.00000000000E+00 0. -1.
         21    1    1    2  505  503  0.71198022281E+02  0.63120754544E+02  0.27792163725E+03  0.29375810539E+03  0.00000000000E+00 0.  1.
          2    1    1    2  501    0 -0.47841453953E+02 -0.19334876651E+02 -0.12435109501E+04  0.12445811043E+04  0.00000000000E+00 0.  1.
<scales pt_clust_3="35.05974" pt_clust_4="145.27009" pt_clust_5="35.05974" pt_clust_6="51.60080"></scales>
<clustering>
<clus scale="   35.060">  3  5 -1 -1</clus>
<clus scale="   51.601">  2  6  1 -1</clus>
<clus scale="  145.270">  2  4  1 -1</clus>
<clus scale="  152.098">  1  3  2 -1</clus>
</clustering>
</event>
<event>
 6    0  0.2433432E+002  0.1947033E+03  0.7546771E-02  0.1154286E+00
         21   -1    0    0  503  502  0.00000000000E+00  0.00000000000E+00  0.35548160476E+02  0.35548160476E+02  0.00000000000E+00 0.  1.
          2   -1    0    0  502    0 -0.00000000000E+00 -0.00000000000E+00 -0.31814819914E+04  0.31814819914E+04  0.00000000000E+00 0.  1.
         21    1    1    2  503  504  0.12908024071E+03  0.11732174645E+03 -0.34913457713E+03  0.39028329926E+03  0.00000000000E+00 0.  1.
         21    1    1    2  504  505 -0.14048666330E+03 -0.31429900383E+02 -0.61314995910E+03  0.62982316054E+03  0.00000000000E+00 0.  1.
         21    1    1    2  505  501 -0.57316330548E+02 -0.54258044735E+02 -0.25830553191E+03  0.27009414096E+03  0.00000000000E+00 0.  1.
          2    1    1    2  501    0  0.68722753143E+02 -0.31633801330E+02 -0.19253437628E+04  0.19268295511E+04  0.00000000000E+00 0.  1.
<scales pt_clust_3="184.28604" pt_clust_4="46.52391" pt_clust_5="46.52391" pt_clust_6="75.65391"></scales>
<clustering>
<clus scale="   46.524">  4  5 -1 -1</clus>
<clus scale="   75.654">  2  6  1 -1</clus>
<clus scale="  184.286">  1  3  2 -1</clus>
<clus scale="  184.286">  1  3  2 -1</clus>
</clustering>
</event>
<event>
 6    0  0.2433432E+002  0.1227668E+03  0.7546771E-02  0.1238601E+00
         21   -1    0    0  504  502  0.00000000000E+00  0.00000000000E+00  0.23390358307E+03  0.23390358307E+03  0.00000000000E+00 0.  1.
          2   -1    0    0  505    0 -0.00000000000E+00 -0.00000000000E+00 -0.25337984681E+04  0.25337984681E+04  0.00000000000E+00 0. -1.
         21    1    1    2  503  501 -0.40057571373E+02 -0.38065341848E+02  0.11606500770E+03  0.12854829943E+03  0.00000000000E+00 0.  1.
         21    1    1    2  504  503 -0.51221770015E+01 -0.62905285764E+02  0.80826879241E+02  0.10254899357E+03  0.00000000000E+00 0. -1.
         21    1    1    2  505  502  0.80490542288E+02  0.11988387637E+03 -0.24445957930E+03  0.28392139251E+03  0.00000000000E+00 0.  1.
          2    1    1    2  501    0 -0.35310793914E+02 -0.18913248757E+02 -0.22523271927E+04  0.22526833657E+04  0.00000000000E+00 0. -1.
<scales pt_clust_3="45.91720" pt_clust_4="45.91720" pt_clust_5="112.55408" pt_clust_6="40.05700"></scales>
<clustering>
<clus scale="   40.057">  2  6  1 -1</clus>
<clus scale="   45.917">  3  4 -1 -1</clus>
<clus scale="  112.554">  2  5  1 -1</clus>
<clus scale="  122.767">  1  3  2 -1</clus>
</clustering>
</event>
<event>
 6    0  0.2433432E+002  0.6032075E+02  0.7546771E-02  0.1396491E+00
         21   -1    0    0  505  502  0.00000000000E+00  0.00000000000E+00  0.47702831284E+03  0.47702831284E+03  0.00000000000E+00 0. -1.
          2   -1    0    0  504    0 -0.00000000000E+00 -0.00000000000E+00 -0.36110380182E+04  0.36110380182E+04  0.00000000000E+00 0.  1.
         21    1    1    2  503  501  0.81301741623E+02  0.50309440447E+02  0.65896462624E+02  0.11611785726E+03  0.00000000000E+00 0. -1.
         21    1    1    2  504  502  0.32952496861E+02  0.17323080669E+02 -0.21300229937E+02  0.42891210855E+02  0.00000000000E+00 0.  1.
         21    1    1    2  505  503 -0.60912128649E+02 -0.39679736591E+02  0.37144682195E+03  0.37849373898E+03  0.00000000000E+00 0. -1.
          2    1    1    2  501    0 -0.53342109834E+02 -0.27952784525E+02 -0.35500527600E+04  0.35505635239E+04  0.00000000000E+00 0.  1.
<scales pt_clust_3="60.32075" pt_clust_4="37.22843" pt_clust_5="42.97648" pt_clust_6="14000.00000"></scales>
<clustering>
<clus scale="   37.228">  1  4  2 -1</clus>
<clus scale="   42.976">  1  5  2 -1</clus>
<clus scale="   60.321">  1  3  2 -1</clus>
<clus scale="   37.228">  1  3  2 -1</clus>
</clustering>
</event>
<event>
 6    0  0.2433432E+002  0.2112364E+03  0.7546771E-02  0.1140591E+00
          2   -1    0    0  503    0 -0.00000000000E+00  0.00000000000E+00  0.19739067328E+04  0.19739067328E+04  0.00000000000E+00 0. -1.
         21   -1    0    0  505  502  0.00000000000E+00 -0.00000000000E+00 -0.10531876013E+03  0.10531876013E+03  0.00000000000E+00 0. -1.
         21    1    1    2  503  502 -0.18648778449E+03 -0.79075904924E+02  0.20096842832E+02  0.20355484665E+03  0.00000000000E+00 0. -1.
         21    1    1    2  504  501  0.13573218936E+03 -0.13500807772E+02  0.72324840963E+03  0.73599847898E+03  0.00000000000E+00 0. -1.
         21    1    1    2  505  504  0.67101361445E+02  0.17792268708E+02  0.20879585459E+03  0.22003378474E+03  0.00000000000E+00 0.  1.
          2    1    1    2  501    0 -0.16345766314E+02  0.74784443988E+02  0.91644686564E+03  0.91963838256E+03  0.00000000000E+00 0. -1.
<scales pt_clust_3="201.21999" pt_clust_4="45.85392" pt_clust_5="45.85392" pt_clust_6="76.54996"></scales>
<clustering>
<clus scale="   45.854">  4  5 -1 -1</clus>
<clus scale="   76.550">  1  6  2 -1</clus>
<clus scale="  201.220">  2  3  1 -1</clus>
<clus scale="  201.220">  2  3  1 -1</clus>
</clustering>
</event>
<event>
 6    0  0.2433432E+002  0.8299464E+02  0.7546771E-02  0.1320762E+00
          2   -1    0    0  503    0 -0.00000000000E+00  0.00000000000E+00  0.11193415880E+03  0.11193415880E+03  0.00000000000E+00 0. -1.
         21   -1    0    0  501  502  0.00000000000E+00 -0.00000000000E+00 -0.72453199148E+03  0.72453199148E+03  0.00000000000E+00 0. -1.
         21    1    1    2  503  504 -0.48086034164E+01 -0.59287503354E+02 -0.35884579136E+02  0.69468221084E+02  0.00000000000E+00 0. -1.
         21    1    1    2  504  505 -0.13645746675E+03  0.64868218908E+02 -0.16365592803E+03  0.22273703966E+03  0.00000000000E+00 0. -1.
         21    1    1    2  505  502  0.67697797768E+02 -0.33911739747E+02 -0.45061829038E+03  0.45693527062E+03  0.00000000000E+00 0. -1.
          2    1    1    2  501    0  0.73568272403E+02  0.28331024193E+02  0.37560964863E+02  0.87325618908E+02  0.00000000000E+00 0. -1.
<scales pt_clust_3="59.48219" pt_clust_4="14000.00000" pt_clust_5="82.99464" pt_clust_6="71.20278"></scales>
<clustering>
<clus scale="   59.482">  1  3  2 -1</clus>
<clus scale="   71.203">  1  6  2 -1</clus>
<clus scale="   82.995">  2  5  1 -1</clus>
<clus scale="   82.995">  2  3  1 -1</clus>
</clustering>
</event>
<event>
 6    0  0.2433432E+002  0.9966449E+02  0.7546771E-02  0.1281003E+00
         -2   -1    0    0    0  501 -0.00000000000E+00  0.00000000000E+00  0.89511819166E+02  0.89511819166E+02  0.00000000000E+00 0. -1.
         21   -1    0    0  503  502  0.00000000000E+00 -0.00000000000E+00 -0.15384442411E+04  0.15384442411E+04  0.00000000000E+00 0.  1.
         21    1    1    2  503  501 -0.36919548150E+02 -0.79260977567E+02 -0.41476121769E+03  0.42387760415E+03  0.00000000000E+00 0.  1.
         21    1    1    2  504  502  0.27809577424E+02  0.11686221088E+03 -0.72524368348E+03  0.73512485291E+03  0.00000000000E+00 0.  1.
         21    1    1    2  505  504  0.91503454646E+02  0.20600244349E+02 -0.34826822648E+03  0.36067715461E+03  0.00000000000E+00 0.  1.
         -2    1    1    2    0  505 -0.82393483920E+02 -0.58201477661E+02  0.39340705723E+02  0.10827644860E+03  0.00000000000E+00 0. -1.
<scales pt_clust_3="87.43772" pt_clust_4="65.25377" pt_clust_5="99.66449" pt_clust_6="14000.00000"></scales>
<clustering>
<clus scale="   87.438">  2  3  1 -1</clus>
<clus scale="   65.254">  2  4  1 -1</clus>
<clus scale="   99.664">  2  5  1 -1</clus>
<clus scale="   87.438">  2  3  1 -1</clus>
</clustering>
</event>
<event>
 6    0  0.2433432E+002  0.2008788E+03  0.7546771E-02  0.1149000E+00
          2   -1    0    0  504    0 -0.00000000000E+00  0.00000000000E+00  0.64605828790E+03  0.64605828790E+03  0.00000000000E+00 0.  1.
         21   -1    0    0  505  502  0.00000000000E+00 -0.00000000000E+00 -0.16791181212E+03  0.16791181212E+03  0.00000000000E+00 0.  1.
         21    1    1    2  503  502 -0.61359344186E+02  0.41101506341E+02 -0.25117785339E+02  0.78007730916E+02  0.00000000000E+00 0.  1.
         21    1    1    2  504  503 -0.14544314565E+03  0.14354148899E+02 -0.13903782987E+02  0.14680962295E+03  0.00000000000E+00 0.  1.
         21    1    1    2  505  501  0.17499612246E+02 -0.35454539764E+02  0.16054085851E+01  0.39570672920E+02  0.00000000000E+00 0.  1.
          2    1    1    2  501    0  0.18930287759E+03 -0.20001115476E+02  0.51556263552E+03  0.54958207324E+03  0.00000000000E+00 0.  1.
<scales pt_clust_3="38.15967" pt_clust_4="38.15967" pt_clust_5="39.53809" pt_clust_6="192.80746"></scales>
<clustering>
<clus scale="   39.538">  2  5  1 -1</clus>
<clus scale="   38.160">  3  4 -1 -1</clus>
<clus scale="  192.807">  1  6  2 -1</clus>
<clus scale="   39.538">  2  3  1 -1</clus>
</clustering>
</event>
<event>
 6    0  0.2433432E+002  0.9622508E+02  0.7546771E-02  0.1288440E+00
         21   -1    0    0  505  502  0.00000000000E+00  0.00000000000E+00  0.16346331152E+03  0.16346331152E+03  0.00000000000E+00 0.  1.
          1   -1    0    0  503    0 -0.00000000000E+00 -0.00000000000E+00 -0.33567428557E+03  0.33567428557E+03  0.00000000000E+00 0.  1.
         21    1    1    2  503  502 -0.24343819929E+02 -0.56515189944E+02  0.17658958281E+02  0.64018958682E+02  0.00000000000E+00 0.  1.
         21    1    1    2  504  501  0.42125551840E+02  0.16075196508E+02  0.27636900342E+02  0.52884518728E+02  0.00000000000E+00 0.  1.
         21    1    1    2  505  504  0.55195731467E+02 -0.12431531296E+02  0.64722925547E+02  0.85966091187E+02  0.00000000000E+00 0.  1.
          1    1    1    2  501    0 -0.72977463377E+02  0.52871524732E+02 -0.28222975822E+03  0.29626802850E+03  0.00000000000E+00 0.  1.
<scales pt_clust_3="61.53526" pt_clust_4="31.74372" pt_clust_5="31.74372" pt_clust_6="89.41376"></scales>
<clustering>
<clus scale="   31.744">  4  5 -1 -1</clus>
<clus scale="   61.535">  1  3  2 -1</clus>
<clus scale="   89.414">  2  6  1 -1</clus>
<clus scale="   61.535">  1  3  2 -1</clus>
</clustering>
</event>
<event>
 6    0  0.2433432E+002  0.2304428E+03  0.7546771E-02  0.1126328E+00
          2   -1    0    0  504    0 -0.00000000000E+00  0.00000000000E+00  0.28133084415E+04  0.28133084415E+04  0.00000000000E+00 0. -1.
         21   -1    0    0  501  502  0.00000000000E+00 -0.00000000000E+00 -0.44717212052E+03  0.44717212052E+03  0.00000000000E+00 0.  1.
         21    1    1    2  503  502 -0.12827754737E+02 -0.35410216454E+02 -0.28581081017E+03  0.28828155323E+03  0.00000000000E+00 0.  1.
         21    1    1    2  504  505 -0.42846678717E+02 -0.12604962384E+02  0.90090047543E+01  0.45561882319E+02  0.00000000000E+00 0.  1.
         21    1    1    2  505  503 -0.13630496071E+03 -0.60843553115E+02 -0.96875671987E+02  0.17794908287E+03  0.00000000000E+00 0.  1.
          2    1    1    2  501    0  0.19197939416E+03  0.10885873195E+03  0.27398137984E+04  0.27486880436E+04  0.00000000000E+00 0. -1.
<scales pt_clust_3="37.66211" pt_clust_4="36.00913" pt_clust_5="36.00913" pt_clust_6="219.90291"></scales>
<clustering>
<clus scale="   37.662">  2  3  1 -1</clus>
<clus scale="   36.009">  4  5 -1 -1</clus>
<clus scale="  219.903">  1  6  2 -1</clus>
<clus scale="   37.662">  2  3  1 -1</clus>
</clustering>
</event>
<event>
 6    0  0.2433432E+002  0.1200311E+03  0.7546771E-02  0.1243046E+00
          1   -1    0    0  505    0 -0.00000000000E+00  0.00000000000E+00  0.37962898984E+04  0.37962898984E+04  0.00000000000E+00 0. -1.
         21   -1    0    0  503  502  0.00000000000E+00 -0.00000000000E+00 -0.16493727326E+03  0.16493727326E+03  0.00000000000E+00 0. -1.
         21    1    1    2  503  501 -0.54573438770E+02 -0.47410141238E+02  0.14850006123E+03  0.16516128450E+03  0.00000000000E+00 0. -1.
         21    1    1    2  504  502 -0.59587146581E+02  0.13160556649E+02 -0.14374168576E+03  0.15615857490E+03  0.00000000000E+00 0. -1.
         21    1    1    2  505  504  0.66092751963E+02 -0.85394152414E+02  0.54378793384E+03  0.55440574503E+03  0.00000000000E+00 0. -1.
          1    1    1    2  501    0  0.48067833388E+02  0.11964373700E+03  0.30828063158E+04  0.30855015672E+04  0.00000000000E+00 0. -1.
<scales pt_clust_3="120.03105" pt_clust_4="61.02318" pt_clust_5="92.41951" pt_clust_6="14000.00000"></scales>
<clustering>
<clus scale="   61.023">  2  4  1 -1</clus>
<clus scale="   92.420">  2  5  1 -1</clus>
<clus scale="  120.031">  2  3  1 -1</clus>
<clus scale="   61.023">  2  3  1 -1</clus>
</clustering>
</event>
<event>
 6    0  0.2433432E+002  0.1297565E+03  0.7546771E-02  0.1227818E+00
          1   -1    0    0  504    0 -0.00000000000E+00  0.00000000000E+00  0.31967212156E+03  0.31967212156E+03  0.00000000000E+00 0. -1.
         21   -1    0    0  505  502  0.00000000000E+00 -0.00000000000E+00 -0.35933250534E+03  0.35933250534E+03  0.00000000000E+00 0.  1.
         21    1    1    2  503  501  0.13861492382E+02  0.40339013531E+02 -0.14375180014E+03  0.14994651389E+03  0.00000000000E+00 0.  1.
         21    1    1    2  504  502  0.33834862102E+02  0.38581850670E+01 -0.13229636736E+02  0.36533638932E+02  0.00000000000E+00 0.  1.
         21    1    1    2  505  503  0.56974775138E+02  0.20103451023E+02 -0.16979970303E+03  0.18022822446E+03  0.00000000000E+00 0.  1.
          1    1    1    2  501    0 -0.10467112962E+03 -0.64300649621E+02  0.28712075614E+03  0.31229624961E+03  0.00000000000E+00 0. -1.
<scales pt_clust_3="36.42273" pt_clust_4="34.05413" pt_clust_5="36.42273" pt_clust_6="121.68402"></scales>
<clustering>
<clus scale="   34.054">  2  4  1 -1</clus>
<clus scale="   36.423">  3  5 -1 -1</clus>
<clus scale="  121.684">  1  6  2 -1</clus>
<clus scale="   34.054">  2  3  1 -1</clus>
</clustering>
</event>
<event>
 6    0  0.2433432E+002  0.1520194E+03  0.7546771E-02  0.1198013E+00
         21   -1    0    0  505  502  0.00000000000E+00  0.00000000000E+00  0.75866546021E+02  0.75866546021E+02  0.00000000000E+00 0.  1.
          1   -1    0    0  504    0 -0.00000000000E+00 -0.00000000000E+00 -0.13573049018E+04  0.13573049018E+04  0.00000000000E+00 0.  1.
         21    1    1    2  503  501  0.17679795168E+03  0.70357966602E+02 -0.23110811126E+03  0.29936385599E+03  0.00000000000E+00 0.  1.
         21    1    1    2  504  502 -0.13064583125E+03  0.52608002886E+02 -0.18061273992E+03  0.22903470701E+03  0.00000000000E+00 0.  1.
         21    1    1    2  505  503 -0.17830380514E+02 -0.53155740788E+02 -0.33798601753E+02  0.65466027285E+02  0.00000000000E+00 0. -1.
          1    1    1    2  501    0 -0.28321739912E+02 -0.69810228700E+02 -0.83591890281E+03  0.83930685750E+03  0.00000000000E+00 0.  1.
<scales pt_clust_3="14000.00000" pt_clust_4="152.01944" pt_clust_5="56.06653" pt_clust_6="76.91561"></scales>
<clustering>
<clus scale="   56.067">  1  5  2 -1</clus>
<clus scale="   76.916">  2  6  1 -1</clus>
<clus scale="  152.019">  2  4  1 -1</clus>
<clus scale="   56.067">  1  3  2 -1</clus>
</clustering>
</event>
<event>
 6    0  0.2433432E+002  0.1181523E+03  0.7546771E-02  0.1246177E+00
         21   -1    0    0  505  502  0.00000000000E+00  0.00000000000E+00  0.24932009708E+03  0.24932009708E+03  0.00000000000E+00 0.  1.
          1   -1    0    0  503    0 -0.00000000000E+00 -0.00000000000E+00 -0.88173922968E+03  0.88173922968E+03  0.00000000000E+00 0. -1.
         21    1    1    2  503  504 -0.21314047383E+02 -0.52723228597E+02 -0.12949444832E+03  0.14143139537E+03  0.00000000000E+00 0.  1.
         21    1    1    2  504  502  0.91580919994E+02  0.24470337878E+02  0.19938409869E+03  0.22077110579E+03  0.00000000000E+00 0.  1.
         21    1    1    2  505  501 -0.14292406985E+02  0.73127129594E+02 -0.12771342166E+02  0.75597335673E+02  0.00000000000E+00 0. -1.
          1    1    1    2  501    0 -0.55974465626E+02 -0.44874238875E+02 -0.68953744079E+03  0.69325948993E+03  0.00000000000E+00 0. -1.
<scales pt_clust_3="56.86851" pt_clust_4="118.15235" pt_clust_5="71.71275" pt_clust_6="14000.00000"></scales>
<clustering>
<clus scale="   56.869">  2  3  1 -1</clus>
<clus scale="   71.713">  1  5  2 -1</clus>
<clus scale="  118.152">  1  4  2 -1</clus>
<clus scale="   71.713">  1  3  2 -1</clus>
</clustering>
</event>
<event>
 6    0  0.2433432E+002  0.9470313E+02  0.7546771E-02  0.1291846E+00
          2   -1    0    0  505    0 -0.00000000000E+00  0.00000000000E+00  0.22792086436E+03  0.22792086436E+03  0.00000000000E+00 0.  1.
         21   -1    0    0  503  502  0.00000000000E+00 -0.00000000000E+00 -0.25694056134E+03  0.25694056134E+03  0.00000000000E+00 0.  1.
         21    1    1    2  503  501 -0.48657294497E+02 -0.18021120957E+02 -0.10100152912E+03  0.11354999777E+03  0.00000000000E+00 0. -1.
         21    1    1    2  504  502  0.45632566591E+02 -0.70941832880E+01 -0.58160160021E+02  0.74264815248E+02  0.00000000000E+00 0.  1.
         21    1    1    2  505  504  0.33829832332E+02 -0.68027923038E+02 -0.50678528166E+02  0.91326716165E+02  0.00000000000E+00 0.  1.
          2    1    1    2  501    0 -0.30805104426E+02  0.93143227283E+02  0.18082052034E+03  0.20571989652E+03  0.00000000000E+00 0.  1.
<scales pt_clust_3="31.82901" pt_clust_4="46.18072" pt_clust_5="14000.00000" pt_clust_6="94.70313"></scales>
<clustering>
<clus scale="   46.181">  2  4  1 -1</clus>
<clus scale="   31.829">  2  3  1 -1</clus>
<clus scale="   94.703">  1  6  2 -1</clus>
<clus scale="   46.181">  2  3  1 -1</clus>
</clustering>
</event>
<event>
 6    0  0.2433432E+002  0.1409650E+03  0.7546771E-02  0.1212036E+00
         21   -1    0    0  505  502  0.00000000000E+00  0.00000000000E+00  0.80510506181E+02  0.80510506181E+02  0.00000000000E+00 0. -1.
          1   -1    0    0  503    0 -0.00000000000E+00 -0.00000000000E+00 -0.89196738577E+03  0.89196738577E+03  0.00000000000E+00 0.  1.
         21    1    1    2  503  502  0.47103071537E+02 -0.47799516246E+02 -0.75785626751E+02  0.10122724102E+03  0.00000000000E+00 0. -1.
         21    1    1    2  504  501 -0.29110762684E+02 -0.15859610985E+02 -0.93503165317E+02  0.99205875274E+02  0.00000000000E+00 0.  1.
         21    1    1    2  505  504  0.85689473582E+02  0.63181104264E+02  0.14317301084E+02  0.10742217150E+03  0.00000000000E+00 0. -1.
          1    1    1    2  501    0 -0.10368178244E+03  0.47802296665E+00 -0.65648538860E+03  0.66462260416E+03  0.00000000000E+00 0.  1.
<scales pt_clust_3="67.10807" pt_clust_4="31.38443" pt_clust_5="129.57808" pt_clust_6="31.38443"></scales>
<clustering>
<clus scale="   31.384">  4  6 -1 -1</clus>
<clus scale="   67.108">  1  3  2 -1</clus>
<clus scale="  129.578">  1  5  2 -1</clus>
<clus scale="   67.108">  1  3  2 -1</clus>
</clustering>
</event>
<event>
 6    0  0.2433432E+002  0.7213097E+02  0.7546771E-02  0.1352993E+00
          2   -1    0    0  505    0 -0.00000000000E+00  0.00000000000E+00  0.14991206471E+04  0.14991206471E+04  0.00000000000E+00 0.  1.
         21   -1    0    0  503  502  0.00000000000E+00 -0.00000000000E+00 -0.27815380178E+02  0.27815380178E+02  0.00000000000E+00 0.  1.
         21    1    1    2  503  504  0.18711248186E+02 -0.46201440190E+02  0.80337528989E+02  0.94545240220E+02  0.00000000000E+00 0.  1.
         21    1    1    2  504  501 -0.24455050614E+02  0.66845040425E+02  0.10760841213E+03  0.12901891059E+03  0.00000000000E+00 0.  1.
         21    1    1    2  505  502  0.76974831989E+02 -0.12373940512E+02  0.16264054424E+03  0.18036126467E+03  0.00000000000E+00 0.  1.
          2    1    1    2  501    0 -0.71231029562E+02 -0.82696597223E+01  0.11207187816E+04  0.11230106118E+04  0.00000000000E+00 0.  1.
<scales pt_clust_3="49.84660" pt_clust_4="45.43704" pt_clust_5="72.13097" pt_clust_6="14000.00000"></scales>
<clustering>
<clus scale="   49.847">  2  3  1 -1</clus>
<clus scale="   45.437">  2  4  1 -1</clus>
<clus scale="   72.131">  2  5  1 -1</clus>
<clus scale="   49.847">  2  3  1 -1</clus>
</clustering>
</event>
<event>
 6    0  0.2433432E+002  0.1417939E+03  0.7546771E-02  0.1210935E+00
         21   -1    0    0  505  502  0.00000000000E+00  0.00000000000E+00  0.58280541119E+03  0.58280541119E+03  0.00000000000E+00 0.  1.
          2   -1    0    0  503    0 -0.00000000000E+00 -0.00000000000E+00 -0.58032720673E+03  0.58032720673E+03  0.00000000000E+00 0.  1.
         21    1    1    2  503  502 -0.24358046281E+02 -0.69972550835E+02  0.72700355931E+02  0.10380180173E+03  0.00000000000E+00 0. -1.
         21    1    1    2  504  501 -0.23517956005E+02  0.13965551025E+03  0.16162932960E+03  0.21489717537E+03  0.00000000000E+00 0.  1.
         21    1    1    2  505  504  0.66941679406E+02  0.71142682193E+02  0.28872813970E+03  0.30480552542E+03  0.00000000000E+00 0.  1.
          2    1    1    2  501    0 -0.19065677121E+02 -0.14082564160E+03 -0.52057962077E+03  0.53962811541E+03  0.00000000000E+00 0.  1.
<scales pt_clust_3="74.09097" pt_clust_4="14000.00000" pt_clust_5="59.89905" pt_clust_6="141.79389"></scales>
<clustering>
<clus scale="   74.091">  1  3  2 -1</clus>
<clus scale="   59.899">  1  5  2 -1</clus>
<clus scale="  141.794">  2  6  1 -1</clus>
<clus scale="   74.091">  1  3  2 -1</clus>
</clustering>
</event>
<event>
 6    0  0.2433432E+002  0.1161301E+03  0.7546771E-02  0.1249621E+00
         21   -1    0    0  503  502  0.00000000000E+00  0.00000000000E+00  0.35058611078E+03  0.35058611078E+03  0.00000000000E+00 0. -1.
          2   -1    0    0  505    0 -0.00000000000E+00 -0.00000000000E+00 -0.33605053423E+03  0.33605053423E+03  0.00000000000E+00 0.  1.
         21    1    1    2  503  501  0.79083080031E+02  0.64801816642E+02  0.40571699491E+02  0.10999759900E+03  0.00000000000E+00 0. -1.
         21    1    1    2  504  502 -0.71579753933E+01  0.56358096792E+02  0.10043290061E+03  0.11538734424E+03  0.00000000000E+00 0. -1.
         21    1    1    2  505  504 -0.10858721152E+03 -0.84832652704E+02  0.13608855376E+03  0.19366945018E+03  0.00000000000E+00 0. -1.
          2    1    1    2  501    0  0.36662106881E+02 -0.36327260730E+02 -0.26255757732E+03  0.26758225158E+03  0.00000000000E+00 0.  1.
<scales pt_clust_3="116.13012" pt_clust_4="52.63462" pt_clust_5="14000.00000" pt_clust_6="51.61182"></scales>
<clustering>
<clus scale="   51.612">  2  6  1 -1</clus>
<clus scale="   52.635">  1  4  2 -1</clus>
<clus scale="  116.130">  2  3  1 -1</clus>
<clus scale="   52.635">  1  3  2 -1</clus>
</clustering>
</event>
<event>
 6    0  0.2433432E+002  0.1052750E+03  0.7546771E-02  0.1269579E+00
         21   -1    0    0  504  502  0.00000000000E+00  0.00000000000E+00  0.38292175831E+03  0.38292175831E+03  0.00000000000E+00 0.  1.
          2   -1    0    0  502    0 -0.00000000000E+00 -0.00000000000E+00 -0.49623985411E+03  0.49623985411E+03  0.00000000000E+00 0.  1.
         21    1    1    2  503  501  0.29091945303E+02  0.37712873033E+02 -0.27574340731E+01  0.47709595645E+02  0.00000000000E+00 0. -1.
         21    1    1    2  504  505 -0.18218805749E+02  0.10289847778E+03  0.30486335083E+03  0.32227578918E+03  0.00000000000E+00 0.  1.
         21    1    1    2  505  503 -0.35737207732E+02 -0.11943933203E+03 -0.37988359497E+02  0.13033041667E+03  0.00000000000E+00 0.  1.
          2    1    1    2  501    0  0.24864068178E+02 -0.21172018778E+02 -0.37743565306E+03  0.37884581094E+03  0.00000000000E+00 0.  1.
<scales pt_clust_3="47.80367" pt_clust_4="105.27502" pt_clust_5="14000.00000" pt_clust_6="32.65695"></scales>
<clustering>
<clus scale="   32.657">  2  6  1 -1</clus>
<clus scale="   47.804">  2  3  1 -1</clus>
<clus scale="  105.275">  1  4  2 -1</clus>
<clus scale="  105.275">  1  3  2 -1</clus>
</clustering>
</event>
<event>
 6    0  0.2433432E+002  0.1246603E+03  0.7546771E-02  0.1235601E+00
         -1   -1    0    0    0  501 -0.00000000000E+00  0.00000000000E+00  0.21784973569E+03  0.21784973569E+03  0.00000000000E+00 0. -1.
         21   -1    0    0  504  502  0.00000000000E+00 -0.00000000000E+00 -0.50203370293E+03  0.50203370293E+03  0.00000000000E+00 0. -1.
         21    1    1    2  503  502 -0.11977425336E+03 -0.87443998500E+02 -0.40683630927E+03  0.43302206316E+03  0.00000000000E+00 0. -1.
         21    1    1    2  504  505  0.26741463532E+02  0.80070615053E+02 -0.31545660553E+02  0.90119575934E+02  0.00000000000E+00 0. -1.
         21    1    1    2  505  501  0.40077514536E+02  0.17700436106E+02  0.13174868610E+02  0.45750298061E+02  0.00000000000E+00 0. -1.
         -1    1    1    2    0  503  0.52955275294E+02 -0.10327052659E+02  0.14102313397E+03  0.15099150146E+03  0.00000000000E+00 0. -1.
<scales pt_clust_3="14000.00000" pt_clust_4="124.66030" pt_clust_5="43.81224" pt_clust_6="84.08532"></scales>
<clustering>
<clus scale="   43.812">  1  5  2 -1</clus>
<clus scale="   84.085">  1  6  2 -1</clus>
<clus scale="  124.660">  1  4  2 -1</clus>
<clus scale="  124.660">  2  3  1 -1</clus>
</clustering>
</event>
<event>
 6    0  0.2433432E+002  0.9077858E+02  0.7546771E-02  0.1300977E+00
         -2   -1    0    0    0  501 -0.00000000000E+00  0.00000000000E+00  0.20369978332E+04  0.20369978332E+04  0.00000000000E+00 0.  1.
         21   -1    0    0  504  502  0.00000000000E+00 -0.00000000000E+00 -0.29641154625E+03  0.29641154625E+03  0.00000000000E+00 0.  1.
         21    1    1    2  503  502 -0.20755127190E+02  0.48826331585E+02 -0.26835201911E+03  0.27354632537E+03  0.00000000000E+00 0.  1.
         21    1    1    2  504  505 -0.52158587403E+02  0.15125218617E+02  0.19357991573E+02  0.57654334753E+02  0.00000000000E+00 0.  1.
         21    1    1    2  505  501 -0.37195679658E+02  0.52315998534E+02  0.53201124620E+03  0.53586980543E+03  0.00000000000E+00 0. -1.
         -2    1    1    2    0  503  0.11010939425E+03 -0.11626754874E+03  0.14575690683E+04  0.14663389139E+04  0.00000000000E+00 0.  1.
<scales pt_clust_3="53.05456" pt_clust_4="90.77858" pt_clust_5="68.12286" pt_clust_6="14000.00000"></scales>
<clustering>
<clus scale="   53.055">  2  3  1 -1</clus>
<clus scale="   68.123">  1  5  2 -1</clus>
<clus scale="   90.779">  2  4  1 -1</clus>
<clus scale="   53.055">  2  3  1 -1</clus>
</clustering>
</event>
<event>
 6    0  0.2433432E+002  0.3360452E+03  0.7546771E-02  0.1068493E+00
         21   -1    0    0  503  502  0.00000000000E+00  0.00000000000E+00  0.77079662455E+03  0.77079662455E+03  0.00000000000E+00 0.  1.
          2   -1    0    0  504    0 -0.00000000000E+00 -0.00000000000E+00 -0.24942187162E+04  0.24942187162E+04  0.00000000000E+00 0.  1.
         21    1    1    2  503  505 -0.85882560655E+01  0.11329891009E+03  0.25601500250E+03  0.28009655956E+03  0.00000000000E+00 0.  1.
         21    1    1    2  504  502 -0.21967860315E+03  0.41972762080E+02  0.33995810440E+03  0.40692986396E+03  0.00000000000E+00 0.  1.
         21    1    1    2  505  501 -0.30955841856E+02  0.65565981679E+02  0.10620823129E+03  0.12859763019E+03  0.00000000000E+00 0.  1.
          2    1    1    2  501    0  0.25922270107E+03 -0.22083765385E+03 -0.24256034298E+04  0.24493912870E+04  0.00000000000E+00 0.  1.
<scales pt_clust_3="189.27564" pt_clust_4="336.04525" pt_clust_5="38.05039" pt_clust_6="14000.00000"></scales>
<clustering>
<clus scale="   38.050">  3  5 -1 -1</clus>
<clus scale="  189.276">  1  3  2 -1</clus>
<clus scale="  336.045">  1  4  2 -1</clus>
<clus scale="  189.276">  1  3  2 -1</clus>
</clustering>
</event>
<event>
 6    0  0.2433432E+002  0.1365429E+03  0.7546771E-02  0.1218058E+00
          2   -1    0    0  502    0 -0.00000000000E+00  0.00000000000E+00  0.12112548639E+04  0.12112548639E+04  0.00000000000E+00 0.  1.
         21   -1    0    0  505  502  0.00000000000E+00 -0.00000000000E+00 -0.98562871796E+02  0.98562871796E+02  0.00000000000E+00 0. -1.
         21    1    1    2  503  501  0.95741528544E+02  0.53298430902E+02  0.63586384902E+03  0.64523638887E+03  0.00000000000E+00 0.  1.
         21    1    1    2  504  503 -0.44799747732E+02 -0.52321415061E+02 -0.34472220420E+02  0.77025202703E+02  0.00000000000E+00 0. -1.
         21    1    1    2  505  504 -0.14246419536E+02 -0.65903013106E+02 -0.33709771977E+01  0.67509488913E+02  0.00000000000E+00 0. -1.
          2    1    1    2  501    0 -0.36695361275E+02  0.64925997266E+02  0.51467134065E+03  0.52004665517E+03  0.00000000000E+00 0.  1.
<scales pt_clust_3="129.03206" pt_clust_4="44.18775" pt_clust_5="44.18775" pt_clust_6="74.57838"></scales>
<clustering>
<clus scale="   44.188">  4  5 -1 -1</clus>
<clus scale="   74.578">  1  6  2 -1</clus>
<clus scale="  129.032">  1  3  2 -1</clus>
<clus scale="  136.543">  2  3  1 -1</clus>
</clustering>
</event>
<event>
 6    0  0.2433432E+002  0.4197536E+03  0.7546771E-02  0.1037147E+00
          2   -1    0    0  502    0 -0.00000000000E+00  0.00000000000E+00  0.19792039829E+04  0.19792039829E+04  0.00000000000E+00 0.  1.
         21   -1    0    0  503  502  0.00000000000E+00 -0.00000000000E+00 -0.56932567430E+03  0.56932567430E+03  0.00000000000E+00 0.  1.
         21    1    1    2  503  505  0.29519228656E+03  0.23869867085E+03 -0.34641827132E+03  0.51392719349E+03  0.00000000000E+00 0.  1.
         21    1    1    2  504  501 -0.49181451488E+03 -0.15463797496E+03  0.54908734081E+03  0.75318744558E+03  0.00000000000E+00 0.  1.
         21    1    1    2  505  504 -0.10920691671E+03 -0.28311672865E+02  0.23428285444E+03  0.26003107000E+03  0.00000000000E+00 0.  1.
          2    1    1    2  501    0  0.30582914504E+03 -0.55749023019E+02  0.97292638462E+03  0.10213839481E+04  0.00000000000E+00 0.  1.
<scales pt_clust_3="397.42609" pt_clust_4="63.18728" pt_clust_5="63.18728" pt_clust_6="310.86881"></scales>
<clustering>
<clus scale="   63.187">  4  5 -1 -1</clus>
<clus scale="  310.869">  1  6  2 -1</clus>
<clus scale="  397.426">  2  3  1 -1</clus>
<clus scale="  397.426">  2  3  1 -1</clus>
</clustering>
</event>
<event>
 6    0  0.2433432E+002  0.1567880E+03  0.7546771E-02  0.1192372E+00
          2   -1    0    0  502    0 -0.00000000000E+00  0.00000000000E+00  0.11980977574E+04  0.11980977574E+04  0.00000000000E+00 0.  1.
         21   -1    0    0  504  502  0.00000000000E+00 -0.00000000000E+00 -0.97665347027E+02  0.97665347027E+02  0.00000000000E+00 0. -1.
         21    1    1    2  503  505  0.21073452898E+02  0.18812620328E+03  0.11636618833E+03  0.22220856996E+03  0.00000000000E+00 0. -1.
         21    1    1    2  504  503  0.99885986454E+02 -0.11538947114E+03  0.13483750160E+03  0.20364943451E+03  0.00000000000E+00 0.  1.
         21    1    1    2  505  501 -0.11841516459E+03 -0.13079735291E+02  0.42094875373E+03  0.43748266702E+03  0.00000000000E+00 0.  1.
          2    1    1    2  501    0 -0.25442747664E+01 -0.59656996850E+02  0.42827996671E+03  0.43242243292E+03  0.00000000000E+00 0.  1.
<scales pt_clust_3="156.78801" pt_clust_4="14000.00000" pt_clust_5="128.51820" pt_clust_6="59.71123"></scales>
<clustering>
<clus scale="   59.711">  1  6  2 -1</clus>
<clus scale="  128.518">  1  5  2 -1</clus>
<clus scale="  156.788">  1  3  2 -1</clus>
<clus scale="  156.788">  2  3  1 -1</clus>
</clustering>
</event>
<event>
 6    0  0.2455438E+002  0.1396607E+03  0.7546771E-02  0.1213786E+00
         21   -1    0    0  504  502  0.00000000000E+00  0.00000000000E+00  0.10492020633E+03  0.10492020633E+03  0.00000000000E+00 0. -1.
          2   -1    0    0  505    0 -0.00000000000E+00 -0.00000000000E+00 -0.23431595403E+04  0.23431595403E+04  0.00000000000E+00 0. -1.
         21    1    1    2  503  502 -0.26196221382E+01  0.39307134743E+02 -0.85008677689E+01  0.40301091979E+02  0.00000000000E+00 0. -1.
         21    1    1    2  504  501  0.13749384232E+03  0.28952691583E+01  0.28080831683E+02  0.14036193347E+03  0.00000000000E+00 0. -1.
         21    1    1    2  505  503 -0.27983654798E+02 -0.16466268005E+02 -0.73738607694E+02  0.80570498214E+02  0.00000000000E+00 0. -1.
          2    1    1    2  501    0 -0.10689056538E+03 -0.25736135896E+02 -0.21840806902E+04  0.21868462230E+04  0.00000000000E+00 0. -1.
<scales pt_clust_3="39.23869" pt_clust_4="139.66074" pt_clust_5="32.46880" pt_clust_6="14000.00000"></scales>
<clustering>
<clus scale="   32.469">  2  5  1 -1</clus>
<clus scale="   39.239">  1  3  2 -1</clus>
<clus scale="  139.661">  1  4  2 -1</clus>
<clus scale="   39.239">  1  3  2 -1</clus>
</clustering>
</event>
<event>
 6    0  0.2433432E+002  0.1312156E+03  0.7546771E-02  0.1225663E+00
          1   -1    0    0  504    0 -0.00000000000E+00  0.00000000000E+00  0.92874591661E+03  0.92874591661E+03  0.00000000000E+00 0.  1.
         21   -1    0    0  503  502  0.00000000000E+00 -0.00000000000E+00 -0.48598309582E+02  0.48598309582E+02  0.00000000000E+00 0. -1.
         21    1    1    2  503  501  0.23722130917E+02  0.25064529952E+02  0.30380931376E+01  0.34643905190E+02  0.00000000000E+00 0.  1.
         21    1    1    2  504  505 -0.60484086587E+02 -0.33990810307E+02  0.12654009526E+03  0.14431249296E+03  0.00000000000E+00 0. -1.
         21    1    1    2  505  502 -0.75531413740E+02 -0.23886925361E+02  0.63772483052E+02  0.10169812810E+03  0.00000000000E+00 0. -1.
          1    1    1    2  501    0  0.11229336941E+03  0.32813205717E+02  0.68679693558E+03  0.69668969994E+03  0.00000000000E+00 0.  1.
<scales pt_clust_3="34.51044" pt_clust_4="48.71779" pt_clust_5="48.71779" pt_clust_6="121.51231"></scales>
<clustering>
<clus scale="   34.510">  2  3  1 -1</clus>
<clus scale="   48.718">  4  5 -1 -1</clus>
<clus scale="  121.512">  1  6  2 -1</clus>
<clus scale="   34.510">  2  3  1 -1</clus>
</clustering>
</event>
<event>
 6    0  0.2433432E+002  0.2753034E+03  0.7546771E-02  0.1098282E+00
          2   -1    0    0  505    0 -0.00000000000E+00  0.00000000000E+00  0.28099509655E+04  0.28099509655E+04  0.00000000000E+00 0.  1.
         21   -1    0    0  504  502  0.00000000000E+00 -0.00000000000E+00 -0.40490879495E+03  0.40490879495E+03  0.00000000000E+00 0. -1.
         21    1    1    2  503  501 -0.12996758722E+03 -0.10647652237E+03  0.11432656132E+03  0.20322250409E+03  0.00000000000E+00 0.  1.
         21    1    1    2  504  503 -0.13042915557E+03 -0.24427935665E+02  0.54378969059E+02  0.14340697660E+03  0.00000000000E+00 0.  1.
         21    1    1    2  505  502  0.22042580001E+03  0.13228116774E+03 -0.26346847027E+03  0.36810525054E+03  0.00000000000E+00 0. -1.
          2    1    1    2  501    0  0.39970942778E+02 -0.13767097041E+01  0.24998051105E+04  0.25001250293E+04  0.00000000000E+00 0.  1.
<scales pt_clust_3="72.78081" pt_clust_4="72.78081" pt_clust_5="262.76223" pt_clust_6="39.99464"></scales>
<clustering>
<clus scale="   39.995">  1  6  2 -1</clus>
<clus scale="   72.781">  3  4 -1 -1</clus>
<clus scale="  262.762">  2  5  1 -1</clus>
<clus scale="  262.762">  2  3  1 -1</clus>
</clustering>
</event>
<event>
 6    0  0.2433432E+002  0.1116253E+03  0.7546771E-02  0.1257589E+00
         21   -1    0    0  503  502  0.00000000000E+00  0.00000000000E+00  0.24946835628E+03  0.24946835628E+03  0.00000000000E+00 0. -1.
          1   -1    0    0  505    0 -0.00000000000E+00 -0.00000000000E+00 -0.18722582005E+04  0.18722582005E+04  0.00000000000E+00 0.  1.
         21    1    1    2  503  501 -0.90878661919E+02  0.10317058590E+03  0.13401448688E+03  0.19199735332E+03  0.00000000000E+00 0. -1.
         21    1    1    2  504  502 -0.37667492906E+02  0.24574802152E+02 -0.47128667909E+02  0.65145009490E+02  0.00000000000E+00 0. -1.
         21    1    1    2  505  504  0.87859125071E+02 -0.24005255536E+02  0.48290690072E+02  0.10308961587E+03  0.00000000000E+00 0.  1.
          1    1    1    2  501    0  0.40687029753E+02 -0.10374013251E+03 -0.17579663533E+04  0.17614945781E+04  0.00000000000E+00 0.  1.
<scales pt_clust_3="14000.00000" pt_clust_4="44.97511" pt_clust_5="77.72438" pt_clust_6="111.62527"></scales>
<clustering>
<clus scale="   44.975">  1  4  2 -1</clus>
<clus scale="   77.724">  1  5  2 -1</clus>
<clus scale="  111.625">  2  6  1 -1</clus>
<clus scale="   44.975">  1  3  2 -1</clus>
</clustering>
</event>
<event>
 6    0  0.2433432E+002  0.1061890E+03  0.7546771E-02  0.1267795E+00
          2   -1    0    0  503    0 -0.00000000000E+00  0.00000000000E+00  0.17374236007E+04  0.17374236007E+04  0.00000000000E+00 0.  1.
         21   -1    0    0  504  502  0.00000000000E+00 -0.00000000000E+00 -0.10066385625E+04  0.10066385625E+04  0.00000000000E+00 0. -1.
         21    1    1    2  503  505 -0.12670976339E+03  0.33144018900E+02 -0.23434507508E+03  0.26846136471E+03  0.00000000000E+00 0. -1.
         21    1    1    2  504  501  0.28735743194E+02  0.10267847263E+02 -0.18945984903E+02  0.35918267890E+02  0.00000000000E+00 0. -1.
         21    1    1    2  505  502  0.60190953808E+02 -0.60080816990E+02 -0.72506853347E+03  0.73003906314E+03  0.00000000000E+00 0. -1.
          2    1    1    2  501    0  0.37783066388E+02  0.16668950827E+02  0.17091446317E+04  0.17096434675E+04  0.00000000000E+00 0.  1.
<scales pt_clust_3="106.18895" pt_clust_4="30.51510" pt_clust_5="14000.00000" pt_clust_6="41.30441"></scales>
<clustering>
<clus scale="   30.515">  2  4  1 -1</clus>
<clus scale="   41.304">  1  6  2 -1</clus>
<clus scale="  106.189">  1  3  2 -1</clus>
<clus scale="   30.515">  2  3  1 -1</clus>
</clustering>
</event>
<event>
 6    0  0.2433432E+002  0.7594384E+02  0.7546771E-02  0.1340973E+00
          2   -1    0    0  505    0 -0.00000000000E+00  0.00000000000E+00  0.36445918788E+04  0.36445918788E+04  0.00000000000E+00 0. -1.
         21   -1    0    0  504  502  0.00000000000E+00 -0.00000000000E+00 -0.27842435278E+02  0.27842435278E+02  0.00000000000E+00 0. -1.
         21    1    1    2  503  501 -0.58408023725E+00 -0.11024105904E+03  0.17402885315E+03  0.20600843181E+03  0.00000000000E+00 0. -1.
         21    1    1    2  504  503  0.29240160866E+02  0.18044792905E+02  0.78521828650E+02  0.85710437713E+02  0.00000000000E+00 0.  1.
         21    1    1    2  505  502 -0.38722454872E+02  0.45357866430E+02  0.10193240415E+03  0.11809733093E+03  0.00000000000E+00 0.  1.
          2    1    1    2  501    0  0.10066374243E+02  0.46838399702E+02  0.32622663575E+04  0.32626181136E+04  0.00000000000E+00 0. -1.
<scales pt_clust_3="75.94384" pt_clust_4="34.35988" pt_clust_5="14000.00000" pt_clust_6="48.08077"></scales>
<clustering>
<clus scale="   34.360">  2  4  1 -1</clus>
<clus scale="   48.081">  1  6  2 -1</clus>
<clus scale="   75.944">  1  3  2 -1</clus>
<clus scale="   34.360">  2  3  1 -1</clus>
</clustering>
</event>
<event>
 6    0  0.2433432E+002  0.1510845E+03  0.7546771E-02  0.1199147E+00
          2   -1    0    0  505    0 -0.00000000000E+00  0.00000000000E+00  0.21710923354E+04  0.21710923354E+04  0.00000000000E+00 0.  1.
         21   -1    0    0  501  502  0.00000000000E+00 -0.00000000000E+00 -0.66727416377E+02  0.66727416377E+02  0.00000000000E+00 0. -1.
         21    1    1    2  503  504 -0.37121835877E+02 -0.85586410944E+02  0.12074309737E+04  0.12110295705E+04  0.00000000000E+00 0.  1.
         21    1    1    2  504  502  0.10248478799E+03  0.26383605844E+02  0.23684785352E+02  0.10844443500E+03  0.00000000000E+00 0. -1.
         21    1    1    2  505  503 -0.59222165772E+02 -0.10875562427E+02  0.83708446859E+03  0.83924725220E+03  0.00000000000E+00 0.  1.
          2    1    1    2  501    0 -0.61407863399E+01  0.70078367528E+02  0.36164691325E+02  0.79098493986E+02  0.00000000000E+00 0.  1.
<scales pt_clust_3="56.83409" pt_clust_4="133.49885" pt_clust_5="56.83409" pt_clust_6="70.34690"></scales>
<clustering>
<clus scale="   56.834">  3  5 -1 -1</clus>
<clus scale="   70.347">  2  6  1 -1</clus>
<clus scale="  133.499">  2  4  1 -1</clus>
<clus scale="   70.347">  2  3  1 -1</clus>
</clustering>
</event>
<event>
 6    0  0.2433432E+002  0.3727226E+03  0.7546771E-02  0.1053657E+00
         21   -1    0    0  505  502  0.00000000000E+00  0.00000000000E+00  0.23958994014E+03  0.23958994014E+03  0.00000000000E+00 0. -1.
          2   -1    0    0  504    0 -0.00000000000E+00 -0.00000000000E+00 -0.12153121154E+04  0.12153121154E+04  0.00000000000E+00 0. -1.
         21    1    1    2  503  501  0.31868925421E+03  0.14739448180E+03 -0.21880283470E+03  0.41371808576E+03  0.00000000000E+00 0. -1.
         21    1    1    2  504  502 -0.61748899033E+02  0.12099143374E+03 -0.15994319946E+03  0.20984203731E+03  0.00000000000E+00 0. -1.
         21    1    1    2  505  503  0.28516217740E+02  0.19464552744E+02  0.54214238450E+02  0.64274622818E+02  0.00000000000E+00 0. -1.
          2    1    1    2  501    0 -0.28545657291E+03 -0.28785046829E+03 -0.65119037960E+03  0.76706730969E+03  0.00000000000E+00 0. -1.
<scales pt_clust_3="372.72259" pt_clust_4="136.52499" pt_clust_5="34.52598" pt_clust_6="14000.00000"></scales>
<clustering>
<clus scale="   34.526">  1  5  2 -1</clus>
<clus scale="  136.525">  2  4  1 -1</clus>
<clus scale="  372.723">  1  3  2 -1</clus>
<clus scale="   34.526">  1  3  2 -1</clus>
</clustering>
</event>
<event>
 6    0  0.2433432E+002  0.1265518E+03  0.7546771E-02  0.1232664E+00
         21   -1    0    0  504  502  0.00000000000E+00  0.00000000000E+00  0.38403545195E+03  0.38403545195E+03  0.00000000000E+00 0.  1.
          4   -1    0    0  505    0 -0.00000000000E+00 -0.00000000000E+00 -0.15998537355E+04  0.15998537355E+04  0.00000000000E+00 0.  1.
         21    1    1    2  503  502 -0.11948634408E+02 -0.10151237101E+03  0.49602780523E+02  0.11361323500E+03  0.00000000000E+00 0.  1.
         21    1    1    2  504  501 -0.20057433745E+02 -0.30916343285E+02  0.29608793427E+03  0.29837256199E+03  0.00000000000E+00 0.  1.
         21    1    1    2  505  503  0.26131436140E+02  0.78587268793E+02 -0.36962528255E+03  0.37878973095E+03  0.00000000000E+00 0.  1.
          4    1    1    2  501    0  0.58746320127E+01  0.53841445497E+02 -0.11918837158E+04  0.11931136595E+04  0.00000000000E+00 0.  1.
<scales pt_clust_3="14000.00000" pt_clust_4="36.85269" pt_clust_5="126.55179" pt_clust_6="53.92797"></scales>
<clustering>
<clus scale="   36.853">  1  4  2 -1</clus>
<clus scale="   53.928">  2  6  1 -1</clus>
<clus scale="  126.552">  2  5  1 -1</clus>
<clus scale="   36.853">  1  3  2 -1</clus>
</clustering>
</event>
<event>
 6    0  0.2433432E+002  0.1437460E+03  0.7546771E-02  0.1208375E+00
         21   -1    0    0  503  502  0.00000000000E+00  0.00000000000E+00  0.15796201078E+03  0.15796201078E+03  0.00000000000E+00 0. -1.
          2   -1    0    0  504    0 -0.00000000000E+00 -0.00000000000E+00 -0.25724616139E+04  0.25724616139E+04  0.00000000000E+00 0.  1.
         21    1    1    2  503  501 -0.16139966706E+02 -0.17338889582E+03 -0.31952595960E+02  0.17704568932E+03  0.00000000000E+00 0. -1.
         21    1    1    2  504  505  0.10064936375E+03  0.88334463256E+02 -0.11779761200E+03  0.17835231766E+03  0.00000000000E+00 0. -1.
         21    1    1    2  505  502 -0.63650333611E+02  0.11592178876E+03 -0.24537479883E+02  0.13450395532E+03  0.00000000000E+00 0. -1.
          2    1    1    2  501    0 -0.20859063434E+02 -0.30867356191E+02 -0.22402119153E+04  0.22405216624E+04  0.00000000000E+00 0.  1.
<scales pt_clust_3="143.74602" pt_clust_4="117.92141" pt_clust_5="14000.00000" pt_clust_6="37.25445"></scales>
<clustering>
<clus scale="   37.254">  2  6  1 -1</clus>
<clus scale="  117.921">  2  4  1 -1</clus>
<clus scale="  143.746">  2  3  1 -1</clus>
<clus scale="  143.746">  1  3  2 -1</clus>
</clustering>
</event>
<event>
 6    0  0.2433432E+002  0.9164961E+02  0.7546771E-02  0.1298905E+00
          1   -1    0    0  504    0 -0.00000000000E+00  0.00000000000E+00  0.11108039099E+04  0.11108039099E+04  0.00000000000E+00 0. -1.
         21   -1    0    0  503  502  0.00000000000E+00 -0.00000000000E+00 -0.65026993964E+03  0.65026993964E+03  0.00000000000E+00 0. -1.
         21    1    1    2  503  505  0.27736332131E+02 -0.27694728516E+02 -0.52350755816E+03  0.52497282364E+03  0.00000000000E+00 0. -1.
         21    1    1    2  504  502 -0.11872994285E+03  0.24259597863E+02 -0.21861777782E+02  0.12313920880E+03  0.00000000000E+00 0. -1.
         21    1    1    2  505  501  0.69444694917E+02  0.31588229066E+02 -0.25886108815E+02  0.80563468752E+02  0.00000000000E+00 0. -1.
          1    1    1    2  501    0  0.21548915797E+02 -0.28153098413E+02  0.10317894150E+04  0.10323983484E+04  0.00000000000E+00 0. -1.
<scales pt_clust_3="39.52281" pt_clust_4="91.64961" pt_clust_5="14000.00000" pt_clust_6="35.45353"></scales>
<clustering>
<clus scale="   35.454">  1  6  2 -1</clus>
<clus scale="   39.523">  2  3  1 -1</clus>
<clus scale="   91.650">  1  4  2 -1</clus>
<clus scale="   39.523">  2  3  1 -1</clus>
</clustering>
</event>
<event>
 6    0  0.2433432E+002  0.9783349E+02  0.7546771E-02  0.1284919E+00
          2   -1    0    0  504    0 -0.00000000000E+00  0.00000000000E+00  0.40172048861E+04  0.40172048861E+04  0.00000000000E+00 0.  1.
         21   -1    0    0  505  502  0.00000000000E+00 -0.00000000000E+00 -0.29288705145E+03  0.29288705145E+03  0.00000000000E+00 0.  1.
         21    1    1    2  503  501 -0.10110223329E+03 -0.78929813209E+02 -0.18293237759E+03  0.22341851257E+03  0.00000000000E+00 0.  1.
         21    1    1    2  504  502  0.53134674776E+01  0.53966827522E+02 -0.61871676148E+01  0.54579597402E+02  0.00000000000E+00 0.  1.
         21    1    1    2  505  503  0.15589073450E+02 -0.30910770678E+02 -0.53624198785E+02  0.63828282527E+02  0.00000000000E+00 0. -1.
          2    1    1    2  501    0  0.80199692360E+02  0.55873756365E+02  0.39670615786E+04  0.39682655450E+04  0.00000000000E+00 0.  1.
<scales pt_clust_3="97.83349" pt_clust_4="50.49182" pt_clust_5="34.61929" pt_clust_6="14000.00000"></scales>
<clustering>
<clus scale="   34.619">  2  5  1 -1</clus>
<clus scale="   50.492">  2  4  1 -1</clus>
<clus scale="   97.833">  2  3  1 -1</clus>
<clus scale="   34.619">  2  3  1 -1</clus>
</clustering>
</event>
<event>
 6    0  0.2433432E+002  0.7862248E+02  0.7546771E-02  0.1333007E+00
          2   -1    0    0  505    0 -0.00000000000E+00  0.00000000000E+00  0.18457641594E+03  0.18457641594E+03  0.00000000000E+00 0. -1.
         21   -1    0    0  503  502  0.00000000000E+00 -0.00000000000E+00 -0.62228398644E+03  0.62228398644E+03  0.00000000000E+00 0. -1.
         21    1    1    2  503  504  0.42037008426E+02 -0.56448021163E+02 -0.27129686944E+03  0.28027750630E+03  0.00000000000E+00 0. -1.
         21    1    1    2  504  501  0.56382033435E+02  0.97306190632E+02 -0.24106497829E+03  0.26600705289E+03  0.00000000000E+00 0. -1.
         21    1    1    2  505  502 -0.21317569684E+02 -0.55165113616E+02 -0.72662404600E+02  0.93688065300E+02  0.00000000000E+00 0. -1.
          2    1    1    2  501    0 -0.77101472178E+02  0.14306944146E+02  0.14731668183E+03  0.16688777789E+03  0.00000000000E+00 0. -1.
<scales pt_clust_3="14000.00000" pt_clust_4="78.34761" pt_clust_5="59.14075" pt_clust_6="78.62248"></scales>
<clustering>
<clus scale="   59.141">  2  5  1 -1</clus>
<clus scale="   78.622">  1  6  2 -1</clus>
<clus scale="   78.348">  1  4  2 -1</clus>
<clus scale="   59.141">  2  3  1 -1</clus>
</clustering>
</event>
<event>
 6    0  0.2433432E+002  0.8444395E+02  0.7546771E-02  0.1316893E+00
         21   -1    0    0  505  502  0.00000000000E+00  0.00000000000E+00  0.31767843119E+03  0.31767843119E+03  0.00000000000E+00 0. -1.
          1   -1    0    0  503    0 -0.00000000000E+00 -0.00000000000E+00 -0.67542265142E+03  0.67542265142E+03  0.00000000000E+00 0. -1.
         21    1    1    2  503  504 -0.57377950185E+02 -0.10720624918E+03 -0.23254006324E+02  0.12379886041E+03  0.00000000000E+00 0. -1.
         21    1    1    2  504  502  0.77699619412E+02  0.38657598113E+02  0.16290451774E+03  0.18457931263E+03  0.00000000000E+00 0. -1.
         21    1    1    2  505  501 -0.31891727898E+02  0.23732227882E+02  0.88491840848E+02  0.97010859419E+02  0.00000000000E+00 0.  1.
          1    1    1    2  501    0  0.11570058671E+02  0.44816423181E+02 -0.58588657251E+03  0.58771205015E+03  0.00000000000E+00 0. -1.
<scales pt_clust_3="84.44395" pt_clust_4="14000.00000" pt_clust_5="39.75300" pt_clust_6="46.34697"></scales>
<clustering>
<clus scale="   39.753">  1  5  2 -1</clus>
<clus scale="   46.347">  2  6  1 -1</clus>
<clus scale="   84.444">  2  3  1 -1</clus>
<clus scale="   39.753">  1  3  2 -1</clus>
</clustering>
</event>
<event>
 6    0  0.2433432E+002  0.1413523E+03  0.7546771E-02  0.1211521E+00
         21   -1    0    0  501  502  0.00000000000E+00  0.00000000000E+00  0.32650615657E+03  0.32650615657E+03  0.00000000000E+00 0. -1.
          1   -1    0    0  503    0 -0.00000000000E+00 -0.00000000000E+00 -0.15020048078E+03  0.15020048078E+03  0.00000000000E+00 0. -1.
         21    1    1    2  503  504 -0.10656790003E+02  0.50311045898E+02  0.10389018219E+03  0.11592212243E+03  0.00000000000E+00 0. -1.
         21    1    1    2  504  505 -0.28972304366E+02  0.10118968836E+03  0.10115551284E+03  0.14598351013E+03  0.00000000000E+00 0. -1.
         21    1    1    2  505  502  0.21560027980E+02 -0.22142210048E+02  0.52544445920E+02  0.60959257454E+02  0.00000000000E+00 0. -1.
          1    1    1    2  501    0  0.18069066389E+02 -0.12935852421E+03 -0.81284465162E+02  0.15384174733E+03  0.00000000000E+00 0. -1.
<scales pt_clust_3="30.01643" pt_clust_4="30.01643" pt_clust_5="30.90489" pt_clust_6="133.98732"></scales>
<clustering>
<clus scale="   30.905">  1  5  2 -1</clus>
<clus scale="   30.016">  3  4 -1 -1</clus>
<clus scale="  133.987">  2  6  1 -1</clus>
<clus scale="   30.905">  1  3  2 -1</clus>
</clustering>
</event>
<event>
 6    0  0.2433432E+002  0.7697277E+02  0.7546771E-02  0.1337869E+00
          1   -1    0    0  505    0 -0.00000000000E+00  0.00000000000E+00  0.14503638059E+04  0.14503638059E+04  0.00000000000E+00 0. -1.
         21   -1    0    0  503  502  0.00000000000E+00 -0.00000000000E+00 -0.38367909129E+02  0.38367909129E+02  0.00000000000E+00 0. -1.
         21    1    1    2  503  504 -0.28518181678E+02  0.63632583433E+02  0.18783431636E+02  0.72216408555E+02  0.00000000000E+00 0. -1.
         21    1    1    2  504  501  0.10045519807E+03 -0.17425420533E+02  0.26378465756E+03  0.28280247111E+03  0.00000000000E+00 0. -1.
         21    1    1    2  505  502 -0.23473148568E+02 -0.25218344542E+02  0.21334233443E+03  0.21610623607E+03  0.00000000000E+00 0. -1.
          1    1    1    2  501    0 -0.48463867823E+02 -0.20988818358E+02  0.91608547312E+03  0.91760659927E+03  0.00000000000E+00 0. -1.
<scales pt_clust_3="69.24681" pt_clust_4="76.97277" pt_clust_5="34.45219" pt_clust_6="14000.00000"></scales>
<clustering>
<clus scale="   34.452">  1  5  2 -1</clus>
<clus scale="   69.247">  2  3  1 -1</clus>
<clus scale="   76.973">  2  4  1 -1</clus>
<clus scale="   69.247">  2  3  1 -1</clus>
</clustering>
</event>
<event>
 6    0  0.2433432E+002  0.1157916E+03  0.7546771E-02  0.1250206E+00
          1   -1    0    0  505    0 -0.00000000000E+00  0.00000000000E+00  0.31770826283E+04  0.31770826283E+04  0.00000000000E+00 0. -1.
         21   -1    0    0  504  502  0.00000000000E+00 -0.00000000000E+00 -0.17495887087E+02  0.17495887087E+02  0.00000000000E+00 0.  1.
         21    1    1    2  503  502 -0.39941219888E+02 -0.37661532897E+02  0.66624568904E+02  0.86328009869E+02  0.00000000000E+00 0.  1.
         21    1    1    2  504  501  0.91049534843E+02  0.43566063089E+02  0.73298048864E+03  0.73989757154E+03  0.00000000000E+00 0.  1.
         21    1    1    2  505  503 -0.27926887098E+02 -0.45377813141E+02  0.17593330301E+03  0.18382487333E+03  0.00000000000E+00 0.  1.
          1    1    1    2  501    0 -0.23181427857E+02  0.39473282950E+02  0.21840483807E+04  0.21845280607E+04  0.00000000000E+00 0. -1.
<scales pt_clust_3="49.37044" pt_clust_4="103.73546" pt_clust_5="49.37044" pt_clust_6="45.77684"></scales>
<clustering>
<clus scale="   45.777">  1  6  2 -1</clus>
<clus scale="   49.370">  3  5 -1 -1</clus>
<clus scale="  103.735">  1  4  2 -1</clus>
<clus scale="  115.792">  2  3  1 -1</clus>
</clustering>
</event>
<event>
 6    0  0.2433432E+002  0.1197959E+03  0.7546771E-02  0.1243434E+00
         21   -1    0    0  503  502  0.00000000000E+00  0.00000000000E+00  0.85613259698E+02  0.85613259698E+02  0.00000000000E+00 0.  1.
          2   -1    0    0  504    0 -0.00000000000E+00 -0.00000000000E+00 -0.63092380703E+03  0.63092380703E+03  0.00000000000E+00 0. -1.
         21    1    1    2  503  505 -0.26198151178E+02 -0.32353256933E+02 -0.66092134312E+01  0.42151608053E+02  0.00000000000E+00 0.  1.
         21    1    1    2  504  502 -0.40607346237E+02  0.82787989758E+00  0.42985496493E+01  0.40842618460E+02  0.00000000000E+00 0.  1.
         21    1    1    2  505  501 -0.45319350838E+01 -0.60327532324E+02  0.15996104897E+02  0.62576552828E+02  0.00000000000E+00 0.  1.
          2    1    1    2  501    0  0.71337432499E+02  0.91852909359E+02 -0.55899598845E+03  0.57096628739E+03  0.00000000000E+00 0. -1.
<scales pt_clust_3="30.43176" pt_clust_4="40.61578" pt_clust_5="30.43176" pt_clust_6="114.04059"></scales>
<clustering>
<clus scale="   30.432">  3  5 -1 -1</clus>
<clus scale="   40.616">  1  4  2 -1</clus>
<clus scale="  114.041">  2  6  1 -1</clus>
<clus scale="   40.616">  1  3  2 -1</clus>
</clustering>
</event>
<event>
 6    0  0.2433432E+002  0.1114895E+03  0.7546771E-02  0.1257836E+00
         21   -1    0    0  504  502  0.00000000000E+00  0.00000000000E+00  0.34599769896E+02  0.34599769896E+02  0.00000000000E+00 0.  1.
          2   -1    0    0  503    0 -0.00000000000E+00 -0.00000000000E+00 -0.10336552373E+04  0.10336552373E+04  0.00000000000E+00 0. -1.
         21    1    1    2  503  505 -0.30078041954E+02 -0.89781623890E+02 -0.33379201607E+03  0.34696186906E+03  0.00000000000E+00 0. -1.
         21    1    1    2  504  501  0.64223500285E+02  0.69953723675E+02 -0.60185092076E+02  0.11242965246E+03  0.00000000000E+00 0.  1.
         21    1    1    2  505  502 -0.28783278552E+02 -0.11669721393E+02 -0.18659953596E+03  0.18916671574E+03  0.00000000000E+00 0.  1.
          2    1    1    2  501    0 -0.53621797788E+01  0.31497621608E+02 -0.41847882331E+03  0.41969676994E+03  0.00000000000E+00 0. -1.
<scales pt_clust_3="30.67969" pt_clust_4="97.77758" pt_clust_5="30.67969" pt_clust_6="31.95079"></scales>
<clustering>
<clus scale="   30.680">  3  5 -1 -1</clus>
<clus scale="   31.951">  2  6  1 -1</clus>
<clus scale="   97.778">  1  4  2 -1</clus>
<clus scale="   97.778">  1  3  2 -1</clus>
</clustering>
</event>
<event>
 6    0  0.2433432E+002  0.9065872E+02  0.7546771E-02  0.1301264E+00
         21   -1    0    0  504  502  0.00000000000E+00  0.00000000000E+00  0.20460155277E+03  0.20460155277E+03  0.00000000000E+00 0. -1.
          1   -1    0    0  503    0 -0.00000000000E+00 -0.00000000000E+00 -0.15378633537E+04  0.15378633537E+04  0.00000000000E+00 0.  1.
         21    1    1    2  503  502  0.78369463082E+02 -0.10622023648E+02  0.57463355345E+02  0.97758055104E+02  0.00000000000E+00 0. -1.
         21    1    1    2  504  505 -0.17175737389E+02 -0.28849510441E+02 -0.45206064312E+01  0.33878253940E+02  0.00000000000E+00 0. -1.
         21    1    1    2  505  501 -0.55565325679E+02 -0.51548361624E+02  0.97963700529E+02  0.12386131610E+03  0.00000000000E+00 0. -1.
          1    1    1    2  501    0 -0.56284000143E+01  0.91019895712E+02 -0.14841682504E+04  0.14869672814E+04  0.00000000000E+00 0.  1.
<scales pt_clust_3="74.78760" pt_clust_4="33.57529" pt_clust_5="14000.00000" pt_clust_6="90.65872"></scales>
<clustering>
<clus scale="   33.575">  1  4  2 -1</clus>
<clus scale="   74.788">  1  3  2 -1</clus>
<clus scale="   90.659">  2  6  1 -1</clus>
<clus scale="   33.575">  1  3  2 -1</clus>
</clustering>
</event>
<event>
 6    0  0.2433432E+002  0.9838074E+02  0.7546771E-02  0.1283738E+00
         21   -1    0    0  504  502  0.00000000000E+00  0.00000000000E+00  0.49016408383E+02  0.49016408383E+02  0.00000000000E+00 0.  1.
          2   -1    0    0  505    0 -0.00000000000E+00 -0.00000000000E+00 -0.28165777336E+04  0.28165777336E+04  0.00000000000E+00 0.  1.
         21    1    1    2  503  502  0.78520689829E+01  0.12271328716E+03 -0.54364850597E+02  0.13444605912E+03  0.00000000000E+00 0.  1.
         21    1    1    2  504  501 -0.24993269507E+02 -0.37795521809E+02 -0.11934326932E+03  0.12765571246E+03  0.00000000000E+00 0. -1.
         21    1    1    2  505  503 -0.85741980696E+02 -0.72282623892E+02 -0.99915174229E+03  0.10054256159E+04  0.00000000000E+00 0.  1.
          2    1    1    2  501    0  0.10288318122E+03 -0.12635141457E+02 -0.15947014630E+04  0.15980667545E+04  0.00000000000E+00 0.  1.
<scales pt_clust_3="90.14502" pt_clust_4="45.31186" pt_clust_5="98.38074" pt_clust_6="14000.00000"></scales>
<clustering>
<clus scale="   45.312">  1  4  2 -1</clus>
<clus scale="   90.145">  1  3  2 -1</clus>
<clus scale="   98.381">  1  5  2 -1</clus>
<clus scale="   45.312">  1  3  2 -1</clus>
</clustering>
</event>
<event>
 6    0  0.2433432E+002  0.1107607E+03  0.7546771E-02  0.1259168E+00
          1   -1    0    0  504    0 -0.00000000000E+00  0.00000000000E+00  0.18568532204E+04  0.18568532204E+04  0.00000000000E+00 0. -1.
         21   -1    0    0  505  502  0.00000000000E+00 -0.00000000000E+00 -0.85697227446E+03  0.85697227446E+03  0.00000000000E+00 0. -1.
         21    1    1    2  503  502 -0.33711949441E+02 -0.37159942803E+02 -0.62086795034E+03  0.62289193978E+03  0.00000000000E+00 0. -1.
         21    1    1    2  504  503 -0.34592844279E+02 -0.60623510535E+02 -0.13064881156E+03  0.14812490293E+03  0.00000000000E+00 0. -1.
         21    1    1    2  505  501 -0.42389074880E+02  0.11292982813E+03 -0.55274779381E+02  0.13268489359E+03  0.00000000000E+00 0.  1.
          1    1    1    2  501    0  0.11069386860E+03 -0.15146374795E+02  0.18066724872E+04  0.18101237586E+04  0.00000000000E+00 0. -1.
<scales pt_clust_3="50.17327" pt_clust_4="99.05064" pt_clust_5="14000.00000" pt_clust_6="110.76065"></scales>
<clustering>
<clus scale="   50.173">  2  3  1 -1</clus>
<clus scale="   99.051">  2  4  1 -1</clus>
<clus scale="  110.761">  1  6  2 -1</clus>
<clus scale="   50.173">  2  3  1 -1</clus>
</clustering>
</event>
<event>
 6    0  0.2433432E+002  0.8421673E+02  0.7546771E-02  0.1317494E+00
          2   -1    0    0  505    0 -0.00000000000E+00  0.00000000000E+00  0.75792667834E+03  0.75792667834E+03  0.00000000000E+00 0. -1.
         21   -1    0    0  503  502  0.00000000000E+00 -0.00000000000E+00 -0.11427277664E+03  0.11427277664E+03  0.00000000000E+00 0. -1.
         21    1    1    2  503  501  0.14878867409E+03  0.66945939319E+01  0.34546553315E+02  0.15289326823E+03  0.00000000000E+00 0. -1.
         21    1    1    2  504  502 -0.47692646195E+02  0.39049365134E+02  0.25786322846E+01  0.61693522860E+02  0.00000000000E+00 0. -1.
         21    1    1    2  505  504 -0.25587084238E+02 -0.76681243423E+02  0.49822669765E+02  0.94957940138E+02  0.00000000000E+00 0. -1.
          2    1    1    2  501    0 -0.75508943657E+02  0.30937284357E+02  0.55670604633E+03  0.56265472375E+03  0.00000000000E+00 0. -1.
<scales pt_clust_3="84.21673" pt_clust_4="61.63961" pt_clust_5="76.54513" pt_clust_6="14000.00000"></scales>
<clustering>
<clus scale="   61.640">  2  4  1 -1</clus>
<clus scale="   76.545">  2  5  1 -1</clus>
<clus scale="   84.217">  2  3  1 -1</clus>
<clus scale="   61.640">  2  3  1 -1</clus>
</clustering>
</event>
<event>
 6    0  0.2433432E+002  0.8092582E+02  0.7546771E-02  0.1326444E+00
         21   -1    0    0  503  502  0.00000000000E+00  0.00000000000E+00  0.14365277399E+04  0.14365277399E+04  0.00000000000E+00 0. -1.
          2   -1    0    0  504    0 -0.00000000000E+00 -0.00000000000E+00 -0.20004710681E+02  0.20004710681E+02  0.00000000000E+00 0.  1.
         21    1    1    2  503  501 -0.18039004397E+02 -0.39408926857E+02  0.24769756795E+03  0.25146084062E+03  0.00000000000E+00 0.  1.
         21    1    1    2  504  505  0.23615556367E+02  0.85026935275E+02  0.40248079784E+03  0.41204134120E+03  0.00000000000E+00 0. -1.
         21    1    1    2  505  502 -0.27652994784E+02  0.33003565700E+02  0.64694069692E+03  0.64837195251E+03  0.00000000000E+00 0. -1.
          2    1    1    2  501    0  0.22076442813E+02 -0.78621574117E+02  0.11940396649E+03  0.14465831624E+03  0.00000000000E+00 0.  1.
<scales pt_clust_3="39.45496" pt_clust_4="14000.00000" pt_clust_5="43.05721" pt_clust_6="80.92582"></scales>
<clustering>
<clus scale="   43.057">  1  5  2 -1</clus>
<clus scale="   39.455">  1  3  2 -1</clus>
<clus scale="   80.926">  2  6  1 -1</clus>
<clus scale="   43.057">  1  3  2 -1</clus>
</clustering>
</event>
<event>
 6    0  0.2433432E+002  0.9460240E+02  0.7546771E-02  0.1292074E+00
         21   -1    0    0  503  502  0.00000000000E+00  0.00000000000E+00  0.60129975949E+02  0.60129975949E+02  0.00000000000E+00 0.  1.
          2   -1    0    0  505    0 -0.00000000000E+00 -0.00000000000E+00 -0.14711353522E+04  0.14711353522E+04  0.00000000000E+00 0. -1.
         21    1    1    2  503  504  0.33029466780E+02  0.36978052931E+02  0.14924427607E+02  0.51778959180E+02  0.00000000000E+00 0.  1.
         21    1    1    2  504  501 -0.72281377191E+02  0.40449280163E+02 -0.12259202984E+03  0.14795116604E+03  0.00000000000E+00 0.  1.
         21    1    1    2  505  502  0.10896080441E+03 -0.64240097945E+02 -0.29846833098E+03  0.32416445160E+03  0.00000000000E+00 0.  1.
          2    1    1    2  501    0 -0.69708893997E+02 -0.13187235149E+02 -0.10048694430E+04  0.10073707513E+04  0.00000000000E+00 0. -1.
<scales pt_clust_3="49.58147" pt_clust_4="94.60240" pt_clust_5="14000.00000" pt_clust_6="69.12292"></scales>
<clustering>
<clus scale="   49.581">  1  3  2 -1</clus>
<clus scale="   69.123">  2  6  1 -1</clus>
<clus scale="   94.602">  1  4  2 -1</clus>
<clus scale="   49.581">  1  3  2 -1</clus>
</clustering>
</event>
<event>
 6    0  0.2433432E+002  0.9272891E+02  0.7546771E-02  0.1296375E+00
         21   -1    0    0  505  502  0.00000000000E+00  0.00000000000E+00  0.71176822862E+03  0.71176822862E+03  0.00000000000E+00 0.  1.
          2   -1    0    0  503    0 -0.00000000000E+00 -0.00000000000E+00 -0.11053175681E+03  0.11053175681E+03  0.00000000000E+00 0. -1.
         21    1    1    2  503  502 -0.31208788457E+02  0.67469020386E+02  0.47709941952E+02  0.88330604831E+02  0.00000000000E+00 0. -1.
         21    1    1    2  504  501 -0.84560903310E+02 -0.16981979291E+02  0.23490998127E+03  0.25024314834E+03  0.00000000000E+00 0. -1.
         21    1    1    2  505  504  0.24600073940E+02 -0.71022482156E+02  0.36967193250E+03  0.37723559520E+03  0.00000000000E+00 0.  1.
          2    1    1    2  501    0  0.91169617826E+02  0.20535441060E+02 -0.51055383909E+02  0.10649063705E+03  0.00000000000E+00 0. -1.
<scales pt_clust_3="74.33745" pt_clust_4="14000.00000" pt_clust_5="72.06236" pt_clust_6="92.72891"></scales>
<clustering>
<clus scale="   74.337">  2  3  1 -1</clus>
<clus scale="   72.062">  1  5  2 -1</clus>
<clus scale="   92.729">  2  6  1 -1</clus>
<clus scale="   72.062">  1  3  2 -1</clus>
</clustering>
</event>
<event>
 6    0  0.2433432E+002  0.2995510E+03  0.7546771E-02  0.1085465E+00
         -4   -1    0    0    0  501 -0.00000000000E+00  0.00000000000E+00  0.51237081142E+03  0.51237081142E+03  0.00000000000E+00 0.  1.
         21   -1    0    0  504  502  0.00000000000E+00 -0.00000000000E+00 -0.58573966158E+03  0.58573966158E+03  0.00000000000E+00 0.  1.
         21    1    1    2  503  502 -0.30825625113E+02 -0.10978915056E+01 -0.20521430148E+03  0.20751947875E+03  0.00000000000E+00 0.  1.
         21    1    1    2  504  505  0.35144756226E+02  0.56603977662E+00 -0.20230589318E+02  0.40555530268E+02  0.00000000000E+00 0.  1.
         21    1    1    2  505  501 -0.30281956055E+03 -0.14981073188E+02 -0.21865943643E+03  0.37381287825E+03  0.00000000000E+00 0.  1.
         -4    1    1    2    0  503  0.29850042943E+03  0.15512924917E+02  0.37073547706E+03  0.47622258574E+03  0.00000000000E+00 0.  1.
<scales pt_clust_3="30.84517" pt_clust_4="32.67869" pt_clust_5="299.55101" pt_clust_6="14000.00000"></scales>
<clustering>
<clus scale="   30.845">  2  3  1 -1</clus>
<clus scale="   32.679">  2  4  1 -1</clus>
<clus scale="  299.551">  2  5  1 -1</clus>
<clus scale="   30.845">  2  3  1 -1</clus>
</clustering>
</event>
<event>
 6    0  0.2433432E+002  0.1789888E+03  0.7546771E-02  0.1168785E+00
          2   -1    0    0  505    0 -0.00000000000E+00  0.00000000000E+00  0.16993290431E+04  0.16993290431E+04  0.00000000000E+00 0.  1.
         21   -1    0    0  503  502  0.00000000000E+00 -0.00000000000E+00 -0.59105235976E+03  0.59105235976E+03  0.00000000000E+00 0.  1.
         21    1    1    2  503  504  0.34161826699E+02  0.21736099784E+02 -0.11678226925E+03  0.12360253576E+03  0.00000000000E+00 0.  1.
         21    1    1    2  504  501  0.14187879271E+03  0.23111550468E+02 -0.13859459526E+03  0.19968023793E+03  0.00000000000E+00 0.  1.
         21    1    1    2  505  502  0.23271446607E+01 -0.70430661432E+02 -0.29265370843E+03  0.30101841593E+03  0.00000000000E+00 0.  1.
          2    1    1    2  501    0 -0.17836776407E+03  0.25583011180E+02  0.16563072563E+04  0.16660802133E+04  0.00000000000E+00 0.  1.
<scales pt_clust_3="40.49060" pt_clust_4="178.98883" pt_clust_5="61.54277" pt_clust_6="14000.00000"></scales>
<clustering>
<clus scale="   40.491">  2  3  1 -1</clus>
<clus scale="   61.543">  2  5  1 -1</clus>
<clus scale="  178.989">  2  4  1 -1</clus>
<clus scale="   40.491">  2  3  1 -1</clus>
</clustering>
</event>
<event>
 6    0  0.2433432E+002  0.1474480E+03  0.7546771E-02  0.1203644E+00
          1   -1    0    0  505    0 -0.00000000000E+00  0.00000000000E+00  0.17921159304E+03  0.17921159304E+03  0.00000000000E+00 0.  1.
         21   -1    0    0  504  502  0.00000000000E+00 -0.00000000000E+00 -0.12266968547E+04  0.12266968547E+04  0.00000000000E+00 0. -1.
         21    1    1    2  503  501  0.46854087973E+02 -0.15467671419E+03 -0.21493624337E+03  0.26891965377E+03  0.00000000000E+00 0.  1.
         21    1    1    2  504  503 -0.27047561959E+02  0.10454957361E+03 -0.77955729135E+03  0.78700174997E+03  0.00000000000E+00 0. -1.
         21    1    1    2  505  502  0.21976118121E+02  0.56368624370E+02 -0.19377575989E+03  0.20300102636E+03  0.00000000000E+00 0. -1.
          1    1    1    2  501    0 -0.41782644135E+02 -0.62414837925E+01  0.14078403292E+03  0.14698601768E+03  0.00000000000E+00 0.  1.
<scales pt_clust_3="147.44796" pt_clust_4="14000.00000" pt_clust_5="57.95806" pt_clust_6="42.24625"></scales>
<clustering>
<clus scale="   42.246">  1  6  2 -1</clus>
<clus scale="   57.958">  2  5  1 -1</clus>
<clus scale="  147.448">  1  3  2 -1</clus>
<clus scale="   57.958">  2  3  1 -1</clus>
</clustering>
</event>
<event>
 6    0  0.2433432E+002  0.1267273E+03  0.7546771E-02  0.1232394E+00
          1   -1    0    0  503    0 -0.00000000000E+00  0.00000000000E+00  0.22363005147E+03  0.22363005147E+03  0.00000000000E+00 0. -1.
         21   -1    0    0  501  502  0.00000000000E+00 -0.00000000000E+00 -0.10255356857E+04  0.10255356857E+04  0.00000000000E+00 0.  1.
         21    1    1    2  503  504 -0.10417616988E+02 -0.50137615044E+02  0.60714367623E+02  0.79426328266E+02  0.00000000000E+00 0.  1.
         21    1    1    2  504  505 -0.39315451015E+02 -0.28964101801E+02  0.90009210301E+02  0.10240254792E+03  0.00000000000E+00 0. -1.
         21    1    1    2  505  502  0.37374497333E+02 -0.11604222991E+03 -0.82471960438E+03  0.83368164069E+03  0.00000000000E+00 0.  1.
          1    1    1    2  501    0  0.12358570669E+02  0.19514394675E+03 -0.12790960783E+03  0.23365522035E+03  0.00000000000E+00 0. -1.
<scales pt_clust_3="101.70616" pt_clust_4="39.22774" pt_clust_5="14000.00000" pt_clust_6="126.72734"></scales>
<clustering>
<clus scale="   39.228">  3  4 -1 -1</clus>
<clus scale="  101.706">  1  3  2 -1</clus>
<clus scale="  126.727">  1  6  2 -1</clus>
<clus scale="  126.727">  2  3  1 -1</clus>
</clustering>
</event>
<event>
 6    0  0.2433432E+002  0.1269694E+03  0.7546771E-02  0.1232023E+00
          1   -1    0    0  503    0 -0.00000000000E+00  0.00000000000E+00  0.15568861432E+04  0.15568861432E+04  0.00000000000E+00 0. -1.
         21   -1    0    0  505  502  0.00000000000E+00 -0.00000000000E+00 -0.57469542624E+03  0.57469542624E+03  0.00000000000E+00 0. -1.
         21    1    1    2  503  504 -0.18877513016E+02 -0.32245893260E+02  0.17817207610E+02  0.41395785012E+02  0.00000000000E+00 0. -1.
         21    1    1    2  504  502 -0.72108651033E+02 -0.80982445617E+02 -0.38183435010E+02  0.11495994416E+03  0.00000000000E+00 0. -1.
         21    1    1    2  505  501  0.39654321642E+02  0.11257186211E+02 -0.48326735388E+03  0.48502219000E+03  0.00000000000E+00 0. -1.
          1    1    1    2  501    0  0.51331842407E+02  0.10197115267E+03  0.14858242982E+04  0.14902036503E+04  0.00000000000E+00 0. -1.
<scales pt_clust_3="31.79232" pt_clust_4="31.79232" pt_clust_5="41.22123" pt_clust_6="114.83915"></scales>
<clustering>
<clus scale="   31.792">  3  4 -1 -1</clus>
<clus scale="   41.221">  2  5  1 -1</clus>
<clus scale="  114.839">  1  6  2 -1</clus>
<clus scale="   41.221">  2  3  1 -1</clus>
</clustering>
</event>
<event>
 6    0  0.2433432E+002  0.1192389E+03  0.7546771E-02  0.1244358E+00
          1   -1    0    0  503    0 -0.00000000000E+00  0.00000000000E+00  0.98873017608E+02  0.98873017608E+02  0.00000000000E+00 0.  1.
         21   -1    0    0  501  502  0.00000000000E+00 -0.00000000000E+00 -0.33373944699E+03  0.33373944699E+03  0.00000000000E+00 0.  1.
         21    1    1    2  503  505 -0.54877439074E+02  0.56305437681E+02 -0.14298391073E+02  0.79914201611E+02  0.00000000000E+00 0.  1.
         21    1    1    2  504  502  0.23009796616E+02 -0.96782938271E+02 -0.20796946183E+03  0.23053781671E+03  0.00000000000E+00 0.  1.
         21    1    1    2  505  504  0.30040747950E+02 -0.10982843030E+02 -0.49412498067E+02  0.58861399436E+02  0.00000000000E+00 0.  1.
          1    1    1    2  501    0  0.18268945081E+01  0.51460343620E+02  0.36813921582E+02  0.63299046844E+02  0.00000000000E+00 0.  1.
<scales pt_clust_3="105.54291" pt_clust_4="31.46186" pt_clust_5="31.46186" pt_clust_6="51.49276"></scales>
<clustering>
<clus scale="   31.462">  4  5 -1 -1</clus>
<clus scale="   51.493">  1  6  2 -1</clus>
<clus scale="  105.543">  1  3  2 -1</clus>
<clus scale="  119.239">  2  3  1 -1</clus>
</clustering>
</event>
<event>
 6    0  0.2433432E+002  0.5935972E+02  0.7546771E-02  0.1400538E+00
         21   -1    0    0  505  502  0.00000000000E+00  0.00000000000E+00  0.65536909625E+03  0.65536909625E+03  0.00000000000E+00 0.  1.
         -4   -1    0    0    0  501 -0.00000000000E+00 -0.00000000000E+00 -0.10441017910E+03  0.10441017910E+03  0.00000000000E+00 0.  1.
         21    1    1    2  503  502  0.34372902934E+02  0.23705437893E+02  0.13564382698E+03  0.14192495213E+03  0.00000000000E+00 0.  1.
         21    1    1    2  504  503  0.48824797455E+02 -0.16322623983E+02  0.55140915749E+02  0.75437454158E+02  0.00000000000E+00 0.  1.
         21    1    1    2  505  501 -0.11914574472E+03  0.38510866752E+02  0.43207460868E+03  0.44985249005E+03  0.00000000000E+00 0.  1.
         -4    1    1    2    0  504  0.35948044326E+02 -0.45893680661E+02 -0.71900434251E+02  0.92564379007E+02  0.00000000000E+00 0.  1.
<scales pt_clust_3="41.75457" pt_clust_4="54.81374" pt_clust_5="14000.00000" pt_clust_6="59.35972"></scales>
<clustering>
<clus scale="   41.755">  1  3  2 -1</clus>
<clus scale="   54.814">  1  4  2 -1</clus>
<clus scale="   59.360">  2  6  1 -1</clus>
<clus scale="   41.755">  1  3  2 -1</clus>
</clustering>
</event>
<event>
 6    0  0.2433432E+002  0.7034297E+02  0.7546771E-02  0.1358931E+00
         21   -1    0    0  505  502  0.00000000000E+00  0.00000000000E+00  0.31546261617E+03  0.31546261617E+03  0.00000000000E+00 0. -1.
         -3   -1    0    0    0  501 -0.00000000000E+00 -0.00000000000E+00 -0.23821488632E+03  0.23821488632E+03  0.00000000000E+00 0.  1.
         21    1    1    2  503  502  0.28864038456E+02  0.94108258211E+02  0.15428409861E+03  0.18301114737E+03  0.00000000000E+00 0. -1.
         21    1    1    2  504  503  0.27353267714E+02 -0.72582697020E+02  0.27968521928E+02  0.82454153201E+02  0.00000000000E+00 0. -1.
         21    1    1    2  505  501 -0.24856064914E+02 -0.37650056934E+02  0.84320319296E+02  0.95630889341E+02  0.00000000000E+00 0. -1.
         -3    1    1    2    0  504 -0.31361241256E+02  0.16124495742E+02 -0.18932520998E+03  0.19258131257E+03  0.00000000000E+00 0.  1.
<scales pt_clust_3="70.34297" pt_clust_4="14000.00000" pt_clust_5="45.76485" pt_clust_6="35.26368"></scales>
<clustering>
<clus scale="   35.264">  2  6  1 -1</clus>
<clus scale="   45.765">  1  5  2 -1</clus>
<clus scale="   70.343">  1  3  2 -1</clus>
<clus scale="   45.765">  1  3  2 -1</clus>
</clustering>
</event>
<event>
 6    0  0.2433432E+002  0.1371650E+03  0.7546771E-02  0.1217195E+00
         21   -1    0    0  503  502  0.00000000000E+00  0.00000000000E+00  0.15504078941E+03  0.15504078941E+03  0.00000000000E+00 0. -1.
          2   -1    0    0  505    0 -0.00000000000E+00 -0.00000000000E+00 -0.49953254558E+03  0.49953254558E+03  0.00000000000E+00 0. -1.
         21    1    1    2  503  501  0.34949465804E+02  0.33917320969E+02  0.17453608235E+02  0.51734691089E+02  0.00000000000E+00 0. -1.
         21    1    1    2  504  502 -0.51555516984E+02  0.78687742456E+02  0.56739084902E+02  0.10985925496E+03  0.00000000000E+00 0. -1.
         21    1    1    2  505  504 -0.37292613302E+02  0.32089695783E+01  0.15410953346E+02  0.40478808971E+02  0.00000000000E+00 0.  1.
          2    1    1    2  501    0  0.53898664482E+02 -0.11581403300E+03 -0.43409540266E+03  0.45250057998E+03  0.00000000000E+00 0. -1.
<scales pt_clust_3="48.70164" pt_clust_4="33.34714" pt_clust_5="33.34714" pt_clust_6="126.56779"></scales>
<clustering>
<clus scale="   33.347">  4  5 -1 -1</clus>
<clus scale="   48.702">  1  3  2 -1</clus>
<clus scale="  126.568">  2  6  1 -1</clus>
<clus scale="   48.702">  1  3  2 -1</clus>
</clustering>
</event>
<event>
 6    0  0.2433432E+002  0.1354376E+03  0.7546771E-02  0.1219603E+00
          1   -1    0    0  505    0 -0.00000000000E+00  0.00000000000E+00  0.82216030626E+03  0.82216030626E+03  0.00000000000E+00 0.  1.
         21   -1    0    0  504  502  0.00000000000E+00 -0.00000000000E+00 -0.27266723151E+03  0.27266723151E+03  0.00000000000E+00 0. -1.
         21    1    1    2  503  502 -0.38855693252E+02  0.84623385846E+01 -0.73694476545E+02  0.83739190023E+02  0.00000000000E+00 0.  1.
         21    1    1    2  504  501 -0.13701268849E+02  0.29067150084E+02 -0.13642536696E+03  0.14015885535E+03  0.00000000000E+00 0. -1.
         21    1    1    2  505  503 -0.60721620250E+02  0.20766515344E+02 -0.30187501102E+02  0.70920015144E+02  0.00000000000E+00 0. -1.
          1    1    1    2  501    0  0.11327858235E+03 -0.58296004012E+02  0.78980041935E+03  0.80000947726E+03  0.00000000000E+00 0.  1.
<scales pt_clust_3="41.48738" pt_clust_4="32.13447" pt_clust_5="41.48738" pt_clust_6="126.43297"></scales>
<clustering>
<clus scale="   32.134">  2  4  1 -1</clus>
<clus scale="   41.487">  3  5 -1 -1</clus>
<clus scale="  126.433">  1  6  2 -1</clus>
<clus scale="   32.134">  2  3  1 -1</clus>
</clustering>
</event>
<event>
 6    0  0.2433432E+002  0.1297181E+03  0.7546771E-02  0.1227875E+00
         21   -1    0    0  504  502  0.00000000000E+00  0.00000000000E+00  0.50622573139E+02  0.50622573139E+02  0.00000000000E+00 0.  1.
          2   -1    0    0  505    0 -0.00000000000E+00 -0.00000000000E+00 -0.44274327413E+04  0.44274327413E+04  0.00000000000E+00 0.  1.
         21    1    1    2  503  501  0.33161286598E+02  0.90263759663E+02 -0.61201743326E+02  0.11398627384E+03  0.00000000000E+00 0.  1.
         21    1    1    2  504  503 -0.12226155121E+02  0.35357457271E+02 -0.27828033958E+01  0.37514965660E+02  0.00000000000E+00 0.  1.
         21    1    1    2  505  502  0.27694278075E+02 -0.16977367258E+02 -0.37669747876E+02  0.49741471049E+02  0.00000000000E+00 0.  1.
          2    1    1    2  501    0 -0.48629409552E+02 -0.10864384968E+03 -0.42751558736E+04  0.42768126039E+04  0.00000000000E+00 0.  1.
<scales pt_clust_3="32.04588" pt_clust_4="32.04588" pt_clust_5="32.48390" pt_clust_6="119.10988"></scales>
<clustering>
<clus scale="   32.046">  3  4 -1 -1</clus>
<clus scale="   32.484">  1  5  2 -1</clus>
<clus scale="  119.110">  2  6  1 -1</clus>
<clus scale="   32.484">  1  3  2 -1</clus>
</clustering>
</event>
<event>
 6    0  0.2433432E+002  0.1720889E+03  0.7546771E-02  0.1175687E+00
          2   -1    0    0  503    0 -0.00000000000E+00  0.00000000000E+00  0.17088885111E+04  0.17088885111E+04  0.00000000000E+00 0.  1.
         21   -1    0    0  505  502  0.00000000000E+00 -0.00000000000E+00 -0.34402037171E+03  0.34402037171E+03  0.00000000000E+00 0.  1.
         21    1    1    2  503  502 -0.63669956526E+02  0.32158108384E+01  0.84120929357E+02  0.10554873547E+03  0.00000000000E+00 0.  1.
         21    1    1    2  504  501 -0.16003830895E+03  0.32233762115E+01  0.87395576970E+00  0.16007315292E+03  0.00000000000E+00 0.  1.
         21    1    1    2  505  504  0.17654630449E+03  0.10081635744E+02 -0.22242753201E+03  0.28415531669E+03  0.00000000000E+00 0.  1.
          2    1    1    2  501    0  0.47161960987E+02 -0.16520822794E+02  0.15023007863E+04  0.15031316777E+04  0.00000000000E+00 0.  1.
<scales pt_clust_3="42.20471" pt_clust_4="14000.00000" pt_clust_5="172.08892" pt_clust_6="49.97187"></scales>
<clustering>
<clus scale="   49.972">  1  6  2 -1</clus>
<clus scale="   42.205">  1  3  2 -1</clus>
<clus scale="  172.089">  2  5  1 -1</clus>
<clus scale="  172.089">  2  3  1 -1</clus>
</clustering>
</event>
<event>
 6    0  0.2433432E+002  0.1726758E+03  0.7546771E-02  0.1175086E+00
          1   -1    0    0  505    0 -0.00000000000E+00  0.00000000000E+00  0.76236168007E+03  0.76236168007E+03  0.00000000000E+00 0.  1.
         21   -1    0    0  501  502  0.00000000000E+00 -0.00000000000E+00 -0.32307646955E+03  0.32307646955E+03  0.00000000000E+00 0.  1.
         21    1    1    2  503  504 -0.22628084169E+02  0.99900274107E+02 -0.17362348509E+03  0.20158672956E+03  0.00000000000E+00 0.  1.
         21    1    1    2  504  502 -0.51318360571E+02  0.49829047537E+02 -0.10975911360E+03  0.13100981310E+03  0.00000000000E+00 0.  1.
         21    1    1    2  505  503  0.98456619963E+01 -0.43345294317E+02  0.42744800779E+02  0.61667411112E+02  0.00000000000E+00 0.  1.
          1    1    1    2  501    0  0.64100782744E+02 -0.10638402733E+03  0.67992300843E+03  0.69117419585E+03  0.00000000000E+00 0.  1.
<scales pt_clust_3="41.17521" pt_clust_4="41.17521" pt_clust_5="44.44943" pt_clust_6="165.49653"></scales>
<clustering>
<clus scale="   41.175">  3  4 -1 -1</clus>
<clus scale="   44.449">  1  5  2 -1</clus>
<clus scale="  165.497">  1  6  2 -1</clus>
<clus scale="  172.676">  2  3  1 -1</clus>
</clustering>
</event>
<event>
 6    0  0.2433432E+002  0.2286265E+03  0.7546771E-02  0.1127610E+00
         21   -1    0    0  504  502  0.00000000000E+00  0.00000000000E+00  0.11570194240E+03  0.11570194240E+03  0.00000000000E+00 0.  1.
          1   -1    0    0  505    0 -0.00000000000E+00 -0.00000000000E+00 -0.91896466189E+03  0.91896466189E+03  0.00000000000E+00 0.  1.
         21    1    1    2  503  502 -0.92439428597E+02  0.81979521036E+02 -0.34997745985E+02  0.12841546656E+03  0.00000000000E+00 0.  1.
         21    1    1    2  504  501  0.14708867819E+03 -0.13051499194E+03 -0.16485283116E+03  0.25660416660E+03  0.00000000000E+00 0.  1.
         21    1    1    2  505  503 -0.91513512285E+02  0.63852271534E+02 -0.11730009695E+03  0.16189857398E+03  0.00000000000E+00 0.  1.
          1    1    1    2  501    0  0.36864262692E+02 -0.15316800628E+02 -0.48611204540E+03  0.48774839716E+03  0.00000000000E+00 0.  1.
<scales pt_clust_3="71.32499" pt_clust_4="215.14660" pt_clust_5="71.32499" pt_clust_6="39.91965"></scales>
<clustering>
<clus scale="   39.920">  2  6  1 -1</clus>
<clus scale="   71.325">  3  5 -1 -1</clus>
<clus scale="  215.147">  2  4  1 -1</clus>
<clus scale="  228.626">  1  3  2 -1</clus>
</clustering>
</event>
<event>
 6    0  0.2433432E+002  0.8719289E+02  0.7546771E-02  0.1309796E+00
          1   -1    0    0  502    0 -0.00000000000E+00  0.00000000000E+00  0.13456543955E+03  0.13456543955E+03  0.00000000000E+00 0. -1.
         21   -1    0    0  505  502  0.00000000000E+00 -0.00000000000E+00 -0.10052702310E+04  0.10052702310E+04  0.00000000000E+00 0. -1.
         21    1    1    2  503  504  0.25447151689E+02 -0.75572524847E+02 -0.44026009091E+03  0.44742341433E+03  0.00000000000E+00 0. -1.
         21    1    1    2  504  501  0.59283607234E+02  0.79135570263E+02 -0.16252121559E+03  0.19023703657E+03  0.00000000000E+00 0. -1.
         21    1    1    2  505  503 -0.52879424660E+02 -0.20239692827E+02 -0.38014325310E+03  0.38433679449E+03  0.00000000000E+00 0. -1.
          1    1    1    2  501    0 -0.31851334263E+02  0.16676647410E+02  0.11221976818E+03  0.11783842512E+03  0.00000000000E+00 0. -1.
<scales pt_clust_3="14000.00000" pt_clust_4="87.19289" pt_clust_5="59.24401" pt_clust_6="35.95300"></scales>
<clustering>
<clus scale="   35.953">  1  6  2 -1</clus>
<clus scale="   59.244">  2  5  1 -1</clus>
<clus scale="   87.193">  1  4  2 -1</clus>
<clus scale="   59.244">  2  3  1 -1</clus>
</clustering>
</event>
<event>
 6    0  0.2433432E+002  0.1276304E+03  0.7546771E-02  0.1231015E+00
         21   -1    0    0  504  502  0.00000000000E+00  0.00000000000E+00  0.20206836637E+03  0.20206836637E+03  0.00000000000E+00 0. -1.
          1   -1    0    0  503    0 -0.00000000000E+00 -0.00000000000E+00 -0.24803660186E+04  0.24803660186E+04  0.00000000000E+00 0.  1.
         21    1    1    2  503  505 -0.11084749295E+03 -0.17172917338E+03 -0.12609220580E+04  0.12773811146E+04  0.00000000000E+00 0.  1.
         21    1    1    2  504  501  0.57711617583E+02  0.60670017122E+02 -0.14685042123E+03  0.16904593458E+03  0.00000000000E+00 0.  1.
         21    1    1    2  505  502  0.44532191661E+01  0.60024531043E+02  0.17656617774E+03  0.18654326740E+03  0.00000000000E+00 0. -1.
          1    1    1    2  501    0  0.48682656197E+02  0.51034625211E+02 -0.10470913508E+04  0.10494640684E+04  0.00000000000E+00 0.  1.
<scales pt_clust_3="14000.00000" pt_clust_4="127.63043" pt_clust_5="60.18950" pt_clust_6="73.25331"></scales>
<clustering>
<clus scale="   60.189">  1  5  2 -1</clus>
<clus scale="   73.253">  2  6  1 -1</clus>
<clus scale="  127.630">  1  4  2 -1</clus>
<clus scale="   60.189">  1  3  2 -1</clus>
</clustering>
</event>
<event>
 6    0  0.2433432E+002  0.6962652E+02  0.7546771E-02  0.1361368E+00
          2   -1    0    0  504    0 -0.00000000000E+00  0.00000000000E+00  0.43845014565E+04  0.43845014565E+04  0.00000000000E+00 0. -1.
         21   -1    0    0  503  502  0.00000000000E+00 -0.00000000000E+00 -0.32205406343E+02  0.32205406343E+02  0.00000000000E+00 0.  1.
         21    1    1    2  503  501  0.97357001752E+01 -0.57312191303E+02  0.34378603865E+03  0.34866647602E+03  0.00000000000E+00 0. -1.
         21    1    1    2  504  505  0.91514849012E+02  0.56001055060E+02  0.63790731145E+03  0.64686692894E+03  0.00000000000E+00 0.  1.
         21    1    1    2  505  502 -0.39193365610E+02  0.26387275215E+02 -0.25876065870E+01  0.47319170628E+02  0.00000000000E+00 0.  1.
          2    1    1    2  501    0 -0.62057183577E+02 -0.25076138973E+02  0.33731903066E+04  0.33738542872E+04  0.00000000000E+00 0. -1.
<scales pt_clust_3="48.55607" pt_clust_4="14000.00000" pt_clust_5="47.24837" pt_clust_6="69.62652"></scales>
<clustering>
<clus scale="   47.248">  2  5  1 -1</clus>
<clus scale="   48.556">  2  3  1 -1</clus>
<clus scale="   69.627">  1  6  2 -1</clus>
<clus scale="   47.248">  2  3  1 -1</clus>
</clustering>
</event>
<event>
 6    0  0.2433432E+002  0.1144248E+03  0.7546771E-02  0.1252589E+00
          1   -1    0    0  504    0 -0.00000000000E+00  0.00000000000E+00  0.10916298452E+04  0.10916298452E+04  0.00000000000E+00 0.  1.
         21   -1    0    0  503  502  0.00000000000E+00 -0.00000000000E+00 -0.11893874478E+03  0.11893874478E+03  0.00000000000E+00 0. -1.
         21    1    1    2  503  501 -0.62019041937E+02  0.10734348411E+02  0.43801352893E+02  0.76682112085E+02  0.00000000000E+00 0. -1.
         21    1    1    2  504  505 -0.56063308249E+02  0.65377033958E+02 -0.71979406328E+02  0.11224208674E+03  0.00000000000E+00 0. -1.
         21    1    1    2  505  502  0.31160339142E+02 -0.44233290039E-01  0.27846375473E+02  0.41789823151E+02  0.00000000000E+00 0.  1.
          1    1    1    2  501    0  0.86922011045E+02 -0.76067149079E+02  0.97302277839E+03  0.97985456801E+03  0.00000000000E+00 0.  1.
<scales pt_clust_3="58.43685" pt_clust_4="114.42476" pt_clust_5="31.16037" pt_clust_6="14000.00000"></scales>
<clustering>
<clus scale="   31.160">  2  5  1 -1</clus>
<clus scale="   58.437">  2  3  1 -1</clus>
<clus scale="  114.425">  2  4  1 -1</clus>
<clus scale="   31.160">  2  3  1 -1</clus>
</clustering>
</event>
<event>
 6    0  0.2433432E+002  0.6907639E+02  0.7546771E-02  0.1363262E+00
         -3   -1    0    0    0  501 -0.00000000000E+00  0.00000000000E+00  0.32758547162E+04  0.32758547162E+04  0.00000000000E+00 0. -1.
         21   -1    0    0  503  502  0.00000000000E+00 -0.00000000000E+00 -0.44749526013E+02  0.44749526013E+02  0.00000000000E+00 0. -1.
         21    1    1    2  503  504  0.34162620161E+02  0.73006528596E+02  0.71702658724E+02  0.10788099509E+03  0.00000000000E+00 0. -1.
         21    1    1    2  504  501 -0.65680513210E+02 -0.83956514733E+02  0.98994128159E+02  0.14547324012E+03  0.00000000000E+00 0. -1.
         21    1    1    2  505  502 -0.22399897142E+02 -0.31276330630E+02  0.11940360546E+03  0.12544793839E+03  0.00000000000E+00 0.  1.
         -3    1    1    2    0  505  0.53917790191E+02  0.42226316767E+02  0.29410047978E+04  0.29418020686E+04  0.00000000000E+00 0. -1.
<scales pt_clust_3="64.28036" pt_clust_4="69.07639" pt_clust_5="38.47030" pt_clust_6="14000.00000"></scales>
<clustering>
<clus scale="   38.470">  2  5  1 -1</clus>
<clus scale="   64.280">  2  3  1 -1</clus>
<clus scale="   69.076">  2  4  1 -1</clus>
<clus scale="   38.470">  2  3  1 -1</clus>
</clustering>
</event>
<event>
 6    0  0.2433432E+002  0.1020795E+03  0.7546771E-02  0.1275983E+00
         -1   -1    0    0    0  501 -0.00000000000E+00  0.00000000000E+00  0.56513754492E+03  0.56513754492E+03  0.00000000000E+00 0. -1.
         21   -1    0    0  504  502  0.00000000000E+00 -0.00000000000E+00 -0.70632130629E+03  0.70632130629E+03  0.00000000000E+00 0.  1.
         21    1    1    2  503  502  0.12999795528E+03  0.28092527952E+02  0.16325362651E+03  0.21057161507E+03  0.00000000000E+00 0. -1.
         21    1    1    2  504  505 -0.37974227469E+02 -0.20182660039E+02 -0.59406629032E+03  0.59562080136E+03  0.00000000000E+00 0.  1.
         21    1    1    2  505  501 -0.33253135693E+02 -0.67530527082E+02 -0.65881100603E+02  0.10003230747E+03  0.00000000000E+00 0. -1.
         -1    1    1    2    0  503 -0.58770592116E+02  0.59620659169E+02  0.35551000304E+03  0.36523412732E+03  0.00000000000E+00 0. -1.
<scales pt_clust_3="102.07952" pt_clust_4="43.00444" pt_clust_5="14000.00000" pt_clust_6="84.27239"></scales>
<clustering>
<clus scale="   43.004">  2  4  1 -1</clus>
<clus scale="   84.272">  1  6  2 -1</clus>
<clus scale="  102.080">  1  3  2 -1</clus>
<clus scale="   43.004">  2  3  1 -1</clus>
</clustering>
</event>
<event>
 6    0  0.2433432E+002  0.9040124E+02  0.7546771E-02  0.1301883E+00
         21   -1    0    0  505  502  0.00000000000E+00  0.00000000000E+00  0.39941122276E+03  0.39941122276E+03  0.00000000000E+00 0.  1.
          2   -1    0    0  503    0 -0.00000000000E+00 -0.00000000000E+00 -0.89510338038E+02  0.89510338038E+02  0.00000000000E+00 0.  1.
         21    1    1    2  503  502 -0.43151756207E+02 -0.76158355894E+01  0.11943311730E+02  0.45417152162E+02  0.00000000000E+00 0.  1.
         21    1    1    2  504  501 -0.48799818897E+02  0.85022399696E+02  0.11533133236E+03  0.15136560705E+03  0.00000000000E+00 0.  1.
         21    1    1    2  505  504  0.52102904950E+02  0.59642470771E+01  0.19221242040E+03  0.19923829829E+03  0.00000000000E+00 0.  1.
          2    1    1    2  501    0  0.39848670154E+02 -0.83370811184E+02 -0.95861797691E+01  0.92900503298E+02  0.00000000000E+00 0.  1.
<scales pt_clust_3="43.81866" pt_clust_4="14000.00000" pt_clust_5="50.33199" pt_clust_6="90.40124"></scales>
<clustering>
<clus scale="   43.819">  2  3  1 -1</clus>
<clus scale="   50.332">  1  5  2 -1</clus>
<clus scale="   90.401">  2  6  1 -1</clus>
<clus scale="   50.332">  1  3  2 -1</clus>
</clustering>
</event>
<event>
 6    0  0.2433432E+002  0.7453844E+02  0.7546771E-02  0.1345306E+00
          1   -1    0    0  504    0 -0.00000000000E+00  0.00000000000E+00  0.17395183096E+04  0.17395183096E+04  0.00000000000E+00 0. -1.
         21   -1    0    0  505  502  0.00000000000E+00 -0.00000000000E+00 -0.58147679457E+02  0.58147679457E+02  0.00000000000E+00 0. -1.
         21    1    1    2  503  502  0.47893094844E+02 -0.15356129908E+01  0.75307603154E+02  0.89259967140E+02  0.00000000000E+00 0.  1.
         21    1    1    2  504  503  0.10426573689E+03 -0.44746451054E+02  0.68091164566E+03  0.69030012166E+03  0.00000000000E+00 0. -1.
         21    1    1    2  505  501 -0.10575953648E+03  0.27141954118E+02  0.19317486122E+02  0.11088250764E+03  0.00000000000E+00 0. -1.
          1    1    1    2  501    0 -0.46399295250E+02  0.19140109927E+02  0.90583389520E+03  0.90722339261E+03  0.00000000000E+00 0. -1.
<scales pt_clust_3="47.91771" pt_clust_4="74.53844" pt_clust_5="14000.00000" pt_clust_6="49.58349"></scales>
<clustering>
<clus scale="   47.918">  2  3  1 -1</clus>
<clus scale="   49.583">  1  6  2 -1</clus>
<clus scale="   74.538">  1  4  2 -1</clus>
<clus scale="   47.918">  2  3  1 -1</clus>
</clustering>
</event>
<event>
 6    0  0.2433432E+002  0.1219896E+03  0.7546771E-02  0.1239851E+00
          3   -1    0    0  504    0 -0.00000000000E+00  0.00000000000E+00  0.11051814527E+04  0.11051814527E+04  0.00000000000E+00 0. -1.
         21   -1    0    0  503  502  0.00000000000E+00 -0.00000000000E+00 -0.19564616074E+03  0.19564616074E+03  0.00000000000E+00 0. -1.
         21    1    1    2  503  501  0.17150148552E+02  0.53435947159E+02 -0.50953920333E+02  0.75801253562E+02  0.00000000000E+00 0. -1.
         21    1    1    2  504  505  0.32082213467E+02  0.93772530143E+02 -0.35627563985E+01  0.99172824219E+02  0.00000000000E+00 0. -1.
         21    1    1    2  505  502  0.87112351903E+01 -0.37905645344E+02 -0.72324675677E+02  0.82119317333E+02  0.00000000000E+00 0. -1.
          3    1    1    2  501    0 -0.57943597209E+02 -0.10930283196E+03  0.10363766443E+04  0.10437342183E+04  0.00000000000E+00 0. -1.
<scales pt_clust_3="39.68225" pt_clust_4="14000.00000" pt_clust_5="38.89375" pt_clust_6="121.98956"></scales>
<clustering>
<clus scale="   38.894">  2  5  1 -1</clus>
<clus scale="   39.682">  2  3  1 -1</clus>
<clus scale="  121.990">  1  6  2 -1</clus>
<clus scale="   38.894">  2  3  1 -1</clus>
</clustering>
</event>
<event>
 6    0  0.2433432E+002  0.1359126E+03  0.7546771E-02  0.1218937E+00
          1   -1    0    0  505    0 -0.00000000000E+00  0.00000000000E+00  0.33300936310E+03  0.33300936310E+03  0.00000000000E+00 0.  1.
         21   -1    0    0  504  502  0.00000000000E+00 -0.00000000000E+00 -0.13703842737E+03  0.13703842737E+03  0.00000000000E+00 0.  1.
         21    1    1    2  503  501 -0.67469441359E+02  0.49531226522E+02  0.41725656927E+02  0.93522715765E+02  0.00000000000E+00 0.  1.
         21    1    1    2  504  503 -0.85628805850E+02  0.18988980079E+02  0.59915516631E+02  0.10622025649E+03  0.00000000000E+00 0.  1.
         21    1    1    2  505  502  0.64703279201E+02  0.79189645842E+01 -0.51751814406E+02  0.83231452190E+02  0.00000000000E+00 0.  1.
          1    1    1    2  501    0  0.88394968008E+02 -0.76439171185E+02  0.14608157657E+03  0.18707336602E+03  0.00000000000E+00 0.  1.
<scales pt_clust_3="36.96956" pt_clust_4="36.96956" pt_clust_5="65.18607" pt_clust_6="130.53736"></scales>
<clustering>
<clus scale="   36.970">  3  4 -1 -1</clus>
<clus scale="   65.186">  2  5  1 -1</clus>
<clus scale="  130.537">  1  6  2 -1</clus>
<clus scale="   65.186">  2  3  1 -1</clus>
</clustering>
</event>
<event>
 6    0  0.2433432E+002  0.1527923E+03  0.7546771E-02  0.1197083E+00
          2   -1    0    0  505    0 -0.00000000000E+00  0.00000000000E+00  0.23127278230E+04  0.23127278230E+04  0.00000000000E+00 0. -1.
         21   -1    0    0  503  502  0.00000000000E+00 -0.00000000000E+00 -0.19446355088E+03  0.19446355088E+03  0.00000000000E+00 0. -1.
         21    1    1    2  503  501 -0.10056690879E+03 -0.86492420217E+01 -0.11127468357E+03  0.15023504164E+03  0.00000000000E+00 0. -1.
         21    1    1    2  504  502 -0.39647974558E+02  0.90667745770E+02  0.35892600738E+01  0.99022647901E+02  0.00000000000E+00 0. -1.
         21    1    1    2  505  504  0.69784254272E+02  0.68676753143E+02  0.17726704189E+03  0.20250911759E+03  0.00000000000E+00 0. -1.
          2    1    1    2  501    0  0.70430629074E+02 -0.15069525689E+03  0.20486826537E+04  0.20554245668E+04  0.00000000000E+00 0. -1.
<scales pt_clust_3="152.79235" pt_clust_4="99.82708" pt_clust_5="97.90985" pt_clust_6="14000.00000"></scales>
<clustering>
<clus scale="   97.910">  1  5  2 -1</clus>
<clus scale="   99.827">  2  4  1 -1</clus>
<clus scale="  152.792">  2  3  1 -1</clus>
<clus scale="   99.827">  2  3  1 -1</clus>
</clustering>
</event>
<event>
 6    0  0.2433432E+002  0.9676854E+02  0.7546771E-02  0.1287242E+00
          3   -1    0    0  505    0 -0.00000000000E+00  0.00000000000E+00  0.96276195832E+03  0.96276195832E+03  0.00000000000E+00 0.  1.
         21   -1    0    0  503  502  0.00000000000E+00 -0.00000000000E+00 -0.84757508301E+02  0.84757508301E+02  0.00000000000E+00 0.  1.
         21    1    1    2  503  504 -0.22388984837E+02  0.27334770946E+02  0.32445163359E+02  0.47970250886E+02  0.00000000000E+00 0.  1.
         21    1    1    2  504  501  0.37591637294E+02  0.87061887001E+02  0.16745902176E+03  0.19244590755E+03  0.00000000000E+00 0.  1.
         21    1    1    2  505  502  0.44353737698E+02 -0.36720407994E+02 -0.47675592825E+02  0.74756969991E+02  0.00000000000E+00 0.  1.
          3    1    1    2  501    0 -0.59556390155E+02 -0.77676249953E+02  0.72577585772E+03  0.73234633820E+03  0.00000000000E+00 0.  1.
<scales pt_clust_3="35.33350" pt_clust_4="14000.00000" pt_clust_5="30.49068" pt_clust_6="96.76854"></scales>
<clustering>
<clus scale="   35.334">  2  3  1 -1</clus>
<clus scale="   30.491">  2  5  1 -1</clus>
<clus scale="   96.769">  1  6  2 -1</clus>
<clus scale="   35.334">  2  3  1 -1</clus>
</clustering>
</event>
<event>
 6    0  0.2433432E+002  0.1327391E+03  0.7546771E-02  0.1223447E+00
          2   -1    0    0  503    0 -0.00000000000E+00  0.00000000000E+00  0.84915143163E+03  0.84915143163E+03  0.00000000000E+00 0.  1.
         21   -1    0    0  505  502  0.00000000000E+00 -0.00000000000E+00 -0.10526438422E+04  0.10526438422E+04  0.00000000000E+00 0. -1.
         21    1    1    2  503  504 -0.37142151367E+02  0.93780765160E+02 -0.24696663714E+03  0.26677123380E+03  0.00000000000E+00 0. -1.
         21    1    1    2  504  502 -0.69681311215E+02 -0.20263932904E+02 -0.49725692823E+03  0.50252419323E+03  0.00000000000E+00 0. -1.
         21    1    1    2  505  501  0.19534955872E+03 -0.89460343681E+02 -0.25400427104E+03  0.33269020559E+03  0.00000000000E+00 0. -1.
          2    1    1    2  501    0 -0.88526096143E+02  0.15943511425E+02  0.79473542579E+03  0.79980964126E+03  0.00000000000E+00 0.  1.
<scales pt_clust_3="132.73915" pt_clust_4="72.56798" pt_clust_5="14000.00000" pt_clust_6="90.24875"></scales>
<clustering>
<clus scale="   72.568">  2  4  1 -1</clus>
<clus scale="   90.249">  1  6  2 -1</clus>
<clus scale="  132.739">  2  3  1 -1</clus>
<clus scale="   72.568">  2  3  1 -1</clus>
</clustering>
</event>
<event>
 6    0  0.2433432E+002  0.2257271E+03  0.7546771E-02  0.1129684E+00
         21   -1    0    0  503  502  0.00000000000E+00  0.00000000000E+00  0.22009601670E+03  0.22009601670E+03  0.00000000000E+00 0.  1.
          2   -1    0    0  505    0 -0.00000000000E+00 -0.00000000000E+00 -0.26418605572E+04  0.26418605572E+04  0.00000000000E+00 0.  1.
         21    1    1    2  503  504  0.31162101654E+02 -0.55349236356E+02  0.19630883969E+03  0.20632928799E+03  0.00000000000E+00 0.  1.
         21    1    1    2  504  501 -0.15270107710E+03  0.60863225260E+02 -0.70543332146E+03  0.72433288076E+03  0.00000000000E+00 0.  1.
         21    1    1    2  505  502  0.19243930501E+03  0.17183649509E+02 -0.13532689854E+04  0.13669912621E+04  0.00000000000E+00 0. -1.
          2    1    1    2  501    0 -0.70900329564E+02 -0.22697638412E+02 -0.55937107336E+03  0.56430314303E+03  0.00000000000E+00 0.  1.
<scales pt_clust_3="63.51862" pt_clust_4="69.87648" pt_clust_5="203.84869" pt_clust_6="69.87648"></scales>
<clustering>
<clus scale="   63.519">  1  3  2 -1</clus>
<clus scale="   69.876">  4  6 -1 -1</clus>
<clus scale="  203.849">  2  5  1 -1</clus>
<clus scale="   63.519">  1  3  2 -1</clus>
</clustering>
</event>
<event>
 6    0  0.2433432E+002  0.2165149E+03  0.7546771E-02  0.1136508E+00
          3   -1    0    0  502    0 -0.00000000000E+00  0.00000000000E+00  0.11173194056E+04  0.11173194056E+04  0.00000000000E+00 0. -1.
         21   -1    0    0  504  502  0.00000000000E+00 -0.00000000000E+00 -0.20232971439E+03  0.20232971439E+03  0.00000000000E+00 0.  1.
         21    1    1    2  503  501 -0.12442002242E+03  0.45584491840E+01  0.84597088817E+01  0.12479057702E+03  0.00000000000E+00 0.  1.
         21    1    1    2  504  505  0.15078927801E+02 -0.43427061565E+02 -0.55990913481E+02  0.72444917918E+02  0.00000000000E+00 0.  1.
         21    1    1    2  505  503 -0.93434422748E+02 -0.14234157548E+02 -0.36741437190E+02  0.10140283922E+03  0.00000000000E+00 0.  1.
          3    1    1    2  501    0  0.20277551737E+03  0.53102769930E+02  0.99926233299E+03  0.10210107858E+04  0.00000000000E+00 0. -1.
<scales pt_clust_3="46.91256" pt_clust_4="45.97047" pt_clust_5="46.91256" pt_clust_6="209.92680"></scales>
<clustering>
<clus scale="   45.970">  2  4  1 -1</clus>
<clus scale="   46.913">  3  5 -1 -1</clus>
<clus scale="  209.927">  1  6  2 -1</clus>
<clus scale="   45.970">  2  3  1 -1</clus>
</clustering>
</event>
<event>
 6    0  0.2433432E+002  0.1711347E+03  0.7546771E-02  0.1176670E+00
          1   -1    0    0  505    0 -0.00000000000E+00  0.00000000000E+00  0.15942144623E+04  0.15942144623E+04  0.00000000000E+00 0.  1.
         21   -1    0    0  503  502  0.00000000000E+00 -0.00000000000E+00 -0.22606396529E+03  0.22606396529E+03  0.00000000000E+00 0. -1.
         21    1    1    2  503  504  0.32127897174E+02  0.44398500839E+02 -0.19448553763E+00  0.54803891086E+02  0.00000000000E+00 0. -1.
         21    1    1    2  504  501 -0.50198740651E+02  0.31521375170E+02 -0.27848357313E+02  0.65490775386E+02  0.00000000000E+00 0. -1.
         21    1    1    2  505  502 -0.15323379035E+03 -0.85376836087E+02 -0.94637169654E+02  0.19931380415E+03  0.00000000000E+00 0. -1.
          1    1    1    2  501    0  0.17130463382E+03  0.94569600784E+01  0.14908305095E+04  0.15006699570E+04  0.00000000000E+00 0.  1.
<scales pt_clust_3="54.80355" pt_clust_4="59.82615" pt_clust_5="171.13469" pt_clust_6="14000.00000"></scales>
<clustering>
<clus scale="   54.804">  2  3  1 -1</clus>
<clus scale="   59.826">  2  4  1 -1</clus>
<clus scale="  171.135">  2  5  1 -1</clus>
<clus scale="   54.804">  2  3  1 -1</clus>
</clustering>
</event>
<event>
 6    0  0.2433432E+002  0.9933206E+02  0.7546771E-02  0.1281707E+00
         -2   -1    0    0    0  501 -0.00000000000E+00  0.00000000000E+00  0.67461194784E+03  0.67461194784E+03  0.00000000000E+00 0.  1.
         21   -1    0    0  503  502  0.00000000000E+00 -0.00000000000E+00 -0.10742762192E+03  0.10742762192E+03  0.00000000000E+00 0. -1.
         21    1    1    2  503  505 -0.23033695637E+02  0.74275523108E+02 -0.50567501415E+02  0.92760318386E+02  0.00000000000E+00 0. -1.
         21    1    1    2  504  501  0.43435302627E+02 -0.23619442307E+02  0.29354067333E+02  0.57499259458E+02  0.00000000000E+00 0. -1.
         21    1    1    2  505  504  0.33809154921E+02 -0.89111847775E+02  0.97293272358E+02  0.13619824234E+03  0.00000000000E+00 0.  1.
         -2    1    1    2    0  502 -0.54210761911E+02  0.38455766974E+02  0.49110448764E+03  0.49558174957E+03  0.00000000000E+00 0.  1.
<scales pt_clust_3="84.04008" pt_clust_4="38.13969" pt_clust_5="38.13969" pt_clust_6="66.46543"></scales>
<clustering>
<clus scale="   38.140">  4  5 -1 -1</clus>
<clus scale="   66.465">  1  6  2 -1</clus>
<clus scale="   84.040">  2  3  1 -1</clus>
<clus scale="   84.040">  2  3  1 -1</clus>
</clustering>
</event>
<event>
 6    0  0.2433432E+002  0.1069315E+03  0.7546771E-02  0.1266360E+00
         21   -1    0    0  503  502  0.00000000000E+00  0.00000000000E+00  0.44076855411E+02  0.44076855411E+02  0.00000000000E+00 0. -1.
          1   -1    0    0  504    0 -0.00000000000E+00 -0.00000000000E+00 -0.18046723606E+04  0.18046723606E+04  0.00000000000E+00 0. -1.
         21    1    1    2  503  501 -0.11731872210E+03  0.47171615942E+02 -0.77891631427E+03  0.78911308983E+03  0.00000000000E+00 0. -1.
         21    1    1    2  504  505 -0.28750981587E+02 -0.45941501125E+02 -0.17270337683E+03  0.18100744967E+03  0.00000000000E+00 0. -1.
         21    1    1    2  505  502  0.95126599181E+02 -0.44204752511E+02 -0.49070230340E+02  0.11580594770E+03  0.00000000000E+00 0. -1.
          1    1    1    2  501    0  0.50943104509E+02  0.42974637693E+02 -0.75990558377E+03  0.76282272884E+03  0.00000000000E+00 0. -1.
<scales pt_clust_3="14000.00000" pt_clust_4="54.19631" pt_clust_5="106.93145" pt_clust_6="43.21584"></scales>
<clustering>
<clus scale="   54.196">  2  4  1 -1</clus>
<clus scale="   43.216">  2  6  1 -1</clus>
<clus scale="  106.931">  1  5  2 -1</clus>
<clus scale="  106.931">  1  3  2 -1</clus>
</clustering>
</event>
<event>
 6    0  0.2433432E+002  0.1788501E+03  0.7546771E-02  0.1168921E+00
         -2   -1    0    0    0  501 -0.00000000000E+00  0.00000000000E+00  0.81785305927E+03  0.81785305927E+03  0.00000000000E+00 0. -1.
         21   -1    0    0  501  502  0.00000000000E+00 -0.00000000000E+00 -0.85276652108E+02  0.85276652108E+02  0.00000000000E+00 0.  1.
         21    1    1    2  503  505  0.26885137274E+02 -0.23106382263E+02  0.87754011161E+02  0.94643974887E+02  0.00000000000E+00 0.  1.
         21    1    1    2  504  502 -0.66962459746E+02 -0.18339447311E+02 -0.11840899117E+02  0.70430911075E+02  0.00000000000E+00 0.  1.
         21    1    1    2  505  504 -0.93400859718E+02  0.41338488038E+02  0.44334782880E+02  0.11134704380E+03  0.00000000000E+00 0.  1.
         -2    1    1    2    0  503  0.13347818219E+03  0.10734153652E+00  0.61232851223E+03  0.62670778162E+03  0.00000000000E+00 0. -1.
<scales pt_clust_3="32.54262" pt_clust_4="62.47454" pt_clust_5="62.47454" pt_clust_6="173.87587"></scales>
<clustering>
<clus scale="   32.543">  3  6 -1 -1</clus>
<clus scale="   62.475">  4  5 -1 -1</clus>
<clus scale="  173.876">  1  3  2 -1</clus>
<clus scale="  178.850">  2  3  1 -1</clus>
</clustering>
</event>
<event>
 6    0  0.2433432E+002  0.1837303E+03  0.7546771E-02  0.1164241E+00
          2   -1    0    0  503    0 -0.00000000000E+00  0.00000000000E+00  0.15973189579E+03  0.15973189579E+03  0.00000000000E+00 0. -1.
         21   -1    0    0  501  502  0.00000000000E+00 -0.00000000000E+00 -0.49903477089E+03  0.49903477089E+03  0.00000000000E+00 0. -1.
         21    1    1    2  503  505 -0.13941587339E+02 -0.11154438072E+03 -0.90994231872E+02  0.14462526391E+03  0.00000000000E+00 0. -1.
         21    1    1    2  504  502  0.33258541380E+02 -0.15418384423E+02 -0.24616632296E+03  0.24888092677E+03  0.00000000000E+00 0. -1.
         21    1    1    2  505  504  0.28420089236E+02 -0.49662849769E+02 -0.50169408944E+02  0.76099078268E+02  0.00000000000E+00 0. -1.
          2    1    1    2  501    0 -0.47737043277E+02  0.17662561491E+03  0.48027088674E+02  0.18916139773E+03  0.00000000000E+00 0. -1.
<scales pt_clust_3="36.34182" pt_clust_4="36.65866" pt_clust_5="36.34182" pt_clust_6="176.52806"></scales>
<clustering>
<clus scale="   36.342">  3  5 -1 -1</clus>
<clus scale="   36.659">  2  4  1 -1</clus>
<clus scale="  176.528">  1  6  2 -1</clus>
<clus scale="   36.659">  2  3  1 -1</clus>
</clustering>
</event>
<event>
 6    0  0.2433432E+002  0.1791119E+03  0.7546771E-02  0.1168665E+00
          1   -1    0    0  502    0 -0.00000000000E+00  0.00000000000E+00  0.92874529268E+03  0.92874529268E+03  0.00000000000E+00 0.  1.
         21   -1    0    0  504  502  0.00000000000E+00 -0.00000000000E+00 -0.20066770977E+03  0.20066770977E+03  0.00000000000E+00 0. -1.
         21    1    1    2  503  505  0.81400791179E+02 -0.49050599964E+02  0.85542518769E+02  0.12786544756E+03  0.00000000000E+00 0.  1.
         21    1    1    2  504  503 -0.14577013554E+03  0.92607340303E+02 -0.10955964403E+03  0.20451984621E+03  0.00000000000E+00 0. -1.
         21    1    1    2  505  501  0.58872658645E+02 -0.78163412939E+02  0.86780229257E+02  0.13079112068E+03  0.00000000000E+00 0.  1.
          1    1    1    2  501    0  0.54966857183E+01  0.34606672600E+02  0.66531447892E+03  0.66623658801E+03  0.00000000000E+00 0.  1.
<scales pt_clust_3="36.25558" pt_clust_4="175.30838" pt_clust_5="36.25558" pt_clust_6="35.04048"></scales>
<clustering>
<clus scale="   35.040">  1  6  2 -1</clus>
<clus scale="   36.256">  3  5 -1 -1</clus>
<clus scale="  175.308">  2  4  1 -1</clus>
<clus scale="  175.308">  2  3  1 -1</clus>
</clustering>
</event>
<event>
 6    0  0.2433432E+002  0.1285937E+03  0.7546771E-02  0.1229557E+00
         -3   -1    0    0    0  501 -0.00000000000E+00  0.00000000000E+00  0.16099452101E+03  0.16099452101E+03  0.00000000000E+00 0.  1.
         21   -1    0    0  503  502  0.00000000000E+00 -0.00000000000E+00 -0.40951193843E+03  0.40951193843E+03  0.00000000000E+00 0.  1.
         21    1    1    2  503  504  0.60917939375E+02 -0.18883148674E+02 -0.47376158385E+02  0.79448530665E+02  0.00000000000E+00 0.  1.
         21    1    1    2  504  501  0.53362984889E+02 -0.83165750524E+02 -0.22382125012E+03  0.24466324248E+03  0.00000000000E+00 0.  1.
         21    1    1    2  505  502 -0.48815715442E+02  0.13159521875E+03 -0.45314261726E+02  0.14749121325E+03  0.00000000000E+00 0. -1.
         -3    1    1    2    0  505 -0.65465208822E+02 -0.29546319547E+02  0.67994252812E+02  0.98903473045E+02  0.00000000000E+00 0.  1.
<scales pt_clust_3="63.77749" pt_clust_4="128.59368" pt_clust_5="14000.00000" pt_clust_6="69.71699"></scales>
<clustering>
<clus scale="   63.777">  2  3  1 -1</clus>
<clus scale="   69.717">  1  6  2 -1</clus>
<clus scale="  128.594">  2  4  1 -1</clus>
<clus scale="   63.777">  2  3  1 -1</clus>
</clustering>
</event>
<event>
 6    0  0.2433432E+002  0.7516260E+02  0.7546771E-02  0.1343368E+00
         21   -1    0    0  504  502  0.00000000000E+00  0.00000000000E+00  0.44227673187E+03  0.44227673187E+03  0.00000000000E+00 0. -1.
          2   -1    0    0  502    0 -0.00000000000E+00 -0.00000000000E+00 -0.58407036030E+03  0.58407036030E+03  0.00000000000E+00 0. -1.
         21    1    1    2  503  501 -0.50064043183E+02 -0.57541027644E+02  0.17221648443E+03  0.18835046003E+03  0.00000000000E+00 0. -1.
         21    1    1    2  504  505 -0.40784746549E+02  0.37666834440E+02  0.52513703616E+02  0.76419075074E+02  0.00000000000E+00 0. -1.
         21    1    1    2  505  503  0.28648962250E+02  0.62730138936E+02  0.18887230093E+03  0.20106859384E+03  0.00000000000E+00 0. -1.
          2    1    1    2  501    0  0.62199827481E+02 -0.42855945732E+02 -0.55539611741E+03  0.56050896322E+03  0.00000000000E+00 0. -1.
<scales pt_clust_3="72.04868" pt_clust_4="55.51744" pt_clust_5="14000.00000" pt_clust_6="75.16260"></scales>
<clustering>
<clus scale="   55.517">  1  4  2 -1</clus>
<clus scale="   75.163">  2  6  1 -1</clus>
<clus scale="   72.049">  2  3  1 -1</clus>
<clus scale="   55.517">  1  3  2 -1</clus>
</clustering>
</event>
<event>
 6    0  0.2433432E+002  0.9412083E+02  0.7546771E-02  0.1293169E+00
          2   -1    0    0  504    0 -0.00000000000E+00  0.00000000000E+00  0.67298452540E+03  0.67298452540E+03  0.00000000000E+00 0. -1.
         21   -1    0    0  503  502  0.00000000000E+00 -0.00000000000E+00 -0.21917456807E+03  0.21917456807E+03  0.00000000000E+00 0.  1.
         21    1    1    2  503  501 -0.54391305271E+02  0.25988696118E+02 -0.60146964035E+02  0.85155643956E+02  0.00000000000E+00 0.  1.
         21    1    1    2  504  505  0.96230819428E+01  0.44842391862E+02  0.92946826197E+02  0.10364630391E+03  0.00000000000E+00 0. -1.
         21    1    1    2  505  502 -0.21209278706E+02 -0.87562437102E+02 -0.12446554670E+03  0.15365118356E+03  0.00000000000E+00 0.  1.
          2    1    1    2  501    0  0.65977502034E+02  0.16731349123E+02  0.54547564188E+03  0.54970596204E+03  0.00000000000E+00 0. -1.
<scales pt_clust_3="60.52074" pt_clust_4="45.86332" pt_clust_5="14000.00000" pt_clust_6="94.12083"></scales>
<clustering>
<clus scale="   45.863">  1  4  2 -1</clus>
<clus scale="   60.521">  2  3  1 -1</clus>
<clus scale="   94.121">  1  6  2 -1</clus>
<clus scale="   60.521">  2  3  1 -1</clus>
</clustering>
</event>
<event>
 6    0  0.2433432E+002  0.1266046E+03  0.7546771E-02  0.1232583E+00
          2   -1    0    0  505    0 -0.00000000000E+00  0.00000000000E+00  0.13992040397E+04  0.13992040397E+04  0.00000000000E+00 0. -1.
         21   -1    0    0  501  502  0.00000000000E+00 -0.00000000000E+00 -0.36632422399E+02  0.36632422399E+02  0.00000000000E+00 0. -1.
         21    1    1    2  503  504 -0.39286060246E+02  0.17744178883E+02  0.12982893035E+03  0.13679839754E+03  0.00000000000E+00 0. -1.
         21    1    1    2  504  502  0.93128026480E+02 -0.90995340354E+02  0.13948099921E+03  0.19080862251E+03  0.00000000000E+00 0. -1.
         21    1    1    2  505  503 -0.18217708268E+02  0.61123490099E+02  0.13583741705E+03  0.15006588489E+03  0.00000000000E+00 0. -1.
          2    1    1    2  501    0 -0.35624257967E+02  0.12127671372E+02  0.95742427069E+03  0.95816355716E+03  0.00000000000E+00 0. -1.
<scales pt_clust_3="40.78197" pt_clust_4="117.65634" pt_clust_5="40.78197" pt_clust_6="37.63201"></scales>
<clustering>
<clus scale="   37.632">  1  6  2 -1</clus>
<clus scale="   40.782">  3  5 -1 -1</clus>
<clus scale="  117.656">  2  4  1 -1</clus>
<clus scale="  117.656">  2  3  1 -1</clus>
</clustering>
</event>
<event>
 6    0  0.2433432E+002  0.1028553E+03  0.7546771E-02  0.1274404E+00
         21   -1    0    0  505  502  0.00000000000E+00  0.00000000000E+00  0.40952074271E+03  0.40952074271E+03  0.00000000000E+00 0. -1.
          1   -1    0    0  504    0 -0.00000000000E+00 -0.00000000000E+00 -0.10944982785E+04  0.10944982785E+04  0.00000000000E+00 0. -1.
         21    1    1    2  503  502 -0.94499864393E+02  0.43988682803E+02  0.38576110342E+03  0.39959586772E+03  0.00000000000E+00 0. -1.
         21    1    1    2  504  503  0.99932741679E+01  0.33249786629E+02 -0.34709529385E+02  0.49093434078E+02  0.00000000000E+00 0. -1.
         21    1    1    2  505  501  0.37348386086E+02 -0.73359115229E+02 -0.17929054541E+03  0.19728548199E+03  0.00000000000E+00 0. -1.
          1    1    1    2  501    0  0.47158204139E+02 -0.38793542028E+01 -0.85673856445E+03  0.85804423745E+03  0.00000000000E+00 0. -1.
<scales pt_clust_3="14000.00000" pt_clust_4="34.71907" pt_clust_5="102.85528" pt_clust_6="59.96939"></scales>
<clustering>
<clus scale="   34.719">  2  4  1 -1</clus>
<clus scale="   59.969">  2  6  1 -1</clus>
<clus scale="  102.855">  2  5  1 -1</clus>
<clus scale="  102.855">  1  3  2 -1</clus>
</clustering>
</event>
<event>
 6    0  0.2433432E+002  0.1062906E+03  0.7546771E-02  0.1267598E+00
          1   -1    0    0  503    0 -0.00000000000E+00  0.00000000000E+00  0.82023842266E+03  0.82023842266E+03  0.00000000000E+00 0. -1.
         21   -1    0    0  504  502  0.00000000000E+00 -0.00000000000E+00 -0.93157947406E+02  0.93157947406E+02  0.00000000000E+00 0.  1.
         21    1    1    2  503  505 -0.93457671481E+02  0.27024607895E+02  0.44130352493E+02  0.10682768275E+03  0.00000000000E+00 0.  1.
         21    1    1    2  504  501  0.46974733225E+02 -0.33158498732E+02  0.27850138216E+01  0.57566204510E+02  0.00000000000E+00 0. -1.
         21    1    1    2  505  502 -0.37315232119E+02  0.31208630417E+02 -0.12990054348E+02  0.50350240045E+02  0.00000000000E+00 0.  1.
          1    1    1    2  501    0  0.83798170376E+02 -0.25074739580E+02  0.69315516329E+03  0.69865224276E+03  0.00000000000E+00 0. -1.
<scales pt_clust_3="40.26588" pt_clust_4="57.49880" pt_clust_5="40.26588" pt_clust_6="89.75056"></scales>
<clustering>
<clus scale="   40.266">  3  5 -1 -1</clus>
<clus scale="   57.499">  2  4  1 -1</clus>
<clus scale="   89.751">  1  6  2 -1</clus>
<clus scale="   57.499">  2  3  1 -1</clus>
</clustering>
</event>
<event>
 6    0  0.2433432E+002  0.2155897E+03  0.7546771E-02  0.1137214E+00
         21   -1    0    0  505  502  0.00000000000E+00  0.00000000000E+00  0.27872253277E+03  0.27872253277E+03  0.00000000000E+00 0.  1.
          1   -1    0    0  503    0 -0.00000000000E+00 -0.00000000000E+00 -0.28140458120E+04  0.28140458120E+04  0.00000000000E+00 0.  1.
         21    1    1    2  503  502 -0.55784939849E+02  0.50166475216E+02 -0.13356953605E+03  0.15319744028E+03  0.00000000000E+00 0. -1.
         21    1    1    2  504  501  0.85683210069E+02 -0.19026733091E+03 -0.36644297075E+03  0.42169149921E+03  0.00000000000E+00 0.  1.
         21    1    1    2  505  504  0.97286822379E+02  0.20350612373E+03  0.18579520149E+03  0.29223162919E+03  0.00000000000E+00 0.  1.
          1    1    1    2  501    0 -0.12718509260E+03 -0.63405268035E+02 -0.22211059739E+04  0.22256477761E+04  0.00000000000E+00 0.  1.
<scales pt_clust_3="75.02423" pt_clust_4="215.58972" pt_clust_5="14000.00000" pt_clust_6="174.97055"></scales>
<clustering>
<clus scale="   75.024">  2  3  1 -1</clus>
<clus scale="  174.971">  2  6  1 -1</clus>
<clus scale="  215.590">  2  4  1 -1</clus>
<clus scale="  215.590">  1  3  2 -1</clus>
</clustering>
</event>
<event>
 6    0  0.2433432E+002  0.9520763E+02  0.7546771E-02  0.1290709E+00
         -1   -1    0    0    0  501 -0.00000000000E+00  0.00000000000E+00  0.71217694681E+03  0.71217694681E+03  0.00000000000E+00 0.  1.
         21   -1    0    0  503  502  0.00000000000E+00 -0.00000000000E+00 -0.20025402479E+03  0.20025402479E+03  0.00000000000E+00 0.  1.
         21    1    1    2  503  505 -0.42978224536E+02 -0.55328782518E+02 -0.14948015479E+03  0.16508397449E+03  0.00000000000E+00 0.  1.
         21    1    1    2  504  502  0.54476414888E+02 -0.33912322465E+02  0.19152477441E+03  0.20198877347E+03  0.00000000000E+00 0.  1.
         21    1    1    2  505  501 -0.43682985455E+02  0.12559144164E+03  0.85859013638E+02  0.15828197514E+03  0.00000000000E+00 0. -1.
         -1    1    1    2    0  504  0.32184795102E+02 -0.36350336658E+02  0.38401928876E+03  0.38707624849E+03  0.00000000000E+00 0.  1.
<scales pt_clust_3="70.28333" pt_clust_4="95.20763" pt_clust_5="14000.00000" pt_clust_6="48.55109"></scales>
<clustering>
<clus scale="   48.551">  1  6  2 -1</clus>
<clus scale="   70.283">  2  3  1 -1</clus>
<clus scale="   95.208">  1  4  2 -1</clus>
<clus scale="   70.283">  2  3  1 -1</clus>
</clustering>
</event>
<event>
 6    0  0.2433432E+002  0.2594886E+03  0.7546771E-02  0.1107451E+00
         21   -1    0    0  505  502  0.00000000000E+00  0.00000000000E+00  0.19001042703E+03  0.19001042703E+03  0.00000000000E+00 0.  1.
          2   -1    0    0  504    0 -0.00000000000E+00 -0.00000000000E+00 -0.12570112342E+04  0.12570112342E+04  0.00000000000E+00 0.  1.
         21    1    1    2  503  502 -0.48357358758E+02  0.45541035183E+01  0.11411353297E+03  0.12402045159E+03  0.00000000000E+00 0.  1.
         21    1    1    2  504  503  0.20834565724E+03 -0.15193280848E+03 -0.52974229290E+03  0.58916753820E+03  0.00000000000E+00 0.  1.
         21    1    1    2  505  501  0.56516962759E+02  0.15468869588E+01 -0.40566039869E+02  0.69585656061E+02  0.00000000000E+00 0.  1.
          2    1    1    2  501    0 -0.21650526124E+03  0.14583181801E+03 -0.61080600735E+03  0.66424801535E+03  0.00000000000E+00 0.  1.
<scales pt_clust_3="48.57133" pt_clust_4="14000.00000" pt_clust_5="46.69242" pt_clust_6="259.48858"></scales>
<clustering>
<clus scale="   48.571">  1  3  2 -1</clus>
<clus scale="   46.692">  1  5  2 -1</clus>
<clus scale="  259.489">  2  6  1 -1</clus>
<clus scale="   48.571">  1  3  2 -1</clus>
</clustering>
</event>
<event>
 6    0  0.2433432E+002  0.1125656E+03  0.7546771E-02  0.1255891E+00
         -2   -1    0    0    0  501 -0.00000000000E+00  0.00000000000E+00  0.24795774620E+03  0.24795774620E+03  0.00000000000E+00 0.  1.
         21   -1    0    0  505  502  0.00000000000E+00 -0.00000000000E+00 -0.49592437709E+03  0.49592437709E+03  0.00000000000E+00 0.  1.
         21    1    1    2  503  502  0.28979651249E+02 -0.60620665381E+02 -0.89255434932E+02  0.11171937130E+03  0.00000000000E+00 0.  1.
         21    1    1    2  504  503  0.27177025903E+02  0.92829237598E+02  0.63861048118E+02  0.11590552859E+03  0.00000000000E+00 0.  1.
         21    1    1    2  505  501 -0.37550627983E+02 -0.61219810609E+02 -0.36383262253E+03  0.37085319479E+03  0.00000000000E+00 0.  1.
         -2    1    1    2    0  504 -0.18606049169E+02  0.29011238391E+02  0.14126037845E+03  0.14540402861E+03  0.00000000000E+00 0.  1.
<scales pt_clust_3="63.52167" pt_clust_4="14000.00000" pt_clust_5="112.56556" pt_clust_6="34.46501"></scales>
<clustering>
<clus scale="   34.465">  1  6  2 -1</clus>
<clus scale="   63.522">  2  3  1 -1</clus>
<clus scale="  112.566">  2  5  1 -1</clus>
<clus scale="   63.522">  2  3  1 -1</clus>
</clustering>
</event>
<event>
 6    0  0.2433432E+002  0.6443057E+02  0.7546771E-02  0.1380126E+00
         21   -1    0    0  501  502  0.00000000000E+00  0.00000000000E+00  0.85011682500E+02  0.85011682500E+02  0.00000000000E+00 0. -1.
          2   -1    0    0  505    0 -0.00000000000E+00 -0.00000000000E+00 -0.14475825751E+04  0.14475825751E+04  0.00000000000E+00 0.  1.
         21    1    1    2  503  502 -0.30437675930E+02  0.55762239030E+02  0.60347209443E+02  0.87622286578E+02  0.00000000000E+00 0. -1.
         21    1    1    2  504  503 -0.53230312367E+02  0.15112093342E+02 -0.29242106251E+03  0.29761034814E+03  0.00000000000E+00 0.  1.
         21    1    1    2  505  504 -0.17785771072E+02  0.27424646626E+02 -0.67268021090E+02  0.74789247600E+02  0.00000000000E+00 0.  1.
          2    1    1    2  501    0  0.10145375937E+03 -0.98298978998E+02 -0.10632290185E+04  0.10725723753E+04  0.00000000000E+00 0.  1.
<scales pt_clust_3="14000.00000" pt_clust_4="60.78125" pt_clust_5="32.68708" pt_clust_6="64.43057"></scales>
<clustering>
<clus scale="   32.687">  2  5  1 -1</clus>
<clus scale="   60.781">  2  4  1 -1</clus>
<clus scale="   64.431">  2  6  1 -1</clus>
<clus scale="   64.431">  1  3  2 -1</clus>
</clustering>
</event>
<event>
 6    0  0.2433432E+002  0.1326881E+03  0.7546771E-02  0.1223521E+00
         21   -1    0    0  503  502  0.00000000000E+00  0.00000000000E+00  0.97970195644E+03  0.97970195644E+03  0.00000000000E+00 0. -1.
          2   -1    0    0  502    0 -0.00000000000E+00 -0.00000000000E+00 -0.43075216856E+03  0.43075216856E+03  0.00000000000E+00 0. -1.
         21    1    1    2  503  504 -0.36896412907E+02 -0.12261067282E+02  0.56875614259E+03  0.57008352791E+03  0.00000000000E+00 0. -1.
         21    1    1    2  504  505  0.66607028763E+02  0.12753842718E+03  0.38686259322E+03  0.41275321043E+03  0.00000000000E+00 0.  1.
         21    1    1    2  505  501 -0.13664739367E+02 -0.52249474886E+02 -0.95398779538E+02  0.10962508775E+03  0.00000000000E+00 0.  1.
          2    1    1    2  501    0 -0.16045876489E+02 -0.63027885011E+02 -0.31127016838E+03  0.31799229891E+03  0.00000000000E+00 0. -1.
<scales pt_clust_3="38.88032" pt_clust_4="119.58559" pt_clust_5="52.50023" pt_clust_6="52.50023"></scales>
<clustering>
<clus scale="   38.880">  1  3  2 -1</clus>
<clus scale="   52.500">  5  6 -1 -1</clus>
<clus scale="  119.586">  1  4  2 -1</clus>
<clus scale="   38.880">  1  3  2 -1</clus>
</clustering>
</event>
<event>
 6    0  0.2433432E+002  0.1101785E+03  0.7546771E-02  0.1260240E+00
         21   -1    0    0  505  502  0.00000000000E+00  0.00000000000E+00  0.29717475237E+02  0.29717475237E+02  0.00000000000E+00 0.  1.
          2   -1    0    0  503    0 -0.00000000000E+00 -0.00000000000E+00 -0.36841213734E+04  0.36841213734E+04  0.00000000000E+00 0. -1.
         21    1    1    2  503  504 -0.47168382699E+02  0.22531238176E+02 -0.35496817326E+03  0.35879648416E+03  0.00000000000E+00 0.  1.
         21    1    1    2  504  502 -0.53923869998E+02  0.97723149837E+02 -0.41477356930E+03  0.42952847584E+03  0.00000000000E+00 0.  1.
         21    1    1    2  505  501  0.53673141470E+02 -0.61187866778E+02 -0.63234613009E+02  0.10306976976E+03  0.00000000000E+00 0.  1.
          2    1    1    2  501    0  0.47419111227E+02 -0.59066521234E+02 -0.28214275426E+04  0.28224441189E+04  0.00000000000E+00 0. -1.
<scales pt_clust_3="44.73579" pt_clust_4="44.73579" pt_clust_5="88.69145" pt_clust_6="75.74580"></scales>
<clustering>
<clus scale="   44.736">  3  4 -1 -1</clus>
<clus scale="   75.746">  2  6  1 -1</clus>
<clus scale="   88.691">  1  5  2 -1</clus>
<clus scale="   88.691">  1  3  2 -1</clus>
</clustering>
</event>
<event>
 6    0  0.2433432E+002  0.1294546E+03  0.7546771E-02  0.1228267E+00
         -3   -1    0    0    0  501 -0.00000000000E+00  0.00000000000E+00  0.12472891408E+04  0.12472891408E+04  0.00000000000E+00 0.  1.
         21   -1    0    0  503  502  0.00000000000E+00 -0.00000000000E+00 -0.79222604901E+02  0.79222604901E+02  0.00000000000E+00 0.  1.
         21    1    1    2  503  501 -0.39876232590E+02 -0.12168877841E+02 -0.40426361863E+02  0.58073111222E+02  0.00000000000E+00 0.  1.
         21    1    1    2  504  505 -0.96354884507E+02  0.97907173033E+01  0.11553091860E+03  0.15075647603E+03  0.00000000000E+00 0.  1.
         21    1    1    2  505  502  0.31299898372E+01  0.39256672931E+02  0.41588346338E+02  0.57275420183E+02  0.00000000000E+00 0.  1.
         -3    1    1    2    0  504  0.13310112726E+03 -0.36878512394E+02  0.10513736329E+04  0.10604067383E+04  0.00000000000E+00 0.  1.
<scales pt_clust_3="40.55943" pt_clust_4="14000.00000" pt_clust_5="39.38125" pt_clust_6="129.45464"></scales>
<clustering>
<clus scale="   39.381">  2  5  1 -1</clus>
<clus scale="   40.559">  2  3  1 -1</clus>
<clus scale="  129.455">  1  6  2 -1</clus>
<clus scale="   39.381">  2  3  1 -1</clus>
</clustering>
</event>
<event>
 6    0  0.2433432E+002  0.9167970E+02  0.7546771E-02  0.1298834E+00
          2   -1    0    0  503    0 -0.00000000000E+00  0.00000000000E+00  0.12883018103E+04  0.12883018103E+04  0.00000000000E+00 0. -1.
         21   -1    0    0  504  502  0.00000000000E+00 -0.00000000000E+00 -0.18294815735E+03  0.18294815735E+03  0.00000000000E+00 0.  1.
         21    1    1    2  503  502 -0.11514601653E+03 -0.79521865114E+02  0.92715153462E+02  0.16786432568E+03  0.00000000000E+00 0.  1.
         21    1    1    2  504  505  0.88075656623E+02  0.64127302261E+01 -0.12631723076E+03  0.15412490774E+03  0.00000000000E+00 0.  1.
         21    1    1    2  505  501  0.37574570536E+02  0.38723887257E+02  0.14595445024E+03  0.15560877013E+03  0.00000000000E+00 0.  1.
          2    1    1    2  501    0 -0.10504210631E+02  0.34385247631E+02  0.99300128004E+03  0.99365196414E+03  0.00000000000E+00 0. -1.
<scales pt_clust_3="91.67970" pt_clust_4="14000.00000" pt_clust_5="64.86076" pt_clust_6="35.95391"></scales>
<clustering>
<clus scale="   35.954">  1  6  2 -1</clus>
<clus scale="   64.861">  1  5  2 -1</clus>
<clus scale="   91.680">  1  3  2 -1</clus>
<clus scale="   91.680">  2  3  1 -1</clus>
</clustering>
</event>
<event>
 6    0  0.2433432E+002  0.1520454E+03  0.7546771E-02  0.1197982E+00
         21   -1    0    0  504  502  0.00000000000E+00  0.00000000000E+00  0.12984634495E+03  0.12984634495E+03  0.00000000000E+00 0.  1.
          4   -1    0    0  503    0 -0.00000000000E+00 -0.00000000000E+00 -0.87560532697E+03  0.87560532697E+03  0.00000000000E+00 0.  1.
         21    1    1    2  503  505 -0.14159813158E+03 -0.32865653812E+02 -0.83140258581E+02  0.16745890441E+03  0.00000000000E+00 0.  1.
         21    1    1    2  504  501  0.34390373361E+02 -0.86126033012E+01  0.38135637905E+02  0.52069200051E+02  0.00000000000E+00 0.  1.
         21    1    1    2  505  502  0.27266074027E+02 -0.10083829179E+03 -0.51501215604E+02  0.11646533859E+03  0.00000000000E+00 0.  1.
          4    1    1    2  501    0  0.79941684194E+02  0.14231654890E+03 -0.64925314574E+03  0.66945822888E+03  0.00000000000E+00 0.  1.
<scales pt_clust_3="152.04543" pt_clust_4="35.45243" pt_clust_5="111.71864" pt_clust_6="14000.00000"></scales>
<clustering>
<clus scale="   35.452">  1  4  2 -1</clus>
<clus scale="  111.719">  1  5  2 -1</clus>
<clus scale="  152.045">  1  3  2 -1</clus>
<clus scale="   35.452">  1  3  2 -1</clus>
</clustering>
</event>
<event>
 6    0  0.2433432E+002  0.7581522E+02  0.7546771E-02  0.1341365E+00
          2   -1    0    0  504    0 -0.00000000000E+00  0.00000000000E+00  0.11796389699E+04  0.11796389699E+04  0.00000000000E+00 0. -1.
         21   -1    0    0  505  502  0.00000000000E+00 -0.00000000000E+00 -0.30710777386E+03  0.30710777386E+03  0.00000000000E+00 0. -1.
         21    1    1    2  503  502  0.31747122639E+01 -0.53389460394E+02  0.31316543839E+02  0.61977731461E+02  0.00000000000E+00 0. -1.
         21    1    1    2  504  503 -0.34051371124E+02 -0.42552216436E+02  0.25380946599E+03  0.25959474576E+03  0.00000000000E+00 0. -1.
         21    1    1    2  505  501  0.26674912719E+02 -0.22347865403E+02 -0.28382000237E+03  0.28594540004E+03  0.00000000000E+00 0. -1.
          2    1    1    2  501    0  0.42017461405E+01  0.11828954223E+03  0.87122518861E+03  0.87922886653E+03  0.00000000000E+00 0. -1.
<scales pt_clust_3="14000.00000" pt_clust_4="54.78867" pt_clust_5="34.79911" pt_clust_6="75.81522"></scales>
<clustering>
<clus scale="   34.799">  2  5  1 -1</clus>
<clus scale="   54.789">  1  4  2 -1</clus>
<clus scale="   75.815">  1  6  2 -1</clus>
<clus scale="   34.799">  2  3  1 -1</clus>
</clustering>
</event>
<event>
 6    0  0.2433432E+002  0.1053382E+03  0.7546771E-02  0.1269455E+00
         -3   -1    0    0    0  501 -0.00000000000E+00  0.00000000000E+00  0.13765911138E+02  0.13765911138E+02  0.00000000000E+00 0.  1.
         21   -1    0    0  501  502  0.00000000000E+00 -0.00000000000E+00 -0.23126801303E+04  0.23126801303E+04  0.00000000000E+00 0. -1.
         21    1    1    2  503  505  0.36890690906E+02 -0.25679584655E+02 -0.30650849030E+03  0.30978673110E+03  0.00000000000E+00 0. -1.
         21    1    1    2  504  502 -0.41689387684E+02 -0.48629635155E+02 -0.10146233609E+04  0.10166432073E+04  0.00000000000E+00 0. -1.
         21    1    1    2  505  504  0.36240081004E+02 -0.23407813441E+02 -0.73705027645E+03  0.73831184416E+03  0.00000000000E+00 0.  1.
         -3    1    1    2    0  503 -0.31441384226E+02  0.97717033251E+02 -0.24073209143E+03  0.26170425880E+03  0.00000000000E+00 0.  1.
<scales pt_clust_3="40.84369" pt_clust_4="64.05347" pt_clust_5="40.84369" pt_clust_6="96.73721"></scales>
<clustering>
<clus scale="   40.844">  3  5 -1 -1</clus>
<clus scale="   64.053">  2  4  1 -1</clus>
<clus scale="   96.737">  1  6  2 -1</clus>
<clus scale="   64.053">  2  3  1 -1</clus>
</clustering>
</event>
<event>
 6    0  0.2433432E+002  0.1303884E+03  0.7546771E-02  0.1226881E+00
         21   -1    0    0  503  502  0.00000000000E+00  0.00000000000E+00  0.37447264728E+02  0.37447264728E+02  0.00000000000E+00 0.  1.
         -2   -1    0    0    0  501 -0.00000000000E+00 -0.00000000000E+00 -0.23625507879E+04  0.23625507879E+04  0.00000000000E+00 0.  1.
         21    1    1    2  503  501 -0.54614868079E+02  0.20128699720E+02 -0.19519324255E+02  0.61391794134E+02  0.00000000000E+00 0.  1.
         21    1    1    2  504  502  0.29150701459E+01 -0.30248392817E+02 -0.38893500424E+02  0.49357545291E+02  0.00000000000E+00 0. -1.
         21    1    1    2  505  504 -0.84442647526E+02  0.45306374898E+02 -0.25118952134E+03  0.26884829171E+03  0.00000000000E+00 0.  1.
         -2    1    1    2    0  505  0.13614244546E+03 -0.35186681801E+02 -0.20155011772E+04  0.20204004215E+04  0.00000000000E+00 0.  1.
<scales pt_clust_3="52.72251" pt_clust_4="30.38853" pt_clust_5="130.38837" pt_clust_6="14000.00000"></scales>
<clustering>
<clus scale="   30.389">  1  4  2 -1</clus>
<clus scale="   52.723">  1  3  2 -1</clus>
<clus scale="  130.388">  1  5  2 -1</clus>
<clus scale="   30.389">  1  3  2 -1</clus>
</clustering>
</event>
<event>
 6    0  0.2433432E+002  0.1113641E+03  0.7546771E-02  0.1258064E+00
          4   -1    0    0  503    0 -0.00000000000E+00  0.00000000000E+00  0.81333006647E+01  0.81333006647E+01  0.00000000000E+00 0.  1.
         21   -1    0    0  504  502  0.00000000000E+00 -0.00000000000E+00 -0.36183842804E+04  0.36183842804E+04  0.00000000000E+00 0. -1.
         21    1    1    2  503  505 -0.44090179582E+02 -0.47670669170E+02 -0.89104846505E+03  0.89341132952E+03  0.00000000000E+00 0. -1.
         21    1    1    2  504  501  0.64327343459E+02 -0.88750453232E+01 -0.11868729347E+04  0.11886480289E+04  0.00000000000E+00 0. -1.
         21    1    1    2  505  502 -0.42571429339E+01 -0.47476650508E+02 -0.10358732284E+04  0.10369693829E+04  0.00000000000E+00 0. -1.
          4    1    1    2  501    0 -0.15980020943E+02  0.10402236500E+03 -0.49645635164E+03  0.50748883985E+03  0.00000000000E+00 0.  1.
<scales pt_clust_3="37.85417" pt_clust_4="64.93669" pt_clust_5="37.85417" pt_clust_6="102.22502"></scales>
<clustering>
<clus scale="   37.854">  3  5 -1 -1</clus>
<clus scale="   64.937">  2  4  1 -1</clus>
<clus scale="  102.225">  1  6  2 -1</clus>
<clus scale="   64.937">  2  3  1 -1</clus>
</clustering>
</event>
<event>
 6    0  0.2433432E+002  0.1232863E+03  0.7546771E-02  0.1237772E+00
         21   -1    0    0  505  502  0.00000000000E+00  0.00000000000E+00  0.65183444389E+03  0.65183444389E+03  0.00000000000E+00 0.  1.
          1   -1    0    0  504    0 -0.00000000000E+00 -0.00000000000E+00 -0.12547810487E+04  0.12547810487E+04  0.00000000000E+00 0. -1.
         21    1    1    2  503  502 -0.36001826786E+02 -0.11905454949E+03  0.58960705042E+03  0.60258326495E+03  0.00000000000E+00 0.  1.
         21    1    1    2  504  503  0.39851606443E+02  0.74982482683E+02 -0.22963198890E+03  0.24482927434E+03  0.00000000000E+00 0.  1.
         21    1    1    2  505  501 -0.51166927612E+02  0.41712419823E+02  0.24671161308E+02  0.70474439686E+02  0.00000000000E+00 0. -1.
          1    1    1    2  501    0  0.47317147954E+02  0.23596469805E+01 -0.98759282763E+03  0.98872851361E+03  0.00000000000E+00 0. -1.
<scales pt_clust_3="14000.00000" pt_clust_4="123.28634" pt_clust_5="63.05179" pt_clust_6="47.37595"></scales>
<clustering>
<clus scale="   47.376">  2  6  1 -1</clus>
<clus scale="   63.052">  2  5  1 -1</clus>
<clus scale="  123.286">  2  4  1 -1</clus>
<clus scale="  123.286">  1  3  2 -1</clus>
</clustering>
</event>
<event>
 6    0  0.2433432E+002  0.2130111E+03  0.7546771E-02  0.1139203E+00
          2   -1    0    0  503    0 -0.00000000000E+00  0.00000000000E+00  0.44514188660E+03  0.44514188660E+03  0.00000000000E+00 0.  1.
         21   -1    0    0  504  502  0.00000000000E+00 -0.00000000000E+00 -0.83221760869E+03  0.83221760869E+03  0.00000000000E+00 0. -1.
         21    1    1    2  503  505  0.61513735897E+02  0.35595487728E+02 -0.55149173370E+02  0.89957822195E+02  0.00000000000E+00 0. -1.
         21    1    1    2  504  501 -0.39916510640E+02  0.18722757946E+03 -0.32955812012E+03  0.38112471564E+03  0.00000000000E+00 0. -1.
         21    1    1    2  505  502 -0.59550469616E+02 -0.11431783200E+02 -0.37300953264E+03  0.37790614647E+03  0.00000000000E+00 0. -1.
          2    1    1    2  501    0  0.37953244359E+02 -0.21139128399E+03  0.37064110404E+03  0.42837081099E+03  0.00000000000E+00 0.  1.
<scales pt_clust_3="62.05429" pt_clust_4="14000.00000" pt_clust_5="60.63781" pt_clust_6="213.01109"></scales>
<clustering>
<clus scale="   60.638">  2  5  1 -1</clus>
<clus scale="   62.054">  2  3  1 -1</clus>
<clus scale="  213.011">  1  6  2 -1</clus>
<clus scale="   60.638">  2  3  1 -1</clus>
</clustering>
</event>
<event>
 6    0  0.2433432E+002  0.8170726E+02  0.7546771E-02  0.1324275E+00
         21   -1    0    0  505  502  0.00000000000E+00  0.00000000000E+00  0.73347975841E+03  0.73347975841E+03  0.00000000000E+00 0.  1.
         -1   -1    0    0    0  501 -0.00000000000E+00 -0.00000000000E+00 -0.26700323326E+03  0.26700323326E+03  0.00000000000E+00 0. -1.
         21    1    1    2  503  502  0.16962006182E+02  0.57261133495E+02  0.41035102641E+03  0.41467398271E+03  0.00000000000E+00 0.  1.
         21    1    1    2  504  503  0.99672941998E+02 -0.73582462598E+02  0.25355603609E+03  0.28220513391E+03  0.00000000000E+00 0.  1.
         21    1    1    2  505  501 -0.37094362469E+02  0.13103537930E+01  0.38916991826E+02  0.53779559378E+02  0.00000000000E+00 0.  1.
         -1    1    1    2    0  504 -0.79540585711E+02  0.15010975310E+02 -0.23634752917E+03  0.24982431567E+03  0.00000000000E+00 0. -1.
<scales pt_clust_3="58.28990" pt_clust_4="81.70726" pt_clust_5="37.11750" pt_clust_6="14000.00000"></scales>
<clustering>
<clus scale="   37.117">  1  5  2 -1</clus>
<clus scale="   58.290">  1  3  2 -1</clus>
<clus scale="   81.707">  1  4  2 -1</clus>
<clus scale="   37.117">  1  3  2 -1</clus>
</clustering>
</event>
<event>
 6    0  0.2433432E+002  0.7714921E+02  0.7546771E-02  0.1337342E+00
         21   -1    0    0  505  502  0.00000000000E+00  0.00000000000E+00  0.26464279877E+02  0.26464279877E+02  0.00000000000E+00 0. -1.
          2   -1    0    0  504    0 -0.00000000000E+00 -0.00000000000E+00 -0.13077930712E+04  0.13077930712E+04  0.00000000000E+00 0. -1.
         21    1    1    2  503  502  0.73408422386E+02  0.68298959675E+02 -0.33616109932E+03  0.35079599352E+03  0.00000000000E+00 0. -1.
         21    1    1    2  504  503  0.35473227452E+02 -0.17921551974E+02 -0.14673795106E+03  0.15202486038E+03  0.00000000000E+00 0.  1.
         21    1    1    2  505  501 -0.43472159999E+02 -0.11210698476E+02 -0.19772279588E+02  0.49055595965E+02  0.00000000000E+00 0. -1.
          2    1    1    2  501    0 -0.65409489839E+02 -0.39166709225E+02 -0.77865746139E+03  0.78238090125E+03  0.00000000000E+00 0. -1.
<scales pt_clust_3="14000.00000" pt_clust_4="39.74333" pt_clust_5="44.01380" pt_clust_6="77.14921"></scales>
<clustering>
<clus scale="   39.743">  2  4  1 -1</clus>
<clus scale="   44.014">  1  5  2 -1</clus>
<clus scale="   77.149">  2  6  1 -1</clus>
<clus scale="   44.014">  1  3  2 -1</clus>
</clustering>
</event>
<event>
 6    0  0.2433432E+002  0.1530048E+03  0.7546771E-02  0.1196829E+00
          1   -1    0    0  503    0 -0.00000000000E+00  0.00000000000E+00  0.15408076918E+04  0.15408076918E+04  0.00000000000E+00 0. -1.
         21   -1    0    0  504  502  0.00000000000E+00 -0.00000000000E+00 -0.16017542944E+03  0.16017542944E+03  0.00000000000E+00 0. -1.
         21    1    1    2  503  505 -0.44695889845E+02 -0.41504296157E+02  0.78912836477E+02  0.99737480063E+02  0.00000000000E+00 0. -1.
         21    1    1    2  504  501  0.57538018514E+02  0.13353421781E+03 -0.98342623722E+02  0.17553712582E+03  0.00000000000E+00 0. -1.
         21    1    1    2  505  502  0.25054002083E+02 -0.51805170358E+02  0.55294137912E+02  0.79805515997E+02  0.00000000000E+00 0. -1.
          1    1    1    2  501    0 -0.37896130752E+02 -0.40224751297E+02  0.13447679117E+04  0.13459029994E+04  0.00000000000E+00 0. -1.
<scales pt_clust_3="63.05143" pt_clust_4="135.19899" pt_clust_5="63.05143" pt_clust_6="55.26434"></scales>
<clustering>
<clus scale="   55.264">  1  6  2 -1</clus>
<clus scale="   63.051">  3  5 -1 -1</clus>
<clus scale="  135.199">  2  4  1 -1</clus>
<clus scale="  135.199">  2  3  1 -1</clus>
</clustering>
</event>
<event>
 6    0  0.2433432E+002  0.1443571E+03  0.7546771E-02  0.1207583E+00
         21   -1    0    0  501  502  0.00000000000E+00  0.00000000000E+00  0.13350265167E+04  0.13350265167E+04  0.00000000000E+00 0.  1.
          3   -1    0    0  503    0 -0.00000000000E+00 -0.00000000000E+00 -0.62969158535E+02  0.62969158535E+02  0.00000000000E+00 0. -1.
         21    1    1    2  503  505 -0.57500248842E+02  0.15229236464E+02  0.11976076926E+02  0.60676475496E+02  0.00000000000E+00 0.  1.
         21    1    1    2  504  502 -0.21297035637E+02 -0.25427580307E+02  0.50612673390E+03  0.50721237794E+03  0.00000000000E+00 0.  1.
         21    1    1    2  505  504 -0.11570343543E+03  0.34677265769E+02  0.46850334829E+03  0.48382350614E+03  0.00000000000E+00 0.  1.
          3    1    1    2  501    0  0.19450071990E+03 -0.24478921926E+02  0.28545119900E+03  0.34628331562E+03  0.00000000000E+00 0. -1.
<scales pt_clust_3="60.11460" pt_clust_4="33.16814" pt_clust_5="144.35715" pt_clust_6="14000.00000"></scales>
<clustering>
<clus scale="   33.168">  1  4  2 -1</clus>
<clus scale="   60.115">  2  3  1 -1</clus>
<clus scale="  144.357">  1  5  2 -1</clus>
<clus scale="   33.168">  1  3  2 -1</clus>
</clustering>
</event>
<event>
 6    0  0.2433432E+002  0.9542156E+02  0.7546771E-02  0.1290229E+00
         21   -1    0    0  505  502  0.00000000000E+00  0.00000000000E+00  0.11296165484E+04  0.11296165484E+04  0.00000000000E+00 0.  1.
          4   -1    0    0  504    0 -0.00000000000E+00 -0.00000000000E+00 -0.46543187575E+02  0.46543187575E+02  0.00000000000E+00 0. -1.
         21    1    1    2  503  502 -0.10058420287E+02 -0.44885154859E+02  0.67655048813E+03  0.67811238887E+03  0.00000000000E+00 0.  1.
         21    1    1    2  504  503 -0.31409593147E+02 -0.43582473425E+02  0.24758451745E+03  0.25334578704E+03  0.00000000000E+00 0.  1.
         21    1    1    2  505  501 -0.39219217630E+02  0.16496506298E+02  0.12396661674E+03  0.13106488400E+03  0.00000000000E+00 0.  1.
          4    1    1    2  501    0  0.80687231064E+02  0.71971121986E+02  0.34971738526E+02  0.11363667609E+03  0.00000000000E+00 0. -1.
<scales pt_clust_3="49.75143" pt_clust_4="95.42156" pt_clust_5="42.54741" pt_clust_6="14000.00000"></scales>
<clustering>
<clus scale="   42.547">  1  5  2 -1</clus>
<clus scale="   49.751">  1  3  2 -1</clus>
<clus scale="   95.422">  1  4  2 -1</clus>
<clus scale="   42.547">  1  3  2 -1</clus>
</clustering>
</event>
<event>
 6    0  0.2433432E+002  0.1024014E+03  0.7546771E-02  0.1275326E+00
          1   -1    0    0  504    0 -0.00000000000E+00  0.00000000000E+00  0.47804532449E+04  0.47804532449E+04  0.00000000000E+00 0. -1.
         21   -1    0    0  501  502  0.00000000000E+00 -0.00000000000E+00 -0.17299831200E+02  0.17299831200E+02  0.00000000000E+00 0.  1.
         21    1    1    2  503  505 -0.68957220573E+01  0.40691555950E+02  0.10133510604E+03  0.10941735431E+03  0.00000000000E+00 0.  1.
         21    1    1    2  504  503 -0.77888279354E+02 -0.19486989643E+02  0.35003465114E+03  0.35912474689E+03  0.00000000000E+00 0.  1.
         21    1    1    2  505  502 -0.20899209508E+02 -0.25876527260E+02  0.26251816922E+02  0.42373688921E+02  0.00000000000E+00 0.  1.
          1    1    1    2  501    0  0.10568321092E+03  0.46719609520E+01  0.42855318396E+04  0.42868372860E+04  0.00000000000E+00 0. -1.
<scales pt_clust_3="33.46590" pt_clust_4="102.40136" pt_clust_5="33.26217" pt_clust_6="14000.00000"></scales>
<clustering>
<clus scale="   33.262">  2  5  1 -1</clus>
<clus scale="   33.466">  2  3  1 -1</clus>
<clus scale="  102.401">  2  4  1 -1</clus>
<clus scale="   33.262">  2  3  1 -1</clus>
</clustering>
</event>
<event>
 6    0  0.2433432E+002  0.9840597E+02  0.7546771E-02  0.1283684E+00
         -2   -1    0    0    0  501 -0.00000000000E+00  0.00000000000E+00  0.40990714996E+03  0.40990714996E+03  0.00000000000E+00 0. -1.
         21   -1    0    0  504  502  0.00000000000E+00 -0.00000000000E+00 -0.10789052355E+04  0.10789052355E+04  0.00000000000E+00 0. -1.
         21    1    1    2  503  505  0.16092345111E+02  0.68485872043E+02 -0.39302362540E+03  0.39927039505E+03  0.00000000000E+00 0. -1.
         21    1    1    2  504  501 -0.22768055631E+02 -0.13037811110E+03  0.21185151771E+02  0.13403599094E+03  0.00000000000E+00 0.  1.
         21    1    1    2  505  502 -0.27662095487E+02  0.30974719367E+02 -0.62401775634E+03  0.62539810121E+03  0.00000000000E+00 0. -1.
         -2    1    1    2    0  503  0.34337806007E+02  0.30917519692E+02  0.32685814441E+03  0.33010789828E+03  0.00000000000E+00 0. -1.
<scales pt_clust_3="98.40597" pt_clust_4="14000.00000" pt_clust_5="41.52860" pt_clust_6="46.20666"></scales>
<clustering>
<clus scale="   41.529">  2  5  1 -1</clus>
<clus scale="   46.207">  1  6  2 -1</clus>
<clus scale="   98.406">  2  3  1 -1</clus>
<clus scale="   41.529">  2  3  1 -1</clus>
</clustering>
</event>
<event>
 6    0  0.2433432E+002  0.9689616E+02  0.7546771E-02  0.1286962E+00
         21   -1    0    0  505  502  0.00000000000E+00  0.00000000000E+00  0.14430650782E+03  0.14430650782E+03  0.00000000000E+00 0. -1.
          2   -1    0    0  503    0 -0.00000000000E+00 -0.00000000000E+00 -0.39802247080E+04  0.39802247080E+04  0.00000000000E+00 0.  1.
         21    1    1    2  503  504 -0.32745112614E+02 -0.14146319043E+03 -0.60998153635E+03  0.62702595746E+03  0.00000000000E+00 0. -1.
         21    1    1    2  504  502 -0.81360855517E+02  0.12463181623E+03  0.82910530716E+02  0.17037263434E+03  0.00000000000E+00 0. -1.
         21    1    1    2  505  501  0.59438577566E+02 -0.45318882003E+02 -0.15380673628E+03  0.17100660131E+03  0.00000000000E+00 0.  1.
          2    1    1    2  501    0  0.54667390564E+02  0.62150256198E+02 -0.31550404582E+04  0.31561260227E+04  0.00000000000E+00 0.  1.
<scales pt_clust_3="96.89616" pt_clust_4="14000.00000" pt_clust_5="74.74454" pt_clust_6="82.79329"></scales>
<clustering>
<clus scale="   74.745">  1  5  2 -1</clus>
<clus scale="   82.793">  2  6  1 -1</clus>
<clus scale="   96.896">  2  3  1 -1</clus>
<clus scale="   74.745">  1  3  2 -1</clus>
</clustering>
</event>
<event>
 6    0  0.2433432E+002  0.9636623E+02  0.7546771E-02  0.1288128E+00
         21   -1    0    0  505  502  0.00000000000E+00  0.00000000000E+00  0.78779924708E+01  0.78779924708E+01  0.00000000000E+00 0. -1.
          1   -1    0    0  503    0 -0.00000000000E+00 -0.00000000000E+00 -0.30695432640E+04  0.30695432640E+04  0.00000000000E+00 0. -1.
         21    1    1    2  503  504  0.49384422892E+02 -0.41969240101E+02 -0.52140134244E+03  0.52541374005E+03  0.00000000000E+00 0. -1.
         21    1    1    2  504  502  0.21476176353E+02 -0.61826152794E+02 -0.49496042123E+03  0.49926898352E+03  0.00000000000E+00 0. -1.
         21    1    1    2  505  501 -0.47762122441E+02  0.58073059055E+02 -0.42329552762E+03  0.42992185829E+03  0.00000000000E+00 0. -1.
          1    1    1    2  501    0 -0.23098476804E+02  0.45722333840E+02 -0.16220079802E+04  0.16228166746E+04  0.00000000000E+00 0. -1.
<scales pt_clust_3="34.30895" pt_clust_4="34.30895" pt_clust_5="89.98727" pt_clust_6="51.22569"></scales>
<clustering>
<clus scale="   34.309">  3  4 -1 -1</clus>
<clus scale="   51.226">  2  6  1 -1</clus>
<clus scale="   89.987">  1  5  2 -1</clus>
<clus scale="   89.987">  1  3  2 -1</clus>
</clustering>
</event>
<event>
 6    0  0.2433432E+002  0.1092876E+03  0.7546771E-02  0.1261895E+00
          4   -1    0    0  504    0 -0.00000000000E+00  0.00000000000E+00  0.33895963022E+03  0.33895963022E+03  0.00000000000E+00 0.  1.
         21   -1    0    0  503  502  0.00000000000E+00 -0.00000000000E+00 -0.22978835817E+03  0.22978835817E+03  0.00000000000E+00 0. -1.
         21    1    1    2  503  505  0.31044182613E+02  0.31408134475E+02 -0.66870093155E+01  0.44664619991E+02  0.00000000000E+00 0.  1.
         21    1    1    2  504  502 -0.12863848858E+02 -0.10166655360E+03 -0.16815967971E+03  0.19692446422E+03  0.00000000000E+00 0. -1.
         21    1    1    2  505  501  0.38102080949E+02  0.52520760823E+02  0.40264036476E+02  0.76363548394E+02  0.00000000000E+00 0. -1.
          4    1    1    2  501    0 -0.56282414703E+02  0.17737658298E+02  0.24375392460E+03  0.25079535578E+03  0.00000000000E+00 0.  1.
<scales pt_clust_3="33.96621" pt_clust_4="101.23556" pt_clust_5="33.96621" pt_clust_6="59.01131"></scales>
<clustering>
<clus scale="   33.966">  3  5 -1 -1</clus>
<clus scale="   59.011">  1  6  2 -1</clus>
<clus scale="  101.236">  2  4  1 -1</clus>
<clus scale="  101.236">  2  3  1 -1</clus>
</clustering>
</event>
<event>
 6    0  0.2433432E+002  0.7275644E+02  0.7546771E-02  0.1350963E+00
          2   -1    0    0  505    0 -0.00000000000E+00  0.00000000000E+00  0.28533850724E+04  0.28533850724E+04  0.00000000000E+00 0.  1.
         21   -1    0    0  504  502  0.00000000000E+00 -0.00000000000E+00 -0.29376503291E+03  0.29376503291E+03  0.00000000000E+00 0.  1.
         21    1    1    2  503  502 -0.66735173686E+02  0.50740641825E+02 -0.22523990550E+03  0.24033562193E+03  0.00000000000E+00 0.  1.
         21    1    1    2  504  501 -0.19797005140E+02 -0.38706819327E+02 -0.86566267414E+01  0.44329182955E+02  0.00000000000E+00 0. -1.
         21    1    1    2  505  503  0.56583100879E+02  0.47708863336E+02  0.60948553937E+01  0.74262576095E+02  0.00000000000E+00 0. -1.
          2    1    1    2  501    0  0.29949077946E+02 -0.59742685833E+02  0.27874217163E+04  0.27882227243E+04  0.00000000000E+00 0.  1.
<scales pt_clust_3="72.75644" pt_clust_4="43.47573" pt_clust_5="14000.00000" pt_clust_6="66.86773"></scales>
<clustering>
<clus scale="   43.476">  2  4  1 -1</clus>
<clus scale="   66.868">  1  6  2 -1</clus>
<clus scale="   72.756">  2  3  1 -1</clus>
<clus scale="   43.476">  2  3  1 -1</clus>
</clustering>
</event>
<event>
 6    0  0.2433432E+002  0.1068140E+03  0.7546771E-02  0.1266586E+00
          2   -1    0    0  503    0 -0.00000000000E+00  0.00000000000E+00  0.31560404465E+04  0.31560404465E+04  0.00000000000E+00 0. -1.
         21   -1    0    0  504  502  0.00000000000E+00 -0.00000000000E+00 -0.32023972197E+03  0.32023972197E+03  0.00000000000E+00 0.  1.
         21    1    1    2  503  505 -0.36655460750E+02  0.29313572699E+02  0.10358069878E+03  0.11371837805E+03  0.00000000000E+00 0.  1.
         21    1    1    2  504  501 -0.29444257922E+02  0.54059216312E+02 -0.21098056264E+03  0.21977752615E+03  0.00000000000E+00 0.  1.
         21    1    1    2  505  502  0.29386296956E+02  0.54121074296E+02 -0.88459660090E+02  0.10778569754E+03  0.00000000000E+00 0.  1.
          2    1    1    2  501    0  0.36713421715E+02 -0.13749386331E+03  0.30316602485E+04  0.30349985667E+04  0.00000000000E+00 0. -1.
<scales pt_clust_3="46.93515" pt_clust_4="14000.00000" pt_clust_5="61.61085" pt_clust_6="106.81399"></scales>
<clustering>
<clus scale="   46.935">  1  3  2 -1</clus>
<clus scale="   61.611">  2  5  1 -1</clus>
<clus scale="  106.814">  1  6  2 -1</clus>
<clus scale="   61.611">  2  3  1 -1</clus>
</clustering>
</event>
<event>
 6    0  0.2433432E+002  0.9722201E+02  0.7546771E-02  0.1286249E+00
         21   -1    0    0  505  502  0.00000000000E+00  0.00000000000E+00  0.81396891928E+03  0.81396891928E+03  0.00000000000E+00 0.  1.
          2   -1    0    0  503    0 -0.00000000000E+00 -0.00000000000E+00 -0.31000076804E+03  0.31000076804E+03  0.00000000000E+00 0.  1.
         21    1    1    2  503  504 -0.13398619415E+02  0.72612281852E+02 -0.95095866270E+02  0.12039638807E+03  0.00000000000E+00 0. -1.
         21    1    1    2  504  502 -0.57991195839E+02 -0.33939787635E+02  0.29127216694E+03  0.29892200189E+03  0.00000000000E+00 0.  1.
         21    1    1    2  505  501 -0.25985096566E+02 -0.22409931661E+02  0.49330926196E+03  0.49450122165E+03  0.00000000000E+00 0.  1.
          2    1    1    2  501    0  0.97374911819E+02 -0.16262562556E+02 -0.18551741139E+03  0.21015007571E+03  0.00000000000E+00 0.  1.
<scales pt_clust_3="73.16281" pt_clust_4="14000.00000" pt_clust_5="34.31370" pt_clust_6="97.22201"></scales>
<clustering>
<clus scale="   34.314">  1  5  2 -1</clus>
<clus scale="   73.163">  2  3  1 -1</clus>
<clus scale="   97.222">  2  6  1 -1</clus>
<clus scale="   34.314">  1  3  2 -1</clus>
</clustering>
</event>
<event>
 6    0  0.2433432E+002  0.9006885E+02  0.7546771E-02  0.1302685E+00
         -2   -1    0    0    0  501 -0.00000000000E+00  0.00000000000E+00  0.73984083121E+02  0.73984083121E+02  0.00000000000E+00 0. -1.
         21   -1    0    0  503  502  0.00000000000E+00 -0.00000000000E+00 -0.61838019985E+03  0.61838019985E+03  0.00000000000E+00 0. -1.
         21    1    1    2  503  505 -0.79705216966E+02  0.41429790764E+02 -0.39964916549E+03  0.40962031768E+03  0.00000000000E+00 0. -1.
         21    1    1    2  504  502  0.24559307229E+02  0.32038744630E+02 -0.86486553110E+02  0.95444039091E+02  0.00000000000E+00 0.  1.
         21    1    1    2  505  501  0.47634582448E+02  0.39614814923E+02 -0.36468948393E+02  0.71891384764E+02  0.00000000000E+00 0. -1.
         -2    1    1    2    0  504  0.75113272894E+01 -0.11308335032E+03 -0.21791449734E+02  0.11540854144E+03  0.00000000000E+00 0. -1.
<scales pt_clust_3="90.06885" pt_clust_4="40.36881" pt_clust_5="66.00536" pt_clust_6="14000.00000"></scales>
<clustering>
<clus scale="   40.369">  2  4  1 -1</clus>
<clus scale="   66.005">  1  5  2 -1</clus>
<clus scale="   90.069">  2  3  1 -1</clus>
<clus scale="   40.369">  2  3  1 -1</clus>
</clustering>
</event>
<event>
 6    0  0.2433432E+002  0.1373122E+03  0.7546771E-02  0.1216992E+00
         21   -1    0    0  504  502  0.00000000000E+00  0.00000000000E+00  0.71235418048E+02  0.71235418048E+02  0.00000000000E+00 0. -1.
          1   -1    0    0  503    0 -0.00000000000E+00 -0.00000000000E+00 -0.25225634992E+04  0.25225634992E+04  0.00000000000E+00 0. -1.
         21    1    1    2  503  502  0.63703008064E+02 -0.11847896366E+03 -0.34570120220E+03  0.37095102004E+03  0.00000000000E+00 0. -1.
         21    1    1    2  504  505 -0.15781154837E+02  0.77732431069E+02 -0.12569493506E+02  0.80307956361E+02  0.00000000000E+00 0. -1.
         21    1    1    2  505  501 -0.13351919299E+03  0.59856213443E+02 -0.20188255235E+03  0.24933252120E+03  0.00000000000E+00 0. -1.
          1    1    1    2  501    0  0.85597339761E+02 -0.19109680850E+02 -0.18911748331E+04  0.18932074196E+04  0.00000000000E+00 0. -1.
<scales pt_clust_3="14000.00000" pt_clust_4="79.31819" pt_clust_5="137.31222" pt_clust_6="86.84731"></scales>
<clustering>
<clus scale="   79.318">  1  4  2 -1</clus>
<clus scale="   86.847">  2  6  1 -1</clus>
<clus scale="  137.312">  2  5  1 -1</clus>
<clus scale="   79.318">  1  3  2 -1</clus>
</clustering>
</event>
<event>
 6    0  0.2433432E+002  0.9035340E+02  0.7546771E-02  0.1301998E+00
         21   -1    0    0  505  502  0.00000000000E+00  0.00000000000E+00  0.40018245025E+02  0.40018245025E+02  0.00000000000E+00 0. -1.
          2   -1    0    0  503    0 -0.00000000000E+00 -0.00000000000E+00 -0.57953343602E+03  0.57953343602E+03  0.00000000000E+00 0. -1.
         21    1    1    2  503  504  0.60602133436E+02  0.14053717551E+02 -0.95954024134E+02  0.11435602433E+03  0.00000000000E+00 0. -1.
         21    1    1    2  504  502  0.58363658833E+02 -0.60469685650E+02 -0.12215258535E+03  0.14827054212E+03  0.00000000000E+00 0. -1.
         21    1    1    2  505  501 -0.87910117203E+02  0.47106343418E+02 -0.13445109677E+03  0.16740458094E+03  0.00000000000E+00 0. -1.
          2    1    1    2  501    0 -0.31055675067E+02 -0.69037531830E+00 -0.18695748474E+03  0.18952053364E+03  0.00000000000E+00 0. -1.
<scales pt_clust_3="54.06526" pt_clust_4="14000.00000" pt_clust_5="90.35340" pt_clust_6="31.06335"></scales>
<clustering>
<clus scale="   31.063">  2  6  1 -1</clus>
<clus scale="   54.065">  2  3  1 -1</clus>
<clus scale="   90.353">  2  5  1 -1</clus>
<clus scale="   90.353">  1  3  2 -1</clus>
</clustering>
</event>
<event>
 6    0  0.2433432E+002  0.9814159E+02  0.7546771E-02  0.1284253E+00
          2   -1    0    0  504    0 -0.00000000000E+00  0.00000000000E+00  0.14824784536E+04  0.14824784536E+04  0.00000000000E+00 0.  1.
         21   -1    0    0  505  502  0.00000000000E+00 -0.00000000000E+00 -0.16156452614E+03  0.16156452614E+03  0.00000000000E+00 0.  1.
         21    1    1    2  503  501  0.42168307863E+02  0.19203470944E+02  0.49596936561E+01  0.46599764436E+02  0.00000000000E+00 0.  1.
         21    1    1    2  504  502 -0.69422587385E+02 -0.73398418747E+02  0.47866149733E+02  0.11179441759E+03  0.00000000000E+00 0. -1.
         21    1    1    2  505  503  0.37762278564E+02  0.91293376850E+02 -0.86017596416E+02  0.13099426412E+03  0.00000000000E+00 0.  1.
          2    1    1    2  501    0 -0.10507999043E+02 -0.37098429047E+02  0.13541056805E+04  0.13546545336E+04  0.00000000000E+00 0.  1.
<scales pt_clust_3="41.73795" pt_clust_4="98.14159" pt_clust_5="14000.00000" pt_clust_6="38.55790"></scales>
<clustering>
<clus scale="   38.558">  1  6  2 -1</clus>
<clus scale="   41.738">  1  3  2 -1</clus>
<clus scale="   98.142">  1  4  2 -1</clus>
<clus scale="   98.142">  2  3  1 -1</clus>
</clustering>
</event>
<event>
 6    0  0.2433432E+002  0.7889715E+02  0.7546771E-02  0.1332211E+00
          2   -1    0    0  502    0 -0.00000000000E+00  0.00000000000E+00  0.10849245250E+04  0.10849245250E+04  0.00000000000E+00 0.  1.
         21   -1    0    0  503  502  0.00000000000E+00 -0.00000000000E+00 -0.10633416545E+04  0.10633416545E+04  0.00000000000E+00 0. -1.
         21    1    1    2  503  504  0.28660508633E+02  0.76743305584E+02 -0.83724618051E+03  0.84124439166E+03  0.00000000000E+00 0. -1.
         21    1    1    2  504  505 -0.24304772022E+02 -0.63116952948E+02 -0.14607947672E+03  0.16097728166E+03  0.00000000000E+00 0.  1.
         21    1    1    2  505  501  0.77921579062E+01 -0.72713861623E+02 -0.50526310941E+02  0.88887184083E+02  0.00000000000E+00 0.  1.
          2    1    1    2  501    0 -0.12147894518E+02  0.59087508986E+02  0.10554348386E+04  0.10571573221E+04  0.00000000000E+00 0.  1.
<scales pt_clust_3="78.89715" pt_clust_4="14000.00000" pt_clust_5="33.12833" pt_clust_6="60.32334"></scales>
<clustering>
<clus scale="   60.323">  1  6  2 -1</clus>
<clus scale="   33.128">  1  5  2 -1</clus>
<clus scale="   78.897">  2  3  1 -1</clus>
<clus scale="   78.897">  2  3  1 -1</clus>
</clustering>
</event>
<event>
 6    0  0.2433432E+002  0.1507779E+03  0.7546771E-02  0.1199520E+00
         21   -1    0    0  505  502  0.00000000000E+00  0.00000000000E+00  0.44584783536E+02  0.44584783536E+02  0.00000000000E+00 0. -1.
          2   -1    0    0  503    0 -0.00000000000E+00 -0.00000000000E+00 -0.17836989953E+04  0.17836989953E+04  0.00000000000E+00 0. -1.
         21    1    1    2  503  502 -0.11994689970E+02  0.42056552829E+02 -0.14174581995E+03  0.14833915092E+03  0.00000000000E+00 0. -1.
         21    1    1    2  504  501  0.11487303310E+03  0.33436191431E+02 -0.17577198301E+03  0.21262545154E+03  0.00000000000E+00 0. -1.
         21    1    1    2  505  504  0.32978065653E+02  0.73246467769E+01  0.29541841577E+01  0.33910624716E+02  0.00000000000E+00 0. -1.
          2    1    1    2  501    0 -0.13585640878E+03 -0.82817391037E+02 -0.14245505930E+04  0.14334085517E+04  0.00000000000E+00 0. -1.
<scales pt_clust_3="43.68864" pt_clust_4="14000.00000" pt_clust_5="33.78170" pt_clust_6="150.77793"></scales>
<clustering>
<clus scale="   33.782">  1  5  2 -1</clus>
<clus scale="   43.689">  1  3  2 -1</clus>
<clus scale="  150.778">  2  6  1 -1</clus>
<clus scale="   33.782">  1  3  2 -1</clus>
</clustering>
</event>
<event>
 6    0  0.2533437E+002  0.5988295E+02  0.7546771E-02  0.1398324E+00
          1   -1    0    0  503    0 -0.00000000000E+00  0.00000000000E+00  0.97091327713E+03  0.97091327713E+03  0.00000000000E+00 0. -1.
         21   -1    0    0  504  502  0.00000000000E+00 -0.00000000000E+00 -0.11607754490E+04  0.11607754490E+04  0.00000000000E+00 0.  1.
         21    1    1    2  503  502  0.58873716904E+02 -0.72590274360E+01 -0.93004555664E+03  0.93193537621E+03  0.00000000000E+00 0.  1.
         21    1    1    2  504  505 -0.72011094416E+02 -0.40986393797E+02 -0.11576893396E+03  0.14236547427E+03  0.00000000000E+00 0. -1.
         21    1    1    2  505  501  0.53579532021E+02  0.40293192184E+02 -0.89062906927E+02  0.11147425253E+03  0.00000000000E+00 0. -1.
          1    1    1    2  501    0 -0.40442154509E+02  0.79522290495E+01  0.94501522561E+03  0.94591362314E+03  0.00000000000E+00 0. -1.
<scales pt_clust_3="14000.00000" pt_clust_4="59.88295" pt_clust_5="56.54744" pt_clust_6="41.21657"></scales>
<clustering>
<clus scale="   41.217">  1  6  2 -1</clus>
<clus scale="   56.547">  1  5  2 -1</clus>
<clus scale="   59.883">  1  4  2 -1</clus>
<clus scale="   59.883">  2  3  1 -1</clus>
</clustering>
</event>
<event>
 6    0  0.2433432E+002  0.1410194E+03  0.7546771E-02  0.1211964E+00
          2   -1    0    0  505    0 -0.00000000000E+00  0.00000000000E+00  0.59271058286E+03  0.59271058286E+03  0.00000000000E+00 0. -1.
         21   -1    0    0  504  502  0.00000000000E+00 -0.00000000000E+00 -0.10456826289E+03  0.10456826289E+03  0.00000000000E+00 0. -1.
         21    1    1    2  503  501  0.11342184779E+03 -0.48263406362E+02  0.13322681996E+03  0.18150277548E+03  0.00000000000E+00 0. -1.
         21    1    1    2  504  503  0.83268069837E+02  0.13112569159E+01  0.22507601359E+02  0.86266348990E+02  0.00000000000E+00 0. -1.
         21    1    1    2  505  502 -0.56837332549E+02 -0.15676173195E+02 -0.47628310456E+01  0.59151579327E+02  0.00000000000E+00 0. -1.
          2    1    1    2  501    0 -0.13985258508E+03  0.62628322642E+02  0.33717072970E+03  0.37035814196E+03  0.00000000000E+00 0. -1.
<scales pt_clust_3="14000.00000" pt_clust_4="58.57957" pt_clust_5="58.95952" pt_clust_6="141.01936"></scales>
<clustering>
<clus scale="   58.960">  2  5  1 -1</clus>
<clus scale="   58.580">  2  4  1 -1</clus>
<clus scale="  141.019">  1  6  2 -1</clus>
<clus scale="   58.960">  2  3  1 -1</clus>
</clustering>
</event>
<event>
 6    0  0.2433432E+002  0.1475898E+03  0.7546771E-02  0.1203466E+00
          2   -1    0    0  505    0 -0.00000000000E+00  0.00000000000E+00  0.31730411353E+03  0.31730411353E+03  0.00000000000E+00 0. -1.
         21   -1    0    0  501  502  0.00000000000E+00 -0.00000000000E+00 -0.34187590288E+03  0.34187590288E+03  0.00000000000E+00 0. -1.
         21    1    1    2  503  504 -0.12947734733E+01 -0.10893642784E+03  0.99584059605E+02  0.14760015811E+03  0.00000000000E+00 0. -1.
         21    1    1    2  504  502  0.30217467114E+02  0.34330334695E+01 -0.10065902891E+03  0.10515284655E+03  0.00000000000E+00 0.  1.
         21    1    1    2  505  503  0.54083964372E+02 -0.40583208284E+02  0.15022680062E+03  0.16474271948E+03  0.00000000000E+00 0. -1.
          2    1    1    2  501    0 -0.83006658013E+02  0.14608660265E+03 -0.17372362067E+03  0.24168429226E+03  0.00000000000E+00 0. -1.
<scales pt_clust_3="147.58979" pt_clust_4="30.41186" pt_clust_5="68.29154" pt_clust_6="14000.00000"></scales>
<clustering>
<clus scale="   30.412">  2  4  1 -1</clus>
<clus scale="   68.292">  1  5  2 -1</clus>
<clus scale="  147.590">  1  3  2 -1</clus>
<clus scale="   30.412">  2  3  1 -1</clus>
</clustering>
</event>
<event>
 6    0  0.2433432E+002  0.6609853E+02  0.7546771E-02  0.1373886E+00
         -3   -1    0    0    0  501 -0.00000000000E+00  0.00000000000E+00  0.40777602638E+03  0.40777602638E+03  0.00000000000E+00 0.  1.
         21   -1    0    0  505  502  0.00000000000E+00 -0.00000000000E+00 -0.24692966714E+03  0.24692966714E+03  0.00000000000E+00 0. -1.
         21    1    1    2  503  501 -0.70692303582E+02  0.48920265130E+02 -0.90181591868E+02  0.12459259062E+03  0.00000000000E+00 0. -1.
         21    1    1    2  504  502  0.42623630271E+02 -0.84958519791E+01 -0.83713518494E+01  0.44260963502E+02  0.00000000000E+00 0. -1.
         21    1    1    2  505  503 -0.37704658895E+02 -0.46959725847E+02 -0.10200341125E+03  0.11845485664E+03  0.00000000000E+00 0. -1.
         -3    1    1    2    0  504  0.65773332206E+02  0.65353126960E+01  0.36140271421E+03  0.36739728276E+03  0.00000000000E+00 0.  1.
<scales pt_clust_3="14000.00000" pt_clust_4="43.46209" pt_clust_5="53.76927" pt_clust_6="66.09853"></scales>
<clustering>
<clus scale="   43.462">  2  4  1 -1</clus>
<clus scale="   53.769">  2  5  1 -1</clus>
<clus scale="   66.099">  1  6  2 -1</clus>
<clus scale="   43.462">  2  3  1 -1</clus>
</clustering>
</event>
<event>
 6    0  0.2433432E+002  0.9028730E+02  0.7546771E-02  0.1302157E+00
          2   -1    0    0  505    0 -0.00000000000E+00  0.00000000000E+00  0.29347046063E+04  0.29347046063E+04  0.00000000000E+00 0. -1.
         21   -1    0    0  504  502  0.00000000000E+00 -0.00000000000E+00 -0.53722703829E+02  0.53722703829E+02  0.00000000000E+00 0.  1.
         21    1    1    2  503  502  0.70326126409E+02  0.89527371712E+01  0.35643691041E+03  0.36341874837E+03  0.00000000000E+00 0. -1.
         21    1    1    2  504  501  0.79074048820E+01  0.50879297460E+02 -0.32063463788E+02  0.60657198023E+02  0.00000000000E+00 0.  1.
         21    1    1    2  505  503  0.50556760374E+02 -0.47932074033E+02  0.93795421441E+03  0.94053791953E+03  0.00000000000E+00 0. -1.
          2    1    1    2  501    0 -0.12879029166E+03 -0.11899960598E+02  0.16186542414E+04  0.16238134442E+04  0.00000000000E+00 0. -1.
<scales pt_clust_3="90.28730" pt_clust_4="51.49010" pt_clust_5="64.95807" pt_clust_6="14000.00000"></scales>
<clustering>
<clus scale="   51.490">  2  4  1 -1</clus>
<clus scale="   64.958">  1  5  2 -1</clus>
<clus scale="   90.287">  2  3  1 -1</clus>
<clus scale="   51.490">  2  3  1 -1</clus>
</clustering>
</event>
<event>
 6    0  0.2433432E+002  0.1492200E+03  0.7546771E-02  0.1201435E+00
          1   -1    0    0  504    0 -0.00000000000E+00  0.00000000000E+00  0.13665635881E+04  0.13665635881E+04  0.00000000000E+00 0.  1.
         21   -1    0    0  503  502  0.00000000000E+00 -0.00000000000E+00 -0.31298535146E+03  0.31298535146E+03  0.00000000000E+00 0.  1.
         21    1    1    2  503  501  0.16064448124E+02  0.38961845695E+02 -0.27632478898E+03  0.27952009036E+03  0.00000000000E+00 0.  1.
         21    1    1    2  504  505 -0.29161435747E+02  0.12587728613E+02  0.64588743090E+03  0.64666793151E+03  0.00000000000E+00 0.  1.
         21    1    1    2  505  502  0.13993197856E+03 -0.81901407740E+02  0.23295776114E+03  0.28382761968E+03  0.00000000000E+00 0.  1.
          1    1    1    2  501    0 -0.12683499093E+03  0.30351833432E+02  0.45105783356E+03  0.46953329801E+03  0.00000000000E+00 0.  1.
<scales pt_clust_3="42.14492" pt_clust_4="31.76225" pt_clust_5="14000.00000" pt_clust_6="149.21997"></scales>
<clustering>
<clus scale="   31.762">  1  4  2 -1</clus>
<clus scale="   42.145">  2  3  1 -1</clus>
<clus scale="  149.220">  1  6  2 -1</clus>
<clus scale="   42.145">  2  3  1 -1</clus>
</clustering>
</event>
<event>
 6    0  0.2433432E+002  0.1365606E+03  0.7546771E-02  0.1218033E+00
         -1   -1    0    0    0  501 -0.00000000000E+00  0.00000000000E+00  0.24145236981E+04  0.24145236981E+04  0.00000000000E+00 0.  1.
         21   -1    0    0  503  502  0.00000000000E+00 -0.00000000000E+00 -0.27996215622E+03  0.27996215622E+03  0.00000000000E+00 0.  1.
         21    1    1    2  503  501 -0.12713040890E+03  0.66234527102E+01 -0.24181768099E+03  0.27327971354E+03  0.00000000000E+00 0.  1.
         21    1    1    2  504  502  0.60021075118E+02 -0.46934436261E+02  0.13554181672E+03  0.15548940428E+03  0.00000000000E+00 0. -1.
         21    1    1    2  505  504  0.86256822985E+02 -0.75395101298E+01  0.14247824854E+03  0.16672472831E+03  0.00000000000E+00 0. -1.
         -1    1    1    2    0  505 -0.19147489206E+02  0.47850493680E+02  0.20983591576E+04  0.20989920082E+04  0.00000000000E+00 0.  1.
<scales pt_clust_3="128.40034" pt_clust_4="43.61922" pt_clust_5="43.61922" pt_clust_6="51.53927"></scales>
<clustering>
<clus scale="   43.619">  4  5 -1 -1</clus>
<clus scale="   51.539">  1  6  2 -1</clus>
<clus scale="  128.400">  2  3  1 -1</clus>
<clus scale="  128.400">  2  3  1 -1</clus>
</clustering>
</event>
<event>
 6    0  0.2433432E+002  0.1902770E+03  0.7546771E-02  0.1158212E+00
         21   -1    0    0  504  502  0.00000000000E+00  0.00000000000E+00  0.18003655478E+03  0.18003655478E+03  0.00000000000E+00 0. -1.
         -1   -1    0    0    0  501 -0.00000000000E+00 -0.00000000000E+00 -0.51439789636E+03  0.51439789636E+03  0.00000000000E+00 0. -1.
         21    1    1    2  503  502 -0.15862125666E+03 -0.70097137055E+02 -0.14298145506E+03  0.22476211464E+03  0.00000000000E+00 0. -1.
         21    1    1    2  504  505  0.22397591729E+02  0.52841877411E+02  0.40632157558E+02  0.70319900110E+02  0.00000000000E+00 0. -1.
         21    1    1    2  505  501  0.17686733336E+03  0.89246096313E+02 -0.57556762460E+02  0.20630002477E+03  0.00000000000E+00 0. -1.
         -1    1    1    2    0  503 -0.40643668431E+02 -0.71990836669E+02 -0.17445528162E+03  0.19305241162E+03  0.00000000000E+00 0. -1.
<scales pt_clust_3="14000.00000" pt_clust_4="57.39265" pt_clust_5="190.27701" pt_clust_6="78.41599"></scales>
<clustering>
<clus scale="   57.393">  1  4  2 -1</clus>
<clus scale="   78.416">  2  6  1 -1</clus>
<clus scale="  190.277">  2  5  1 -1</clus>
<clus scale="   57.393">  1  3  2 -1</clus>
</clustering>
</event>
<event>
 6    0  0.2433432E+002  0.1231510E+03  0.7546771E-02  0.1237988E+00
         -4   -1    0    0    0  501 -0.00000000000E+00  0.00000000000E+00  0.24640578649E+02  0.24640578649E+02  0.00000000000E+00 0. -1.
         21   -1    0    0  503  502  0.00000000000E+00 -0.00000000000E+00 -0.19246717365E+04  0.19246717365E+04  0.00000000000E+00 0. -1.
         21    1    1    2  503  501  0.34505066001E+02  0.16299634636E+02 -0.97713041879E+02  0.10490050630E+03  0.00000000000E+00 0.  1.
         21    1    1    2  504  502  0.93492635722E+02  0.46326304064E+02 -0.74472327081E+03  0.75199717384E+03  0.00000000000E+00 0. -1.
         21    1    1    2  505  504 -0.16705868036E+03 -0.11479057661E+02 -0.96638628324E+03  0.98078683713E+03  0.00000000000E+00 0. -1.
         -4    1    1    2    0  505  0.39060978635E+02 -0.51146881040E+02 -0.91208561951E+02  0.11162779791E+03  0.00000000000E+00 0. -1.
<scales pt_clust_3="38.16121" pt_clust_4="123.15096" pt_clust_5="14000.00000" pt_clust_6="70.59206"></scales>
<clustering>
<clus scale="   38.161">  1  3  2 -1</clus>
<clus scale="   70.592">  1  6  2 -1</clus>
<clus scale="  123.151">  2  4  1 -1</clus>
<clus scale="  123.151">  2  3  1 -1</clus>
</clustering>
</event>
<event>
 6    0  0.2433432E+002  0.7788445E+02  0.7546771E-02  0.1335165E+00
         21   -1    0    0  504  502  0.00000000000E+00  0.00000000000E+00  0.13415439312E+03  0.13415439312E+03  0.00000000000E+00 0.  1.
          2   -1    0    0  505    0 -0.00000000000E+00 -0.00000000000E+00 -0.21682668192E+04  0.21682668192E+04  0.00000000000E+00 0.  1.
         21    1    1    2  503  502 -0.84220887615E+02  0.14957935707E+02  0.60492783567E+02  0.10476771743E+03  0.00000000000E+00 0.  1.
         21    1    1    2  504  501  0.34973548797E+02  0.26341634474E+02 -0.39436661155E+02  0.58926064397E+02  0.00000000000E+00 0.  1.
         21    1    1    2  505  503  0.47130723988E+02  0.37311579718E+02  0.19019481456E+02  0.63049185558E+02  0.00000000000E+00 0.  1.
          2    1    1    2  501    0  0.21166148304E+01 -0.78611149899E+02 -0.20741880300E+04  0.20756782449E+04  0.00000000000E+00 0.  1.
<scales pt_clust_3="69.08891" pt_clust_4="43.78391" pt_clust_5="77.88445" pt_clust_6="14000.00000"></scales>
<clustering>
<clus scale="   43.784">  1  4  2 -1</clus>
<clus scale="   69.089">  1  3  2 -1</clus>
<clus scale="   77.884">  1  5  2 -1</clus>
<clus scale="   43.784">  1  3  2 -1</clus>
</clustering>
</event>
<event>
 6    0  0.2433432E+002  0.9300204E+02  0.7546771E-02  0.1295740E+00
          2   -1    0    0  502    0 -0.00000000000E+00  0.00000000000E+00  0.17399162580E+04  0.17399162580E+04  0.00000000000E+00 0.  1.
         21   -1    0    0  503  502  0.00000000000E+00 -0.00000000000E+00 -0.43798746766E+02  0.43798746766E+02  0.00000000000E+00 0. -1.
         21    1    1    2  503  505  0.88221428045E+01  0.41852961238E+02  0.52887229875E+02  0.68018818366E+02  0.00000000000E+00 0.  1.
         21    1    1    2  504  501  0.77951912966E+02 -0.21408079636E+01  0.26930189582E+02  0.82500417603E+02  0.00000000000E+00 0. -1.
         21    1    1    2  505  504  0.48487717991E+00 -0.74955336704E+02  0.19698780355E+03  0.21076700965E+03  0.00000000000E+00 0.  1.
          2    1    1    2  501    0 -0.87258932951E+02  0.35243183430E+02  0.14193122883E+04  0.14224287592E+04  0.00000000000E+00 0.  1.
<scales pt_clust_3="42.77266" pt_clust_4="14000.00000" pt_clust_5="67.03199" pt_clust_6="93.00204"></scales>
<clustering>
<clus scale="   42.773">  2  3  1 -1</clus>
<clus scale="   67.032">  2  5  1 -1</clus>
<clus scale="   93.002">  1  6  2 -1</clus>
<clus scale="   42.773">  2  3  1 -1</clus>
</clustering>
</event>
<event>
 6    0  0.2433432E+002  0.1401596E+03  0.7546771E-02  0.1213114E+00
         21   -1    0    0  504  502  0.00000000000E+00  0.00000000000E+00  0.12307527145E+04  0.12307527145E+04  0.00000000000E+00 0.  1.
          2   -1    0    0  505    0 -0.00000000000E+00 -0.00000000000E+00 -0.11166340476E+04  0.11166340476E+04  0.00000000000E+00 0. -1.
         21    1    1    2  503  501  0.10495605717E+03 -0.67343976977E+02 -0.21545668421E+03  0.24894290097E+03  0.00000000000E+00 0. -1.
         21    1    1    2  504  503 -0.56747729749E+02  0.18575769400E+02  0.11540603932E+04  0.11556040651E+04  0.00000000000E+00 0.  1.
         21    1    1    2  505  502 -0.74890079245E+02 -0.92970202808E+02 -0.14667803223E+02  0.12027937076E+03  0.00000000000E+00 0.  1.
          2    1    1    2  501    0  0.26681751825E+02  0.14173841039E+03 -0.80981723893E+03  0.82256042533E+03  0.00000000000E+00 0. -1.
<scales pt_clust_3="112.00718" pt_clust_4="59.71067" pt_clust_5="140.15955" pt_clust_6="14000.00000"></scales>
<clustering>
<clus scale="   59.711">  1  4  2 -1</clus>
<clus scale="  112.007">  1  3  2 -1</clus>
<clus scale="  140.160">  1  5  2 -1</clus>
<clus scale="   59.711">  1  3  2 -1</clus>
</clustering>
</event>
<event>
 6    0  0.2433432E+002  0.9809831E+02  0.7546771E-02  0.1284347E+00
         21   -1    0    0  505  502  0.00000000000E+00  0.00000000000E+00  0.14786685419E+04  0.14786685419E+04  0.00000000000E+00 0. -1.
          3   -1    0    0  504    0 -0.00000000000E+00 -0.00000000000E+00 -0.98387066724E+02  0.98387066724E+02  0.00000000000E+00 0. -1.
         21    1    1    2  503  502 -0.23855319843E+02  0.28827210274E+02  0.42052771173E+03  0.42218910534E+03  0.00000000000E+00 0.  1.
         21    1    1    2  504  503  0.66131523002E+02 -0.46733641400E+02  0.19049319460E+03  0.20699050404E+03  0.00000000000E+00 0. -1.
         21    1    1    2  505  501  0.58058787858E+02  0.13258514214E+01  0.82826765100E+03  0.83030107938E+03  0.00000000000E+00 0. -1.
          3    1    1    2  501    0 -0.10033499102E+03  0.16580579704E+02 -0.59007082126E+02  0.11757491989E+03  0.00000000000E+00 0. -1.
<scales pt_clust_3="37.41770" pt_clust_4="14000.00000" pt_clust_5="46.05668" pt_clust_6="98.09831"></scales>
<clustering>
<clus scale="   37.418">  1  3  2 -1</clus>
<clus scale="   46.057">  1  5  2 -1</clus>
<clus scale="   98.098">  2  6  1 -1</clus>
<clus scale="   37.418">  1  3  2 -1</clus>
</clustering>
</event>
<event>
 6    0  0.2433432E+002  0.6238589E+02  0.7546771E-02  0.1388083E+00
         -1   -1    0    0    0  501 -0.00000000000E+00  0.00000000000E+00  0.13735143157E+04  0.13735143157E+04  0.00000000000E+00 0. -1.
         21   -1    0    0  503  502  0.00000000000E+00 -0.00000000000E+00 -0.13241548041E+04  0.13241548041E+04  0.00000000000E+00 0.  1.
         21    1    1    2  503  504 -0.49434274587E+02  0.14384352847E+02 -0.12941933460E+04  0.12952169988E+04  0.00000000000E+00 0.  1.
         21    1    1    2  504  501  0.28738130541E+02  0.52271023853E+02  0.47674359574E+02  0.76360884243E+02  0.00000000000E+00 0.  1.
         21    1    1    2  505  502  0.80534650357E+02 -0.49817177970E+02  0.14284570122E+03  0.17138400008E+03  0.00000000000E+00 0.  1.
         -1    1    1    2    0  505 -0.59838506311E+02 -0.16838198729E+02  0.11530327968E+04  0.11547072367E+04  0.00000000000E+00 0. -1.
<scales pt_clust_3="51.48453" pt_clust_4="59.45984" pt_clust_5="14000.00000" pt_clust_6="62.38589"></scales>
<clustering>
<clus scale="   51.485">  2  3  1 -1</clus>
<clus scale="   59.460">  2  4  1 -1</clus>
<clus scale="   62.386">  1  6  2 -1</clus>
<clus scale="   51.485">  2  3  1 -1</clus>
</clustering>
</event>
<event>
 6    0  0.2433432E+002  0.1636606E+03  0.7546771E-02  0.1184625E+00
          1   -1    0    0  505    0 -0.00000000000E+00  0.00000000000E+00  0.57378432021E+03  0.57378432021E+03  0.00000000000E+00 0. -1.
         21   -1    0    0  504  502  0.00000000000E+00 -0.00000000000E+00 -0.11894065530E+04  0.11894065530E+04  0.00000000000E+00 0.  1.
         21    1    1    2  503  502  0.10330252333E+02  0.16691297316E+03 -0.10290883443E+04  0.10425878741E+04  0.00000000000E+00 0.  1.
         21    1    1    2  504  501  0.10943038752E+03 -0.60987114126E+02 -0.59298949397E+02  0.13860304182E+03  0.00000000000E+00 0. -1.
         21    1    1    2  505  503 -0.59352828344E+02 -0.11650920655E+03  0.28891767892E+02  0.13390999849E+03  0.00000000000E+00 0.  1.
          1    1    1    2  501    0 -0.60407811510E+02  0.10583347515E+02  0.44387329303E+03  0.44808995883E+03  0.00000000000E+00 0. -1.
<scales pt_clust_3="14000.00000" pt_clust_4="107.48981" pt_clust_5="163.66065" pt_clust_6="61.32790"></scales>
<clustering>
<clus scale="   61.328">  1  6  2 -1</clus>
<clus scale="  107.490">  1  4  2 -1</clus>
<clus scale="  163.661">  1  5  2 -1</clus>
<clus scale="  163.661">  2  3  1 -1</clus>
</clustering>
</event>
<event>
 6    0  0.2433432E+002  0.7653101E+02  0.7546771E-02  0.1339194E+00
          2   -1    0    0  504    0 -0.00000000000E+00  0.00000000000E+00  0.37079854698E+03  0.37079854698E+03  0.00000000000E+00 0.  1.
         21   -1    0    0  505  502  0.00000000000E+00 -0.00000000000E+00 -0.10354209692E+04  0.10354209692E+04  0.00000000000E+00 0. -1.
         21    1    1    2  503  502  0.37337611673E+02  0.17474304003E+02 -0.16825149933E+03  0.17322821818E+03  0.00000000000E+00 0. -1.
         21    1    1    2  504  503  0.75500769761E+02  0.72174572573E+02 -0.14047448532E+03  0.17505032472E+03  0.00000000000E+00 0.  1.
         21    1    1    2  505  501 -0.86437416844E+02 -0.54685008134E+02 -0.70182998607E+03  0.70924410924E+03  0.00000000000E+00 0. -1.
          2    1    1    2  501    0 -0.26400964590E+02 -0.34963868442E+02  0.34593354849E+03  0.34869686405E+03  0.00000000000E+00 0.  1.
<scales pt_clust_3="41.22437" pt_clust_4="14000.00000" pt_clust_5="76.53101" pt_clust_6="43.75368"></scales>
<clustering>
<clus scale="   41.224">  2  3  1 -1</clus>
<clus scale="   43.754">  1  6  2 -1</clus>
<clus scale="   76.531">  2  5  1 -1</clus>
<clus scale="   41.224">  2  3  1 -1</clus>
</clustering>
</event>
<event>
 6    0  0.2963520E+002  0.1461244E+03  0.7546771E-02  0.1205318E+00
          1   -1    0    0  505    0 -0.00000000000E+00  0.00000000000E+00  0.13647943331E+04  0.13647943331E+04  0.00000000000E+00 0. -1.
         21   -1    0    0  504  502  0.00000000000E+00 -0.00000000000E+00 -0.98140481942E+03  0.98140481942E+03  0.00000000000E+00 0. -1.
         21    1    1    2  503  502  0.48343620442E+02  0.25088494992E+02  0.10817186334E+01  0.54476676969E+02  0.00000000000E+00 0. -1.
         21    1    1    2  504  501  0.11063977604E+03 -0.55622902408E+02 -0.80879706356E+03  0.81822231535E+03  0.00000000000E+00 0. -1.
         21    1    1    2  505  503 -0.12297963623E+03  0.74358413303E+02 -0.10384762386E+03  0.17730621404E+03  0.00000000000E+00 0.  1.
          1    1    1    2  501    0 -0.36003760248E+02 -0.43824005886E+02  0.12949524825E+04  0.12961939462E+04  0.00000000000E+00 0. -1.
<scales pt_clust_3="54.46594" pt_clust_4="146.12439" pt_clust_5="14000.00000" pt_clust_6="56.68441"></scales>
<clustering>
<clus scale="   54.466">  2  3  1 -1</clus>
<clus scale="   56.684">  1  6  2 -1</clus>
<clus scale="  146.124">  2  4  1 -1</clus>
<clus scale="   54.466">  2  3  1 -1</clus>
</clustering>
</event>
<event>
 6    0  0.2433432E+002  0.2369785E+03  0.7546771E-02  0.1121822E+00
         21   -1    0    0  503  502  0.00000000000E+00  0.00000000000E+00  0.78963654117E+02  0.78963654117E+02  0.00000000000E+00 0.  1.
          1   -1    0    0  505    0 -0.00000000000E+00 -0.00000000000E+00 -0.35438522048E+04  0.35438522048E+04  0.00000000000E+00 0.  1.
         21    1    1    2  503  504  0.67220423016E+02 -0.52542256232E+00 -0.62474944135E+02  0.91771346203E+02  0.00000000000E+00 0. -1.
         21    1    1    2  504  501  0.62908042608E+02 -0.21955012115E+03 -0.19689677147E+03  0.30154272689E+03  0.00000000000E+00 0.  1.
         21    1    1    2  505  502 -0.87136453918E+02  0.19254783527E+03 -0.94234999040E+03  0.96575925306E+03  0.00000000000E+00 0.  1.
          1    1    1    2  501    0 -0.42992011706E+02  0.27527708442E+02 -0.22631668447E+04  0.22637425328E+04  0.00000000000E+00 0.  1.
<scales pt_clust_3="64.64078" pt_clust_4="14000.00000" pt_clust_5="236.97850" pt_clust_6="51.04986"></scales>
<clustering>
<clus scale="   51.050">  2  6  1 -1</clus>
<clus scale="   64.641">  1  3  2 -1</clus>
<clus scale="  236.979">  2  5  1 -1</clus>
<clus scale="   64.641">  1  3  2 -1</clus>
</clustering>
</event>
<event>
 6    0  0.2433432E+002  0.1360576E+03  0.7546771E-02  0.1218734E+00
          1   -1    0    0  504    0 -0.00000000000E+00  0.00000000000E+00  0.13308329149E+04  0.13308329149E+04  0.00000000000E+00 0. -1.
         21   -1    0    0  505  502  0.00000000000E+00 -0.00000000000E+00 -0.40575720585E+03  0.40575720585E+03  0.00000000000E+00 0.  1.
         21    1    1    2  503  502  0.28688242867E+02 -0.15072532772E+02 -0.72458083639E+02  0.79374872646E+02  0.00000000000E+00 0.  1.
         21    1    1    2  504  503 -0.15504519347E+02  0.47089322841E+02 -0.18040351039E+02  0.52756503973E+02  0.00000000000E+00 0. -1.
         21    1    1    2  505  501 -0.86159750440E+02  0.83101427108E+02 -0.27854711112E+03  0.30317955554E+03  0.00000000000E+00 0.  1.
          1    1    1    2  501    0  0.72976026920E+02 -0.11511821718E+03  0.12941212549E+04  0.13012791886E+04  0.00000000000E+00 0. -1.
<scales pt_clust_3="32.40674" pt_clust_4="47.13892" pt_clust_5="136.05760" pt_clust_6="14000.00000"></scales>
<clustering>
<clus scale="   32.407">  2  3  1 -1</clus>
<clus scale="   47.139">  2  4  1 -1</clus>
<clus scale="  136.058">  2  5  1 -1</clus>
<clus scale="   32.407">  2  3  1 -1</clus>
</clustering>
</event>
<event>
 6    0  0.2433432E+002  0.1348554E+03  0.7546771E-02  0.1220424E+00
         21   -1    0    0  503  502  0.00000000000E+00  0.00000000000E+00  0.28343906422E+02  0.28343906422E+02  0.00000000000E+00 0.  1.
          1   -1    0    0  504    0 -0.00000000000E+00 -0.00000000000E+00 -0.46213218831E+04  0.46213218831E+04  0.00000000000E+00 0.  1.
         21    1    1    2  503  501 -0.21874750939E+01  0.11664001038E+03 -0.20588534141E+04  0.20621559247E+04  0.00000000000E+00 0.  1.
         21    1    1    2  504  505  0.46057381274E+02 -0.16015507213E+03 -0.11096511485E+04  0.11220947379E+04  0.00000000000E+00 0.  1.
         21    1    1    2  505  502 -0.11741943333E+02  0.32902634609E+02  0.52187146087E+01  0.35322677979E+02  0.00000000000E+00 0.  1.
          1    1    1    2  501    0 -0.32127962848E+02  0.10612427137E+02 -0.14296921287E+04  0.14300924489E+04  0.00000000000E+00 0.  1.
<scales pt_clust_3="14000.00000" pt_clust_4="134.85539" pt_clust_5="35.03333" pt_clust_6="33.83533"></scales>
<clustering>
<clus scale="   33.835">  2  6  1 -1</clus>
<clus scale="   35.033">  1  5  2 -1</clus>
<clus scale="  134.855">  1  4  2 -1</clus>
<clus scale="   35.033">  1  3  2 -1</clus>
</clustering>
</event>
<event>
 6    0  0.2433432E+002  0.8622708E+02  0.7546771E-02  0.1312254E+00
         21   -1    0    0  505  502  0.00000000000E+00  0.00000000000E+00  0.50768659622E+02  0.50768659622E+02  0.00000000000E+00 0. -1.
          2   -1    0    0  504    0 -0.00000000000E+00 -0.00000000000E+00 -0.13051680610E+04  0.13051680610E+04  0.00000000000E+00 0. -1.
         21    1    1    2  503  501 -0.19702135978E+01  0.57945164866E+02 -0.53295157425E+02  0.78752128085E+02  0.00000000000E+00 0. -1.
         21    1    1    2  504  502  0.32042193424E+02 -0.12394090793E+03 -0.55117282254E+03  0.56584408729E+03  0.00000000000E+00 0.  1.
         21    1    1    2  505  503  0.22664189146E+02  0.34574351934E+02  0.14702789379E+02  0.43877366567E+02  0.00000000000E+00 0. -1.
          2    1    1    2  501    0 -0.52736168972E+02  0.31421391129E+02 -0.66463421076E+03  0.66746313865E+03  0.00000000000E+00 0. -1.
<scales pt_clust_3="86.22708" pt_clust_4="14000.00000" pt_clust_5="41.34067" pt_clust_6="61.33093"></scales>
<clustering>
<clus scale="   41.341">  1  5  2 -1</clus>
<clus scale="   61.331">  2  6  1 -1</clus>
<clus scale="   86.227">  1  3  2 -1</clus>
<clus scale="   41.341">  1  3  2 -1</clus>
</clustering>
</event>
<event>
 6    0  0.2433432E+002  0.1109733E+03  0.7546771E-02  0.1258778E+00
         21   -1    0    0  504  502  0.00000000000E+00  0.00000000000E+00  0.17664058840E+03  0.17664058840E+03  0.00000000000E+00 0.  1.
         -3   -1    0    0    0  501 -0.00000000000E+00 -0.00000000000E+00 -0.53152237520E+03  0.53152237520E+03  0.00000000000E+00 0.  1.
         21    1    1    2  503  502  0.35099032551E+02 -0.93461482043E+02 -0.97485493244E+02  0.13953641856E+03  0.00000000000E+00 0.  1.
         21    1    1    2  504  505 -0.64144161507E+02 -0.43485726771E+01  0.18479402787E+02  0.66894483084E+02  0.00000000000E+00 0.  1.
         21    1    1    2  505  501  0.54921497223E+02  0.12220473179E+03  0.71961516234E+02  0.15208164632E+03  0.00000000000E+00 0.  1.
         -3    1    1    2    0  503 -0.25876368267E+02 -0.24394677073E+02 -0.34783721257E+03  0.34965041563E+03  0.00000000000E+00 0.  1.
<scales pt_clust_3="110.97326" pt_clust_4="67.99504" pt_clust_5="14000.00000" pt_clust_6="35.56243"></scales>
<clustering>
<clus scale="   35.562">  2  6  1 -1</clus>
<clus scale="   67.995">  1  4  2 -1</clus>
<clus scale="  110.973">  2  3  1 -1</clus>
<clus scale="   67.995">  1  3  2 -1</clus>
</clustering>
</event>
<event>
 6    0  0.2433432E+002  0.8244850E+02  0.7546771E-02  0.1322243E+00
         21   -1    0    0  503  502  0.00000000000E+00  0.00000000000E+00  0.13536476646E+04  0.13536476646E+04  0.00000000000E+00 0. -1.
         -3   -1    0    0    0  501 -0.00000000000E+00 -0.00000000000E+00 -0.10839802766E+04  0.10839802766E+04  0.00000000000E+00 0.  1.
         21    1    1    2  503  504  0.44749864332E+02 -0.66707158793E+02 -0.42798278630E+03  0.43545569323E+03  0.00000000000E+00 0.  1.
         21    1    1    2  504  501  0.13185252444E+02  0.33281358671E+02 -0.19700571131E+02  0.40860888633E+02  0.00000000000E+00 0. -1.
         21    1    1    2  505  502 -0.57705833129E+02 -0.58935513672E+02  0.13346220035E+04  0.13371683702E+04  0.00000000000E+00 0. -1.
         -3    1    1    2    0  505 -0.22928364717E+00  0.92361313794E+02 -0.61727125811E+03  0.62414298918E+03  0.00000000000E+00 0.  1.
<scales pt_clust_3="73.01907" pt_clust_4="35.79804" pt_clust_5="14000.00000" pt_clust_6="82.44850"></scales>
<clustering>
<clus scale="   35.798">  2  4  1 -1</clus>
<clus scale="   73.019">  2  3  1 -1</clus>
<clus scale="   82.448">  2  6  1 -1</clus>
<clus scale="   82.448">  1  3  2 -1</clus>
</clustering>
</event>
<event>
 6    0  0.2433432E+002  0.8702441E+02  0.7546771E-02  0.1310222E+00
         21   -1    0    0  503  502  0.00000000000E+00  0.00000000000E+00  0.11850528701E+03  0.11850528701E+03  0.00000000000E+00 0. -1.
          2   -1    0    0  505    0 -0.00000000000E+00 -0.00000000000E+00 -0.26589645543E+04  0.26589645543E+04  0.00000000000E+00 0.  1.
         21    1    1    2  503  504 -0.73338992563E+01 -0.65804505518E+02  0.78224007792E+02  0.10248421547E+03  0.00000000000E+00 0. -1.
         21    1    1    2  504  501 -0.42451029114E+02  0.73347726565E+02 -0.21126183187E+03  0.22762587830E+03  0.00000000000E+00 0. -1.
         21    1    1    2  505  502  0.86839730279E+02 -0.17921434748E+02 -0.79410679828E+02  0.11903097349E+03  0.00000000000E+00 0.  1.
          2    1    1    2  501    0 -0.37054801909E+02  0.10378213701E+02 -0.23280107634E+04  0.23283287741E+04  0.00000000000E+00 0.  1.
<scales pt_clust_3="65.99890" pt_clust_4="14000.00000" pt_clust_5="87.02441" pt_clust_6="38.48072"></scales>
<clustering>
<clus scale="   38.481">  2  6  1 -1</clus>
<clus scale="   65.999">  1  3  2 -1</clus>
<clus scale="   87.024">  1  5  2 -1</clus>
<clus scale="   65.999">  1  3  2 -1</clus>
</clustering>
</event>
<event>
 6    0  0.2433432E+002  0.1866670E+03  0.7546771E-02  0.1161502E+00
         21   -1    0    0  503  502  0.00000000000E+00  0.00000000000E+00  0.81206368470E+03  0.81206368470E+03  0.00000000000E+00 0.  1.
          2   -1    0    0  504    0 -0.00000000000E+00 -0.00000000000E+00 -0.85275253740E+03  0.85275253740E+03  0.00000000000E+00 0. -1.
         21    1    1    2  503  505 -0.23708613330E+02 -0.70352626795E+02  0.13645271399E+03  0.15534134542E+03  0.00000000000E+00 0. -1.
         21    1    1    2  504  502 -0.14537811356E+03  0.87656138670E+02  0.68668527060E+01  0.16989864100E+03  0.00000000000E+00 0. -1.
         21    1    1    2  505  501  0.18073211917E+03 -0.46312494223E+02  0.56238683042E+03  0.59252670239E+03  0.00000000000E+00 0.  1.
          2    1    1    2  501    0 -0.11645392279E+02  0.29008982347E+02 -0.74639524981E+03  0.74704953327E+03  0.00000000000E+00 0. -1.
<scales pt_clust_3="72.14542" pt_clust_4="186.66699" pt_clust_5="14000.00000" pt_clust_6="31.25918"></scales>
<clustering>
<clus scale="   31.259">  2  6  1 -1</clus>
<clus scale="   72.145">  1  3  2 -1</clus>
<clus scale="  186.667">  2  4  1 -1</clus>
<clus scale="   72.145">  1  3  2 -1</clus>
</clustering>
</event>
<event>
 6    0  0.2433432E+002  0.8339931E+02  0.7546771E-02  0.1319672E+00
         21   -1    0    0  501  502  0.00000000000E+00  0.00000000000E+00  0.72750605105E+03  0.72750605105E+03  0.00000000000E+00 0.  1.
          2   -1    0    0  505    0 -0.00000000000E+00 -0.00000000000E+00 -0.21357947135E+03  0.21357947135E+03  0.00000000000E+00 0. -1.
         21    1    1    2  503  502  0.35423001650E+02 -0.18602223539E+02  0.37203063535E+03  0.37417592841E+03  0.00000000000E+00 0.  1.
         21    1    1    2  504  503 -0.37846552408E+02 -0.42004789956E+02  0.24108316624E+03  0.24762442722E+03  0.00000000000E+00 0.  1.
         21    1    1    2  505  504 -0.72519227698E+02  0.18374000589E+02  0.86666248291E+02  0.11448878057E+03  0.00000000000E+00 0.  1.
          2    1    1    2  501    0  0.74942778456E+02  0.42233012906E+02 -0.18585347018E+03  0.20479638620E+03  0.00000000000E+00 0. -1.
<scales pt_clust_3="40.01040" pt_clust_4="56.44980" pt_clust_5="83.39931" pt_clust_6="14000.00000"></scales>
<clustering>
<clus scale="   40.010">  1  3  2 -1</clus>
<clus scale="   56.450">  1  4  2 -1</clus>
<clus scale="   83.399">  1  5  2 -1</clus>
<clus scale="   40.010">  1  3  2 -1</clus>
</clustering>
</event>
<event>
 6    0  0.2433432E+002  0.1220770E+03  0.7546771E-02  0.1239709E+00
         21   -1    0    0  504  502  0.00000000000E+00  0.00000000000E+00  0.89493789319E+02  0.89493789319E+02  0.00000000000E+00 0.  1.
          2   -1    0    0  503    0 -0.00000000000E+00 -0.00000000000E+00 -0.15769367169E+04  0.15769367169E+04  0.00000000000E+00 0. -1.
         21    1    1    2  503  502 -0.44588769478E+02  0.30187136301E+02 -0.11196354514E+03  0.12423870976E+03  0.00000000000E+00 0. -1.
         21    1    1    2  504  505 -0.64939834273E+02 -0.22903932729E+02  0.36105768658E+02  0.77752162287E+02  0.00000000000E+00 0.  1.
         21    1    1    2  505  501 -0.33054217467E+02 -0.34878105603E+02 -0.27419591170E+01  0.48130882837E+02  0.00000000000E+00 0.  1.
          2    1    1    2  501    0  0.14258282122E+03  0.27594902030E+02 -0.14088431919E+04  0.14163087513E+04  0.00000000000E+00 0. -1.
<scales pt_clust_3="53.84628" pt_clust_4="35.36051" pt_clust_5="35.36051" pt_clust_6="114.50328"></scales>
<clustering>
<clus scale="   35.361">  4  5 -1 -1</clus>
<clus scale="   53.846">  2  3  1 -1</clus>
<clus scale="  114.503">  2  6  1 -1</clus>
<clus scale="  122.077">  1  3  2 -1</clus>
</clustering>
</event>
<event>
 6    0  0.2433432E+002  0.7771604E+02  0.7546771E-02  0.1335661E+00
          2   -1    0    0  505    0 -0.00000000000E+00  0.00000000000E+00  0.89645166557E+02  0.89645166557E+02  0.00000000000E+00 0. -1.
         21   -1    0    0  503  502  0.00000000000E+00 -0.00000000000E+00 -0.36347656824E+03  0.36347656824E+03  0.00000000000E+00 0. -1.
         21    1    1    2  503  504 -0.39013647699E+02  0.21543306157E+02 -0.47494726879E+02  0.65130083896E+02  0.00000000000E+00 0. -1.
         21    1    1    2  504  501  0.97218685698E+02 -0.56350475794E+01 -0.70899878532E+02  0.12045754184E+03  0.00000000000E+00 0. -1.
         21    1    1    2  505  502 -0.33796245455E+02 -0.72752702851E+02 -0.18299837516E+03  0.19980877681E+03  0.00000000000E+00 0. -1.
          2    1    1    2  501    0 -0.24408792543E+02  0.56844444273E+02  0.27561578887E+02  0.67725332254E+02  0.00000000000E+00 0. -1.
<scales pt_clust_3="44.56657" pt_clust_4="14000.00000" pt_clust_5="77.71604" pt_clust_6="64.18888"></scales>
<clustering>
<clus scale="   44.567">  2  3  1 -1</clus>
<clus scale="   64.189">  1  6  2 -1</clus>
<clus scale="   77.716">  2  5  1 -1</clus>
<clus scale="   44.567">  2  3  1 -1</clus>
</clustering>
</event>
<event>
 6    0  0.2433432E+002  0.1107465E+03  0.7546771E-02  0.1259194E+00
          2   -1    0    0  502    0 -0.00000000000E+00  0.00000000000E+00  0.58794001624E+03  0.58794001624E+03  0.00000000000E+00 0. -1.
         21   -1    0    0  503  502  0.00000000000E+00 -0.00000000000E+00 -0.68616315099E+03  0.68616315099E+03  0.00000000000E+00 0.  1.
         21    1    1    2  503  504  0.15296583726E+02 -0.27054723440E+02 -0.57481332133E+03  0.57565293182E+03  0.00000000000E+00 0.  1.
         21    1    1    2  504  505  0.21995681901E+02  0.35937023860E+02 -0.98384364548E+01  0.43267476678E+02  0.00000000000E+00 0. -1.
         21    1    1    2  505  501 -0.53325457127E+02  0.10090262749E+03 -0.37116350250E+02  0.12001069980E+03  0.00000000000E+00 0. -1.
          2    1    1    2  501    0  0.16033191500E+02 -0.10978492790E+03  0.52354497327E+03  0.53517205894E+03  0.00000000000E+00 0. -1.
<scales pt_clust_3="31.07963" pt_clust_4="39.06715" pt_clust_5="110.74650" pt_clust_6="14000.00000"></scales>
<clustering>
<clus scale="   31.080">  2  3  1 -1</clus>
<clus scale="   39.067">  2  4  1 -1</clus>
<clus scale="  110.747">  2  5  1 -1</clus>
<clus scale="   31.080">  2  3  1 -1</clus>
</clustering>
</event>
<event>
 6    0  0.2433432E+002  0.1722191E+03  0.7546771E-02  0.1175553E+00
          2   -1    0    0  503    0 -0.00000000000E+00  0.00000000000E+00  0.15210535600E+04  0.15210535600E+04  0.00000000000E+00 0. -1.
         21   -1    0    0  504  502  0.00000000000E+00 -0.00000000000E+00 -0.46198945109E+03  0.46198945109E+03  0.00000000000E+00 0. -1.
         21    1    1    2  503  505 -0.41942065236E+01  0.47555316050E+02  0.36983709856E+02  0.60389521008E+02  0.00000000000E+00 0. -1.
         21    1    1    2  504  501 -0.34634185495E+02 -0.15987558326E+03 -0.37402356150E+03  0.40823198488E+03  0.00000000000E+00 0. -1.
         21    1    1    2  505  502 -0.18788936705E+01  0.11408012114E+03 -0.35730844991E+01  0.11415152743E+03  0.00000000000E+00 0. -1.
          2    1    1    2  501    0  0.40707285689E+02 -0.17598539347E+01  0.13996770450E+04  0.14002699778E+04  0.00000000000E+00 0. -1.
<scales pt_clust_3="36.50809" pt_clust_4="162.70840" pt_clust_5="36.50809" pt_clust_6="40.74531"></scales>
<clustering>
<clus scale="   36.508">  3  5 -1 -1</clus>
<clus scale="   40.745">  1  6  2 -1</clus>
<clus scale="  162.708">  2  4  1 -1</clus>
<clus scale="  162.708">  2  3  1 -1</clus>
</clustering>
</event>
<event>
 6    0  0.2433432E+002  0.9789367E+02  0.7546771E-02  0.1284789E+00
         21   -1    0    0  504  502  0.00000000000E+00  0.00000000000E+00  0.46974412520E+02  0.46974412520E+02  0.00000000000E+00 0.  1.
          2   -1    0    0  503    0 -0.00000000000E+00 -0.00000000000E+00 -0.42368938107E+04  0.42368938107E+04  0.00000000000E+00 0.  1.
         21    1    1    2  503  505 -0.30262596462E+02  0.93966992032E+02 -0.13716526464E+03  0.16899683477E+03  0.00000000000E+00 0.  1.
         21    1    1    2  504  501 -0.98299678930E+02 -0.55385871244E+02 -0.97420754353E+02  0.14906785364E+03  0.00000000000E+00 0.  1.
         21    1    1    2  505  502  0.34203203932E+02 -0.10898964069E+02 -0.65212910040E+02  0.74440380257E+02  0.00000000000E+00 0.  1.
          2    1    1    2  501    0  0.94359071460E+02 -0.27682156719E+02 -0.38901204691E+04  0.38913631545E+04  0.00000000000E+00 0.  1.
<scales pt_clust_3="91.54316" pt_clust_4="97.89367" pt_clust_5="35.89772" pt_clust_6="14000.00000"></scales>
<clustering>
<clus scale="   35.898">  1  5  2 -1</clus>
<clus scale="   91.543">  1  3  2 -1</clus>
<clus scale="   97.894">  1  4  2 -1</clus>
<clus scale="   35.898">  1  3  2 -1</clus>
</clustering>
</event>
<event>
 6    0  0.2433432E+002  0.1627217E+03  0.7546771E-02  0.1185658E+00
          2   -1    0    0  505    0 -0.00000000000E+00  0.00000000000E+00  0.17032675068E+04  0.17032675068E+04  0.00000000000E+00 0. -1.
         21   -1    0    0  503  502  0.00000000000E+00 -0.00000000000E+00 -0.86998656199E+03  0.86998656199E+03  0.00000000000E+00 0. -1.
         21    1    1    2  503  504 -0.87562198316E+02 -0.23439304923E+02 -0.51019240273E+03  0.51818223376E+03  0.00000000000E+00 0. -1.
         21    1    1    2  504  501 -0.69332471818E+02  0.14519975386E+02 -0.31862888500E+03  0.32640800800E+03  0.00000000000E+00 0. -1.
         21    1    1    2  505  502 -0.57604014749E+02 -0.46058985689E+02  0.26852941781E+02  0.78490338005E+02  0.00000000000E+00 0. -1.
          2    1    1    2  501    0  0.21449868488E+03  0.54978315226E+02  0.16352492908E+04  0.16501734891E+04  0.00000000000E+00 0. -1.
<scales pt_clust_3="36.36767" pt_clust_4="36.36767" pt_clust_5="73.75400" pt_clust_6="157.43533"></scales>
<clustering>
<clus scale="   36.368">  3  4 -1 -1</clus>
<clus scale="   73.754">  1  5  2 -1</clus>
<clus scale="  157.435">  1  6  2 -1</clus>
<clus scale="  162.722">  2  3  1 -1</clus>
</clustering>
</event>
<event>
 6    0  0.2433432E+002  0.1018056E+03  0.7546771E-02  0.1276544E+00
          2   -1    0    0  505    0 -0.00000000000E+00  0.00000000000E+00  0.29472144426E+04  0.29472144426E+04  0.00000000000E+00 0.  1.
         21   -1    0    0  504  502  0.00000000000E+00 -0.00000000000E+00 -0.68636764792E+02  0.68636764792E+02  0.00000000000E+00 0.  1.
         21    1    1    2  503  501  0.21065661270E+02  0.94277069252E+02  0.55536134155E+03  0.56370040586E+03  0.00000000000E+00 0.  1.
         21    1    1    2  504  503  0.40346371450E+02 -0.96892542606E+02 -0.47813088651E+01  0.10506595746E+03  0.00000000000E+00 0.  1.
         21    1    1    2  505  502 -0.93729882004E+02  0.47237578003E+02  0.29113899285E+03  0.30948116698E+03  0.00000000000E+00 0.  1.
          2    1    1    2  501    0  0.32317849284E+02 -0.44622104648E+02  0.20368586523E+04  0.20376036771E+04  0.00000000000E+00 0.  1.
<scales pt_clust_3="78.37998" pt_clust_4="101.80562" pt_clust_5="14000.00000" pt_clust_6="55.09606"></scales>
<clustering>
<clus scale="   55.096">  1  6  2 -1</clus>
<clus scale="   78.380">  1  3  2 -1</clus>
<clus scale="  101.806">  2  4  1 -1</clus>
<clus scale="  101.806">  2  3  1 -1</clus>
</clustering>
</event>
<event>
 6    0  0.2433432E+002  0.9454279E+02  0.7546771E-02  0.1292209E+00
          1   -1    0    0  505    0 -0.00000000000E+00  0.00000000000E+00  0.10095725925E+04  0.10095725925E+04  0.00000000000E+00 0. -1.
         21   -1    0    0  503  502  0.00000000000E+00 -0.00000000000E+00 -0.18923729897E+03  0.18923729897E+03  0.00000000000E+00 0.  1.
         21    1    1    2  503  501 -0.61599847926E+02 -0.20944923070E+02  0.15820846474E+03  0.17106475201E+03  0.00000000000E+00 0. -1.
         21    1    1    2  504  502  0.13720816484E+02 -0.70630053444E+02 -0.98700643581E+02  0.12214205786E+03  0.00000000000E+00 0.  1.
         21    1    1    2  505  504  0.61814478896E+02  0.13960191240E+03  0.98823608988E+01  0.15299472149E+03  0.00000000000E+00 0.  1.
          1    1    1    2  501    0 -0.13935447454E+02 -0.48026935888E+02  0.75094511144E+03  0.75260836008E+03  0.00000000000E+00 0. -1.
<scales pt_clust_3="14000.00000" pt_clust_4="73.98038" pt_clust_5="94.54279" pt_clust_6="50.00783"></scales>
<clustering>
<clus scale="   50.008">  1  6  2 -1</clus>
<clus scale="   73.980">  2  4  1 -1</clus>
<clus scale="   94.543">  2  5  1 -1</clus>
<clus scale="   73.980">  2  3  1 -1</clus>
</clustering>
</event>
<event>
 6    0  0.2433432E+002  0.1235032E+03  0.7546771E-02  0.1237427E+00
         21   -1    0    0  505  502  0.00000000000E+00  0.00000000000E+00  0.55056776656E+03  0.55056776656E+03  0.00000000000E+00 0.  1.
          2   -1    0    0  503    0 -0.00000000000E+00 -0.00000000000E+00 -0.22652632291E+04  0.22652632291E+04  0.00000000000E+00 0. -1.
         21    1    1    2  503  504 -0.80065474824E+02  0.12274906347E+03 -0.94765333294E+02  0.17452301062E+03  0.00000000000E+00 0. -1.
         21    1    1    2  504  502  0.25839024683E+01 -0.12718893655E+03  0.40496655090E+03  0.42447804358E+03  0.00000000000E+00 0.  1.
         21    1    1    2  505  501  0.41104303470E+02  0.13766921878E+02  0.90896319897E+02  0.10070368848E+03  0.00000000000E+00 0. -1.
          2    1    1    2  501    0  0.36377268886E+02 -0.93270487971E+01 -0.21157930001E+04  0.21161262530E+04  0.00000000000E+00 0. -1.
<scales pt_clust_3="123.50324" pt_clust_4="14000.00000" pt_clust_5="44.38917" pt_clust_6="37.55395"></scales>
<clustering>
<clus scale="   37.554">  2  6  1 -1</clus>
<clus scale="   44.389">  1  5  2 -1</clus>
<clus scale="  123.503">  2  3  1 -1</clus>
<clus scale="   44.389">  1  3  2 -1</clus>
</clustering>
</event>
<event>
 6    0  0.2433432E+002  0.1606142E+03  0.7546771E-02  0.1188005E+00
          2   -1    0    0  505    0 -0.00000000000E+00  0.00000000000E+00  0.20638551040E+04  0.20638551040E+04  0.00000000000E+00 0.  1.
         21   -1    0    0  503  502  0.00000000000E+00 -0.00000000000E+00 -0.24548937689E+03  0.24548937689E+03  0.00000000000E+00 0. -1.
         21    1    1    2  503  504  0.27688688040E+02 -0.36047992053E+02 -0.39634003829E+02  0.60307341477E+02  0.00000000000E+00 0. -1.
         21    1    1    2  504  501 -0.11872177802E+03 -0.79234923523E+02 -0.15056207626E+03  0.20746559351E+03  0.00000000000E+00 0. -1.
         21    1    1    2  505  502  0.29024026515E+02 -0.33701118927E+02  0.24151982166E+02  0.50611043999E+02  0.00000000000E+00 0.  1.
          2    1    1    2  501    0  0.62009063464E+02  0.14898403450E+03  0.19844098250E+04  0.19909605019E+04  0.00000000000E+00 0.  1.
<scales pt_clust_3="55.01133" pt_clust_4="14000.00000" pt_clust_5="44.47651" pt_clust_6="160.61421"></scales>
<clustering>
<clus scale="   44.477">  2  5  1 -1</clus>
<clus scale="   55.011">  2  3  1 -1</clus>
<clus scale="  160.614">  1  6  2 -1</clus>
<clus scale="   44.477">  2  3  1 -1</clus>
</clustering>
</event>
<event>
 6    0  0.2433432E+002  0.9314396E+02  0.7546771E-02  0.1295412E+00
          2   -1    0    0  502    0 -0.00000000000E+00  0.00000000000E+00  0.94603657953E+03  0.94603657953E+03  0.00000000000E+00 0.  1.
         21   -1    0    0  504  502  0.00000000000E+00 -0.00000000000E+00 -0.22149548436E+04  0.22149548436E+04  0.00000000000E+00 0.  1.
         21    1    1    2  503  505  0.27866796383E+02 -0.60639081143E+02 -0.33438122573E+03  0.34097574785E+03  0.00000000000E+00 0. -1.
         21    1    1    2  504  503 -0.17505496209E+02  0.10524154991E+03 -0.17965069478E+04  0.17996720367E+04  0.00000000000E+00 0.  1.
         21    1    1    2  505  501 -0.53877383912E+02 -0.53022579128E+02 -0.60492574215E+02  0.96816929975E+02  0.00000000000E+00 0. -1.
          2    1    1    2  501    0  0.43516083738E+02  0.84201103639E+01  0.92246248364E+03  0.92352670862E+03  0.00000000000E+00 0.  1.
<scales pt_clust_3="93.14396" pt_clust_4="14000.00000" pt_clust_5="50.34772" pt_clust_6="44.32322"></scales>
<clustering>
<clus scale="   44.323">  1  6  2 -1</clus>
<clus scale="   50.348">  1  5  2 -1</clus>
<clus scale="   93.144">  1  3  2 -1</clus>
<clus scale="   93.144">  2  3  1 -1</clus>
</clustering>
</event>
<event>
 6    0  0.2433432E+002  0.8726781E+02  0.7546771E-02  0.1309606E+00
          1   -1    0    0  503    0 -0.00000000000E+00  0.00000000000E+00  0.43948448952E+04  0.43948448952E+04  0.00000000000E+00 0. -1.
         21   -1    0    0  501  502  0.00000000000E+00 -0.00000000000E+00 -0.26667732358E+03  0.26667732358E+03  0.00000000000E+00 0. -1.
         21    1    1    2  503  505  0.35138933987E+02  0.68130877963E+02 -0.65404617506E+01  0.76937239707E+02  0.00000000000E+00 0. -1.
         21    1    1    2  504  502  0.32050745921E+02 -0.50610943979E+02 -0.10691487154E+03  0.12255410120E+03  0.00000000000E+00 0. -1.
         21    1    1    2  505  504 -0.57057389843E+02  0.69322340656E+02 -0.91402669464E+02  0.12812330247E+03  0.00000000000E+00 0. -1.
          1    1    1    2  501    0 -0.10132290065E+02 -0.86842274640E+02  0.43330255743E+04  0.43339075754E+04  0.00000000000E+00 0. -1.
<scales pt_clust_3="87.26781" pt_clust_4="59.90591" pt_clust_5="47.14635" pt_clust_6="14000.00000"></scales>
<clustering>
<clus scale="   59.906">  2  4  1 -1</clus>
<clus scale="   47.146">  2  5  1 -1</clus>
<clus scale="   87.268">  2  3  1 -1</clus>
<clus scale="   59.906">  2  3  1 -1</clus>
</clustering>
</event>
<event>
 6    0  0.2433432E+002  0.1792764E+03  0.7546771E-02  0.1168505E+00
          2   -1    0    0  503    0 -0.00000000000E+00  0.00000000000E+00  0.13957188743E+04  0.13957188743E+04  0.00000000000E+00 0.  1.
         21   -1    0    0  501  502  0.00000000000E+00 -0.00000000000E+00 -0.12468571443E+03  0.12468571443E+03  0.00000000000E+00 0. -1.
         21    1    1    2  503  504  0.10850248325E+01 -0.33706363895E+02  0.82361953114E+02  0.88998806547E+02  0.00000000000E+00 0.  1.
         21    1    1    2  504  505 -0.69023522769E+02  0.69457254545E+02 -0.55695365282E+02  0.11265225527E+03  0.00000000000E+00 0. -1.
         21    1    1    2  505  502 -0.73609262535E+01  0.73741998705E+02  0.71852241677E+01  0.74455980650E+02  0.00000000000E+00 0. -1.
          2    1    1    2  501    0  0.75299424190E+02 -0.10949288936E+03  0.12371813478E+04  0.12442975462E+04  0.00000000000E+00 0.  1.
<scales pt_clust_3="33.72382" pt_clust_4="68.83360" pt_clust_5="68.83360" pt_clust_6="160.69963"></scales>
<clustering>
<clus scale="   33.724">  1  3  2 -1</clus>
<clus scale="   68.834">  4  5 -1 -1</clus>
<clus scale="  160.700">  1  6  2 -1</clus>
<clus scale="  179.276">  2  3  1 -1</clus>
</clustering>
</event>
<event>
 6    0  0.2433432E+002  0.9969025E+02  0.7546771E-02  0.1280949E+00
          2   -1    0    0  503    0 -0.00000000000E+00  0.00000000000E+00  0.19964875942E+04  0.19964875942E+04  0.00000000000E+00 0. -1.
         21   -1    0    0  504  502  0.00000000000E+00 -0.00000000000E+00 -0.28413017143E+02  0.28413017143E+02  0.00000000000E+00 0.  1.
         21    1    1    2  503  502  0.85121446813E+02 -0.49231980082E+02  0.52741730929E+03  0.53650579373E+03  0.00000000000E+00 0. -1.
         21    1    1    2  504  505 -0.92720722940E+02  0.37934304690E+02  0.10427234017E+03  0.14459897945E+03  0.00000000000E+00 0.  1.
         21    1    1    2  505  501 -0.18956564037E+02  0.30702223168E+02  0.89815161897E+02  0.96792257614E+02  0.00000000000E+00 0.  1.
          2    1    1    2  501    0  0.26555840164E+02 -0.19404547776E+02  0.12465697657E+04  0.12470035806E+04  0.00000000000E+00 0. -1.
<scales pt_clust_3="99.69025" pt_clust_4="14000.00000" pt_clust_5="32.32862" pt_clust_6="32.88995"></scales>
<clustering>
<clus scale="   32.890">  1  6  2 -1</clus>
<clus scale="   32.329">  1  5  2 -1</clus>
<clus scale="   99.690">  1  3  2 -1</clus>
<clus scale="   99.690">  2  3  1 -1</clus>
</clustering>
</event>
<event>
 6    0  0.2433432E+002  0.1068404E+03  0.7546771E-02  0.1266535E+00
         21   -1    0    0  504  502  0.00000000000E+00  0.00000000000E+00  0.13257420884E+02  0.13257420884E+02  0.00000000000E+00 0.  1.
          2   -1    0    0  505    0 -0.00000000000E+00 -0.00000000000E+00 -0.38069309120E+04  0.38069309120E+04  0.00000000000E+00 0.  1.
         21    1    1    2  503  502  0.27862417833E+02 -0.47101546719E+02 -0.14865875103E+03  0.15841178708E+03  0.00000000000E+00 0.  1.
         21    1    1    2  504  501  0.60297789923E+02  0.11238750306E+03 -0.57513632547E+03  0.58910828138E+03  0.00000000000E+00 0.  1.
         21    1    1    2  505  503 -0.35164021219E+02  0.72048190249E+01 -0.53682820233E+03  0.53802689210E+03  0.00000000000E+00 0.  1.
          2    1    1    2  501    0 -0.52996186538E+02 -0.72490775367E+02 -0.25330502123E+04  0.25346413724E+04  0.00000000000E+00 0.  1.
<scales pt_clust_3="53.60803" pt_clust_4="106.84042" pt_clust_5="35.89454" pt_clust_6="14000.00000"></scales>
<clustering>
<clus scale="   35.895">  2  5  1 -1</clus>
<clus scale="   53.608">  1  3  2 -1</clus>
<clus scale="  106.840">  1  4  2 -1</clus>
<clus scale="   53.608">  1  3  2 -1</clus>
</clustering>
</event>
<event>
 6    0  0.2433432E+002  0.8530791E+02  0.7546771E-02  0.1314629E+00
          1   -1    0    0  504    0 -0.00000000000E+00  0.00000000000E+00  0.14806507310E+04  0.14806507310E+04  0.00000000000E+00 0.  1.
         21   -1    0    0  503  502  0.00000000000E+00 -0.00000000000E+00 -0.23188007243E+02  0.23188007243E+02  0.00000000000E+00 0. -1.
         21    1    1    2  503  501 -0.72790528451E+01  0.43335603893E+02  0.46589023000E+02  0.64042924973E+02  0.00000000000E+00 0. -1.
         21    1    1    2  504  505 -0.27106090486E+02  0.50629430469E+02  0.29861027212E+03  0.30408251181E+03  0.00000000000E+00 0. -1.
         21    1    1    2  505  502 -0.43950525621E+02 -0.82268018964E+00  0.50310622671E+02  0.66809312664E+02  0.00000000000E+00 0. -1.
          1    1    1    2  501    0  0.78335668952E+02 -0.93142354173E+02  0.10619528059E+04  0.10689039887E+04  0.00000000000E+00 0.  1.
<scales pt_clust_3="43.94268" pt_clust_4="85.30791" pt_clust_5="53.71231" pt_clust_6="14000.00000"></scales>
<clustering>
<clus scale="   43.943">  2  3  1 -1</clus>
<clus scale="   53.712">  2  5  1 -1</clus>
<clus scale="   85.308">  1  4  2 -1</clus>
<clus scale="   43.943">  2  3  1 -1</clus>
</clustering>
</event>
<event>
 6    0  0.2433432E+002  0.3994056E+03  0.7546771E-02  0.1043986E+00
         21   -1    0    0  505  502  0.00000000000E+00  0.00000000000E+00  0.22599219790E+03  0.22599219790E+03  0.00000000000E+00 0.  1.
          2   -1    0    0  504    0 -0.00000000000E+00 -0.00000000000E+00 -0.34716982117E+04  0.34716982117E+04  0.00000000000E+00 0. -1.
         21    1    1    2  503  501  0.10640694439E+02 -0.37075316700E+03 -0.14610192020E+04  0.15073646685E+04  0.00000000000E+00 0.  1.
         21    1    1    2  504  502  0.58647477342E+02  0.38809073898E+03 -0.66921175716E+01  0.39255411438E+03  0.00000000000E+00 0.  1.
         21    1    1    2  505  503  0.55734316278E+02  0.67458094956E+01 -0.97864442711E+02  0.11282406261E+03  0.00000000000E+00 0.  1.
          2    1    1    2  501    0 -0.12502248806E+03 -0.24083381471E+02 -0.16801302515E+04  0.16849475641E+04  0.00000000000E+00 0. -1.
<scales pt_clust_3="399.40559" pt_clust_4="14000.00000" pt_clust_5="56.14107" pt_clust_6="126.70365"></scales>
<clustering>
<clus scale="   56.141">  1  5  2 -1</clus>
<clus scale="  126.704">  2  6  1 -1</clus>
<clus scale="  399.406">  2  3  1 -1</clus>
<clus scale="   56.141">  1  3  2 -1</clus>
</clustering>
</event>
<event>
 6    0  0.2433432E+002  0.8207604E+02  0.7546771E-02  0.1323261E+00
         21   -1    0    0  505  502  0.00000000000E+00  0.00000000000E+00  0.33566020491E+03  0.33566020491E+03  0.00000000000E+00 0.  1.
          1   -1    0    0  504    0 -0.00000000000E+00 -0.00000000000E+00 -0.49786849796E+03  0.49786849796E+03  0.00000000000E+00 0.  1.
         21    1    1    2  503  502 -0.85944091621E+02 -0.21110960386E+02  0.15372743362E+03  0.17738146290E+03  0.00000000000E+00 0.  1.
         21    1    1    2  504  503  0.41499717063E+02 -0.46730856598E+02 -0.67796666252E+01  0.62864643117E+02  0.00000000000E+00 0. -1.
         21    1    1    2  505  501  0.26026385936E+02  0.10372188358E+03  0.12086098315E+03  0.16137837261E+03  0.00000000000E+00 0.  1.
          1    1    1    2  501    0  0.18417988622E+02 -0.35880066597E+02 -0.43001704320E+03  0.43190422425E+03  0.00000000000E+00 0.  1.
<scales pt_clust_3="14000.00000" pt_clust_4="82.99082" pt_clust_5="82.07604" pt_clust_6="40.33115"></scales>
<clustering>
<clus scale="   40.331">  2  6  1 -1</clus>
<clus scale="   82.991">  2  4  1 -1</clus>
<clus scale="   82.076">  2  5  1 -1</clus>
<clus scale="   82.076">  1  3  2 -1</clus>
</clustering>
</event>
<event>
 6    0  0.2433432E+002  0.1533921E+03  0.7546771E-02  0.1196366E+00
          2   -1    0    0  504    0 -0.00000000000E+00  0.00000000000E+00  0.31446863327E+04  0.31446863327E+04  0.00000000000E+00 0.  1.
         21   -1    0    0  503  502  0.00000000000E+00 -0.00000000000E+00 -0.20486109506E+03  0.20486109506E+03  0.00000000000E+00 0.  1.
         21    1    1    2  503  505  0.72493935097E+02 -0.10338804399E+01 -0.76690193996E+02  0.10553589621E+03  0.00000000000E+00 0. -1.
         21    1    1    2  504  502 -0.16833455082E+02  0.30154903634E+02  0.10935015739E+02  0.36225101689E+02  0.00000000000E+00 0.  1.
         21    1    1    2  505  501  0.72944450272E+02  0.42859938772E+02 -0.81332266204E+02  0.11735759329E+03  0.00000000000E+00 0.  1.
          2    1    1    2  501    0 -0.12860493029E+03 -0.71980961966E+02  0.30869126821E+04  0.30904288365E+04  0.00000000000E+00 0.  1.
<scales pt_clust_3="37.03500" pt_clust_4="34.53525" pt_clust_5="37.03500" pt_clust_6="147.37870"></scales>
<clustering>
<clus scale="   34.535">  2  4  1 -1</clus>
<clus scale="   37.035">  3  5 -1 -1</clus>
<clus scale="  147.379">  1  6  2 -1</clus>
<clus scale="   34.535">  2  3  1 -1</clus>
</clustering>
</event>
<event>
 6    0  0.2433432E+002  0.1180685E+03  0.7546771E-02  0.1246318E+00
          2   -1    0    0  505    0 -0.00000000000E+00  0.00000000000E+00  0.13102370006E+04  0.13102370006E+04  0.00000000000E+00 0.  1.
         21   -1    0    0  503  502  0.00000000000E+00 -0.00000000000E+00 -0.10182360838E+03  0.10182360838E+03  0.00000000000E+00 0. -1.
         21    1    1    2  503  501  0.11612863631E+03 -0.39188317302E+02 -0.51250042106E+02  0.13284634432E+03  0.00000000000E+00 0. -1.
         21    1    1    2  504  502 -0.74997271557E+02  0.37844149312E+02  0.31070547728E+03  0.32186124959E+03  0.00000000000E+00 0. -1.
         21    1    1    2  505  504  0.37125752570E+00  0.44750442354E+02  0.16082668684E+03  0.16693700346E+03  0.00000000000E+00 0.  1.
          2    1    1    2  501    0 -0.41502622280E+02 -0.43406274364E+02  0.78813127017E+03  0.79041601156E+03  0.00000000000E+00 0.  1.
<scales pt_clust_3="14000.00000" pt_clust_4="118.06852" pt_clust_5="44.75198" pt_clust_6="43.12722"></scales>
<clustering>
<clus scale="   44.752">  1  5  2 -1</clus>
<clus scale="   43.127">  1  6  2 -1</clus>
<clus scale="  118.069">  1  4  2 -1</clus>
<clus scale="  118.069">  2  3  1 -1</clus>
</clustering>
</event>
<event>
 6    0  0.2433432E+002  0.1463394E+03  0.7546771E-02  0.1205045E+00
          2   -1    0    0  505    0 -0.00000000000E+00  0.00000000000E+00  0.28310570172E+04  0.28310570172E+04  0.00000000000E+00 0. -1.
         21   -1    0    0  503  502  0.00000000000E+00 -0.00000000000E+00 -0.81445958100E+02  0.81445958100E+02  0.00000000000E+00 0.  1.
         21    1    1    2  503  501 -0.52207206134E+00  0.37060671311E+02  0.38203469961E+02  0.53228479542E+02  0.00000000000E+00 0.  1.
         21    1    1    2  504  502  0.82546291967E+02 -0.15513097837E+02 -0.35607387842E+01  0.84066791200E+02  0.00000000000E+00 0.  1.
         21    1    1    2  505  504  0.32504160748E+02  0.40197208435E+02 -0.51761975980E+01  0.51953142864E+02  0.00000000000E+00 0.  1.
          2    1    1    2  501    0 -0.11452838065E+03 -0.61744781909E+02  0.27201445255E+04  0.27232545617E+04  0.00000000000E+00 0. -1.
<scales pt_clust_3="37.06435" pt_clust_4="59.30994" pt_clust_5="59.30994" pt_clust_6="129.75374"></scales>
<clustering>
<clus scale="   37.064">  2  3  1 -1</clus>
<clus scale="   59.310">  4  5 -1 -1</clus>
<clus scale="  129.754">  1  6  2 -1</clus>
<clus scale="   37.064">  2  3  1 -1</clus>
</clustering>
</event>
<event>
 6    0  0.2433432E+002  0.7425571E+02  0.7546771E-02  0.1346191E+00
         21   -1    0    0  501  502  0.00000000000E+00  0.00000000000E+00  0.40279874587E+02  0.40279874587E+02  0.00000000000E+00 0. -1.
          2   -1    0    0  503    0 -0.00000000000E+00 -0.00000000000E+00 -0.20776227977E+04  0.20776227977E+04  0.00000000000E+00 0.  1.
         21    1    1    2  503  505 -0.91226701397E+02  0.50419187527E+02 -0.37831991046E+03  0.39241605494E+03  0.00000000000E+00 0. -1.
         21    1    1    2  504  502  0.92666039892E+01 -0.78986500147E+02 -0.37715718323E+02  0.88018251309E+02  0.00000000000E+00 0. -1.
         21    1    1    2  505  504  0.44776254935E+02  0.59968359819E+02 -0.17486457803E+03  0.19020709197E+03  0.00000000000E+00 0. -1.
          2    1    1    2  501    0  0.37183842473E+02 -0.31401047199E+02 -0.14464427163E+04  0.14472612741E+04  0.00000000000E+00 0.  1.
<scales pt_clust_3="75.29368" pt_clust_4="74.25571" pt_clust_5="14000.00000" pt_clust_6="48.66892"></scales>
<clustering>
<clus scale="   48.669">  2  6  1 -1</clus>
<clus scale="   75.294">  2  3  1 -1</clus>
<clus scale="   74.256">  1  4  2 -1</clus>
<clus scale="   74.256">  1  3  2 -1</clus>
</clustering>
</event>
<event>
 6    0  0.2433432E+002  0.2256127E+03  0.7546771E-02  0.1129766E+00
         21   -1    0    0  505  502  0.00000000000E+00  0.00000000000E+00  0.55026146139E+02  0.55026146139E+02  0.00000000000E+00 0. -1.
          2   -1    0    0  503    0 -0.00000000000E+00 -0.00000000000E+00 -0.20597841136E+04  0.20597841136E+04  0.00000000000E+00 0. -1.
         21    1    1    2  503  502  0.37744790637E+02 -0.17701067880E+03 -0.66520148029E+03  0.68938411572E+03  0.00000000000E+00 0. -1.
         21    1    1    2  504  501 -0.15188874737E+02  0.17382763658E+03 -0.27131427964E+03  0.32258051319E+03  0.00000000000E+00 0. -1.
         21    1    1    2  505  504  0.74357366640E+01  0.62088245803E+02 -0.43971664696E+02  0.76444409493E+02  0.00000000000E+00 0. -1.
          2    1    1    2  501    0 -0.29991652564E+02 -0.58905203589E+02 -0.10242705428E+04  0.10264012213E+04  0.00000000000E+00 0. -1.
<scales pt_clust_3="216.33735" pt_clust_4="38.32814" pt_clust_5="38.32814" pt_clust_6="66.10085"></scales>
<clustering>
<clus scale="   38.328">  4  5 -1 -1</clus>
<clus scale="   66.101">  2  6  1 -1</clus>
<clus scale="  216.337">  2  3  1 -1</clus>
<clus scale="  225.613">  1  3  2 -1</clus>
</clustering>
</event>
<event>
 6    0  0.2433432E+002  0.1069240E+03  0.7546771E-02  0.1266374E+00
          3   -1    0    0  502    0 -0.00000000000E+00  0.00000000000E+00  0.62245543836E+02  0.62245543836E+02  0.00000000000E+00 0.  1.
         21   -1    0    0  504  502  0.00000000000E+00 -0.00000000000E+00 -0.16717526166E+04  0.16717526166E+04  0.00000000000E+00 0. -1.
         21    1    1    2  503  501  0.70958528002E+02  0.25832751825E+02 -0.12805456304E+03  0.14866208286E+03  0.00000000000E+00 0.  1.
         21    1    1    2  504  505  0.35385689023E+02 -0.10013212838E+02 -0.37318972625E+03  0.37499731092E+03  0.00000000000E+00 0.  1.
         21    1    1    2  505  503 -0.14485777757E+03 -0.17670322289E+02 -0.11466684123E+04  0.11559171527E+04  0.00000000000E+00 0. -1.
          3    1    1    2  501    0  0.38513560549E+02  0.18507833022E+01  0.38405628835E+02  0.54421614008E+02  0.00000000000E+00 0.  1.
<scales pt_clust_3="106.92403" pt_clust_4="36.77515" pt_clust_5="14000.00000" pt_clust_6="38.77322"></scales>
<clustering>
<clus scale="   36.775">  2  4  1 -1</clus>
<clus scale="   38.773">  1  6  2 -1</clus>
<clus scale="  106.924">  1  3  2 -1</clus>
<clus scale="   36.775">  2  3  1 -1</clus>
</clustering>
</event>
<event>
 6    0  0.2433432E+002  0.8052913E+02  0.7546771E-02  0.1327557E+00
         -1   -1    0    0    0  501 -0.00000000000E+00  0.00000000000E+00  0.53557768131E+03  0.53557768131E+03  0.00000000000E+00 0. -1.
         21   -1    0    0  505  502  0.00000000000E+00 -0.00000000000E+00 -0.36678047419E+03  0.36678047419E+03  0.00000000000E+00 0. -1.
         21    1    1    2  503  502  0.29255680433E+02 -0.22920524254E+02 -0.24992363731E+02  0.44786867657E+02  0.00000000000E+00 0. -1.
         21    1    1    2  504  501 -0.53441261768E+02  0.10703953181E+03 -0.34288159108E+01  0.11968787160E+03  0.00000000000E+00 0. -1.
         21    1    1    2  505  504  0.31215865810E+02 -0.30126407792E+02 -0.26699058531E+03  0.27049215029E+03  0.00000000000E+00 0. -1.
         -1    1    1    2    0  503 -0.70302844756E+01 -0.53992599767E+02  0.46420897207E+03  0.46739126594E+03  0.00000000000E+00 0. -1.
<scales pt_clust_3="37.16511" pt_clust_4="80.52913" pt_clust_5="14000.00000" pt_clust_6="54.53945"></scales>
<clustering>
<clus scale="   37.165">  2  3  1 -1</clus>
<clus scale="   54.539">  1  6  2 -1</clus>
<clus scale="   80.529">  1  4  2 -1</clus>
<clus scale="   37.165">  2  3  1 -1</clus>
</clustering>
</event>
<event>
 6    0  0.2433432E+002  0.1292598E+03  0.7546771E-02  0.1228558E+00
         21   -1    0    0  503  502  0.00000000000E+00  0.00000000000E+00  0.14797257929E+03  0.14797257929E+03  0.00000000000E+00 0. -1.
         -3   -1    0    0    0  501 -0.00000000000E+00 -0.00000000000E+00 -0.11788559383E+04  0.11788559383E+04  0.00000000000E+00 0.  1.
         21    1    1    2  503  505  0.81237992600E+02 -0.68096990946E+01  0.60350121161E+02  0.10143037300E+03  0.00000000000E+00 0. -1.
         21    1    1    2  504  502 -0.12135721934E+03 -0.50820573270E+02 -0.22086500421E+03  0.25708297385E+03  0.00000000000E+00 0. -1.
         21    1    1    2  505  501  0.53967606983E+02  0.90257146307E+02 -0.82671681511E+01  0.10548554940E+03  0.00000000000E+00 0. -1.
         -3    1    1    2    0  504 -0.13848380239E+02 -0.32626873943E+02 -0.86210130784E+03  0.86282962138E+03  0.00000000000E+00 0.  1.
<scales pt_clust_3="80.83349" pt_clust_4="129.25985" pt_clust_5="14000.00000" pt_clust_6="35.44419"></scales>
<clustering>
<clus scale="   35.444">  2  6  1 -1</clus>
<clus scale="   80.833">  1  3  2 -1</clus>
<clus scale="  129.260">  2  4  1 -1</clus>
<clus scale="   80.833">  1  3  2 -1</clus>
</clustering>
</event>
<event>
 6    0  0.2433432E+002  0.9568607E+02  0.7546771E-02  0.1289638E+00
          2   -1    0    0  504    0 -0.00000000000E+00  0.00000000000E+00  0.76178214450E+03  0.76178214450E+03  0.00000000000E+00 0.  1.
         21   -1    0    0  503  502  0.00000000000E+00 -0.00000000000E+00 -0.19699799020E+03  0.19699799020E+03  0.00000000000E+00 0.  1.
         21    1    1    2  503  501  0.68768725674E+02  0.46439639264E+02  0.11166711675E+03  0.13912340813E+03  0.00000000000E+00 0. -1.
         21    1    1    2  504  505 -0.12297844861E+03 -0.58429103055E+01  0.44671895436E+02  0.13097105278E+03  0.00000000000E+00 0.  1.
         21    1    1    2  505  502  0.55075746412E+02 -0.77573435538E+02 -0.12325484239E+03  0.15570077687E+03  0.00000000000E+00 0.  1.
          2    1    1    2  501    0 -0.86602347237E+00  0.36976706580E+02  0.53169998450E+03  0.53298489692E+03  0.00000000000E+00 0.  1.
<scales pt_clust_3="95.68607" pt_clust_4="14000.00000" pt_clust_5="92.98084" pt_clust_6="36.98685"></scales>
<clustering>
<clus scale="   36.987">  1  6  2 -1</clus>
<clus scale="   92.981">  2  5  1 -1</clus>
<clus scale="   95.686">  1  3  2 -1</clus>
<clus scale="   92.981">  2  3  1 -1</clus>
</clustering>
</event>
<event>
 6    0  0.2433432E+002  0.1237366E+03  0.7546771E-02  0.1237057E+00
         21   -1    0    0  505  502  0.00000000000E+00  0.00000000000E+00  0.11779255619E+03  0.11779255619E+03  0.00000000000E+00 0.  1.
          2   -1    0    0  504    0 -0.00000000000E+00 -0.00000000000E+00 -0.18568251440E+04  0.18568251440E+04  0.00000000000E+00 0.  1.
         21    1    1    2  503  501  0.94808286372E+01  0.39343490312E+02 -0.39426123864E+02  0.56499695437E+02  0.00000000000E+00 0.  1.
         21    1    1    2  504  502 -0.13604657339E+03  0.13267732463E+02 -0.40088034732E+01  0.13675077097E+03  0.00000000000E+00 0.  1.
         21    1    1    2  505  503  0.96662112193E+02 -0.66725720827E+02 -0.38014675875E+02  0.12345445045E+03  0.00000000000E+00 0.  1.
          2    1    1    2  501    0  0.29903632561E+02  0.14114498053E+02 -0.16575829846E+04  0.16579127834E+04  0.00000000000E+00 0.  1.
<scales pt_clust_3="45.88524" pt_clust_4="14000.00000" pt_clust_5="123.73659" pt_clust_6="33.06730"></scales>
<clustering>
<clus scale="   33.067">  2  6  1 -1</clus>
<clus scale="   45.885">  2  3  1 -1</clus>
<clus scale="  123.737">  2  5  1 -1</clus>
<clus scale="  123.737">  1  3  2 -1</clus>
</clustering>
</event>
<event>
 6    0  0.2433432E+002  0.2508321E+03  0.7546771E-02  0.1112780E+00
          2   -1    0    0  504    0 -0.00000000000E+00  0.00000000000E+00  0.34890824689E+04  0.34890824689E+04  0.00000000000E+00 0.  1.
         21   -1    0    0  501  502  0.00000000000E+00 -0.00000000000E+00 -0.11379021101E+03  0.11379021101E+03  0.00000000000E+00 0. -1.
         21    1    1    2  503  505  0.68992159161E+02  0.13787080030E+01  0.40645786586E+02  0.80086820568E+02  0.00000000000E+00 0.  1.
         21    1    1    2  504  503  0.84799395161E+02 -0.77892642082E+02  0.75317286734E+02  0.13758958824E+03  0.00000000000E+00 0.  1.
         21    1    1    2  505  502  0.33857327275E+02 -0.86879631382E+02 -0.20888929928E+02  0.95554886598E+02  0.00000000000E+00 0. -1.
          2    1    1    2  501    0 -0.18764888160E+03  0.16339356546E+03  0.32802181145E+04  0.32896413845E+04  0.00000000000E+00 0.  1.
<scales pt_clust_3="51.52198" pt_clust_4="51.52198" pt_clust_5="93.24371" pt_clust_6="241.84167"></scales>
<clustering>
<clus scale="   51.522">  3  4 -1 -1</clus>
<clus scale="   93.244">  2  5  1 -1</clus>
<clus scale="  241.842">  1  6  2 -1</clus>
<clus scale="   93.244">  2  3  1 -1</clus>
</clustering>
</event>
<event>
 6    0  0.2433432E+002  0.1378581E+03  0.7546771E-02  0.1216240E+00
         21   -1    0    0  504  502  0.00000000000E+00  0.00000000000E+00  0.54895514747E+02  0.54895514747E+02  0.00000000000E+00 0. -1.
          2   -1    0    0  505    0 -0.00000000000E+00 -0.00000000000E+00 -0.18468899459E+04  0.18468899459E+04  0.00000000000E+00 0.  1.
         21    1    1    2  503  501 -0.45470465609E+02 -0.27399026743E+02 -0.14191484948E+03  0.15151928726E+03  0.00000000000E+00 0.  1.
         21    1    1    2  504  503 -0.33389668939E+02 -0.11069887209E+03 -0.32703297591E+03  0.34687126951E+03  0.00000000000E+00 0.  1.
         21    1    1    2  505  502  0.66546877762E+02  0.99418569358E+02 -0.49937896180E+02  0.12963923923E+03  0.00000000000E+00 0. -1.
          2    1    1    2  501    0  0.12313256786E+02  0.38679329478E+02 -0.12731087096E+04  0.12737556646E+04  0.00000000000E+00 0.  1.
<scales pt_clust_3="38.27741" pt_clust_4="38.27741" pt_clust_5="125.75262" pt_clust_6="40.59196"></scales>
<clustering>
<clus scale="   38.277">  3  4 -1 -1</clus>
<clus scale="   40.592">  2  6  1 -1</clus>
<clus scale="  125.753">  1  5  2 -1</clus>
<clus scale="  125.753">  1  3  2 -1</clus>
</clustering>
</event>
<event>
 6    0  0.2433432E+002  0.2404744E+03  0.7546771E-02  0.1119477E+00
         -3   -1    0    0    0  501 -0.00000000000E+00  0.00000000000E+00  0.57445545956E+03  0.57445545956E+03  0.00000000000E+00 0.  1.
         21   -1    0    0  504  502  0.00000000000E+00 -0.00000000000E+00 -0.49340159227E+03  0.49340159227E+03  0.00000000000E+00 0.  1.
         21    1    1    2  503  502  0.26617338259E+03 -0.26002487727E+02 -0.26168675080E+03  0.37417155759E+03  0.00000000000E+00 0.  1.
         21    1    1    2  504  505 -0.49127303656E+02  0.29582401689E+02 -0.49230563171E+02  0.75579486664E+02  0.00000000000E+00 0.  1.
         21    1    1    2  505  501 -0.11356402404E+03  0.10877173368E+03 -0.38026738871E+02  0.16178414778E+03  0.00000000000E+00 0.  1.
         -3    1    1    2    0  503 -0.10348205489E+03 -0.11235164764E+03  0.42999792013E+03  0.45632185980E+03  0.00000000000E+00 0.  1.
<scales pt_clust_3="233.90296" pt_clust_4="33.71681" pt_clust_5="33.71681" pt_clust_6="152.74629"></scales>
<clustering>
<clus scale="   33.717">  4  5 -1 -1</clus>
<clus scale="  152.746">  1  6  2 -1</clus>
<clus scale="  233.903">  2  3  1 -1</clus>
<clus scale="  233.903">  2  3  1 -1</clus>
</clustering>
</event>
<event>
 6    0  0.2433432E+002  0.1561083E+03  0.7546771E-02  0.1193162E+00
         21   -1    0    0  504  502  0.00000000000E+00  0.00000000000E+00  0.30224108480E+03  0.30224108480E+03  0.00000000000E+00 0.  1.
          2   -1    0    0  502    0 -0.00000000000E+00 -0.00000000000E+00 -0.31148861772E+03  0.31148861772E+03  0.00000000000E+00 0.  1.
         21    1    1    2  503  505  0.28325171662E+02 -0.94893051107E+02  0.11877252913E+03  0.15464126284E+03  0.00000000000E+00 0.  1.
         21    1    1    2  504  503 -0.20436528847E+02 -0.61169620538E+02  0.13037793362E+03  0.14545714064E+03  0.00000000000E+00 0.  1.
         21    1    1    2  505  501 -0.15226203914E+02  0.94914224915E+02 -0.80527167923E+02  0.12540004845E+03  0.00000000000E+00 0.  1.
          2    1    1    2  501    0  0.73375611002E+01  0.61148446730E+02 -0.17787082774E+03  0.18823125060E+03  0.00000000000E+00 0.  1.
<scales pt_clust_3="48.18608" pt_clust_4="48.18608" pt_clust_5="144.23763" pt_clust_6="61.58711"></scales>
<clustering>
<clus scale="   48.186">  3  4 -1 -1</clus>
<clus scale="   61.587">  2  6  1 -1</clus>
<clus scale="  144.238">  2  5  1 -1</clus>
<clus scale="  156.108">  1  3  2 -1</clus>
</clustering>
</event>
<event>
 6    0  0.2433432E+002  0.8311230E+02  0.7546771E-02  0.1320444E+00
         21   -1    0    0  505  502  0.00000000000E+00  0.00000000000E+00  0.17883390472E+03  0.17883390472E+03  0.00000000000E+00 0. -1.
         -3   -1    0    0    0  501 -0.00000000000E+00 -0.00000000000E+00 -0.31491813576E+03  0.31491813576E+03  0.00000000000E+00 0. -1.
         21    1    1    2  503  502  0.11054368349E+02  0.62998330207E+02  0.57338299963E+02  0.85899181085E+02  0.00000000000E+00 0. -1.
         21    1    1    2  504  501 -0.32724201654E+02 -0.32149507629E+02  0.34871210083E+01  0.46006784582E+02  0.00000000000E+00 0. -1.
         21    1    1    2  505  504 -0.43524868767E+02 -0.57717683419E+02  0.60927488957E+02  0.94540489162E+02  0.00000000000E+00 0. -1.
         -3    1    1    2    0  503  0.65194702072E+02  0.26868860840E+02 -0.25783714096E+03  0.26730558565E+03  0.00000000000E+00 0. -1.
<scales pt_clust_3="63.96084" pt_clust_4="32.98275" pt_clust_5="32.98275" pt_clust_6="72.06520"></scales>
<clustering>
<clus scale="   32.983">  4  5 -1 -1</clus>
<clus scale="   63.961">  1  3  2 -1</clus>
<clus scale="   72.065">  2  6  1 -1</clus>
<clus scale="   63.961">  1  3  2 -1</clus>
</clustering>
</event>
<event>
 6    0  0.2433432E+002  0.7582915E+02  0.7546771E-02  0.1341322E+00
         21   -1    0    0  501  502  0.00000000000E+00  0.00000000000E+00  0.47740662334E+03  0.47740662334E+03  0.00000000000E+00 0. -1.
          3   -1    0    0  503    0 -0.00000000000E+00 -0.00000000000E+00 -0.96473594213E+03  0.96473594213E+03  0.00000000000E+00 0.  1.
         21    1    1    2  503  504 -0.17661618610E+02 -0.46972418478E+02 -0.28610836903E+03  0.29047605702E+03  0.00000000000E+00 0.  1.
         21    1    1    2  504  505  0.10771991675E+03  0.95320252880E+01  0.71509766070E+02  0.12964600501E+03  0.00000000000E+00 0.  1.
         21    1    1    2  505  502 -0.34892121829E+02  0.10593383384E+02  0.37229854895E+03  0.37408005759E+03  0.00000000000E+00 0. -1.
          3    1    1    2  501    0 -0.55166176312E+02  0.26847009806E+02 -0.64502926478E+03  0.64794044585E+03  0.00000000000E+00 0.  1.
<scales pt_clust_3="50.23841" pt_clust_4="75.82915" pt_clust_5="36.46478" pt_clust_6="14000.00000"></scales>
<clustering>
<clus scale="   36.465">  1  5  2 -1</clus>
<clus scale="   50.238">  2  3  1 -1</clus>
<clus scale="   75.829">  1  4  2 -1</clus>
<clus scale="   36.465">  1  3  2 -1</clus>
</clustering>
</event>
<event>
 6    0  0.2433432E+002  0.1008639E+03  0.7546771E-02  0.1278490E+00
          1   -1    0    0  505    0 -0.00000000000E+00  0.00000000000E+00  0.39199366536E+03  0.39199366536E+03  0.00000000000E+00 0. -1.
         21   -1    0    0  501  502  0.00000000000E+00 -0.00000000000E+00 -0.93649742583E+03  0.93649742583E+03  0.00000000000E+00 0.  1.
         21    1    1    2  503  504 -0.34324641128E+02  0.20283356521E+02 -0.14818343954E+02  0.42534443195E+02  0.00000000000E+00 0. -1.
         21    1    1    2  504  502 -0.14667389076E+02 -0.95397111982E+02 -0.88539842055E+03  0.89064364613E+03  0.00000000000E+00 0.  1.
         21    1    1    2  505  503 -0.23011694133E+02  0.36684099285E+02  0.16373628968E+02  0.46296403022E+02  0.00000000000E+00 0. -1.
          1    1    1    2  501    0  0.72003724337E+02  0.38429656176E+02  0.33933937507E+03  0.34901659884E+03  0.00000000000E+00 0. -1.
<scales pt_clust_3="35.33025" pt_clust_4="93.90300" pt_clust_5="35.33025" pt_clust_6="81.61725"></scales>
<clustering>
<clus scale="   35.330">  3  5 -1 -1</clus>
<clus scale="   81.617">  1  6  2 -1</clus>
<clus scale="   93.903">  2  4  1 -1</clus>
<clus scale="   93.903">  2  3  1 -1</clus>
</clustering>
</event>
<event>
 6    0  0.2433432E+002  0.7281332E+02  0.7546771E-02  0.1350779E+00
          1   -1    0    0  503    0 -0.00000000000E+00  0.00000000000E+00  0.20962206711E+03  0.20962206711E+03  0.00000000000E+00 0. -1.
         21   -1    0    0  504  502  0.00000000000E+00 -0.00000000000E+00 -0.33226244133E+03  0.33226244133E+03  0.00000000000E+00 0. -1.
         21    1    1    2  503  505  0.19790635591E+02  0.48106040400E+02  0.66726096438E+01  0.52444104526E+02  0.00000000000E+00 0. -1.
         21    1    1    2  504  501 -0.19997026458E+02 -0.71856979562E+02 -0.21863144345E+03  0.23100436066E+03  0.00000000000E+00 0. -1.
         21    1    1    2  505  502  0.81481729929E+02  0.27686745349E+02 -0.48208216812E+02  0.98640054483E+02  0.00000000000E+00 0. -1.
          1    1    1    2  501    0 -0.81275339062E+02 -0.39358061865E+01  0.13752667640E+03  0.15979598878E+03  0.00000000000E+00 0. -1.
<scales pt_clust_3="52.01789" pt_clust_4="72.81332" pt_clust_5="72.13587" pt_clust_6="14000.00000"></scales>
<clustering>
<clus scale="   52.018">  1  3  2 -1</clus>
<clus scale="   72.813">  2  4  1 -1</clus>
<clus scale="   72.136">  2  5  1 -1</clus>
<clus scale="   72.813">  2  3  1 -1</clus>
</clustering>
</event>
<event>
 6    0  0.2433432E+002  0.1667000E+03  0.7546771E-02  0.1181334E+00
         21   -1    0    0  505  502  0.00000000000E+00  0.00000000000E+00  0.16306202000E+03  0.16306202000E+03  0.00000000000E+00 0.  1.
          1   -1    0    0  504    0 -0.00000000000E+00 -0.00000000000E+00 -0.13180425067E+04  0.13180425067E+04  0.00000000000E+00 0.  1.
         21    1    1    2  503  501 -0.86840870160E+02 -0.81480038166E+02 -0.62124677315E+02  0.13431235565E+03  0.00000000000E+00 0. -1.
         21    1    1    2  504  502  0.50549154248E+02  0.62814074271E+02  0.36791435824E+02  0.88625248500E+02  0.00000000000E+00 0.  1.
         21    1    1    2  505  503 -0.81858823652E+02 -0.70664095063E+02  0.10306854400E+02  0.10863016427E+03  0.00000000000E+00 0.  1.
          1    1    1    2  501    0  0.11815053956E+03  0.89330058958E+02 -0.11399540996E+04  0.11495367583E+04  0.00000000000E+00 0.  1.
<scales pt_clust_3="65.52939" pt_clust_4="80.62769" pt_clust_5="65.52939" pt_clust_6="151.85629"></scales>
<clustering>
<clus scale="   65.529">  3  5 -1 -1</clus>
<clus scale="   80.628">  1  4  2 -1</clus>
<clus scale="  151.856">  2  6  1 -1</clus>
<clus scale="   80.628">  1  3  2 -1</clus>
</clustering>
</event>
<event>
 6    0  0.2433432E+002  0.9124327E+02  0.7546771E-02  0.1299869E+00
         21   -1    0    0  505  502  0.00000000000E+00  0.00000000000E+00  0.84670752850E+03  0.84670752850E+03  0.00000000000E+00 0.  1.
          2   -1    0    0  503    0 -0.00000000000E+00 -0.00000000000E+00 -0.13222012239E+04  0.13222012239E+04  0.00000000000E+00 0.  1.
         21    1    1    2  503  502 -0.20522911031E+02  0.22490443102E+02 -0.56992463019E+02  0.64615406438E+02  0.00000000000E+00 0.  1.
         21    1    1    2  504  501 -0.10697905352E+03 -0.11840340439E+03 -0.86331653998E+02  0.18143053366E+03  0.00000000000E+00 0.  1.
         21    1    1    2  505  504  0.63878266760E+02  0.45398817465E+02  0.79194677833E+03  0.79581479334E+03  0.00000000000E+00 0.  1.
          2    1    1    2  501    0  0.63623697796E+02  0.50514143821E+02 -0.11241163567E+04  0.11270480190E+04  0.00000000000E+00 0.  1.
<scales pt_clust_3="30.44684" pt_clust_4="91.24327" pt_clust_5="78.36197" pt_clust_6="14000.00000"></scales>
<clustering>
<clus scale="   30.447">  2  3  1 -1</clus>
<clus scale="   78.362">  1  5  2 -1</clus>
<clus scale="   91.243">  1  4  2 -1</clus>
<clus scale="   78.362">  1  3  2 -1</clus>
</clustering>
</event>
<event>
 6    0  0.2433432E+002  0.1386409E+03  0.7546771E-02  0.1215170E+00
         21   -1    0    0  503  502  0.00000000000E+00  0.00000000000E+00  0.14450642299E+04  0.14450642299E+04  0.00000000000E+00 0.  1.
          3   -1    0    0  505    0 -0.00000000000E+00 -0.00000000000E+00 -0.86955578958E+02  0.86955578958E+02  0.00000000000E+00 0.  1.
         21    1    1    2  503  504  0.11021492951E+03  0.53965115347E+02  0.69877086903E+03  0.70946479248E+03  0.00000000000E+00 0.  1.
         21    1    1    2  504  501  0.87072807234E+02 -0.26562838218E+01  0.35762576557E+03  0.36808275945E+03  0.00000000000E+00 0.  1.
         21    1    1    2  505  502 -0.79776743171E+02 -0.21422911934E+02  0.32121140515E+03  0.33166253437E+03  0.00000000000E+00 0.  1.
          3    1    1    2  501    0 -0.11751099357E+03 -0.29885919591E+02 -0.19499388782E+02  0.12280972259E+03  0.00000000000E+00 0.  1.
<scales pt_clust_3="50.41042" pt_clust_4="50.41042" pt_clust_5="82.60309" pt_clust_6="125.06587"></scales>
<clustering>
<clus scale="   50.410">  3  4 -1 -1</clus>
<clus scale="   82.603">  1  5  2 -1</clus>
<clus scale="  125.066">  2  6  1 -1</clus>
<clus scale="   82.603">  1  3  2 -1</clus>
</clustering>
</event>
<event>
 6    0  0.2433432E+002  0.1087407E+03  0.7546771E-02  0.1262920E+00
         -1   -1    0    0    0  501 -0.00000000000E+00  0.00000000000E+00  0.14700878682E+03  0.14700878682E+03  0.00000000000E+00 0. -1.
         21   -1    0    0  504  502  0.00000000000E+00 -0.00000000000E+00 -0.29388636266E+03  0.29388636266E+03  0.00000000000E+00 0. -1.
         21    1    1    2  503  505 -0.11484220600E+02  0.46724997886E+02 -0.10869900680E+02  0.49328161237E+02  0.00000000000E+00 0. -1.
         21    1    1    2  504  503  0.23801965210E+02 -0.11229057965E+03 -0.21792620833E+03  0.24630781576E+03  0.00000000000E+00 0. -1.
         21    1    1    2  505  501  0.31189652795E+02  0.75708336398E+01 -0.45520980532E+01  0.32416563053E+02  0.00000000000E+00 0. -1.
         -1    1    1    2    0  502 -0.43507397405E+02  0.57994748126E+02  0.86470631221E+02  0.11284260943E+03  0.00000000000E+00 0. -1.
<scales pt_clust_3="48.32533" pt_clust_4="108.74071" pt_clust_5="32.09536" pt_clust_6="14000.00000"></scales>
<clustering>
<clus scale="   32.095">  1  5  2 -1</clus>
<clus scale="   48.325">  1  3  2 -1</clus>
<clus scale="  108.741">  2  4  1 -1</clus>
<clus scale="  108.741">  2  3  1 -1</clus>
</clustering>
</event>
<event>
 6    0  0.2433432E+002  0.2190291E+03  0.7546771E-02  0.1134609E+00
          2   -1    0    0  504    0 -0.00000000000E+00  0.00000000000E+00  0.81888960102E+03  0.81888960102E+03  0.00000000000E+00 0. -1.
         21   -1    0    0  503  502  0.00000000000E+00 -0.00000000000E+00 -0.44148869196E+03  0.44148869196E+03  0.00000000000E+00 0.  1.
         21    1    1    2  503  505  0.22208025277E+02 -0.72749559986E+02 -0.19200840520E+03  0.20652583987E+03  0.00000000000E+00 0.  1.
         21    1    1    2  504  502 -0.54686026834E+02 -0.22569975767E+02  0.10890204598E+02  0.60154483567E+02  0.00000000000E+00 0.  1.
         21    1    1    2  505  501 -0.75531926273E+02 -0.70408717743E+02 -0.19175154609E+03  0.21778685646E+03  0.00000000000E+00 0.  1.
          2    1    1    2  501    0  0.10800992783E+03  0.16572825350E+03  0.75027065575E+03  0.77591111308E+03  0.00000000000E+00 0. -1.
<scales pt_clust_3="77.63657" pt_clust_4="59.16050" pt_clust_5="77.63657" pt_clust_6="196.32097"></scales>
<clustering>
<clus scale="   59.161">  2  4  1 -1</clus>
<clus scale="   77.637">  3  5 -1 -1</clus>
<clus scale="  196.321">  1  6  2 -1</clus>
<clus scale="   59.161">  2  3  1 -1</clus>
</clustering>
</event>
<event>
 6    0  0.2433432E+002  0.1201143E+03  0.7546771E-02  0.1242909E+00
         21   -1    0    0  505  502  0.00000000000E+00  0.00000000000E+00  0.26671478949E+02  0.26671478949E+02  0.00000000000E+00 0. -1.
          2   -1    0    0  504    0 -0.00000000000E+00 -0.00000000000E+00 -0.17658361564E+04  0.17658361564E+04  0.00000000000E+00 0. -1.
         21    1    1    2  503  501  0.61531899396E+02 -0.40644448646E+02 -0.32042586407E+03  0.32880219010E+03  0.00000000000E+00 0. -1.
         21    1    1    2  504  502  0.78537459944E+01 -0.10638421700E+03 -0.39012996196E+03  0.40445107265E+03  0.00000000000E+00 0. -1.
         21    1    1    2  505  503 -0.18177005480E+02  0.27322583463E+02 -0.12942062018E+02  0.35276395289E+02  0.00000000000E+00 0. -1.
          2    1    1    2  501    0 -0.51208639910E+02  0.11970608218E+03 -0.10156667894E+04  0.10239779773E+04  0.00000000000E+00 0. -1.
<scales pt_clust_3="65.66968" pt_clust_4="14000.00000" pt_clust_5="32.81657" pt_clust_6="120.11433"></scales>
<clustering>
<clus scale="   32.817">  1  5  2 -1</clus>
<clus scale="   65.670">  1  3  2 -1</clus>
<clus scale="  120.114">  2  6  1 -1</clus>
<clus scale="   32.817">  1  3  2 -1</clus>
</clustering>
</event>
<event>
 6    0  0.2433432E+002  0.8456228E+02  0.7546771E-02  0.1316581E+00
          2   -1    0    0  503    0 -0.00000000000E+00  0.00000000000E+00  0.27278322255E+04  0.27278322255E+04  0.00000000000E+00 0. -1.
         21   -1    0    0  501  502  0.00000000000E+00 -0.00000000000E+00 -0.35132220802E+02  0.35132220802E+02  0.00000000000E+00 0. -1.
         21    1    1    2  503  504  0.53522475923E+02 -0.25366565208E+02  0.10838874167E+03  0.12351614218E+03  0.00000000000E+00 0.  1.
         21    1    1    2  504  505  0.73991035221E+02  0.18391906366E+02  0.52898430533E+02  0.92796441019E+02  0.00000000000E+00 0. -1.
         21    1    1    2  505  502 -0.40454234959E+02 -0.15907236693E+01  0.52991456050E+02  0.66687104767E+02  0.00000000000E+00 0.  1.
          2    1    1    2  501    0 -0.87059276186E+02  0.85653825121E+01  0.24784213764E+04  0.24799647583E+04  0.00000000000E+00 0. -1.
<scales pt_clust_3="14000.00000" pt_clust_4="48.62858" pt_clust_5="40.48550" pt_clust_6="84.56228"></scales>
<clustering>
<clus scale="   40.485">  2  5  1 -1</clus>
<clus scale="   48.629">  2  4  1 -1</clus>
<clus scale="   84.562">  1  6  2 -1</clus>
<clus scale="   40.485">  2  3  1 -1</clus>
</clustering>
</event>
<event>
 6    0  0.2433432E+002  0.1747080E+03  0.7546771E-02  0.1173025E+00
          2   -1    0    0  503    0 -0.00000000000E+00  0.00000000000E+00  0.10099024706E+04  0.10099024706E+04  0.00000000000E+00 0. -1.
         21   -1    0    0  504  502  0.00000000000E+00 -0.00000000000E+00 -0.11836603296E+03  0.11836603296E+03  0.00000000000E+00 0.  1.
         21    1    1    2  503  505  0.98984744673E+02 -0.48397782874E+02  0.10222857654E+03  0.15030305029E+03  0.00000000000E+00 0.  1.
         21    1    1    2  504  501 -0.15152789783E+03 -0.24799414874E+01  0.47677643578E+02  0.15887105346E+03  0.00000000000E+00 0.  1.
         21    1    1    2  505  502  0.96397100233E+02 -0.42579836561E+02  0.44551510415E+02  0.11441276369E+03  0.00000000000E+00 0.  1.
          2    1    1    2  501    0 -0.43853947075E+02  0.93457560923E+02  0.69707870716E+03  0.70468163616E+03  0.00000000000E+00 0. -1.
<scales pt_clust_3="44.59247" pt_clust_4="168.65288" pt_clust_5="44.59247" pt_clust_6="103.23509"></scales>
<clustering>
<clus scale="   44.592">  3  5 -1 -1</clus>
<clus scale="  103.235">  1  6  2 -1</clus>
<clus scale="  168.653">  2  4  1 -1</clus>
<clus scale="  168.653">  2  3  1 -1</clus>
</clustering>
</event>
<event>
 6    0  0.2433432E+002  0.1317447E+03  0.7546771E-02  0.1224890E+00
          4   -1    0    0  504    0 -0.00000000000E+00  0.00000000000E+00  0.78796289773E+03  0.78796289773E+03  0.00000000000E+00 0. -1.
         21   -1    0    0  503  502  0.00000000000E+00 -0.00000000000E+00 -0.60300557863E+03  0.60300557863E+03  0.00000000000E+00 0.  1.
         21    1    1    2  503  505 -0.62886994117E+02 -0.21369388857E+02 -0.55381869240E+03  0.55778720751E+03  0.00000000000E+00 0.  1.
         21    1    1    2  504  502  0.18331612099E+03  0.35356799144E+02  0.28952966243E+03  0.34450301724E+03  0.00000000000E+00 0.  1.
         21    1    1    2  505  501 -0.90795117365E+02 -0.30132281125E+01  0.89432613036E+02  0.12747950877E+03  0.00000000000E+00 0.  1.
          4    1    1    2  501    0 -0.29634009504E+02 -0.10974182174E+02  0.35981373603E+03  0.36119874284E+03  0.00000000000E+00 0. -1.
<scales pt_clust_3="66.56519" pt_clust_4="131.74474" pt_clust_5="14000.00000" pt_clust_6="31.60075"></scales>
<clustering>
<clus scale="   31.601">  1  6  2 -1</clus>
<clus scale="   66.565">  2  3  1 -1</clus>
<clus scale="  131.745">  1  4  2 -1</clus>
<clus scale="   66.565">  2  3  1 -1</clus>
</clustering>
</event>
<event>
 6    0  0.2433432E+002  0.9210422E+02  0.7546771E-02  0.1297835E+00
          1   -1    0    0  503    0 -0.00000000000E+00  0.00000000000E+00  0.14939479351E+04  0.14939479351E+04  0.00000000000E+00 0.  1.
         21   -1    0    0  501  502  0.00000000000E+00 -0.00000000000E+00 -0.69718089262E+02  0.69718089262E+02  0.00000000000E+00 0. -1.
         21    1    1    2  503  505 -0.57057873901E+02  0.65196248398E+01  0.14477003250E+03  0.15574488368E+03  0.00000000000E+00 0. -1.
         21    1    1    2  504  502  0.17880275246E+02  0.95981476254E+02 -0.98659172885E+01  0.98129936057E+02  0.00000000000E+00 0. -1.
         21    1    1    2  505  504 -0.30671531380E+02 -0.67784280208E+02  0.14652921796E+03  0.16433582444E+03  0.00000000000E+00 0. -1.
          1    1    1    2  501    0  0.69849130035E+02 -0.34716820885E+02  0.11427965127E+04  0.11454553802E+04  0.00000000000E+00 0.  1.
<scales pt_clust_3="57.42914" pt_clust_4="14000.00000" pt_clust_5="92.10422" pt_clust_6="36.09496"></scales>
<clustering>
<clus scale="   57.429">  1  3  2 -1</clus>
<clus scale="   36.095">  1  6  2 -1</clus>
<clus scale="   92.104">  1  5  2 -1</clus>
<clus scale="   92.104">  2  3  1 -1</clus>
</clustering>
</event>
<event>
 6    0  0.2433432E+002  0.1443681E+03  0.7546771E-02  0.1207569E+00
         21   -1    0    0  501  502  0.00000000000E+00  0.00000000000E+00  0.18036621558E+04  0.18036621558E+04  0.00000000000E+00 0.  1.
          2   -1    0    0  504    0 -0.00000000000E+00 -0.00000000000E+00 -0.92962221710E+02  0.92962221710E+02  0.00000000000E+00 0. -1.
         21    1    1    2  503  502  0.65869709042E+02 -0.29409723471E+02  0.13596513822E+04  0.13615636715E+04  0.00000000000E+00 0.  1.
         21    1    1    2  504  505  0.26171372004E+02  0.17703221137E+02  0.19191481946E+02  0.36968334159E+02  0.00000000000E+00 0. -1.
         21    1    1    2  505  503  0.92268143661E+02 -0.78154069847E+02  0.16650213071E+02  0.12206022515E+03  0.00000000000E+00 0. -1.
          2    1    1    2  501    0 -0.18430922471E+03  0.89860572180E+02  0.31520685691E+03  0.37603214674E+03  0.00000000000E+00 0. -1.
<scales pt_clust_3="72.32737" pt_clust_4="31.59659" pt_clust_5="14000.00000" pt_clust_6="144.36807"></scales>
<clustering>
<clus scale="   31.597">  2  4  1 -1</clus>
<clus scale="   72.327">  1  3  2 -1</clus>
<clus scale="  144.368">  1  6  2 -1</clus>
<clus scale="   72.327">  1  3  2 -1</clus>
</clustering>
</event>
<event>
 6    0  0.2433432E+002  0.1147787E+03  0.7546771E-02  0.1251968E+00
          2   -1    0    0  502    0 -0.00000000000E+00  0.00000000000E+00  0.19063357242E+04  0.19063357242E+04  0.00000000000E+00 0. -1.
         21   -1    0    0  505  502  0.00000000000E+00 -0.00000000000E+00 -0.99835625306E+02  0.99835625306E+02  0.00000000000E+00 0.  1.
         21    1    1    2  503  501 -0.58400344635E+02 -0.10469254125E+02  0.24212007756E+03  0.24928364867E+03  0.00000000000E+00 0.  1.
         21    1    1    2  504  503 -0.44709853434E+02  0.31560149887E+02  0.25199568263E+03  0.25786980847E+03  0.00000000000E+00 0.  1.
         21    1    1    2  505  504  0.96935935614E+01  0.31515225245E+02 -0.88290283107E+02  0.94246216208E+02  0.00000000000E+00 0.  1.
          2    1    1    2  501    0  0.93416604508E+02 -0.52606121007E+02  0.14006746218E+04  0.14047716761E+04  0.00000000000E+00 0. -1.
<scales pt_clust_3="42.62736" pt_clust_4="42.62736" pt_clust_5="32.97234" pt_clust_6="105.81321"></scales>
<clustering>
<clus scale="   32.972">  2  5  1 -1</clus>
<clus scale="   42.627">  3  4 -1 -1</clus>
<clus scale="  105.813">  1  6  2 -1</clus>
<clus scale="   32.972">  2  3  1 -1</clus>
</clustering>
</event>
<event>
 6    0  0.2433432E+002  0.9915136E+02  0.7546771E-02  0.1282091E+00
         21   -1    0    0  505  502  0.00000000000E+00  0.00000000000E+00  0.53304453761E+03  0.53304453761E+03  0.00000000000E+00 0.  1.
          4   -1    0    0  504    0 -0.00000000000E+00 -0.00000000000E+00 -0.11748338545E+03  0.11748338545E+03  0.00000000000E+00 0.  1.
         21    1    1    2  503  501 -0.37213491515E+01 -0.46765405487E+02  0.78651031768E+02  0.91579672352E+02  0.00000000000E+00 0. -1.
         21    1    1    2  504  502 -0.77149627869E+02  0.28608777170E+02  0.13866067477E+03  0.16123681323E+03  0.00000000000E+00 0.  1.
         21    1    1    2  505  503 -0.21334387718E+02  0.27226255541E+02  0.27019142640E+03  0.27239646105E+03  0.00000000000E+00 0.  1.
          4    1    1    2  501    0  0.10220536474E+03 -0.90696272235E+01 -0.71941980788E+02  0.12531497644E+03  0.00000000000E+00 0.  1.
<scales pt_clust_3="39.38189" pt_clust_4="14000.00000" pt_clust_5="34.58938" pt_clust_6="99.15136"></scales>
<clustering>
<clus scale="   34.589">  1  5  2 -1</clus>
<clus scale="   39.382">  1  3  2 -1</clus>
<clus scale="   99.151">  2  6  1 -1</clus>
<clus scale="   34.589">  1  3  2 -1</clus>
</clustering>
</event>
<event>
 6    0  0.2433432E+002  0.7681637E+02  0.7546771E-02  0.1338337E+00
          2   -1    0    0  503    0 -0.00000000000E+00  0.00000000000E+00  0.64340665481E+03  0.64340665481E+03  0.00000000000E+00 0.  1.
         21   -1    0    0  505  502  0.00000000000E+00 -0.00000000000E+00 -0.21586328440E+03  0.21586328440E+03  0.00000000000E+00 0.  1.
         21    1    1    2  503  504 -0.63418591825E+02  0.33505695055E+02 -0.63398605248E+02  0.95728431187E+02  0.00000000000E+00 0.  1.
         21    1    1    2  504  502  0.33076986494E+02  0.44049438361E+02 -0.68266256675E+02  0.87719563700E+02  0.00000000000E+00 0.  1.
         21    1    1    2  505  501 -0.14762592326E+02 -0.11108451659E+03 -0.17307510527E+01  0.11207452635E+03  0.00000000000E+00 0.  1.
          2    1    1    2  501    0  0.45104197656E+02  0.33529383171E+02  0.56093898339E+03  0.56374741797E+03  0.00000000000E+00 0.  1.
<scales pt_clust_3="76.81637" pt_clust_4="55.08575" pt_clust_5="14000.00000" pt_clust_6="56.73975"></scales>
<clustering>
<clus scale="   55.086">  2  4  1 -1</clus>
<clus scale="   56.740">  1  6  2 -1</clus>
<clus scale="   76.816">  2  3  1 -1</clus>
<clus scale="   55.086">  2  3  1 -1</clus>
</clustering>
</event>
<event>
 6    0  0.2433432E+002  0.3293428E+03  0.7546771E-02  0.1071428E+00
          1   -1    0    0  505    0 -0.00000000000E+00  0.00000000000E+00  0.20248627479E+04  0.20248627479E+04  0.00000000000E+00 0. -1.
         21   -1    0    0  501  502  0.00000000000E+00 -0.00000000000E+00 -0.12245928330E+03  0.12245928330E+03  0.00000000000E+00 0.  1.
         21    1    1    2  503  502 -0.35410640031E+02  0.29425898286E+02 -0.33352426277E+02  0.56852275732E+02  0.00000000000E+00 0.  1.
         21    1    1    2  504  503 -0.43295023081E+02 -0.99195018879E+02  0.95558539505E+02  0.14437986448E+03  0.00000000000E+00 0. -1.
         21    1    1    2  505  504 -0.46726510504E+02 -0.22448291198E+03  0.32654362262E+03  0.39900712027E+03  0.00000000000E+00 0.  1.
          1    1    1    2  501    0  0.12543217362E+03  0.29425203257E+03  0.15136537287E+04  0.15470827707E+04  0.00000000000E+00 0. -1.
<scales pt_clust_3="46.04125" pt_clust_4="44.67278" pt_clust_5="44.67278" pt_clust_6="322.86032"></scales>
<clustering>
<clus scale="   44.673">  4  5 -1 -1</clus>
<clus scale="   46.041">  2  3  1 -1</clus>
<clus scale="  322.860">  1  6  2 -1</clus>
<clus scale="   46.041">  2  3  1 -1</clus>
</clustering>
</event>
<event>
 6    0  0.2433432E+002  0.3094674E+03  0.7546771E-02  0.1080601E+00
         21   -1    0    0  503  502  0.00000000000E+00  0.00000000000E+00  0.20999210079E+03  0.20999210079E+03  0.00000000000E+00 0. -1.
          1   -1    0    0  504    0 -0.00000000000E+00 -0.00000000000E+00 -0.60471368091E+03  0.60471368091E+03  0.00000000000E+00 0. -1.
         21    1    1    2  503  501 -0.26200511237E+03 -0.12259633775E+03 -0.15649805001E+03  0.32888931358E+03  0.00000000000E+00 0. -1.
         21    1    1    2  504  505 -0.31312215070E+02  0.25297754363E+02 -0.40758399815E+02  0.57285934957E+02  0.00000000000E+00 0.  1.
         21    1    1    2  505  502 -0.59626580114E+01 -0.43292981886E+02 -0.50212314413E+02  0.66566598905E+02  0.00000000000E+00 0. -1.
          1    1    1    2  501    0  0.29927998545E+03  0.14059156527E+03 -0.14725281589E+03  0.36196393426E+03  0.00000000000E+00 0. -1.
<scales pt_clust_3="309.46743" pt_clust_4="40.25458" pt_clust_5="41.67496" pt_clust_6="14000.00000"></scales>
<clustering>
<clus scale="   40.255">  2  4  1 -1</clus>
<clus scale="   41.675">  2  5  1 -1</clus>
<clus scale="  309.467">  1  3  2 -1</clus>
<clus scale="  309.467">  1  3  2 -1</clus>
</clustering>
</event>
<event>
 6    0  0.2433432E+002  0.9506805E+02  0.7546771E-02  0.1291023E+00
         21   -1    0    0  504  502  0.00000000000E+00  0.00000000000E+00  0.61469467765E+02  0.61469467765E+02  0.00000000000E+00 0. -1.
         -2   -1    0    0    0  501 -0.00000000000E+00 -0.00000000000E+00 -0.12419074588E+04  0.12419074588E+04  0.00000000000E+00 0.  1.
         21    1    1    2  503  502  0.45155515216E+02  0.18282156008E+02  0.42282588980E+00  0.48717928573E+02  0.00000000000E+00 0. -1.
         21    1    1    2  504  501  0.25942342079E+02  0.40345264955E+02 -0.63086197287E+02  0.79250323690E+02  0.00000000000E+00 0. -1.
         21    1    1    2  505  503 -0.61543633370E+02  0.41014034076E+02 -0.25014654400E+02  0.78073700657E+02  0.00000000000E+00 0. -1.
         -2    1    1    2    0  505 -0.95542239244E+01 -0.99641455039E+02 -0.10927599652E+04  0.10973349736E+04  0.00000000000E+00 0.  1.
<scales pt_clust_3="67.95413" pt_clust_4="47.96609" pt_clust_5="14000.00000" pt_clust_6="95.06805"></scales>
<clustering>
<clus scale="   47.966">  1  4  2 -1</clus>
<clus scale="   67.954">  1  3  2 -1</clus>
<clus scale="   95.068">  2  6  1 -1</clus>
<clus scale="   47.966">  1  3  2 -1</clus>
</clustering>
</event>
<event>
 6    0  0.2433432E+002  0.8757786E+02  0.7546771E-02  0.1308826E+00
          3   -1    0    0  503    0 -0.00000000000E+00  0.00000000000E+00  0.47959486302E+03  0.47959486302E+03  0.00000000000E+00 0. -1.
         21   -1    0    0  505  502  0.00000000000E+00 -0.00000000000E+00 -0.62793645040E+03  0.62793645040E+03  0.00000000000E+00 0. -1.
         21    1    1    2  503  504  0.19657670316E+02 -0.57018855047E+02  0.22482539995E+02  0.64366438753E+02  0.00000000000E+00 0.  1.
         21    1    1    2  504  502  0.48014450972E+02  0.30490726492E+02 -0.26592370905E+03  0.27193839549E+03  0.00000000000E+00 0. -1.
         21    1    1    2  505  501 -0.91700290033E+02  0.54069780746E+02 -0.32887721114E+03  0.34567716787E+03  0.00000000000E+00 0. -1.
          3    1    1    2  501    0  0.24028168744E+02 -0.27541652190E+02  0.42397679282E+03  0.42554931130E+03  0.00000000000E+00 0. -1.
<scales pt_clust_3="87.57786" pt_clust_4="57.21474" pt_clust_5="14000.00000" pt_clust_6="36.54990"></scales>
<clustering>
<clus scale="   36.550">  1  6  2 -1</clus>
<clus scale="   57.215">  2  4  1 -1</clus>
<clus scale="   87.578">  1  3  2 -1</clus>
<clus scale="   57.215">  2  3  1 -1</clus>
</clustering>
</event>
<event>
 6    0  0.2433432E+002  0.2509410E+03  0.7546771E-02  0.1112712E+00
         21   -1    0    0  504  502  0.00000000000E+00  0.00000000000E+00  0.29827766584E+03  0.29827766584E+03  0.00000000000E+00 0.  1.
          2   -1    0    0  503    0 -0.00000000000E+00 -0.00000000000E+00 -0.92343055922E+03  0.92343055922E+03  0.00000000000E+00 0. -1.
         21    1    1    2  503  502 -0.26690136388E+02 -0.30990692096E+02 -0.47391419899E+02  0.62599784800E+02  0.00000000000E+00 0.  1.
         21    1    1    2  504  505 -0.23518225856E+02 -0.29558238895E+02  0.12362379225E+03  0.12926576671E+03  0.00000000000E+00 0.  1.
         21    1    1    2  505  501  0.24952305417E+03  0.13985047215E+03  0.10606498930E+02  0.28623837434E+03  0.00000000000E+00 0.  1.
          2    1    1    2  501    0 -0.19931469193E+03 -0.79301541161E+02 -0.71199176467E+03  0.74360429921E+03  0.00000000000E+00 0. -1.
<scales pt_clust_3="42.57008" pt_clust_4="37.77296" pt_clust_5="14000.00000" pt_clust_6="250.94098"></scales>
<clustering>
<clus scale="   37.773">  1  4  2 -1</clus>
<clus scale="   42.570">  2  3  1 -1</clus>
<clus scale="  250.941">  2  6  1 -1</clus>
<clus scale="   37.773">  1  3  2 -1</clus>
</clustering>
</event>
<event>
 6    0  0.3497113E+002  0.1136247E+03  0.7546771E-02  0.1254001E+00
         21   -1    0    0  503  502  0.00000000000E+00  0.00000000000E+00  0.43481713074E+03  0.43481713074E+03  0.00000000000E+00 0.  1.
          2   -1    0    0  505    0 -0.00000000000E+00 -0.00000000000E+00 -0.14397493244E+04  0.14397493244E+04  0.00000000000E+00 0.  1.
         21    1    1    2  503  504 -0.61687928531E+02  0.20247451331E+01  0.37052216131E+03  0.37562770417E+03  0.00000000000E+00 0.  1.
         21    1    1    2  504  501 -0.66043548601E+02 -0.16396763970E+01 -0.10144729121E+02  0.66838270320E+02  0.00000000000E+00 0.  1.
         21    1    1    2  505  502  0.16511800279E+02  0.39768358185E+02  0.15852905494E+02  0.45885471271E+02  0.00000000000E+00 0. -1.
          2    1    1    2  501    0  0.11121967685E+03 -0.40153426921E+02 -0.13811625314E+04  0.13862150094E+04  0.00000000000E+00 0.  1.
<scales pt_clust_3="60.48425" pt_clust_4="14000.00000" pt_clust_5="43.05998" pt_clust_6="113.62468"></scales>
<clustering>
<clus scale="   43.060">  1  5  2 -1</clus>
<clus scale="   60.484">  1  3  2 -1</clus>
<clus scale="  113.625">  2  6  1 -1</clus>
<clus scale="   43.060">  1  3  2 -1</clus>
</clustering>
</event>
<event>
 6    0  0.2433432E+002  0.1072155E+03  0.7546771E-02  0.1265815E+00
          1   -1    0    0  505    0 -0.00000000000E+00  0.00000000000E+00  0.63127333906E+03  0.63127333906E+03  0.00000000000E+00 0. -1.
         21   -1    0    0  503  502  0.00000000000E+00 -0.00000000000E+00 -0.26025520825E+04  0.26025520825E+04  0.00000000000E+00 0.  1.
         21    1    1    2  503  501 -0.30533445626E+02  0.15010396903E+02 -0.55347467474E+03  0.55451944862E+03  0.00000000000E+00 0.  1.
         21    1    1    2  504  502  0.26354743137E+02  0.77822485610E+02 -0.19209992627E+04  0.19227555952E+04  0.00000000000E+00 0.  1.
         21    1    1    2  505  504  0.10451206968E+03 -0.51894703303E+02 -0.93853436535E+02  0.14974745570E+03  0.00000000000E+00 0. -1.
          1    1    1    2  501    0 -0.10033336719E+03 -0.40938179209E+02  0.59704863046E+03  0.60680292206E+03  0.00000000000E+00 0. -1.
<scales pt_clust_3="34.02357" pt_clust_4="91.93322" pt_clust_5="107.21552" pt_clust_6="14000.00000"></scales>
<clustering>
<clus scale="   34.024">  2  3  1 -1</clus>
<clus scale="   91.933">  2  4  1 -1</clus>
<clus scale="  107.216">  2  5  1 -1</clus>
<clus scale="   34.024">  2  3  1 -1</clus>
</clustering>
</event>
<event>
 6    0  0.2433432E+002  0.1286792E+03  0.7546771E-02  0.1229429E+00
         -1   -1    0    0    0  501 -0.00000000000E+00  0.00000000000E+00  0.15455227992E+03  0.15455227992E+03  0.00000000000E+00 0. -1.
         21   -1    0    0  505  502  0.00000000000E+00 -0.00000000000E+00 -0.28255686980E+03  0.28255686980E+03  0.00000000000E+00 0. -1.
         21    1    1    2  503  502 -0.36474268626E+02  0.48620566927E+02  0.13570313110E+02  0.62277485482E+02  0.00000000000E+00 0. -1.
         21    1    1    2  504  501  0.18540447270E+02 -0.93983141174E+02 -0.94105619337E+02  0.13428494555E+03  0.00000000000E+00 0. -1.
         21    1    1    2  505  504  0.49414660188E+02 -0.11492816703E+02 -0.12763434517E+03  0.13734780503E+03  0.00000000000E+00 0.  1.
         -1    1    1    2    0  503 -0.31480838832E+02  0.56855390949E+02  0.80165061515E+02  0.10319891366E+03  0.00000000000E+00 0. -1.
<scales pt_clust_3="50.00621" pt_clust_4="117.06961" pt_clust_5="50.73355" pt_clust_6="50.00621"></scales>
<clustering>
<clus scale="   50.734">  2  5  1 -1</clus>
<clus scale="   50.006">  3  6 -1 -1</clus>
<clus scale="  117.070">  2  4  1 -1</clus>
<clus scale="   50.734">  2  3  1 -1</clus>
</clustering>
</event>
<event>
 6    0  0.2433432E+002  0.2105269E+03  0.7546771E-02  0.1141149E+00
         -1   -1    0    0    0  501 -0.00000000000E+00  0.00000000000E+00  0.81542664584E+03  0.81542664584E+03  0.00000000000E+00 0. -1.
         21   -1    0    0  503  502  0.00000000000E+00 -0.00000000000E+00 -0.14994166627E+03  0.14994166627E+03  0.00000000000E+00 0. -1.
         21    1    1    2  503  505  0.68651493280E+01 -0.38377289679E+02  0.59627041148E+02  0.71241355086E+02  0.00000000000E+00 0.  1.
         21    1    1    2  504  502  0.20789539727E+02  0.27382624652E+02 -0.73098200244E+02  0.80779700258E+02  0.00000000000E+00 0. -1.
         21    1    1    2  505  501 -0.21103720819E+03 -0.77716983111E+02  0.23709876766E+03  0.32679115399E+03  0.00000000000E+00 0. -1.
         -1    1    1    2    0  504  0.18338251913E+03  0.88711648138E+02  0.44185737100E+03  0.48655610278E+03  0.00000000000E+00 0. -1.
<scales pt_clust_3="37.18797" pt_clust_4="34.38042" pt_clust_5="14000.00000" pt_clust_6="210.52690"></scales>
<clustering>
<clus scale="   34.380">  2  4  1 -1</clus>
<clus scale="   37.188">  2  3  1 -1</clus>
<clus scale="  210.527">  1  6  2 -1</clus>
<clus scale="   34.380">  2  3  1 -1</clus>
</clustering>
</event>
<event>
 6    0  0.2433432E+002  0.1642302E+03  0.7546771E-02  0.1184002E+00
         21   -1    0    0  504  502  0.00000000000E+00  0.00000000000E+00  0.14442397244E+03  0.14442397244E+03  0.00000000000E+00 0.  1.
         -1   -1    0    0    0  501 -0.00000000000E+00 -0.00000000000E+00 -0.54666038396E+03  0.54666038396E+03  0.00000000000E+00 0. -1.
         21    1    1    2  503  502 -0.77990907872E+01  0.64331158941E+02 -0.97798534604E+01  0.65536015758E+02  0.00000000000E+00 0.  1.
         21    1    1    2  504  505  0.49664568002E+00 -0.66230379932E+02  0.17333171627E+02  0.68462754265E+02  0.00000000000E+00 0. -1.
         21    1    1    2  505  501  0.60445564340E+02 -0.13337249960E+03 -0.28691514752E+02  0.14921492190E+03  0.00000000000E+00 0.  1.
         -1    1    1    2    0  503 -0.53143119233E+02  0.13527172060E+03 -0.38109821493E+03  0.40787066447E+03  0.00000000000E+00 0. -1.
<scales pt_clust_3="64.80219" pt_clust_4="40.90520" pt_clust_5="40.90520" pt_clust_6="152.55251"></scales>
<clustering>
<clus scale="   40.905">  4  5 -1 -1</clus>
<clus scale="   64.802">  1  3  2 -1</clus>
<clus scale="  152.553">  2  6  1 -1</clus>
<clus scale="   64.802">  1  3  2 -1</clus>
</clustering>
</event>
<event>
 6    0  0.2433432E+002  0.1217587E+03  0.7546771E-02  0.1240224E+00
         21   -1    0    0  504  502  0.00000000000E+00  0.00000000000E+00  0.30876644395E+03  0.30876644395E+03  0.00000000000E+00 0. -1.
          1   -1    0    0  503    0 -0.00000000000E+00 -0.00000000000E+00 -0.77676978901E+03  0.77676978901E+03  0.00000000000E+00 0. -1.
         21    1    1    2  503  502 -0.62284904117E+01 -0.76435620564E+02 -0.22959386092E+00  0.76689314100E+02  0.00000000000E+00 0.  1.
         21    1    1    2  504  505 -0.24500507981E+02 -0.21555194080E+02  0.17362800824E+03  0.17666801218E+03  0.00000000000E+00 0. -1.
         21    1    1    2  505  501  0.21308249516E+02  0.21380943745E+03 -0.38635856138E+02  0.21831455842E+03  0.00000000000E+00 0. -1.
          1    1    1    2  501    0  0.94207488764E+01 -0.11581862280E+03 -0.60276590329E+03  0.61386434826E+03  0.00000000000E+00 0. -1.
<scales pt_clust_3="83.65693" pt_clust_4="32.63283" pt_clust_5="14000.00000" pt_clust_6="121.75873"></scales>
<clustering>
<clus scale="   32.633">  1  4  2 -1</clus>
<clus scale="   83.657">  1  3  2 -1</clus>
<clus scale="  121.759">  2  6  1 -1</clus>
<clus scale="   32.633">  1  3  2 -1</clus>
</clustering>
</event>
<event>
 6    0  0.2433432E+002  0.7574998E+02  0.7546771E-02  0.1341564E+00
          1   -1    0    0  503    0 -0.00000000000E+00  0.00000000000E+00  0.14909562609E+04  0.14909562609E+04  0.00000000000E+00 0.  1.
         21   -1    0    0  504  502  0.00000000000E+00 -0.00000000000E+00 -0.13706393182E+03  0.13706393182E+03  0.00000000000E+00 0. -1.
         21    1    1    2  503  505 -0.85155226796E+02 -0.51703817846E+01  0.35279369100E+03  0.36296216594E+03  0.00000000000E+00 0.  1.
         21    1    1    2  504  501  0.45409162517E+02 -0.12632090591E+02 -0.11838137993E+03  0.12741943677E+03  0.00000000000E+00 0. -1.
         21    1    1    2  505  502  0.37234718922E+02  0.71566792904E+02  0.18766429329E+03  0.20426971659E+03  0.00000000000E+00 0.  1.
          1    1    1    2  501    0  0.25113453574E+01 -0.53764320528E+02  0.93181572471E+03  0.93336887340E+03  0.00000000000E+00 0.  1.
<scales pt_clust_3="14000.00000" pt_clust_4="47.13345" pt_clust_5="75.74998" pt_clust_6="54.68609"></scales>
<clustering>
<clus scale="   47.133">  2  4  1 -1</clus>
<clus scale="   54.686">  1  6  2 -1</clus>
<clus scale="   75.750">  2  5  1 -1</clus>
<clus scale="   47.133">  2  3  1 -1</clus>
</clustering>
</event>
<event>
 6    0  0.2433432E+002  0.1400354E+03  0.7546771E-02  0.1213281E+00
         21   -1    0    0  504  502  0.00000000000E+00  0.00000000000E+00  0.16444686034E+03  0.16444686034E+03  0.00000000000E+00 0. -1.
          2   -1    0    0  502    0 -0.00000000000E+00 -0.00000000000E+00 -0.22835176149E+04  0.22835176149E+04  0.00000000000E+00 0. -1.
         21    1    1    2  503  501  0.99546061009E+02  0.11524676184E+03 -0.10813284757E+03  0.18677244738E+03  0.00000000000E+00 0. -1.
         21    1    1    2  504  505 -0.32874435423E+01  0.39411442244E+02  0.10061384510E+03  0.10810742292E+03  0.00000000000E+00 0. -1.
         21    1    1    2  505  503  0.52308947370E+00 -0.54433696340E+02 -0.21713123221E+02  0.58606831000E+02  0.00000000000E+00 0. -1.
          2    1    1    2  501    0 -0.96781706940E+02 -0.10022450775E+03 -0.20898386288E+04  0.20944777739E+04  0.00000000000E+00 0. -1.
<scales pt_clust_3="14000.00000" pt_clust_4="39.54831" pt_clust_5="42.33692" pt_clust_6="140.03544"></scales>
<clustering>
<clus scale="   39.548">  1  4  2 -1</clus>
<clus scale="   42.337">  1  5  2 -1</clus>
<clus scale="  140.035">  2  6  1 -1</clus>
<clus scale="   39.548">  1  3  2 -1</clus>
</clustering>
</event>
<event>
 6    0  0.2433432E+002  0.1411341E+03  0.7546771E-02  0.1211811E+00
         21   -1    0    0  503  502  0.00000000000E+00  0.00000000000E+00  0.57710952557E+03  0.57710952557E+03  0.00000000000E+00 0.  1.
          4   -1    0    0  505    0 -0.00000000000E+00 -0.00000000000E+00 -0.19484224439E+03  0.19484224439E+03  0.00000000000E+00 0. -1.
         21    1    1    2  503  504 -0.22122195016E+02 -0.23615109741E+02  0.25036679177E+02  0.40913325758E+02  0.00000000000E+00 0.  1.
         21    1    1    2  504  501 -0.56598536639E+01  0.12152883231E+03  0.11815124750E+03  0.16959070821E+03  0.00000000000E+00 0. -1.
         21    1    1    2  505  502  0.13447213266E+03 -0.11632587263E+03  0.35855145783E+03  0.40021695493E+03  0.00000000000E+00 0.  1.
          4    1    1    2  501    0 -0.10669008398E+03  0.18412150057E+02 -0.11947210332E+03  0.16123078106E+03  0.00000000000E+00 0. -1.
<scales pt_clust_3="32.35838" pt_clust_4="141.13410" pt_clust_5="14000.00000" pt_clust_6="108.95451"></scales>
<clustering>
<clus scale="   32.358">  1  3  2 -1</clus>
<clus scale="  108.955">  2  6  1 -1</clus>
<clus scale="  141.134">  2  4  1 -1</clus>
<clus scale="   32.358">  1  3  2 -1</clus>
</clustering>
</event>
<event>
 6    0  0.2433432E+002  0.1687081E+03  0.7546771E-02  0.1179202E+00
         21   -1    0    0  504  502  0.00000000000E+00  0.00000000000E+00  0.47276040971E+03  0.47276040971E+03  0.00000000000E+00 0. -1.
          1   -1    0    0  503    0 -0.00000000000E+00 -0.00000000000E+00 -0.12405487188E+04  0.12405487188E+04  0.00000000000E+00 0. -1.
         21    1    1    2  503  502 -0.14150022083E+01  0.34043612696E+02 -0.15297560448E+02  0.37349500027E+02  0.00000000000E+00 0.  1.
         21    1    1    2  504  505 -0.83500383176E+02 -0.12673831003E+02  0.11525937359E+02  0.85239587135E+02  0.00000000000E+00 0.  1.
         21    1    1    2  505  501  0.89712719599E+02 -0.18965049660E+03  0.38016845689E+03  0.43421623477E+03  0.00000000000E+00 0. -1.
          1    1    1    2  501    0 -0.47973342146E+01  0.16828071490E+03 -0.11441851429E+04  0.11565038065E+04  0.00000000000E+00 0. -1.
<scales pt_clust_3="34.07301" pt_clust_4="84.14290" pt_clust_5="14000.00000" pt_clust_6="168.70811"></scales>
<clustering>
<clus scale="   34.073">  1  3  2 -1</clus>
<clus scale="   84.143">  1  4  2 -1</clus>
<clus scale="  168.708">  2  6  1 -1</clus>
<clus scale="   34.073">  1  3  2 -1</clus>
</clustering>
</event>
<event>
 6    0  0.2433432E+002  0.1335831E+03  0.7546771E-02  0.1222234E+00
          2   -1    0    0  504    0 -0.00000000000E+00  0.00000000000E+00  0.12524475401E+04  0.12524475401E+04  0.00000000000E+00 0.  1.
         21   -1    0    0  505  502  0.00000000000E+00 -0.00000000000E+00 -0.90858779768E+02  0.90858779768E+02  0.00000000000E+00 0. -1.
         21    1    1    2  503  501  0.17641356483E+02  0.55162799554E+02  0.15815509270E+01  0.57936631042E+02  0.00000000000E+00 0. -1.
         21    1    1    2  504  502  0.36126116337E-01 -0.59201616660E+02  0.12739201221E+03  0.14047618124E+03  0.00000000000E+00 0. -1.
         21    1    1    2  505  503 -0.27769459132E+02  0.70445710339E+02 -0.29052157979E+02  0.81103445358E+02  0.00000000000E+00 0. -1.
          2    1    1    2  501    0  0.10091976532E+02 -0.66406893233E+02  0.10616673552E+04  0.10637900622E+04  0.00000000000E+00 0.  1.
<scales pt_clust_3="45.42150" pt_clust_4="59.20163" pt_clust_5="45.42150" pt_clust_6="123.07319"></scales>
<clustering>
<clus scale="   45.421">  3  5 -1 -1</clus>
<clus scale="   59.202">  1  4  2 -1</clus>
<clus scale="  123.073">  1  6  2 -1</clus>
<clus scale="  133.583">  2  3  1 -1</clus>
</clustering>
</event>
<event>
 6    0  0.2433432E+002  0.1646706E+03  0.7546771E-02  0.1183522E+00
         21   -1    0    0  505  502  0.00000000000E+00  0.00000000000E+00  0.33931572434E+03  0.33931572434E+03  0.00000000000E+00 0.  1.
          1   -1    0    0  504    0 -0.00000000000E+00 -0.00000000000E+00 -0.12168879254E+04  0.12168879254E+04  0.00000000000E+00 0. -1.
         21    1    1    2  503  501  0.17820243815E+03  0.11894557253E+02  0.11954257962E+03  0.21491397767E+03  0.00000000000E+00 0.  1.
         21    1    1    2  504  502 -0.13858489932E+03  0.41088416066E+02 -0.98107848768E+02  0.17469740194E+03  0.00000000000E+00 0. -1.
         21    1    1    2  505  503 -0.86974911984E+01 -0.36877118360E+02  0.13080931282E+03  0.13618606585E+03  0.00000000000E+00 0.  1.
          1    1    1    2  501    0 -0.30920047633E+02 -0.16105854959E+02 -0.10298162447E+04  0.10304062043E+04  0.00000000000E+00 0. -1.
<scales pt_clust_3="164.67061" pt_clust_4="14000.00000" pt_clust_5="38.21857" pt_clust_6="34.86327"></scales>
<clustering>
<clus scale="   34.863">  2  6  1 -1</clus>
<clus scale="   38.219">  1  5  2 -1</clus>
<clus scale="  164.671">  1  3  2 -1</clus>
<clus scale="   38.219">  1  3  2 -1</clus>
</clustering>
</event>
<event>
 6    0  0.2433432E+002  0.1774410E+03  0.7546771E-02  0.1170303E+00
         -2   -1    0    0    0  501 -0.00000000000E+00  0.00000000000E+00  0.78512850578E+03  0.78512850578E+03  0.00000000000E+00 0.  1.
         21   -1    0    0  505  502  0.00000000000E+00 -0.00000000000E+00 -0.17839309176E+03  0.17839309176E+03  0.00000000000E+00 0.  1.
         21    1    1    2  503  501  0.15395140789E+03  0.81122887142E+02  0.74745947987E+02  0.18939090672E+03  0.00000000000E+00 0.  1.
         21    1    1    2  504  502  0.15960087269E+02 -0.48019788236E+02 -0.91499497747E+02  0.10455994709E+03  0.00000000000E+00 0.  1.
         21    1    1    2  505  503 -0.39893352862E+01  0.32433081693E+02  0.15913498068E+02  0.36346375402E+02  0.00000000000E+00 0.  1.
         -2    1    1    2    0  504 -0.16592215987E+03 -0.65536180598E+02  0.60757546571E+03  0.63322436833E+03  0.00000000000E+00 0.  1.
<scales pt_clust_3="14000.00000" pt_clust_4="32.14914" pt_clust_5="32.67751" pt_clust_6="177.44103"></scales>
<clustering>
<clus scale="   32.678">  2  5  1 -1</clus>
<clus scale="   32.149">  2  4  1 -1</clus>
<clus scale="  177.441">  1  6  2 -1</clus>
<clus scale="   32.678">  2  3  1 -1</clus>
</clustering>
</event>
<event>
 6    0  0.2433432E+002  0.9700191E+02  0.7546771E-02  0.1286730E+00
         21   -1    0    0  504  502  0.00000000000E+00  0.00000000000E+00  0.47038924007E+02  0.47038924007E+02  0.00000000000E+00 0. -1.
          2   -1    0    0  503    0 -0.00000000000E+00 -0.00000000000E+00 -0.12022905019E+04  0.12022905019E+04  0.00000000000E+00 0.  1.
         21    1    1    2  503  505 -0.59110918377E+02 -0.12053389711E+03 -0.10510608450E+03  0.17049870974E+03  0.00000000000E+00 0. -1.
         21    1    1    2  504  501  0.25660602908E+02  0.45672040937E+02 -0.12855073355E+03  0.13881531962E+03  0.00000000000E+00 0.  1.
         21    1    1    2  505  502  0.27265233655E+02 -0.19763397892E+02 -0.35761246800E+02  0.49120786183E+02  0.00000000000E+00 0.  1.
          2    1    1    2  501    0  0.61850818137E+01  0.94625254066E+02 -0.88583351301E+03  0.89089461033E+03  0.00000000000E+00 0.  1.
<scales pt_clust_3="14000.00000" pt_clust_4="52.06834" pt_clust_5="33.67469" pt_clust_6="97.00191"></scales>
<clustering>
<clus scale="   33.675">  1  5  2 -1</clus>
<clus scale="   52.068">  1  4  2 -1</clus>
<clus scale="   97.002">  2  6  1 -1</clus>
<clus scale="   33.675">  1  3  2 -1</clus>
</clustering>
</event>
<event>
 6    0  0.2433432E+002  0.1215980E+03  0.7546771E-02  0.1240484E+00
         -4   -1    0    0    0  501 -0.00000000000E+00  0.00000000000E+00  0.26300333288E+04  0.26300333288E+04  0.00000000000E+00 0.  1.
         21   -1    0    0  505  502  0.00000000000E+00 -0.00000000000E+00 -0.33443529911E+03  0.33443529911E+03  0.00000000000E+00 0. -1.
         21    1    1    2  503  504 -0.65450432811E+02  0.17910463526E+02  0.10018992901E+03  0.12100646980E+03  0.00000000000E+00 0. -1.
         21    1    1    2  504  501 -0.41179077299E+02 -0.12693260486E+02  0.19195858097E+02  0.47173257647E+02  0.00000000000E+00 0. -1.
         21    1    1    2  505  503  0.99047234233E+02 -0.50287959373E+02 -0.29987090594E+03  0.31978397974E+03  0.00000000000E+00 0. -1.
         -4    1    1    2    0  502  0.75822758770E+01  0.45070756334E+02  0.24760831485E+04  0.24765049207E+04  0.00000000000E+00 0.  1.
<scales pt_clust_3="40.90121" pt_clust_4="40.90121" pt_clust_5="110.23474" pt_clust_6="45.70409"></scales>
<clustering>
<clus scale="   40.901">  3  4 -1 -1</clus>
<clus scale="   45.704">  1  6  2 -1</clus>
<clus scale="  110.235">  2  5  1 -1</clus>
<clus scale="  110.235">  2  3  1 -1</clus>
</clustering>
</event>
<event>
 6    0  0.2433432E+002  0.1155948E+03  0.7546771E-02  0.1250546E+00
          1   -1    0    0  504    0 -0.00000000000E+00  0.00000000000E+00  0.42829773095E+03  0.42829773095E+03  0.00000000000E+00 0.  1.
         21   -1    0    0  505  502  0.00000000000E+00 -0.00000000000E+00 -0.13827239588E+03  0.13827239588E+03  0.00000000000E+00 0.  1.
         21    1    1    2  503  502  0.98051425122E+02  0.37632397308E+02 -0.86730649219E+02  0.13620750644E+03  0.00000000000E+00 0.  1.
         21    1    1    2  504  503 -0.80751518789E+02 -0.49524200111E+02  0.13458202381E+03  0.16457756626E+03  0.00000000000E+00 0.  1.
         21    1    1    2  505  501  0.10390207210E+02  0.29574955743E+02  0.12458551102E+02  0.33732030900E+02  0.00000000000E+00 0.  1.
          1    1    1    2  501    0 -0.27690113543E+02 -0.17683152940E+02  0.22971540938E+03  0.23205302323E+03  0.00000000000E+00 0.  1.
<scales pt_clust_3="14000.00000" pt_clust_4="115.59481" pt_clust_5="31.34700" pt_clust_6="32.62930"></scales>
<clustering>
<clus scale="   31.347">  2  5  1 -1</clus>
<clus scale="   32.629">  1  6  2 -1</clus>
<clus scale="  115.595">  1  4  2 -1</clus>
<clus scale="   31.347">  2  3  1 -1</clus>
</clustering>
</event>
<event>
 6    0  0.2433432E+002  0.1264294E+03  0.7546771E-02  0.1232852E+00
          2   -1    0    0  505    0 -0.00000000000E+00  0.00000000000E+00  0.53327621587E+02  0.53327621587E+02  0.00000000000E+00 0.  1.
         21   -1    0    0  501  502  0.00000000000E+00 -0.00000000000E+00 -0.72117427820E+03  0.72117427820E+03  0.00000000000E+00 0.  1.
         21    1    1    2  503  504  0.44843719414E+02  0.25343230348E+02 -0.60366559747E+02  0.79355907348E+02  0.00000000000E+00 0.  1.
         21    1    1    2  504  502  0.18781278803E+02  0.92975741598E+02 -0.34469825920E+03  0.35751099963E+03  0.00000000000E+00 0.  1.
         21    1    1    2  505  503  0.36886845080E+02  0.47445153914E+01 -0.11416777628E+03  0.12007260682E+03  0.00000000000E+00 0.  1.
          2    1    1    2  501    0 -0.10051184330E+03 -0.12306348734E+03 -0.14861406138E+03  0.21756238599E+03  0.00000000000E+00 0.  1.
<scales pt_clust_3="35.28456" pt_clust_4="94.85370" pt_clust_5="35.28456" pt_clust_6="119.41546"></scales>
<clustering>
<clus scale="   35.285">  3  5 -1 -1</clus>
<clus scale="   94.854">  2  4  1 -1</clus>
<clus scale="  119.415">  2  6  1 -1</clus>
<clus scale="   94.854">  2  3  1 -1</clus>
</clustering>
</event>
<event>
 6    0  0.2433432E+002  0.1755989E+03  0.7546771E-02  0.1172132E+00
          1   -1    0    0  504    0 -0.00000000000E+00  0.00000000000E+00  0.84060282049E+03  0.84060282049E+03  0.00000000000E+00 0. -1.
         21   -1    0    0  505  502  0.00000000000E+00 -0.00000000000E+00 -0.15156513765E+03  0.15156513765E+03  0.00000000000E+00 0. -1.
         21    1    1    2  503  502 -0.14488698659E+03  0.97220336657E+02  0.10394404658E+02  0.17479152266E+03  0.00000000000E+00 0. -1.
         21    1    1    2  504  503 -0.25702753749E+01  0.37331478367E+02  0.50280272245E+02  0.62676561565E+02  0.00000000000E+00 0. -1.
         21    1    1    2  505  501 -0.36700046746E+02 -0.13814452341E+03  0.56145676439E+02  0.15356802975E+03  0.00000000000E+00 0. -1.
          1    1    1    2  501    0  0.18415730871E+03  0.35927083838E+01  0.57221732950E+03  0.60113184418E+03  0.00000000000E+00 0. -1.
<scales pt_clust_3="14000.00000" pt_clust_4="37.41986" pt_clust_5="138.20925" pt_clust_6="175.59895"></scales>
<clustering>
<clus scale="   37.420">  1  4  2 -1</clus>
<clus scale="  138.209">  2  5  1 -1</clus>
<clus scale="  175.599">  1  6  2 -1</clus>
<clus scale="  138.209">  2  3  1 -1</clus>
</clustering>
</event>
<event>
 6    0  0.2433432E+002  0.8891014E+02  0.7546771E-02  0.1305513E+00
          2   -1    0    0  505    0 -0.00000000000E+00  0.00000000000E+00  0.11564859398E+03  0.11564859398E+03  0.00000000000E+00 0.  1.
         21   -1    0    0  504  502  0.00000000000E+00 -0.00000000000E+00 -0.11176550447E+04  0.11176550447E+04  0.00000000000E+00 0.  1.
         21    1    1    2  503  501  0.44597500950E+02 -0.94456006246E+01 -0.82354466131E+02  0.94129775066E+02  0.00000000000E+00 0. -1.
         21    1    1    2  504  503  0.81253620419E+02  0.15368337222E+02 -0.74821265325E+03  0.75276856410E+03  0.00000000000E+00 0.  1.
         21    1    1    2  505  502 -0.14821275945E+03  0.15643013295E+02 -0.25605328845E+03  0.29626848036E+03  0.00000000000E+00 0. -1.
          2    1    1    2  501    0  0.22361638077E+02 -0.21565749893E+02  0.84613957121E+02  0.90136819145E+02  0.00000000000E+00 0.  1.
<scales pt_clust_3="51.18783" pt_clust_4="14000.00000" pt_clust_5="88.91014" pt_clust_6="31.06645"></scales>
<clustering>
<clus scale="   31.066">  1  6  2 -1</clus>
<clus scale="   51.188">  1  3  2 -1</clus>
<clus scale="   88.910">  1  5  2 -1</clus>
<clus scale="   88.910">  2  3  1 -1</clus>
</clustering>
</event>
<event>
 6    0  0.2433432E+002  0.1130292E+03  0.7546771E-02  0.1255061E+00
         21   -1    0    0  505  502  0.00000000000E+00  0.00000000000E+00  0.27786458669E+03  0.27786458669E+03  0.00000000000E+00 0. -1.
          1   -1    0    0  504    0 -0.00000000000E+00 -0.00000000000E+00 -0.46677523606E+03  0.46677523606E+03  0.00000000000E+00 0. -1.
         21    1    1    2  503  502 -0.45773825995E+02 -0.32063961550E+02 -0.16406136276E+02  0.58245189363E+02  0.00000000000E+00 0.  1.
         21    1    1    2  504  503 -0.68799086346E+02 -0.20588362426E+02 -0.82349723527E+02  0.10926422980E+03  0.00000000000E+00 0. -1.
         21    1    1    2  505  501  0.99970696520E+02  0.95547620894E+01  0.23146250528E+03  0.25230997799E+03  0.00000000000E+00 0. -1.
          1    1    1    2  501    0  0.14602215820E+02  0.43097561887E+02 -0.32161729484E+03  0.32482042560E+03  0.00000000000E+00 0. -1.
<scales pt_clust_3="43.28442" pt_clust_4="43.28442" pt_clust_5="101.82409" pt_clust_6="45.50412"></scales>
<clustering>
<clus scale="   43.284">  3  4 -1 -1</clus>
<clus scale="   45.504">  2  6  1 -1</clus>
<clus scale="  101.824">  1  5  2 -1</clus>
<clus scale="  101.824">  1  3  2 -1</clus>
</clustering>
</event>
<event>
 6    0  0.2433432E+002  0.8138771E+02  0.7546771E-02  0.1325159E+00
         21   -1    0    0  504  502  0.00000000000E+00  0.00000000000E+00  0.16497697689E+03  0.16497697689E+03  0.00000000000E+00 0.  1.
          2   -1    0    0  505    0 -0.00000000000E+00 -0.00000000000E+00 -0.23421570454E+04  0.23421570454E+04  0.00000000000E+00 0.  1.
         21    1    1    2  503  501  0.74044642635E+02  0.50251481224E+02 -0.39218604481E+02  0.97703221061E+02  0.00000000000E+00 0.  1.
         21    1    1    2  504  503 -0.29738311712E+02 -0.43851996181E+02  0.92635652539E+02  0.10671798758E+03  0.00000000000E+00 0.  1.
         21    1    1    2  505  502 -0.87979317913E+02  0.45258512525E+01 -0.18323361633E+02  0.89981049625E+02  0.00000000000E+00 0.  1.
          2    1    1    2  501    0  0.43672986990E+02 -0.10925336296E+02 -0.22122737549E+04  0.22127317640E+04  0.00000000000E+00 0.  1.
<scales pt_clust_3="14000.00000" pt_clust_4="52.19497" pt_clust_5="81.38771" pt_clust_6="45.01880"></scales>
<clustering>
<clus scale="   45.019">  2  6  1 -1</clus>
<clus scale="   52.195">  1  4  2 -1</clus>
<clus scale="   81.388">  2  5  1 -1</clus>
<clus scale="   52.195">  1  3  2 -1</clus>
</clustering>
</event>
<event>
 6    0  0.2433432E+002  0.1214089E+03  0.7546771E-02  0.1240791E+00
          1   -1    0    0  505    0 -0.00000000000E+00  0.00000000000E+00  0.16521375445E+04  0.16521375445E+04  0.00000000000E+00 0.  1.
         21   -1    0    0  503  502  0.00000000000E+00 -0.00000000000E+00 -0.46017859167E+02  0.46017859167E+02  0.00000000000E+00 0.  1.
         21    1    1    2  503  501  0.65648786497E+02  0.40651579405E+02  0.22539152609E+02  0.80438345812E+02  0.00000000000E+00 0.  1.
         21    1    1    2  504  502 -0.26501523351E+01  0.36366005630E+02  0.33721313525E+02  0.49665245984E+02  0.00000000000E+00 0.  1.
         21    1    1    2  505  504 -0.46650727200E+02  0.50870845395E+02  0.19098367547E+03  0.20307362594E+03  0.00000000000E+00 0.  1.
          1    1    1    2  501    0 -0.16347906961E+02 -0.12788843043E+03  0.13588755437E+04  0.13649781859E+04  0.00000000000E+00 0.  1.
<scales pt_clust_3="14000.00000" pt_clust_4="36.46244" pt_clust_5="73.65360" pt_clust_6="121.40885"></scales>
<clustering>
<clus scale="   36.462">  2  4  1 -1</clus>
<clus scale="   73.654">  2  5  1 -1</clus>
<clus scale="  121.409">  1  6  2 -1</clus>
<clus scale="   36.462">  2  3  1 -1</clus>
</clustering>
</event>
<event>
 6    0  0.2433432E+002  0.1809480E+03  0.7546771E-02  0.1166889E+00
          2   -1    0    0  503    0 -0.00000000000E+00  0.00000000000E+00  0.94485435236E+03  0.94485435236E+03  0.00000000000E+00 0.  1.
         21   -1    0    0  505  502  0.00000000000E+00 -0.00000000000E+00 -0.14631368472E+04  0.14631368472E+04  0.00000000000E+00 0. -1.
         21    1    1    2  503  502  0.14051315555E+03  0.13642410652E+03 -0.10184754274E+04  0.10371343596E+04  0.00000000000E+00 0. -1.
         21    1    1    2  504  501 -0.38788430885E+02 -0.13267784948E+02  0.10667433705E+02  0.42360012155E+02  0.00000000000E+00 0. -1.
         21    1    1    2  505  504 -0.12392602653E+03 -0.97676755782E+02 -0.40431638414E+03  0.43401629826E+03  0.00000000000E+00 0.  1.
          2    1    1    2  501    0  0.22201301867E+02 -0.25479565793E+02  0.89384188294E+03  0.89448052957E+03  0.00000000000E+00 0.  1.
<scales pt_clust_3="14000.00000" pt_clust_4="38.02395" pt_clust_5="180.94803" pt_clust_6="33.79506"></scales>
<clustering>
<clus scale="   33.795">  1  6  2 -1</clus>
<clus scale="   38.024">  1  4  2 -1</clus>
<clus scale="  180.948">  1  5  2 -1</clus>
<clus scale="  180.948">  2  3  1 -1</clus>
</clustering>
</event>
<event>
 6    0  0.2433432E+002  0.1607636E+03  0.7546771E-02  0.1187837E+00
          1   -1    0    0  502    0 -0.00000000000E+00  0.00000000000E+00  0.68475689294E+03  0.68475689294E+03  0.00000000000E+00 0. -1.
         21   -1    0    0  504  502  0.00000000000E+00 -0.00000000000E+00 -0.45748332584E+03  0.45748332584E+03  0.00000000000E+00 0.  1.
         21    1    1    2  503  501  0.42116565067E+02 -0.56254797239E+02 -0.37496582667E+02  0.79651748111E+02  0.00000000000E+00 0.  1.
         21    1    1    2  504  505  0.25851498805E+02 -0.28590196847E+02 -0.31465013702E+03  0.31700222093E+03  0.00000000000E+00 0.  1.
         21    1    1    2  505  503  0.56962354216E+02  0.11312032903E+02 -0.63776252956E+02  0.86255911840E+02  0.00000000000E+00 0.  1.
          1    1    1    2  501    0 -0.12493041809E+03  0.73532961183E+02  0.64319653975E+03  0.65933033791E+03  0.00000000000E+00 0. -1.
<scales pt_clust_3="66.79518" pt_clust_4="38.54477" pt_clust_5="66.79518" pt_clust_6="142.87144"></scales>
<clustering>
<clus scale="   38.545">  2  4  1 -1</clus>
<clus scale="   66.795">  3  5 -1 -1</clus>
<clus scale="  142.871">  1  6  2 -1</clus>
<clus scale="   38.545">  2  3  1 -1</clus>
</clustering>
</event>
<event>
 6    0  0.2433432E+002  0.6169061E+02  0.7546771E-02  0.1390871E+00
          2   -1    0    0  505    0 -0.00000000000E+00  0.00000000000E+00  0.51096553417E+03  0.51096553417E+03  0.00000000000E+00 0. -1.
         21   -1    0    0  504  502  0.00000000000E+00 -0.00000000000E+00 -0.65742652589E+03  0.65742652589E+03  0.00000000000E+00 0. -1.
         21    1    1    2  503  501 -0.18697933410E+02  0.91976270914E+02 -0.27239693931E+03  0.28811341459E+03  0.00000000000E+00 0. -1.
         21    1    1    2  504  503  0.30393614501E+02 -0.44996015308E+02 -0.34358642810E+03  0.34785060984E+03  0.00000000000E+00 0. -1.
         21    1    1    2  505  502  0.42918773513E+02 -0.31317726469E+02 -0.60502207565E+01  0.53473603603E+02  0.00000000000E+00 0. -1.
          2    1    1    2  501    0 -0.54614454604E+02 -0.15662529137E+02  0.47557259643E+03  0.47895443202E+03  0.00000000000E+00 0. -1.
<scales pt_clust_3="14000.00000" pt_clust_4="61.69061" pt_clust_5="53.13023" pt_clust_6="48.01427"></scales>
<clustering>
<clus scale="   53.130">  1  5  2 -1</clus>
<clus scale="   48.014">  1  6  2 -1</clus>
<clus scale="   61.691">  2  4  1 -1</clus>
<clus scale="   61.691">  2  3  1 -1</clus>
</clustering>
</event>
<event>
 6    0  0.2433432E+002  0.9386971E+02  0.7546771E-02  0.1293742E+00
         21   -1    0    0  503  502  0.00000000000E+00  0.00000000000E+00  0.12025427472E+04  0.12025427472E+04  0.00000000000E+00 0. -1.
          1   -1    0    0  504    0 -0.00000000000E+00 -0.00000000000E+00 -0.21896006232E+04  0.21896006232E+04  0.00000000000E+00 0.  1.
         21    1    1    2  503  505 -0.93926773653E+02  0.24646683334E+01  0.11816508089E+04  0.11853805075E+04  0.00000000000E+00 0. -1.
         21    1    1    2  504  502  0.52701520072E+02 -0.99166734392E+02 -0.79854478908E+03  0.80640267335E+03  0.00000000000E+00 0. -1.
         21    1    1    2  505  501  0.79084278675E+01  0.68157593846E+02 -0.65178106951E+02  0.94637130429E+02  0.00000000000E+00 0.  1.
          1    1    1    2  501    0  0.33316825714E+02  0.28544472213E+02 -0.13049857889E+04  0.13057230591E+04  0.00000000000E+00 0.  1.
<scales pt_clust_3="14000.00000" pt_clust_4="93.86971" pt_clust_5="71.57490" pt_clust_6="43.87252"></scales>
<clustering>
<clus scale="   43.873">  2  6  1 -1</clus>
<clus scale="   71.575">  2  5  1 -1</clus>
<clus scale="   93.870">  2  4  1 -1</clus>
<clus scale="   93.870">  1  3  2 -1</clus>
</clustering>
</event>
<event>
 6    0  0.2433432E+002  0.1736887E+03  0.7546771E-02  0.1174055E+00
         21   -1    0    0  504  502  0.00000000000E+00  0.00000000000E+00  0.95395044819E+02  0.95395044819E+02  0.00000000000E+00 0. -1.
          1   -1    0    0  503    0 -0.00000000000E+00 -0.00000000000E+00 -0.22462151458E+04  0.22462151458E+04  0.00000000000E+00 0.  1.
         21    1    1    2  503  505 -0.67112052770E+02 -0.54185640694E+02 -0.54333861775E+03  0.55014267679E+03  0.00000000000E+00 0. -1.
         21    1    1    2  504  501  0.25378258892E+02  0.15375544289E+03  0.18113996161E+02  0.15688501872E+03  0.00000000000E+00 0. -1.
         21    1    1    2  505  502  0.93035308665E+01 -0.61502142209E+02 -0.23514157091E+03  0.24322957788E+03  0.00000000000E+00 0. -1.
          1    1    1    2  501    0  0.32430263012E+02 -0.38067659985E+02 -0.13904539085E+04  0.13913529172E+04  0.00000000000E+00 0.  1.
<scales pt_clust_3="73.86195" pt_clust_4="153.24862" pt_clust_5="73.86195" pt_clust_6="50.00869"></scales>
<clustering>
<clus scale="   50.009">  2  6  1 -1</clus>
<clus scale="   73.862">  3  5 -1 -1</clus>
<clus scale="  153.249">  1  4  2 -1</clus>
<clus scale="  153.249">  1  3  2 -1</clus>
</clustering>
</event>
<event>
 6    0  0.2433432E+002  0.1114059E+03  0.7546771E-02  0.1257988E+00
         21   -1    0    0  503  502  0.00000000000E+00  0.00000000000E+00  0.44315094871E+02  0.44315094871E+02  0.00000000000E+00 0.  1.
          2   -1    0    0  505    0 -0.00000000000E+00 -0.00000000000E+00 -0.22928397249E+04  0.22928397249E+04  0.00000000000E+00 0.  1.
         21    1    1    2  503  504 -0.36775000281E+02  0.24721583026E+02 -0.33049224398E+03  0.33344966734E+03  0.00000000000E+00 0.  1.
         21    1    1    2  504  501 -0.14880526361E+02  0.59888485050E+02 -0.35410299919E+03  0.35943983466E+03  0.00000000000E+00 0. -1.
         21    1    1    2  505  502  0.93638069110E+02 -0.49254134131E+02 -0.30855802415E+02  0.11020951982E+03  0.00000000000E+00 0.  1.
          2    1    1    2  501    0 -0.41982542467E+02 -0.35355933945E+02 -0.15330735845E+04  0.15340557980E+04  0.00000000000E+00 0.  1.
<scales pt_clust_3="33.87515" pt_clust_4="33.87515" pt_clust_5="103.98665" pt_clust_6="54.88694"></scales>
<clustering>
<clus scale="   33.875">  3  4 -1 -1</clus>
<clus scale="   54.887">  2  6  1 -1</clus>
<clus scale="  103.987">  1  5  2 -1</clus>
<clus scale="  103.987">  1  3  2 -1</clus>
</clustering>
</event>
<event>
 6    0  0.2433432E+002  0.3702717E+03  0.7546771E-02  0.1054589E+00
         21   -1    0    0  504  502  0.00000000000E+00  0.00000000000E+00  0.21904157364E+03  0.21904157364E+03  0.00000000000E+00 0.  1.
          2   -1    0    0  505    0 -0.00000000000E+00 -0.00000000000E+00 -0.21283164288E+04  0.21283164288E+04  0.00000000000E+00 0.  1.
         21    1    1    2  503  502 -0.11710899474E+03  0.93468595045E+02  0.60815136583E+02  0.16170768611E+03  0.00000000000E+00 0.  1.
         21    1    1    2  504  501 -0.61906716680E+02 -0.70074486607E+02 -0.90016786159E+02  0.12979174486E+03  0.00000000000E+00 0.  1.
         21    1    1    2  505  503 -0.22599094695E+03  0.97751122465E+02 -0.18261870379E+03  0.30655632602E+03  0.00000000000E+00 0.  1.
          2    1    1    2  501    0  0.40500665837E+03 -0.12114523090E+03 -0.16974545018E+04  0.17493022455E+04  0.00000000000E+00 0.  1.
<scales pt_clust_3="161.12687" pt_clust_4="93.50334" pt_clust_5="370.27167" pt_clust_6="14000.00000"></scales>
<clustering>
<clus scale="   93.503">  1  4  2 -1</clus>
<clus scale="  161.127">  1  3  2 -1</clus>
<clus scale="  370.272">  1  5  2 -1</clus>
<clus scale="   93.503">  1  3  2 -1</clus>
</clustering>
</event>
<event>
 6    0  0.2433432E+002  0.8851322E+02  0.7546771E-02  0.1306493E+00
          2   -1    0    0  503    0 -0.00000000000E+00  0.00000000000E+00  0.10710877457E+04  0.10710877457E+04  0.00000000000E+00 0. -1.
         21   -1    0    0  505  502  0.00000000000E+00 -0.00000000000E+00 -0.69689655971E+02  0.69689655971E+02  0.00000000000E+00 0.  1.
         21    1    1    2  503  504  0.16729151506E+01  0.60381332336E+02  0.53240475379E+02  0.80518644787E+02  0.00000000000E+00 0.  1.
         21    1    1    2  504  502 -0.36147518551E+02 -0.38083267796E+02  0.24141993914E+01  0.52562408071E+02  0.00000000000E+00 0.  1.
         21    1    1    2  505  501 -0.21946371430E+02  0.49420841010E+02 -0.33953572796E+01  0.54181096299E+02  0.00000000000E+00 0.  1.
          2    1    1    2  501    0  0.56420974831E+02 -0.71718905549E+02  0.94913877226E+03  0.95351525254E+03  0.00000000000E+00 0. -1.
<scales pt_clust_3="49.63310" pt_clust_4="52.50694" pt_clust_5="14000.00000" pt_clust_6="88.51322"></scales>
<clustering>
<clus scale="   52.507">  2  4  1 -1</clus>
<clus scale="   49.633">  2  3  1 -1</clus>
<clus scale="   88.513">  1  6  2 -1</clus>
<clus scale="   52.507">  2  3  1 -1</clus>
</clustering>
</event>
<event>
 6    0  0.2433432E+002  0.1161450E+03  0.7546771E-02  0.1249596E+00
          2   -1    0    0  505    0 -0.00000000000E+00  0.00000000000E+00  0.67457261700E+03  0.67457261700E+03  0.00000000000E+00 0.  1.
         21   -1    0    0  503  502  0.00000000000E+00 -0.00000000000E+00 -0.45432000119E+03  0.45432000119E+03  0.00000000000E+00 0. -1.
         21    1    1    2  503  501 -0.72441719931E+02  0.32161689300E+02 -0.28597504735E+03  0.29675563137E+03  0.00000000000E+00 0. -1.
         21    1    1    2  504  502  0.47822242030E+02 -0.10945403083E+02 -0.36490230905E+02  0.61141684904E+02  0.00000000000E+00 0. -1.
         21    1    1    2  505  504  0.69770197851E+02  0.64107887551E+02 -0.90163320753E+02  0.13079421304E+03  0.00000000000E+00 0.  1.
          2    1    1    2  501    0 -0.45150719950E+02 -0.85324173768E+02  0.63288121481E+03  0.64020108888E+03  0.00000000000E+00 0.  1.
<scales pt_clust_3="79.26019" pt_clust_4="46.32112" pt_clust_5="46.32112" pt_clust_6="96.67278"></scales>
<clustering>
<clus scale="   46.321">  4  5 -1 -1</clus>
<clus scale="   79.260">  2  3  1 -1</clus>
<clus scale="   96.673">  1  6  2 -1</clus>
<clus scale="   79.260">  2  3  1 -1</clus>
</clustering>
</event>
<event>
 6    0  0.2433432E+002  0.8684393E+02  0.7546771E-02  0.1310680E+00
         21   -1    0    0  504  502  0.00000000000E+00  0.00000000000E+00  0.10775225495E+04  0.10775225495E+04  0.00000000000E+00 0.  1.
          2   -1    0    0  502    0 -0.00000000000E+00 -0.00000000000E+00 -0.27746239757E+04  0.27746239757E+04  0.00000000000E+00 0. -1.
         21    1    1    2  503  501  0.38889376472E+02 -0.58749303247E+02  0.32100783551E+02  0.77423023314E+02  0.00000000000E+00 0.  1.
         21    1    1    2  504  505 -0.80712287374E+02  0.60310473898E+02  0.75360089350E+03  0.76030660478E+03  0.00000000000E+00 0.  1.
         21    1    1    2  505  503  0.54272090540E+02 -0.41821896394E+02  0.26122706150E+03  0.27006315648E+03  0.00000000000E+00 0.  1.
          2    1    1    2  501    0 -0.12449179638E+02  0.40260725743E+02 -0.27440301648E+04  0.27443537406E+04  0.00000000000E+00 0. -1.
<scales pt_clust_3="41.29121" pt_clust_4="14000.00000" pt_clust_5="86.84393" pt_clust_6="42.14152"></scales>
<clustering>
<clus scale="   42.142">  2  6  1 -1</clus>
<clus scale="   41.291">  2  3  1 -1</clus>
<clus scale="   86.844">  2  5  1 -1</clus>
<clus scale="   86.844">  1  3  2 -1</clus>
</clustering>
</event>
<event>
 6    0  0.2433432E+002  0.1904213E+03  0.7546771E-02  0.1158082E+00
         21   -1    0    0  505  502  0.00000000000E+00  0.00000000000E+00  0.13831659760E+03  0.13831659760E+03  0.00000000000E+00 0.  1.
         -4   -1    0    0    0  501 -0.00000000000E+00 -0.00000000000E+00 -0.35466246476E+03  0.35466246476E+03  0.00000000000E+00 0. -1.
         21    1    1    2  503  501  0.61623418887E+01  0.39879090940E+02  0.19235405365E+01  0.40398222237E+02  0.00000000000E+00 0.  1.
         21    1    1    2  504  502  0.59259333369E+02 -0.53696786955E+02 -0.65512072357E+02  0.10337719838E+03  0.00000000000E+00 0.  1.
         21    1    1    2  505  503 -0.93202923275E+02  0.11421610282E+03  0.18681672774E+02  0.14859713304E+03  0.00000000000E+00 0.  1.
         -4    1    1    2    0  504  0.27781248018E+02 -0.10039840680E+03 -0.17143900812E+03  0.20060650870E+03  0.00000000000E+00 0. -1.
<scales pt_clust_3="32.97872" pt_clust_4="61.57453" pt_clust_5="187.86876" pt_clust_6="61.57453"></scales>
<clustering>
<clus scale="   32.979">  3  5 -1 -1</clus>
<clus scale="   61.575">  4  6 -1 -1</clus>
<clus scale="  187.869">  1  3  2 -1</clus>
<clus scale="  187.869">  1  3  2 -1</clus>
</clustering>
</event>
<event>
 6    0  0.2433432E+002  0.1337605E+03  0.7546771E-02  0.1221980E+00
         -1   -1    0    0    0  501 -0.00000000000E+00  0.00000000000E+00  0.64182663915E+02  0.64182663915E+02  0.00000000000E+00 0. -1.
         21   -1    0    0  503  502  0.00000000000E+00 -0.00000000000E+00 -0.95626229196E+03  0.95626229196E+03  0.00000000000E+00 0. -1.
         21    1    1    2  503  504  0.54686828101E+02 -0.73039061792E+02 -0.63836090750E+02  0.11135708418E+03  0.00000000000E+00 0. -1.
         21    1    1    2  504  501  0.55313458626E+01 -0.46856369739E+02 -0.57322973138E+02  0.74243103528E+02  0.00000000000E+00 0. -1.
         21    1    1    2  505  502 -0.30208230190E+02  0.87040217175E+00 -0.68344966510E+03  0.68411748954E+03  0.00000000000E+00 0. -1.
         -1    1    1    2    0  505 -0.30009943774E+02  0.11902502936E+03 -0.87470899053E+02  0.15072727862E+03  0.00000000000E+00 0. -1.
<scales pt_clust_3="31.05088" pt_clust_4="31.05088" pt_clust_5="30.22077" pt_clust_6="126.98465"></scales>
<clustering>
<clus scale="   30.221">  2  5  1 -1</clus>
<clus scale="   31.051">  3  4 -1 -1</clus>
<clus scale="  126.985">  1  6  2 -1</clus>
<clus scale="   30.221">  2  3  1 -1</clus>
</clustering>
</event>
<event>
 6    0  0.2433432E+002  0.1560885E+03  0.7546771E-02  0.1193185E+00
         21   -1    0    0  504  502  0.00000000000E+00  0.00000000000E+00  0.11778674989E+04  0.11778674989E+04  0.00000000000E+00 0.  1.
         -2   -1    0    0    0  501 -0.00000000000E+00 -0.00000000000E+00 -0.22691551146E+03  0.22691551146E+03  0.00000000000E+00 0.  1.
         21    1    1    2  503  505  0.10936508848E+03  0.11874615459E+03  0.40374101376E+03  0.43481970747E+03  0.00000000000E+00 0.  1.
         21    1    1    2  504  501 -0.23633408046E+02 -0.15468567028E+03  0.62796124685E+03  0.64716421572E+03  0.00000000000E+00 0.  1.
         21    1    1    2  505  502 -0.51255050852E+02 -0.21447312505E+02  0.10858608376E+03  0.12197542801E+03  0.00000000000E+00 0.  1.
         -2    1    1    2    0  503 -0.34476629580E+02  0.57386828187E+02 -0.18933635692E+03  0.20082365918E+03  0.00000000000E+00 0.  1.
<scales pt_clust_3="156.08850" pt_clust_4="14000.00000" pt_clust_5="55.56138" pt_clust_6="66.99085"></scales>
<clustering>
<clus scale="   55.561">  1  5  2 -1</clus>
<clus scale="   66.991">  2  6  1 -1</clus>
<clus scale="  156.088">  2  3  1 -1</clus>
<clus scale="   55.561">  1  3  2 -1</clus>
</clustering>
</event>
<event>
 6    0  0.2433432E+002  0.1255151E+03  0.7546771E-02  0.1234266E+00
         21   -1    0    0  503  502  0.00000000000E+00  0.00000000000E+00  0.51111510492E+03  0.51111510492E+03  0.00000000000E+00 0. -1.
         -4   -1    0    0    0  501 -0.00000000000E+00 -0.00000000000E+00 -0.30813291346E+03  0.30813291346E+03  0.00000000000E+00 0.  1.
         21    1    1    2  503  504 -0.96905629020E+02  0.82640116094E+01  0.39954510016E+03  0.41121196710E+03  0.00000000000E+00 0. -1.
         21    1    1    2  504  501  0.52089139764E+02  0.67287847034E+02 -0.34307019887E+02  0.91749138706E+02  0.00000000000E+00 0. -1.
         21    1    1    2  505  502 -0.58117525486E+02 -0.10617902607E+03  0.79432068324E+00  0.12104653358E+03  0.00000000000E+00 0. -1.
         -4    1    1    2    0  505  0.10293401474E+03  0.30627167425E+02 -0.16305020949E+03  0.19524037900E+03  0.00000000000E+00 0.  1.
<scales pt_clust_3="96.17326" pt_clust_4="85.09367" pt_clust_5="125.51515" pt_clust_6="14000.00000"></scales>
<clustering>
<clus scale="   85.094">  2  4  1 -1</clus>
<clus scale="   96.173">  1  3  2 -1</clus>
<clus scale="  125.515">  1  5  2 -1</clus>
<clus scale="   96.173">  1  3  2 -1</clus>
</clustering>
</event>
<event>
 6    0  0.2689813E+002  0.1110258E+03  0.7546771E-02  0.1258682E+00
         21   -1    0    0  504  502  0.00000000000E+00  0.00000000000E+00  0.23522067127E+03  0.23522067127E+03  0.00000000000E+00 0.  1.
          2   -1    0    0  503    0 -0.00000000000E+00 -0.00000000000E+00 -0.18140664427E+04  0.18140664427E+04  0.00000000000E+00 0.  1.
         21    1    1    2  503  502 -0.31422968655E+02  0.75800626236E+02  0.11655137880E+03  0.14253898343E+03  0.00000000000E+00 0.  1.
         21    1    1    2  504  505 -0.77676791294E+02  0.43800218138E+01  0.78034169667E+02  0.11019165183E+03  0.00000000000E+00 0.  1.
         21    1    1    2  505  501  0.66595709231E+02 -0.35194345973E+02 -0.11814645087E+03  0.14011500394E+03  0.00000000000E+00 0. -1.
          2    1    1    2  501    0  0.42504050717E+02 -0.44986302076E+02 -0.16552848690E+04  0.16564414748E+04  0.00000000000E+00 0.  1.
<scales pt_clust_3="111.02585" pt_clust_4="73.35721" pt_clust_5="14000.00000" pt_clust_6="61.88992"></scales>
<clustering>
<clus scale="   61.890">  2  6  1 -1</clus>
<clus scale="   73.357">  1  4  2 -1</clus>
<clus scale="  111.026">  1  3  2 -1</clus>
<clus scale="   73.357">  1  3  2 -1</clus>
</clustering>
</event>
<event>
 6    0  0.2433432E+002  0.7463723E+02  0.7546771E-02  0.1344998E+00
          2   -1    0    0  505    0 -0.00000000000E+00  0.00000000000E+00  0.13656074957E+04  0.13656074957E+04  0.00000000000E+00 0.  1.
         21   -1    0    0  503  502  0.00000000000E+00 -0.00000000000E+00 -0.54539464366E+03  0.54539464366E+03  0.00000000000E+00 0.  1.
         21    1    1    2  503  501 -0.83223835210E+02 -0.39351494287E+02  0.33112460202E+02  0.97832417277E+02  0.00000000000E+00 0. -1.
         21    1    1    2  504  502  0.24160904689E+02 -0.29326061643E+02 -0.49747730282E+03  0.49892628115E+03  0.00000000000E+00 0.  1.
         21    1    1    2  505  504  0.75101409810E+01  0.72027655063E+02  0.77530878755E+02  0.10609157588E+03  0.00000000000E+00 0. -1.
          2    1    1    2  501    0  0.51552789540E+02 -0.33500991339E+01  0.12070468159E+04  0.12081518651E+04  0.00000000000E+00 0.  1.
<scales pt_clust_3="14000.00000" pt_clust_4="37.99694" pt_clust_5="74.63723" pt_clust_6="51.96708"></scales>
<clustering>
<clus scale="   37.997">  2  4  1 -1</clus>
<clus scale="   51.967">  1  6  2 -1</clus>
<clus scale="   74.637">  1  5  2 -1</clus>
<clus scale="   37.997">  2  3  1 -1</clus>
</clustering>
</event>
<event>
 6    0  0.2433432E+002  0.1244087E+03  0.7546771E-02  0.1235996E+00
          1   -1    0    0  502    0 -0.00000000000E+00  0.00000000000E+00  0.16183623078E+03  0.16183623078E+03  0.00000000000E+00 0.  1.
         21   -1    0    0  505  502  0.00000000000E+00 -0.00000000000E+00 -0.47220559692E+03  0.47220559692E+03  0.00000000000E+00 0. -1.
         21    1    1    2  503  501 -0.10695503962E+03  0.20024441313E+02  0.70240406935E+01  0.10903988214E+03  0.00000000000E+00 0. -1.
         21    1    1    2  504  503  0.52692712969E+02 -0.13347342691E+02 -0.16032374051E+03  0.16928784755E+03  0.00000000000E+00 0. -1.
         21    1    1    2  505  504  0.68258727371E+02  0.22303133371E+02 -0.24856162878E+03  0.25872681910E+03  0.00000000000E+00 0. -1.
          1    1    1    2  501    0 -0.13996400724E+02 -0.28980231992E+02  0.91491962452E+02  0.96987278923E+02  0.00000000000E+00 0.  1.
<scales pt_clust_3="119.07004" pt_clust_4="31.36764" pt_clust_5="31.36764" pt_clust_6="32.18312"></scales>
<clustering>
<clus scale="   31.368">  4  5 -1 -1</clus>
<clus scale="   32.183">  1  6  2 -1</clus>
<clus scale="  119.070">  1  3  2 -1</clus>
<clus scale="  124.409">  2  3  1 -1</clus>
</clustering>
</event>
<event>
 6    0  0.2433432E+002  0.9127307E+02  0.7546771E-02  0.1299798E+00
          2   -1    0    0  505    0 -0.00000000000E+00  0.00000000000E+00  0.50263093704E+03  0.50263093704E+03  0.00000000000E+00 0. -1.
         21   -1    0    0  503  502  0.00000000000E+00 -0.00000000000E+00 -0.10544782226E+03  0.10544782226E+03  0.00000000000E+00 0. -1.
         21    1    1    2  503  501 -0.18966046645E+02 -0.41122354928E+02  0.41205604901E+00  0.45287181303E+02  0.00000000000E+00 0. -1.
         21    1    1    2  504  502 -0.58738266677E+02  0.10315403490E+03 -0.20142887646E+02  0.12040213790E+03  0.00000000000E+00 0. -1.
         21    1    1    2  505  504  0.46374391257E+02 -0.51546851183E+02  0.89029012713E+02  0.11284426054E+03  0.00000000000E+00 0. -1.
          2    1    1    2  501    0  0.31329922064E+02 -0.10484828794E+02  0.32788493366E+03  0.32954517957E+03  0.00000000000E+00 0. -1.
<scales pt_clust_3="45.01952" pt_clust_4="91.27307" pt_clust_5="14000.00000" pt_clust_6="33.03779"></scales>
<clustering>
<clus scale="   33.038">  1  6  2 -1</clus>
<clus scale="   45.020">  2  3  1 -1</clus>
<clus scale="   91.273">  2  4  1 -1</clus>
<clus scale="   45.020">  2  3  1 -1</clus>
</clustering>
</event>
<event>
 6    0  0.2433432E+002  0.1150954E+03  0.7546771E-02  0.1251415E+00
          3   -1    0    0  502    0 -0.00000000000E+00  0.00000000000E+00  0.49341325714E+03  0.49341325714E+03  0.00000000000E+00 0.  1.
         21   -1    0    0  503  502  0.00000000000E+00 -0.00000000000E+00 -0.11632807542E+03  0.11632807542E+03  0.00000000000E+00 0.  1.
         21    1    1    2  503  505 -0.30070039723E+02  0.18319727734E+01 -0.34289071903E+02  0.45643223650E+02  0.00000000000E+00 0.  1.
         21    1    1    2  504  501 -0.34600050027E+01 -0.83165596419E+02 -0.16625918254E+02  0.84881736670E+02  0.00000000000E+00 0.  1.
         21    1    1    2  505  504 -0.41483263435E+02 -0.16294965643E+02  0.13129778021E+02  0.46462652974E+02  0.00000000000E+00 0.  1.
          3    1    1    2  501    0  0.75013308161E+02  0.97628589289E+02  0.41487039385E+03  0.43275371927E+03  0.00000000000E+00 0.  1.
<scales pt_clust_3="30.12579" pt_clust_4="14000.00000" pt_clust_5="50.60726" pt_clust_6="115.09536"></scales>
<clustering>
<clus scale="   30.126">  2  3  1 -1</clus>
<clus scale="   50.607">  2  5  1 -1</clus>
<clus scale="  115.095">  1  6  2 -1</clus>
<clus scale="   30.126">  2  3  1 -1</clus>
</clustering>
</event>
<event>
 6    0  0.2433432E+002  0.1059558E+03  0.7546771E-02  0.1268248E+00
         21   -1    0    0  501  502  0.00000000000E+00  0.00000000000E+00  0.18374163191E+03  0.18374163191E+03  0.00000000000E+00 0.  1.
          2   -1    0    0  505    0 -0.00000000000E+00 -0.00000000000E+00 -0.22161079820E+04  0.22161079820E+04  0.00000000000E+00 0.  1.
         21    1    1    2  503  502 -0.52358372860E+02 -0.93103390215E+02  0.16251787649E+03  0.19447802101E+03  0.00000000000E+00 0.  1.
         21    1    1    2  504  503  0.68482082239E+02 -0.59971715213E+01 -0.80046732910E+03  0.80341378294E+03  0.00000000000E+00 0. -1.
         21    1    1    2  505  504  0.35279743229E+02  0.21779495171E+02 -0.21974594656E+03  0.22362309300E+03  0.00000000000E+00 0. -1.
          2    1    1    2  501    0 -0.51403452608E+02  0.77321066565E+02 -0.11746709509E+04  0.11783347170E+04  0.00000000000E+00 0.  1.
<scales pt_clust_3="14000.00000" pt_clust_4="82.71383" pt_clust_5="41.46091" pt_clust_6="105.95580"></scales>
<clustering>
<clus scale="   41.461">  2  5  1 -1</clus>
<clus scale="   82.714">  2  4  1 -1</clus>
<clus scale="  105.956">  2  6  1 -1</clus>
<clus scale="  105.956">  1  3  2 -1</clus>
</clustering>
</event>
<event>
 6    0  0.2433432E+002  0.1023106E+03  0.7546771E-02  0.1275511E+00
         21   -1    0    0  503  502  0.00000000000E+00  0.00000000000E+00  0.96727251274E+03  0.96727251274E+03  0.00000000000E+00 0. -1.
          2   -1    0    0  505    0 -0.00000000000E+00 -0.00000000000E+00 -0.37545933665E+03  0.37545933665E+03  0.00000000000E+00 0.  1.
         21    1    1    2  503  501 -0.39566412066E+02 -0.11751432274E+03  0.92003181951E+02  0.15440110913E+03  0.00000000000E+00 0.  1.
         21    1    1    2  504  502  0.71587043861E+02  0.71342334493E+02  0.67268455679E+03  0.68023447905E+03  0.00000000000E+00 0. -1.
         21    1    1    2  505  504 -0.19157689567E+02  0.89708431688E+02  0.15336954590E+03  0.17870880615E+03  0.00000000000E+00 0. -1.
          2    1    1    2  501    0 -0.12862942227E+02 -0.43536443443E+02 -0.32624410855E+03  0.32938745507E+03  0.00000000000E+00 0.  1.
<scales pt_clust_3="14000.00000" pt_clust_4="102.31064" pt_clust_5="81.32791" pt_clust_6="45.39689"></scales>
<clustering>
<clus scale="   45.397">  2  6  1 -1</clus>
<clus scale="   81.328">  2  5  1 -1</clus>
<clus scale="  102.311">  1  4  2 -1</clus>
<clus scale="  102.311">  1  3  2 -1</clus>
</clustering>
</event>
<event>
 6    0  0.2433432E+002  0.1222968E+03  0.7546771E-02  0.1239355E+00
         21   -1    0    0  503  502  0.00000000000E+00  0.00000000000E+00  0.40002424778E+02  0.40002424778E+02  0.00000000000E+00 0. -1.
         -1   -1    0    0    0  501 -0.00000000000E+00 -0.00000000000E+00 -0.15149335875E+04  0.15149335875E+04  0.00000000000E+00 0. -1.
         21    1    1    2  503  504 -0.53283609341E+02 -0.79290006041E+02 -0.12892967007E+03  0.16046466249E+03  0.00000000000E+00 0. -1.
         21    1    1    2  504  505  0.70379616043E+02  0.76232697911E+02 -0.24266883417E+03  0.26391831627E+03  0.00000000000E+00 0. -1.
         21    1    1    2  505  501  0.10605384712E+03 -0.38489599896E+02 -0.41528657633E+03  0.43033917817E+03  0.00000000000E+00 0. -1.
         -1    1    1    2    0  502 -0.12314985382E+03  0.41546908026E+02 -0.68804608220E+03  0.70021385540E+03  0.00000000000E+00 0. -1.
<scales pt_clust_3="95.53035" pt_clust_4="62.69562" pt_clust_5="14000.00000" pt_clust_6="122.29677"></scales>
<clustering>
<clus scale="   95.530">  1  3  2 -1</clus>
<clus scale="   62.696">  1  4  2 -1</clus>
<clus scale="  122.297">  2  6  1 -1</clus>
<clus scale="   95.530">  1  3  2 -1</clus>
</clustering>
</event>
<event>
 6    0  0.2433432E+002  0.9486537E+02  0.7546771E-02  0.1291480E+00
         21   -1    0    0  504  502  0.00000000000E+00  0.00000000000E+00  0.54923972878E+03  0.54923972878E+03  0.00000000000E+00 0. -1.
          2   -1    0    0  503    0 -0.00000000000E+00 -0.00000000000E+00 -0.19342691858E+04  0.19342691858E+04  0.00000000000E+00 0. -1.
         21    1    1    2  503  505 -0.14401695637E+02 -0.96228054683E+02  0.82183720316E+01  0.97646244086E+02  0.00000000000E+00 0.  1.
         21    1    1    2  504  501 -0.48454424679E+02  0.48721565088E+02  0.81252171706E+02  0.10641211201E+03  0.00000000000E+00 0. -1.
         21    1    1    2  505  502  0.25183085363E+02  0.91228409443E+02  0.39646057485E+03  0.40760004648E+03  0.00000000000E+00 0. -1.
          2    1    1    2  501    0  0.37673034954E+02 -0.43721919849E+02 -0.18709605756E+04  0.18718505120E+04  0.00000000000E+00 0. -1.
<scales pt_clust_3="14000.00000" pt_clust_4="57.20008" pt_clust_5="94.86537" pt_clust_6="57.71364"></scales>
<clustering>
<clus scale="   57.714">  2  6  1 -1</clus>
<clus scale="   57.200">  2  4  1 -1</clus>
<clus scale="   94.865">  1  5  2 -1</clus>
<clus scale="   94.865">  1  3  2 -1</clus>
</clustering>
</event>
<event>
 6    0  0.2433432E+002  0.1927922E+03  0.7546771E-02  0.1155967E+00
         21   -1    0    0  505  502  0.00000000000E+00  0.00000000000E+00  0.38255369492E+04  0.38255369492E+04  0.00000000000E+00 0. -1.
         -1   -1    0    0    0  501 -0.00000000000E+00 -0.00000000000E+00 -0.46461829646E+02  0.46461829646E+02  0.00000000000E+00 0.  1.
         21    1    1    2  503  502  0.13155228828E+02 -0.30296385432E+02  0.56281706454E+03  0.56378540169E+03  0.00000000000E+00 0. -1.
         21    1    1    2  504  501  0.14047066808E+03 -0.29707652903E+02  0.16340145180E+04  0.16403103360E+04  0.00000000000E+00 0. -1.
         21    1    1    2  505  504  0.33962778369E+02 -0.95013385888E+01  0.13900210987E+04  0.13904684105E+04  0.00000000000E+00 0. -1.
         -1    1    1    2    0  503 -0.18758867527E+03  0.69505376924E+02  0.19222243825E+03  0.27743463064E+03  0.00000000000E+00 0.  1.
<scales pt_clust_3="33.02924" pt_clust_4="14000.00000" pt_clust_5="45.47562" pt_clust_6="192.79222"></scales>
<clustering>
<clus scale="   33.029">  1  3  2 -1</clus>
<clus scale="   45.476">  1  5  2 -1</clus>
<clus scale="  192.792">  2  6  1 -1</clus>
<clus scale="   33.029">  1  3  2 -1</clus>
</clustering>
</event>
<event>
 6    0  0.2433432E+002  0.2328957E+03  0.7546771E-02  0.1124618E+00
         21   -1    0    0  501  502  0.00000000000E+00  0.00000000000E+00  0.10220669289E+04  0.10220669289E+04  0.00000000000E+00 0. -1.
          1   -1    0    0  505    0 -0.00000000000E+00 -0.00000000000E+00 -0.94447869867E+02  0.94447869867E+02  0.00000000000E+00 0.  1.
         21    1    1    2  503  504  0.19395422670E+03 -0.68439404258E+02  0.22096129338E+03  0.30187097787E+03  0.00000000000E+00 0. -1.
         21    1    1    2  504  502  0.36089952603E+02  0.77315110945E+01  0.20774881640E+03  0.21100197074E+03  0.00000000000E+00 0. -1.
         21    1    1    2  505  503  0.26400404253E+01 -0.64777588298E+02  0.46960811402E+02  0.80052629980E+02  0.00000000000E+00 0.  1.
          1    1    1    2  501    0 -0.23268421973E+03  0.12548548146E+03  0.45194813784E+03  0.52358922016E+03  0.00000000000E+00 0.  1.
<scales pt_clust_3="232.89572" pt_clust_4="36.90882" pt_clust_5="64.40529" pt_clust_6="14000.00000"></scales>
<clustering>
<clus scale="   36.909">  1  4  2 -1</clus>
<clus scale="   64.405">  2  5  1 -1</clus>
<clus scale="  232.896">  2  3  1 -1</clus>
<clus scale="   36.909">  1  3  2 -1</clus>
</clustering>
</event>
<event>
 6    0  0.2433433E+002  0.8039062E+02  0.7546771E-02  0.1327947E+00
         21   -1    0    0  505  502  0.00000000000E+00  0.00000000000E+00  0.63406093082E+03  0.63406093082E+03  0.00000000000E+00 0.  1.
         -1   -1    0    0    0  501 -0.00000000000E+00 -0.00000000000E+00 -0.37322894553E+03  0.37322894553E+03  0.00000000000E+00 0. -1.
         21    1    1    2  503  504 -0.15611490116E+02 -0.55767052651E+02  0.56785814075E+02  0.81106790500E+02  0.00000000000E+00 0.  1.
         21    1    1    2  504  502 -0.31575555090E+02 -0.53591222005E+01  0.38347667033E+02  0.49962780516E+02  0.00000000000E+00 0. -1.
         21    1    1    2  505  501  0.96616000224E+02 -0.24866640806E+01  0.51181090501E+03  0.52085625415E+03  0.00000000000E+00 0.  1.
         -1    1    1    2    0  503 -0.49428955018E+02  0.63612838932E+02 -0.34611240083E+03  0.35536405119E+03  0.00000000000E+00 0. -1.
<scales pt_clust_3="59.60521" pt_clust_4="32.02711" pt_clust_5="80.39062" pt_clust_6="14000.00000"></scales>
<clustering>
<clus scale="   32.027">  1  4  2 -1</clus>
<clus scale="   59.605">  1  3  2 -1</clus>
<clus scale="   80.391">  1  5  2 -1</clus>
<clus scale="   32.027">  1  3  2 -1</clus>
</clustering>
</event>
<event>
 6    0  0.2433432E+002  0.1350173E+03  0.7546771E-02  0.1220195E+00
         21   -1    0    0  505  502  0.00000000000E+00  0.00000000000E+00  0.39294565474E+02  0.39294565474E+02  0.00000000000E+00 0. -1.
          2   -1    0    0  502    0 -0.00000000000E+00 -0.00000000000E+00 -0.10128939269E+04  0.10128939269E+04  0.00000000000E+00 0. -1.
         21    1    1    2  503  501 -0.36996285324E+02  0.32961345863E+02 -0.17864194297E+03  0.18538640521E+03  0.00000000000E+00 0.  1.
         21    1    1    2  504  503 -0.12083620474E+02  0.12539470261E+03 -0.22561666778E+03  0.25840419135E+03  0.00000000000E+00 0. -1.
         21    1    1    2  505  504  0.59255007091E+02 -0.73157379837E+02 -0.12856968601E+03  0.15935282317E+03  0.00000000000E+00 0. -1.
          2    1    1    2  501    0 -0.10175101293E+02 -0.85198668639E+02 -0.44077106469E+03  0.44904507267E+03  0.00000000000E+00 0. -1.
<scales pt_clust_3="48.73953" pt_clust_4="48.73953" pt_clust_5="110.40865" pt_clust_6="85.80411"></scales>
<clustering>
<clus scale="   48.740">  3  4 -1 -1</clus>
<clus scale="   85.804">  2  6  1 -1</clus>
<clus scale="  110.409">  1  5  2 -1</clus>
<clus scale="  110.409">  1  3  2 -1</clus>
</clustering>
</event>
<event>
 6    0  0.2433432E+002  0.1307121E+03  0.7546771E-02  0.1226403E+00
         21   -1    0    0  504  502  0.00000000000E+00  0.00000000000E+00  0.71225710523E+03  0.71225710523E+03  0.00000000000E+00 0.  1.
         -1   -1    0    0    0  501 -0.00000000000E+00 -0.00000000000E+00 -0.88356248575E+02  0.88356248575E+02  0.00000000000E+00 0.  1.
         21    1    1    2  503  501  0.42421681518E+02  0.80822726922E+00  0.93615990918E+01  0.43449877234E+02  0.00000000000E+00 0.  1.
         21    1    1    2  504  503 -0.68218570350E+02  0.11648620076E+03  0.52514028475E+03  0.54221317485E+03  0.00000000000E+00 0.  1.
         21    1    1    2  505  502 -0.43119315812E+01 -0.13162686894E+03  0.11345863786E+03  0.17383062989E+03  0.00000000000E+00 0.  1.
         -1    1    1    2    0  505  0.30108820414E+02  0.14332440919E+02 -0.24059665053E+02  0.41119671835E+02  0.00000000000E+00 0.  1.
<scales pt_clust_3="51.88405" pt_clust_4="130.71214" pt_clust_5="14000.00000" pt_clust_6="33.34606"></scales>
<clustering>
<clus scale="   33.346">  2  6  1 -1</clus>
<clus scale="   51.884">  2  3  1 -1</clus>
<clus scale="  130.712">  1  4  2 -1</clus>
<clus scale="  130.712">  1  3  2 -1</clus>
</clustering>
</event>
<event>
 6    0  0.2433432E+002  0.1727194E+03  0.7546771E-02  0.1175041E+00
          2   -1    0    0  503    0 -0.00000000000E+00  0.00000000000E+00  0.22965458084E+04  0.22965458084E+04  0.00000000000E+00 0. -1.
         21   -1    0    0  504  502  0.00000000000E+00 -0.00000000000E+00 -0.44721966712E+02  0.44721966712E+02  0.00000000000E+00 0. -1.
         21    1    1    2  503  505 -0.76513325160E+02 -0.41704109948E+02  0.16015183362E+03  0.18232424832E+03  0.00000000000E+00 0. -1.
         21    1    1    2  504  501  0.49478594300E+01  0.32833435405E+02  0.12852084789E+02  0.35604660887E+02  0.00000000000E+00 0. -1.
         21    1    1    2  505  502 -0.85813793149E+02  0.73110702785E+01  0.77563534127E+02  0.11590323839E+03  0.00000000000E+00 0. -1.
          2    1    1    2  501    0  0.15737925888E+03  0.15596042646E+01  0.20012563892E+04  0.20074356275E+04  0.00000000000E+00 0. -1.
<scales pt_clust_3="67.50818" pt_clust_4="33.20415" pt_clust_5="67.50818" pt_clust_6="157.90477"></scales>
<clustering>
<clus scale="   33.204">  2  4  1 -1</clus>
<clus scale="   67.508">  3  5 -1 -1</clus>
<clus scale="  157.905">  1  6  2 -1</clus>
<clus scale="   33.204">  2  3  1 -1</clus>
</clustering>
</event>
<event>
 6    0  0.2433432E+002  0.7455125E+02  0.7546771E-02  0.1345266E+00
         21   -1    0    0  505  502  0.00000000000E+00  0.00000000000E+00  0.15794398420E+03  0.15794398420E+03  0.00000000000E+00 0.  1.
          2   -1    0    0  502    0 -0.00000000000E+00 -0.00000000000E+00 -0.24872450858E+04  0.24872450858E+04  0.00000000000E+00 0.  1.
         21    1    1    2  503  504 -0.32780135356E+02  0.90841885858E+02  0.84038175524E+02  0.12802031263E+03  0.00000000000E+00 0.  1.
         21    1    1    2  504  501  0.74304905652E+02 -0.64115600746E+01 -0.10804127029E+02  0.75359513450E+02  0.00000000000E+00 0.  1.
         21    1    1    2  505  503 -0.31800710014E+02 -0.32399095946E+02 -0.72904516324E+01  0.45979748373E+02  0.00000000000E+00 0.  1.
          2    1    1    2  501    0 -0.97240602824E+01 -0.52031229838E+02 -0.23952446985E+04  0.23958294956E+04  0.00000000000E+00 0.  1.
<scales pt_clust_3="74.55125" pt_clust_4="14000.00000" pt_clust_5="45.39809" pt_clust_6="53.01163"></scales>
<clustering>
<clus scale="   45.398">  1  5  2 -1</clus>
<clus scale="   53.012">  2  6  1 -1</clus>
<clus scale="   74.551">  1  3  2 -1</clus>
<clus scale="   45.398">  1  3  2 -1</clus>
</clustering>
</event>
<event>
 6    0  0.2433432E+002  0.8494267E+02  0.7546771E-02  0.1315583E+00
         21   -1    0    0  501  502  0.00000000000E+00  0.00000000000E+00  0.10275992386E+03  0.10275992386E+03  0.00000000000E+00 0. -1.
         -1   -1    0    0    0  501 -0.00000000000E+00 -0.00000000000E+00 -0.81259382980E+03  0.81259382980E+03  0.00000000000E+00 0. -1.
         21    1    1    2  503  504 -0.27018154447E+02 -0.58513111541E+02 -0.90023390943E+02  0.11071574327E+03  0.00000000000E+00 0. -1.
         21    1    1    2  504  502 -0.28955860300E+01  0.91546086637E+02  0.57370106248E+02  0.10807589689E+03  0.00000000000E+00 0. -1.
         21    1    1    2  505  503  0.60444520642E+02  0.88146633198E+01 -0.10083837911E+03  0.11789663721E+03  0.00000000000E+00 0. -1.
         -1    1    1    2    0  505 -0.30530780165E+02 -0.41847638416E+02 -0.57634224214E+03  0.57866547629E+03  0.00000000000E+00 0. -1.
<scales pt_clust_3="84.94267" pt_clust_4="14000.00000" pt_clust_5="47.45249" pt_clust_6="51.80109"></scales>
<clustering>
<clus scale="   51.801">  2  6  1 -1</clus>
<clus scale="   47.452">  2  5  1 -1</clus>
<clus scale="   84.943">  2  3  1 -1</clus>
<clus scale="   84.943">  1  3  2 -1</clus>
</clustering>
</event>
<event>
 6    0  0.1746232E+003  0.7669265E+02  0.7546771E-02  0.1338708E+00
         21   -1    0    0  504  502  0.00000000000E+00  0.00000000000E+00  0.65934888014E+03  0.65934888014E+03  0.00000000000E+00 0.  1.
          1   -1    0    0  505    0 -0.00000000000E+00 -0.00000000000E+00 -0.23279727059E+04  0.23279727059E+04  0.00000000000E+00 0.  1.
         21    1    1    2  503  501  0.22661386233E+02 -0.49350091868E+02  0.21996480286E+02  0.58590230742E+02  0.00000000000E+00 0. -1.
         21    1    1    2  504  503 -0.22829196470E+02  0.40921398348E+02 -0.17055114468E+02  0.49865920064E+02  0.00000000000E+00 0. -1.
         21    1    1    2  505  502 -0.41675502681E+01  0.84989675162E+02  0.59899653486E+03  0.60501029919E+03  0.00000000000E+00 0.  1.
          1    1    1    2  501    0  0.43353605048E+01 -0.76560981642E+02 -0.22725617264E+04  0.22738551361E+04  0.00000000000E+00 0.  1.
<scales pt_clust_3="51.37732" pt_clust_4="46.85865" pt_clust_5="14000.00000" pt_clust_6="76.69265"></scales>
<clustering>
<clus scale="   46.859">  1  4  2 -1</clus>
<clus scale="   51.377">  1  3  2 -1</clus>
<clus scale="   76.693">  2  6  1 -1</clus>
<clus scale="   46.859">  1  3  2 -1</clus>
</clustering>
</event>
<event>
 6    0  0.2433432E+002  0.1265740E+03  0.7546771E-02  0.1232630E+00
         21   -1    0    0  505  502  0.00000000000E+00  0.00000000000E+00  0.52481192208E+02  0.52481192208E+02  0.00000000000E+00 0.  1.
          1   -1    0    0  504    0 -0.00000000000E+00 -0.00000000000E+00 -0.15835570041E+04  0.15835570041E+04  0.00000000000E+00 0.  1.
         21    1    1    2  503  501  0.11096992126E+03  0.42472785302E+02 -0.62312225907E+02  0.13416808269E+03  0.00000000000E+00 0.  1.
         21    1    1    2  504  502 -0.45250314266E+02  0.10922995541E+02 -0.60282193078E+02  0.76163282329E+02  0.00000000000E+00 0.  1.
         21    1    1    2  505  503  0.23048702027E+02  0.39031796336E+02 -0.87689973046E+02  0.98712993892E+02  0.00000000000E+00 0.  1.
          1    1    1    2  501    0 -0.88768309020E+02 -0.92427577179E+02 -0.13207914199E+04  0.13269938374E+04  0.00000000000E+00 0.  1.
<scales pt_clust_3="14000.00000" pt_clust_4="44.91259" pt_clust_5="45.32906" pt_clust_6="126.57400"></scales>
<clustering>
<clus scale="   45.329">  1  5  2 -1</clus>
<clus scale="   44.913">  1  4  2 -1</clus>
<clus scale="  126.574">  2  6  1 -1</clus>
<clus scale="   45.329">  1  3  2 -1</clus>
</clustering>
</event>
<event>
 6    0  0.2433432E+002  0.1189842E+03  0.7546771E-02  0.1244782E+00
         21   -1    0    0  504  502  0.00000000000E+00  0.00000000000E+00  0.41310454837E+03  0.41310454837E+03  0.00000000000E+00 0. -1.
         -1   -1    0    0    0  501 -0.00000000000E+00 -0.00000000000E+00 -0.92592587503E+02  0.92592587503E+02  0.00000000000E+00 0. -1.
         21    1    1    2  503  505 -0.20449507208E+02 -0.54044090949E+02  0.18333169130E+02  0.60622200569E+02  0.00000000000E+00 0. -1.
         21    1    1    2  504  501 -0.98851628934E+02  0.75462017199E+02  0.66981352041E+02  0.14125389235E+03  0.00000000000E+00 0. -1.
         21    1    1    2  505  502  0.10565463492E+03  0.48788880765E+02  0.17591636075E+03  0.21092610731E+03  0.00000000000E+00 0. -1.
         -1    1    1    2    0  503  0.13646501223E+02 -0.70206807015E+02  0.59281078943E+02  0.92894935640E+02  0.00000000000E+00 0. -1.
<scales pt_clust_3="40.78604" pt_clust_4="109.99211" pt_clust_5="116.37550" pt_clust_6="40.78604"></scales>
<clustering>
<clus scale="   40.786">  3  6 -1 -1</clus>
<clus scale="  116.375">  1  5  2 -1</clus>
<clus scale="  109.992">  2  4  1 -1</clus>
<clus scale="  116.375">  1  3  2 -1</clus>
</clustering>
</event>
<event>
 6    0  0.2433432E+002  0.1336819E+03  0.7546771E-02  0.1222092E+00
         21   -1    0    0  505  502  0.00000000000E+00  0.00000000000E+00  0.24942769598E+03  0.24942769598E+03  0.00000000000E+00 0. -1.
          1   -1    0    0  503    0 -0.00000000000E+00 -0.00000000000E+00 -0.73531389301E+03  0.73531389301E+03  0.00000000000E+00 0.  1.
         21    1    1    2  503  502  0.13246569113E+03 -0.13632312177E+03  0.16875980201E+02  0.19082964016E+03  0.00000000000E+00 0. -1.
         21    1    1    2  504  501 -0.30419623504E+02  0.95797515175E+02  0.40743904948E+02  0.10845544338E+03  0.00000000000E+00 0. -1.
         21    1    1    2  505  504 -0.31679299662E+02  0.23832488427E+02  0.63119032218E+02  0.74535748200E+02  0.00000000000E+00 0. -1.
          1    1    1    2  501    0 -0.70366767967E+02  0.16693118165E+02 -0.60662511439E+03  0.61092075725E+03  0.00000000000E+00 0.  1.
<scales pt_clust_3="133.68191" pt_clust_4="14000.00000" pt_clust_5="39.64298" pt_clust_6="72.75197"></scales>
<clustering>
<clus scale="   39.643">  1  5  2 -1</clus>
<clus scale="   72.752">  2  6  1 -1</clus>
<clus scale="  133.682">  2  3  1 -1</clus>
<clus scale="   39.643">  1  3  2 -1</clus>
</clustering>
</event>
<event>
 6    0  0.2433432E+002  0.1119396E+03  0.7546771E-02  0.1257020E+00
         21   -1    0    0  503  502  0.00000000000E+00  0.00000000000E+00  0.15587211950E+04  0.15587211950E+04  0.00000000000E+00 0. -1.
          2   -1    0    0  504    0 -0.00000000000E+00 -0.00000000000E+00 -0.73511176691E+03  0.73511176691E+03  0.00000000000E+00 0. -1.
         21    1    1    2  503  501  0.24295135090E+02 -0.97587366142E+02  0.62780701602E+03  0.63581066127E+03  0.00000000000E+00 0. -1.
         21    1    1    2  504  505 -0.50229895224E+01  0.65104248550E+02  0.41619773348E+03  0.42128891150E+03  0.00000000000E+00 0. -1.
         21    1    1    2  505  502  0.21923336328E+02  0.47302476419E+02  0.50617116504E+03  0.50884909872E+03  0.00000000000E+00 0. -1.
          2    1    1    2  501    0 -0.41195481895E+02 -0.14819358828E+02 -0.72656648641E+03  0.72788429046E+03  0.00000000000E+00 0. -1.
<scales pt_clust_3="105.16191" pt_clust_4="34.27605" pt_clust_5="34.27605" pt_clust_6="43.77992"></scales>
<clustering>
<clus scale="   34.276">  4  5 -1 -1</clus>
<clus scale="   43.780">  2  6  1 -1</clus>
<clus scale="  105.162">  2  3  1 -1</clus>
<clus scale="  111.940">  1  3  2 -1</clus>
</clustering>
</event>
<event>
 6    0  0.2433432E+002  0.1233239E+03  0.7546771E-02  0.1237712E+00
         21   -1    0    0  503  502  0.00000000000E+00  0.00000000000E+00  0.90885036832E+02  0.90885036832E+02  0.00000000000E+00 0. -1.
         -1   -1    0    0    0  501 -0.00000000000E+00 -0.00000000000E+00 -0.22328063325E+04  0.22328063325E+04  0.00000000000E+00 0.  1.
         21    1    1    2  503  505  0.40611669744E+02 -0.41061368879E+02  0.21608917455E+02  0.61662703859E+02  0.00000000000E+00 0. -1.
         21    1    1    2  504  502 -0.18718043451E+01 -0.43659385302E+02 -0.56549690689E+02  0.71466867103E+02  0.00000000000E+00 0. -1.
         21    1    1    2  505  501 -0.61726088894E+02 -0.39945752439E+02  0.60126028690E+01  0.73769401389E+02  0.00000000000E+00 0. -1.
         -1    1    1    2    0  504  0.22986223495E+02  0.12466650662E+03 -0.21129931253E+04  0.21167923970E+04  0.00000000000E+00 0.  1.
<scales pt_clust_3="74.32695" pt_clust_4="43.69949" pt_clust_5="14000.00000" pt_clust_6="123.32394"></scales>
<clustering>
<clus scale="   43.699">  1  4  2 -1</clus>
<clus scale="   74.327">  1  3  2 -1</clus>
<clus scale="  123.324">  2  6  1 -1</clus>
<clus scale="   43.699">  1  3  2 -1</clus>
</clustering>
</event>
<event>
 6    0  0.2433432E+002  0.9385674E+02  0.7546771E-02  0.1293772E+00
          2   -1    0    0  505    0 -0.00000000000E+00  0.00000000000E+00  0.17520599972E+04  0.17520599972E+04  0.00000000000E+00 0. -1.
         21   -1    0    0  504  502  0.00000000000E+00 -0.00000000000E+00 -0.17675141828E+02  0.17675141828E+02  0.00000000000E+00 0. -1.
         21    1    1    2  503  502  0.79964910045E+02  0.81521142922E+02  0.29411178334E+03  0.31550249553E+03  0.00000000000E+00 0. -1.
         21    1    1    2  504  501 -0.36237592301E+02 -0.13547769237E+02  0.11052957183E+03  0.11710461731E+03  0.00000000000E+00 0. -1.
         21    1    1    2  505  503  0.28205686812E+02  0.13170503076E+02  0.24233862259E+03  0.24432975856E+03  0.00000000000E+00 0.  1.
          2    1    1    2  501    0 -0.71933004556E+02 -0.81143876760E+02  0.10874048777E+04  0.10927982677E+04  0.00000000000E+00 0. -1.
<scales pt_clust_3="14000.00000" pt_clust_4="36.34673" pt_clust_5="31.12913" pt_clust_6="93.85674"></scales>
<clustering>
<clus scale="   31.129">  1  5  2 -1</clus>
<clus scale="   36.347">  2  4  1 -1</clus>
<clus scale="   93.857">  1  6  2 -1</clus>
<clus scale="   36.347">  2  3  1 -1</clus>
</clustering>
</event>
<event>
 6    0  0.2433432E+002  0.1802365E+03  0.7546771E-02  0.1167574E+00
          1   -1    0    0  503    0 -0.00000000000E+00  0.00000000000E+00  0.20468038805E+04  0.20468038805E+04  0.00000000000E+00 0.  1.
         21   -1    0    0  501  502  0.00000000000E+00 -0.00000000000E+00 -0.96743570239E+02  0.96743570239E+02  0.00000000000E+00 0. -1.
         21    1    1    2  503  504 -0.55049551801E+02  0.14879958836E+02  0.19862290356E+03  0.20664685854E+03  0.00000000000E+00 0.  1.
         21    1    1    2  504  505  0.67285451221E+02  0.39031509755E+02  0.26852544356E+02  0.82291250071E+02  0.00000000000E+00 0. -1.
         21    1    1    2  505  502  0.64530402835E+02  0.71698928757E+02 -0.24351668912E+02  0.99488255858E+02  0.00000000000E+00 0. -1.
          1    1    1    2  501    0 -0.76766302255E+02 -0.12561039735E+03  0.17489365313E+04  0.17551210863E+04  0.00000000000E+00 0.  1.
<scales pt_clust_3="57.02514" pt_clust_4="52.36860" pt_clust_5="52.36860" pt_clust_6="170.54122"></scales>
<clustering>
<clus scale="   52.369">  4  5 -1 -1</clus>
<clus scale="   57.025">  1  3  2 -1</clus>
<clus scale="  170.541">  1  6  2 -1</clus>
<clus scale="  180.236">  2  3  1 -1</clus>
</clustering>
</event>
<event>
 6    0  0.2433432E+002  0.7061413E+02  0.7546771E-02  0.1358017E+00
          2   -1    0    0  503    0 -0.00000000000E+00  0.00000000000E+00  0.66181275244E+03  0.66181275244E+03  0.00000000000E+00 0.  1.
         21   -1    0    0  505  502  0.00000000000E+00 -0.00000000000E+00 -0.13937866157E+04  0.13937866157E+04  0.00000000000E+00 0. -1.
         21    1    1    2  503  502  0.89003783358E+02  0.60598762486E+02 -0.13001100235E+04  0.13045612123E+04  0.00000000000E+00 0. -1.
         21    1    1    2  504  501 -0.55922094895E+02 -0.10468700144E+03  0.10541623166E+03  0.15874265610E+03  0.00000000000E+00 0.  1.
         21    1    1    2  505  504 -0.56133018173E+02 -0.18587599043E+02 -0.48657228194E+02  0.76576369874E+02  0.00000000000E+00 0. -1.
          2    1    1    2  501    0  0.23051329710E+02  0.62675837998E+02  0.51137715676E+03  0.51571912988E+03  0.00000000000E+00 0.  1.
<scales pt_clust_3="54.41350" pt_clust_4="70.61413" pt_clust_5="59.13049" pt_clust_6="14000.00000"></scales>
<clustering>
<clus scale="   59.130">  2  5  1 -1</clus>
<clus scale="   54.414">  2  3  1 -1</clus>
<clus scale="   70.614">  2  4  1 -1</clus>
<clus scale="   59.130">  2  3  1 -1</clus>
</clustering>
</event>
<event>
 6    0  0.2433432E+002  0.1122562E+03  0.7546771E-02  0.1256448E+00
         21   -1    0    0  503  502  0.00000000000E+00  0.00000000000E+00  0.77096667975E+02  0.77096667975E+02  0.00000000000E+00 0.  1.
          2   -1    0    0  505    0 -0.00000000000E+00 -0.00000000000E+00 -0.24674828099E+04  0.24674828099E+04  0.00000000000E+00 0.  1.
         21    1    1    2  503  501  0.76130872697E+02  0.33214278903E+02 -0.60132669297E+01  0.83278193303E+02  0.00000000000E+00 0.  1.
         21    1    1    2  504  502 -0.47470514279E+02 -0.11863053333E+03 -0.14721044798E+03  0.19492965182E+03  0.00000000000E+00 0.  1.
         21    1    1    2  505  504  0.37955124582E+02  0.13955717269E+03 -0.37036517821E+03  0.39760176202E+03  0.00000000000E+00 0.  1.
          2    1    1    2  501    0 -0.66615483000E+02 -0.54140918264E+02 -0.18667972488E+04  0.18687698707E+04  0.00000000000E+00 0.  1.
<scales pt_clust_3="83.06081" pt_clust_4="112.25616" pt_clust_5="14000.00000" pt_clust_6="83.79192"></scales>
<clustering>
<clus scale="   83.061">  1  3  2 -1</clus>
<clus scale="   83.792">  2  6  1 -1</clus>
<clus scale="  112.256">  1  4  2 -1</clus>
<clus scale="   83.061">  1  3  2 -1</clus>
</clustering>
</event>
<event>
 6    0  0.2433432E+002  0.7090918E+02  0.7546771E-02  0.1357028E+00
         21   -1    0    0  505  502  0.00000000000E+00  0.00000000000E+00  0.17899544143E+02  0.17899544143E+02  0.00000000000E+00 0.  1.
          1   -1    0    0  504    0 -0.00000000000E+00 -0.00000000000E+00 -0.21810954606E+04  0.21810954606E+04  0.00000000000E+00 0.  1.
         21    1    1    2  503  502 -0.41390479435E+02 -0.92259617265E+02 -0.72558112707E+03  0.73259332561E+03  0.00000000000E+00 0.  1.
         21    1    1    2  504  503 -0.35897719320E+02  0.95501620415E+01 -0.26433438549E+03  0.26693167515E+03  0.00000000000E+00 0.  1.
         21    1    1    2  505  501  0.13711636410E+02  0.50153778198E+02 -0.44515275452E+02  0.68447207314E+02  0.00000000000E+00 0.  1.
          1    1    1    2  501    0  0.63576562345E+02  0.32555677025E+02 -0.11287651284E+04  0.11310227967E+04  0.00000000000E+00 0.  1.
<scales pt_clust_3="14000.00000" pt_clust_4="37.14636" pt_clust_5="51.99836" pt_clust_6="70.90918"></scales>
<clustering>
<clus scale="   37.146">  2  4  1 -1</clus>
<clus scale="   51.998">  1  5  2 -1</clus>
<clus scale="   70.909">  2  6  1 -1</clus>
<clus scale="   51.998">  1  3  2 -1</clus>
</clustering>
</event>
<event>
 6    0  0.2433432E+002  0.1628913E+03  0.7546771E-02  0.1185471E+00
         21   -1    0    0  503  502  0.00000000000E+00  0.00000000000E+00  0.85815187574E+02  0.85815187574E+02  0.00000000000E+00 0. -1.
          2   -1    0    0  502    0 -0.00000000000E+00 -0.00000000000E+00 -0.49174680279E+03  0.49174680279E+03  0.00000000000E+00 0.  1.
         21    1    1    2  503  504 -0.23945383244E+02  0.56855843209E+02 -0.24370098681E+02  0.66331515854E+02  0.00000000000E+00 0. -1.
         21    1    1    2  504  505  0.59903705671E+02  0.94397102473E+02 -0.88773985691E+02  0.14275884366E+03  0.00000000000E+00 0. -1.
         21    1    1    2  505  501 -0.91727809880E+02 -0.99873918005E+02 -0.12535866159E+03  0.18467155882E+03  0.00000000000E+00 0.  1.
          2    1    1    2  501    0  0.55769487453E+02 -0.51379027677E+02 -0.16742886926E+03  0.18380007203E+03  0.00000000000E+00 0.  1.
<scales pt_clust_3="61.01578" pt_clust_4="61.01578" pt_clust_5="140.66573" pt_clust_6="75.82902"></scales>
<clustering>
<clus scale="   61.016">  3  4 -1 -1</clus>
<clus scale="   75.829">  2  6  1 -1</clus>
<clus scale="  140.666">  2  5  1 -1</clus>
<clus scale="  162.891">  1  3  2 -1</clus>
</clustering>
</event>
<event>
 6    0  0.2433432E+002  0.9239654E+02  0.7546771E-02  0.1297150E+00
         21   -1    0    0  503  502  0.00000000000E+00  0.00000000000E+00  0.97482785104E+02  0.97482785104E+02  0.00000000000E+00 0. -1.
          2   -1    0    0  504    0 -0.00000000000E+00 -0.00000000000E+00 -0.30330015775E+04  0.30330015775E+04  0.00000000000E+00 0. -1.
         21    1    1    2  503  501 -0.31371385788E+02  0.11196771030E+02  0.76455696781E+02  0.83396673183E+02  0.00000000000E+00 0. -1.
         21    1    1    2  504  505  0.48736653714E+02 -0.76294893531E+02 -0.25116656042E+04  0.25132966954E+04  0.00000000000E+00 0. -1.
         21    1    1    2  505  502  0.28869487418E+02 -0.49968064683E+02 -0.21677263831E+03  0.22432260589E+03  0.00000000000E+00 0. -1.
          2    1    1    2  501    0 -0.46234755344E+02  0.11506618718E+03 -0.28353624676E+03  0.30946838814E+03  0.00000000000E+00 0. -1.
<scales pt_clust_3="33.30963" pt_clust_4="92.39654" pt_clust_5="52.45457" pt_clust_6="14000.00000"></scales>
<clustering>
<clus scale="   33.310">  1  3  2 -1</clus>
<clus scale="   52.455">  1  5  2 -1</clus>
<clus scale="   92.397">  2  4  1 -1</clus>
<clus scale="   33.310">  1  3  2 -1</clus>
</clustering>
</event>
<event>
 6    0  0.2433432E+002  0.1582716E+03  0.7546771E-02  0.1190662E+00
         21   -1    0    0  505  502  0.00000000000E+00  0.00000000000E+00  0.11181875853E+03  0.11181875853E+03  0.00000000000E+00 0.  1.
          2   -1    0    0  504    0 -0.00000000000E+00 -0.00000000000E+00 -0.15470456856E+04  0.15470456856E+04  0.00000000000E+00 0.  1.
         21    1    1    2  503  501 -0.97458473137E+02  0.60105392812E+02  0.26522589649E+02  0.11753408013E+03  0.00000000000E+00 0.  1.
         21    1    1    2  504  502 -0.36468782837E+02  0.83712117454E+02 -0.12847238046E+03  0.15761612630E+03  0.00000000000E+00 0.  1.
         21    1    1    2  505  503 -0.19730353567E+02 -0.93506985219E+02 -0.94391935668E+02  0.13432304588E+03  0.00000000000E+00 0. -1.
          2    1    1    2  501    0  0.15365760954E+03 -0.50310525047E+02 -0.12388852006E+04  0.12493911918E+04  0.00000000000E+00 0.  1.
<scales pt_clust_3="158.27159" pt_clust_4="91.31096" pt_clust_5="81.02826" pt_clust_6="14000.00000"></scales>
<clustering>
<clus scale="   91.311">  1  4  2 -1</clus>
<clus scale="   81.028">  1  5  2 -1</clus>
<clus scale="  158.272">  1  3  2 -1</clus>
<clus scale="   91.311">  1  3  2 -1</clus>
</clustering>
</event>
<event>
 6    0  0.2433432E+002  0.1327444E+03  0.7546771E-02  0.1223439E+00
          4   -1    0    0  503    0 -0.00000000000E+00  0.00000000000E+00  0.13487932468E+04  0.13487932468E+04  0.00000000000E+00 0.  1.
         21   -1    0    0  505  502  0.00000000000E+00 -0.00000000000E+00 -0.12157956474E+03  0.12157956474E+03  0.00000000000E+00 0.  1.
         21    1    1    2  503  504  0.58956757652E+02 -0.77646218802E+01  0.81177850248E+02  0.10062818689E+03  0.00000000000E+00 0.  1.
         21    1    1    2  504  502 -0.48897152562E+02  0.47798978857E+00  0.56978276394E+02  0.75084512276E+02  0.00000000000E+00 0. -1.
         21    1    1    2  505  501  0.84875231535E+02  0.10017920295E+03 -0.55408557704E+02  0.14251240612E+03  0.00000000000E+00 0.  1.
          4    1    1    2  501    0 -0.94934836625E+02 -0.92892570858E+02  0.11444661131E+04  0.11521477062E+04  0.00000000000E+00 0.  1.
<scales pt_clust_3="55.27304" pt_clust_4="48.89949" pt_clust_5="132.74444" pt_clust_6="14000.00000"></scales>
<clustering>
<clus scale="   48.899">  2  4  1 -1</clus>
<clus scale="   55.273">  2  3  1 -1</clus>
<clus scale="  132.744">  2  5  1 -1</clus>
<clus scale="   48.899">  2  3  1 -1</clus>
</clustering>
</event>
<event>
 6    0  0.2433432E+002  0.1184345E+03  0.7546771E-02  0.1245702E+00
          2   -1    0    0  502    0 -0.00000000000E+00  0.00000000000E+00  0.43739024283E+03  0.43739024283E+03  0.00000000000E+00 0. -1.
         21   -1    0    0  504  502  0.00000000000E+00 -0.00000000000E+00 -0.67618815324E+03  0.67618815324E+03  0.00000000000E+00 0.  1.
         21    1    1    2  503  505  0.18389780170E+02 -0.36434979886E+02 -0.20295189703E+01  0.40863317551E+02  0.00000000000E+00 0. -1.
         21    1    1    2  504  503 -0.28861714756E+02  0.90317188617E+02 -0.62056241647E+03  0.62776421200E+03  0.00000000000E+00 0.  1.
         21    1    1    2  505  501  0.13411519107E+01 -0.11935140890E+03  0.10675543777E+03  0.16013519597E+03  0.00000000000E+00 0. -1.
          2    1    1    2  501    0  0.91307826752E+01  0.65469200165E+02  0.27703858725E+03  0.28481567055E+03  0.00000000000E+00 0. -1.
<scales pt_clust_3="40.40363" pt_clust_4="96.19015" pt_clust_5="40.40363" pt_clust_6="66.10285"></scales>
<clustering>
<clus scale="   40.404">  3  5 -1 -1</clus>
<clus scale="   66.103">  1  6  2 -1</clus>
<clus scale="   96.190">  2  4  1 -1</clus>
<clus scale="   96.190">  2  3  1 -1</clus>
</clustering>
</event>
<event>
 6    0  0.2433432E+002  0.1961276E+03  0.7546771E-02  0.1153048E+00
          2   -1    0    0  505    0 -0.00000000000E+00  0.00000000000E+00  0.10366000125E+04  0.10366000125E+04  0.00000000000E+00 0.  1.
         21   -1    0    0  503  502  0.00000000000E+00 -0.00000000000E+00 -0.15465981867E+03  0.15465981867E+03  0.00000000000E+00 0.  1.
         21    1    1    2  503  504  0.22709202117E+03  0.63631501747E+02  0.51119046588E+01  0.23589380166E+03  0.00000000000E+00 0.  1.
         21    1    1    2  504  501 -0.11532431764E+03 -0.88821774115E+02  0.14604336569E+03  0.20619813398E+03  0.00000000000E+00 0.  1.
         21    1    1    2  505  502  0.53966110497E+01  0.29915041224E+02  0.51224140889E+02  0.59564634743E+02  0.00000000000E+00 0.  1.
          2    1    1    2  501    0 -0.11716431458E+03 -0.47247688564E+01  0.67956078255E+03  0.68960326074E+03  0.00000000000E+00 0.  1.
<scales pt_clust_3="196.12764" pt_clust_4="14000.00000" pt_clust_5="30.39791" pt_clust_6="114.54292"></scales>
<clustering>
<clus scale="   30.398">  1  5  2 -1</clus>
<clus scale="  114.543">  1  6  2 -1</clus>
<clus scale="  196.128">  2  3  1 -1</clus>
<clus scale="  196.128">  2  3  1 -1</clus>
</clustering>
</event>
<event>
 6    0  0.2433432E+002  0.1255389E+03  0.7546771E-02  0.1234230E+00
          1   -1    0    0  503    0 -0.00000000000E+00  0.00000000000E+00  0.18848385157E+04  0.18848385157E+04  0.00000000000E+00 0. -1.
         21   -1    0    0  505  502  0.00000000000E+00 -0.00000000000E+00 -0.91693760876E+02  0.91693760876E+02  0.00000000000E+00 0.  1.
         21    1    1    2  503  504 -0.28021202760E+02 -0.13010578783E+03  0.49045958904E+03  0.50819613567E+03  0.00000000000E+00 0.  1.
         21    1    1    2  504  502  0.23855648300E+02 -0.28537653239E+02  0.17781029465E+03  0.18165899508E+03  0.00000000000E+00 0.  1.
         21    1    1    2  505  501 -0.23023111177E+02  0.10292415689E+03 -0.45354726390E+02  0.11480634532E+03  0.00000000000E+00 0.  1.
          1    1    1    2  501    0  0.27188665637E+02  0.55719284184E+02  0.11702295975E+04  0.11718708005E+04  0.00000000000E+00 0. -1.
<scales pt_clust_3="33.97561" pt_clust_4="33.97561" pt_clust_5="107.84080" pt_clust_6="61.99889"></scales>
<clustering>
<clus scale="   33.976">  3  4 -1 -1</clus>
<clus scale="   61.999">  1  6  2 -1</clus>
<clus scale="  107.841">  2  5  1 -1</clus>
<clus scale="  107.841">  2  3  1 -1</clus>
</clustering>
</event>
<event>
 6    0  0.2433432E+002  0.8550847E+02  0.7546771E-02  0.1314108E+00
         21   -1    0    0  505  502  0.00000000000E+00  0.00000000000E+00  0.10228545637E+04  0.10228545637E+04  0.00000000000E+00 0.  1.
          2   -1    0    0  503    0 -0.00000000000E+00 -0.00000000000E+00 -0.28743111804E+03  0.28743111804E+03  0.00000000000E+00 0.  1.
         21    1    1    2  503  504  0.34714662282E+02 -0.14478611588E+03  0.63882674432E+03  0.65594796774E+03  0.00000000000E+00 0.  1.
         21    1    1    2  504  502  0.14074004754E+02  0.33891037747E+02  0.13319336238E+03  0.13815625875E+03  0.00000000000E+00 0.  1.
         21    1    1    2  505  501 -0.72351064728E+02  0.29174370704E+02  0.22656402548E+03  0.23961860970E+03  0.00000000000E+00 0.  1.
          2    1    1    2  501    0  0.23562397692E+02  0.81720707431E+02 -0.26316068652E+03  0.27656284555E+03  0.00000000000E+00 0.  1.
<scales pt_clust_3="14000.00000" pt_clust_4="36.69714" pt_clust_5="78.50649" pt_clust_6="85.50847"></scales>
<clustering>
<clus scale="   36.697">  1  4  2 -1</clus>
<clus scale="   78.506">  1  5  2 -1</clus>
<clus scale="   85.508">  2  6  1 -1</clus>
<clus scale="   36.697">  1  3  2 -1</clus>
</clustering>
</event>
<event>
 6    0  0.2433432E+002  0.1426873E+03  0.7546771E-02  0.1209758E+00
          2   -1    0    0  503    0 -0.00000000000E+00  0.00000000000E+00  0.21086450037E+04  0.21086450037E+04  0.00000000000E+00 0.  1.
         21   -1    0    0  505  502  0.00000000000E+00 -0.00000000000E+00 -0.36100798381E+02  0.36100798381E+02  0.00000000000E+00 0.  1.
         21    1    1    2  503  504 -0.96980754693E+02 -0.36484691476E+02  0.41167582737E+03  0.42451547243E+03  0.00000000000E+00 0.  1.
         21    1    1    2  504  502  0.15564503793E+03  0.17315993967E+02  0.46483299105E+03  0.49050477169E+03  0.00000000000E+00 0.  1.
         21    1    1    2  505  501 -0.12724535339E+03  0.66700433337E+02  0.33305147073E+03  0.36271698323E+03  0.00000000000E+00 0.  1.
          2    1    1    2  501    0  0.68581070155E+02 -0.47531735828E+02  0.86298391617E+03  0.86700857473E+03  0.00000000000E+00 0.  1.
<scales pt_clust_3="90.64970" pt_clust_4="14000.00000" pt_clust_5="142.68734" pt_clust_6="83.44237"></scales>
<clustering>
<clus scale="   83.442">  1  6  2 -1</clus>
<clus scale="   90.650">  1  3  2 -1</clus>
<clus scale="  142.687">  2  5  1 -1</clus>
<clus scale="  142.687">  2  3  1 -1</clus>
</clustering>
</event>
<event>
 6    0  0.2433432E+002  0.1363303E+03  0.7546771E-02  0.1218354E+00
         21   -1    0    0  501  502  0.00000000000E+00  0.00000000000E+00  0.25313261492E+03  0.25313261492E+03  0.00000000000E+00 0.  1.
         -1   -1    0    0    0  501 -0.00000000000E+00 -0.00000000000E+00 -0.22799295596E+03  0.22799295596E+03  0.00000000000E+00 0.  1.
         21    1    1    2  503  502  0.34683429483E+02 -0.13930100462E+02  0.58015868410E+02  0.69013252111E+02  0.00000000000E+00 0.  1.
         21    1    1    2  504  503 -0.63171717854E+02  0.55385724813E+02  0.45720857998E+02  0.95648530076E+02  0.00000000000E+00 0.  1.
         21    1    1    2  505  504 -0.53319537346E+02  0.57797610722E+02  0.80060126801E+02  0.11221925312E+03  0.00000000000E+00 0.  1.
         -1    1    1    2    0  505  0.81807825717E+02 -0.99253235073E+02 -0.15865719425E+03  0.20424453557E+03  0.00000000000E+00 0.  1.
<scales pt_clust_3="37.37630" pt_clust_4="30.70811" pt_clust_5="30.70811" pt_clust_6="132.58381"></scales>
<clustering>
<clus scale="   30.708">  4  5 -1 -1</clus>
<clus scale="   37.376">  1  3  2 -1</clus>
<clus scale="  132.584">  2  6  1 -1</clus>
<clus scale="   37.376">  1  3  2 -1</clus>
</clustering>
</event>
<event>
 6    0  0.2433432E+002  0.8181233E+02  0.7546771E-02  0.1323986E+00
         21   -1    0    0  504  502  0.00000000000E+00  0.00000000000E+00  0.42324144788E+03  0.42324144788E+03  0.00000000000E+00 0. -1.
          2   -1    0    0  505    0 -0.00000000000E+00 -0.00000000000E+00 -0.53236995420E+03  0.53236995420E+03  0.00000000000E+00 0. -1.
         21    1    1    2  503  501  0.23274248905E+02 -0.70195615480E+02  0.13426235438E+03  0.15328240245E+03  0.00000000000E+00 0. -1.
         21    1    1    2  504  503  0.84209144665E+02  0.27909917517E+02  0.23375617424E+03  0.25002418390E+03  0.00000000000E+00 0. -1.
         21    1    1    2  505  502 -0.36809049710E+02 -0.94332612753E-01  0.24316135205E+02  0.44115637483E+02  0.00000000000E+00 0. -1.
          2    1    1    2  501    0 -0.70674343860E+02  0.42380030576E+02 -0.50146317015E+03  0.50818917825E+03  0.00000000000E+00 0. -1.
<scales pt_clust_3="14000.00000" pt_clust_4="67.35028" pt_clust_5="36.80917" pt_clust_6="81.81233"></scales>
<clustering>
<clus scale="   36.809">  1  5  2 -1</clus>
<clus scale="   67.350">  1  4  2 -1</clus>
<clus scale="   81.812">  2  6  1 -1</clus>
<clus scale="   36.809">  1  3  2 -1</clus>
</clustering>
</event>
<event>
 6    0  0.2433432E+002  0.2099116E+03  0.7546771E-02  0.1141636E+00
         21   -1    0    0  504  502  0.00000000000E+00  0.00000000000E+00  0.15045047326E+03  0.15045047326E+03  0.00000000000E+00 0.  1.
          2   -1    0    0  503    0 -0.00000000000E+00 -0.00000000000E+00 -0.93760865715E+03  0.93760865715E+03  0.00000000000E+00 0.  1.
         21    1    1    2  503  505 -0.43109476713E+02  0.17917750286E+02 -0.18509581785E+01  0.46721502587E+02  0.00000000000E+00 0.  1.
         21    1    1    2  504  501  0.18754184132E+03  0.28501974266E+02 -0.28281023985E+03  0.34053771678E+03  0.00000000000E+00 0.  1.
         21    1    1    2  505  502 -0.14503471351E+03 -0.77216000248E+02  0.30328877080E+02  0.16708446847E+03  0.00000000000E+00 0.  1.
          2    1    1    2  501    0  0.60234890152E+00  0.30796275697E+02 -0.53282586295E+03  0.53371544258E+03  0.00000000000E+00 0.  1.
<scales pt_clust_3="41.87366" pt_clust_4="195.12915" pt_clust_5="41.87366" pt_clust_6="30.80217"></scales>
<clustering>
<clus scale="   30.802">  2  6  1 -1</clus>
<clus scale="   41.874">  3  5 -1 -1</clus>
<clus scale="  195.129">  2  4  1 -1</clus>
<clus scale="  209.912">  1  3  2 -1</clus>
</clustering>
</event>
<event>
 6    0  0.2433432E+002  0.1193565E+03  0.7546771E-02  0.1244162E+00
         21   -1    0    0  505  502  0.00000000000E+00  0.00000000000E+00  0.15639396519E+02  0.15639396519E+02  0.00000000000E+00 0.  1.
          3   -1    0    0  503    0 -0.00000000000E+00 -0.00000000000E+00 -0.24756717361E+04  0.24756717361E+04  0.00000000000E+00 0. -1.
         21    1    1    2  503  504 -0.71940366437E+02  0.56261700337E+01 -0.23102998790E+03  0.24203703316E+03  0.00000000000E+00 0.  1.
         21    1    1    2  504  502 -0.49611990773E+02  0.33848529322E+02 -0.14363990304E+03  0.15569037964E+03  0.00000000000E+00 0.  1.
         21    1    1    2  505  501  0.85520446838E+02 -0.34550014949E+02 -0.54195120361E+03  0.54974408360E+03  0.00000000000E+00 0. -1.
          3    1    1    2  501    0  0.36031910372E+02 -0.49246844071E+01 -0.15434112451E+04  0.15438396363E+04  0.00000000000E+00 0. -1.
<scales pt_clust_3="35.05368" pt_clust_4="35.05368" pt_clust_5="113.00281" pt_clust_6="36.36690"></scales>
<clustering>
<clus scale="   35.054">  3  4 -1 -1</clus>
<clus scale="   36.367">  2  6  1 -1</clus>
<clus scale="  113.003">  2  5  1 -1</clus>
<clus scale="  119.357">  1  3  2 -1</clus>
</clustering>
</event>
<event>
 6    0  0.2433432E+002  0.1765252E+03  0.7546771E-02  0.1171209E+00
         21   -1    0    0  505  502  0.00000000000E+00  0.00000000000E+00  0.20227941754E+03  0.20227941754E+03  0.00000000000E+00 0. -1.
          4   -1    0    0  504    0 -0.00000000000E+00 -0.00000000000E+00 -0.44720330483E+03  0.44720330483E+03  0.00000000000E+00 0.  1.
         21    1    1    2  503  502 -0.95301585891E+02 -0.13045797412E+03 -0.11283983538E+00  0.16156016842E+03  0.00000000000E+00 0. -1.
         21    1    1    2  504  503  0.37263980944E+02 -0.68228601114E+02 -0.52458615121E+02  0.93785140540E+02  0.00000000000E+00 0. -1.
         21    1    1    2  505  501  0.38964505508E+02 -0.28963109713E+02  0.43931766911E+02  0.65475908223E+02  0.00000000000E+00 0. -1.
          4    1    1    2  501    0  0.19073099439E+02  0.22764968495E+03 -0.23628419925E+03  0.32866150519E+03  0.00000000000E+00 0.  1.
<scales pt_clust_3="176.52520" pt_clust_4="83.96395" pt_clust_5="48.54992" pt_clust_6="14000.00000"></scales>
<clustering>
<clus scale="   48.550">  1  5  2 -1</clus>
<clus scale="   83.964">  2  4  1 -1</clus>
<clus scale="  176.525">  1  3  2 -1</clus>
<clus scale="   48.550">  1  3  2 -1</clus>
</clustering>
</event>
<event>
 6    0  0.2433432E+002  0.9094356E+02  0.7546771E-02  0.1300583E+00
          1   -1    0    0  503    0 -0.00000000000E+00  0.00000000000E+00  0.21512655395E+04  0.21512655395E+04  0.00000000000E+00 0.  1.
         21   -1    0    0  505  502  0.00000000000E+00 -0.00000000000E+00 -0.22256471052E+02  0.22256471052E+02  0.00000000000E+00 0.  1.
         21    1    1    2  503  504 -0.32613820911E+02  0.17491528015E+02  0.41532182560E+03  0.41696742521E+03  0.00000000000E+00 0. -1.
         21    1    1    2  504  502  0.34555481558E+02 -0.23246868502E+02  0.11993796397E+02  0.43339927929E+02  0.00000000000E+00 0.  1.
         21    1    1    2  505  501 -0.81412458292E+02 -0.48303601080E+02  0.61040430271E+03  0.61770109196E+03  0.00000000000E+00 0.  1.
          1    1    1    2  501    0  0.79470797644E+02  0.54058941567E+02  0.10912891438E+04  0.10955135655E+04  0.00000000000E+00 0.  1.
<scales pt_clust_3="37.00831" pt_clust_4="41.06019" pt_clust_5="90.94356" pt_clust_6="14000.00000"></scales>
<clustering>
<clus scale="   37.008">  1  3  2 -1</clus>
<clus scale="   41.060">  2  4  1 -1</clus>
<clus scale="   90.944">  2  5  1 -1</clus>
<clus scale="   41.060">  2  3  1 -1</clus>
</clustering>
</event>
<event>
 6    0  0.2433432E+002  0.1091902E+03  0.7546771E-02  0.1262077E+00
          2   -1    0    0  505    0 -0.00000000000E+00  0.00000000000E+00  0.17088173885E+04  0.17088173885E+04  0.00000000000E+00 0. -1.
         21   -1    0    0  504  502  0.00000000000E+00 -0.00000000000E+00 -0.45693518447E+03  0.45693518447E+03  0.00000000000E+00 0. -1.
         21    1    1    2  503  502  0.20723590578E+02  0.35783528496E+02 -0.18368254249E+03  0.18827959139E+03  0.00000000000E+00 0. -1.
         21    1    1    2  504  501 -0.61940071905E+02 -0.13409195548E+03 -0.22718784551E+03  0.27098254958E+03  0.00000000000E+00 0. -1.
         21    1    1    2  505  503  0.68694498502E+02  0.78652918864E+02  0.10403206487E+03  0.14740382048E+03  0.00000000000E+00 0.  1.
          2    1    1    2  501    0 -0.27478017175E+02  0.19655508117E+02  0.15587205271E+04  0.15590866115E+04  0.00000000000E+00 0. -1.
<scales pt_clust_3="41.40414" pt_clust_4="109.19019" pt_clust_5="14000.00000" pt_clust_6="33.78432"></scales>
<clustering>
<clus scale="   33.784">  1  6  2 -1</clus>
<clus scale="   41.404">  2  3  1 -1</clus>
<clus scale="  109.190">  2  4  1 -1</clus>
<clus scale="   41.404">  2  3  1 -1</clus>
</clustering>
</event>
<event>
 6    0  0.2433432E+002  0.1967361E+03  0.7546771E-02  0.1152522E+00
          1   -1    0    0  504    0 -0.00000000000E+00  0.00000000000E+00  0.12396552085E+04  0.12396552085E+04  0.00000000000E+00 0. -1.
         21   -1    0    0  505  502  0.00000000000E+00 -0.00000000000E+00 -0.21820639948E+03  0.21820639948E+03  0.00000000000E+00 0.  1.
         21    1    1    2  503  501  0.53798795110E+02  0.69668393933E+02 -0.68803952200E+02  0.11172277882E+03  0.00000000000E+00 0.  1.
         21    1    1    2  504  502  0.30197761427E+02 -0.87287271500E+01 -0.34865117942E+02  0.46943284099E+02  0.00000000000E+00 0.  1.
         21    1    1    2  505  503  0.32811732603E+02  0.93413528030E+02 -0.48129692938E+02  0.11008707625E+03  0.00000000000E+00 0.  1.
          1    1    1    2  501    0 -0.11680828914E+03 -0.15435319481E+03  0.11732475721E+04  0.11891084689E+04  0.00000000000E+00 0. -1.
<scales pt_clust_3="36.71743" pt_clust_4="31.43399" pt_clust_5="36.71743" pt_clust_6="193.07005"></scales>
<clustering>
<clus scale="   31.434">  2  4  1 -1</clus>
<clus scale="   36.717">  3  5 -1 -1</clus>
<clus scale="  193.070">  1  6  2 -1</clus>
<clus scale="   31.434">  2  3  1 -1</clus>
</clustering>
</event>
<event>
 6    0  0.2433432E+002  0.1628300E+03  0.7546771E-02  0.1185538E+00
          2   -1    0    0  504    0 -0.00000000000E+00  0.00000000000E+00  0.18468591791E+03  0.18468591791E+03  0.00000000000E+00 0. -1.
         21   -1    0    0  505  502  0.00000000000E+00 -0.00000000000E+00 -0.79018198268E+03  0.79018198268E+03  0.00000000000E+00 0. -1.
         21    1    1    2  503  501 -0.15896827669E+02  0.50043251969E+02 -0.12740830945E+03  0.13780389514E+03  0.00000000000E+00 0.  1.
         21    1    1    2  504  502  0.42395604020E+02 -0.16105597784E+03 -0.23529674845E+02  0.16819649472E+03  0.00000000000E+00 0. -1.
         21    1    1    2  505  503 -0.44849049326E+02  0.85738853793E+02 -0.55515976063E+03  0.56352901265E+03  0.00000000000E+00 0. -1.
          2    1    1    2  501    0  0.18350272975E+02  0.25273872078E+02  0.10060168016E+03  0.10533849809E+03  0.00000000000E+00 0. -1.
<scales pt_clust_3="46.00812" pt_clust_4="150.57150" pt_clust_5="46.00812" pt_clust_6="31.23301"></scales>
<clustering>
<clus scale="   31.233">  1  6  2 -1</clus>
<clus scale="   46.008">  3  5 -1 -1</clus>
<clus scale="  150.571">  1  4  2 -1</clus>
<clus scale="  162.830">  2  3  1 -1</clus>
</clustering>
</event>
<event>
 6    0  0.2433432E+002  0.7959830E+02  0.7546771E-02  0.1330195E+00
         21   -1    0    0  505  502  0.00000000000E+00  0.00000000000E+00  0.15600325687E+04  0.15600325687E+04  0.00000000000E+00 0. -1.
          4   -1    0    0  503    0 -0.00000000000E+00 -0.00000000000E+00 -0.15406977488E+03  0.15406977488E+03  0.00000000000E+00 0.  1.
         21    1    1    2  503  504  0.41630468424E+02  0.76472713664E+02  0.42135874206E+03  0.43026080619E+03  0.00000000000E+00 0. -1.
         21    1    1    2  504  502 -0.40144267204E+02 -0.64524766210E+02  0.80745961291E+03  0.81102776409E+03  0.00000000000E+00 0. -1.
         21    1    1    2  505  501 -0.33447082709E+02  0.25111552590E+02  0.31952861017E+03  0.32225429420E+03  0.00000000000E+00 0. -1.
          4    1    1    2  501    0  0.31960881489E+02 -0.37059500043E+02 -0.14238417135E+03  0.15055947907E+03  0.00000000000E+00 0.  1.
<scales pt_clust_3="79.59830" pt_clust_4="14000.00000" pt_clust_5="41.82460" pt_clust_6="48.80298"></scales>
<clustering>
<clus scale="   41.825">  1  5  2 -1</clus>
<clus scale="   48.803">  2  6  1 -1</clus>
<clus scale="   79.598">  2  3  1 -1</clus>
<clus scale="   41.825">  1  3  2 -1</clus>
</clustering>
</event>
<event>
 6    0  0.2433432E+002  0.1642129E+03  0.7546771E-02  0.1184021E+00
         21   -1    0    0  504  502  0.00000000000E+00  0.00000000000E+00  0.52444212483E+02  0.52444212483E+02  0.00000000000E+00 0.  1.
          2   -1    0    0  503    0 -0.00000000000E+00 -0.00000000000E+00 -0.34709731424E+04  0.34709731424E+04  0.00000000000E+00 0.  1.
         21    1    1    2  503  505  0.20911104566E+02  0.23322045199E+02 -0.32927479078E+03  0.33076136402E+03  0.00000000000E+00 0. -1.
         21    1    1    2  504  501 -0.66189889393E+02 -0.17218253300E+03 -0.15168979541E+03  0.23882571084E+03  0.00000000000E+00 0.  1.
         21    1    1    2  505  502  0.38006759209E+02  0.11238472301E+03 -0.43212218300E+03  0.44811206272E+03  0.00000000000E+00 0.  1.
          2    1    1    2  501    0  0.72720256179E+01  0.36475764793E+02 -0.25054421607E+04  0.25057182173E+04  0.00000000000E+00 0.  1.
<scales pt_clust_3="31.32399" pt_clust_4="14000.00000" pt_clust_5="164.21285" pt_clust_6="60.06299"></scales>
<clustering>
<clus scale="   31.324">  2  3  1 -1</clus>
<clus scale="   60.063">  2  6  1 -1</clus>
<clus scale="  164.213">  2  5  1 -1</clus>
<clus scale="  164.213">  1  3  2 -1</clus>
</clustering>
</event>
<event>
 6    0  0.2433432E+002  0.1335658E+03  0.7546771E-02  0.1222259E+00
          2   -1    0    0  504    0 -0.00000000000E+00  0.00000000000E+00  0.11490301580E+04  0.11490301580E+04  0.00000000000E+00 0. -1.
         21   -1    0    0  505  502  0.00000000000E+00 -0.00000000000E+00 -0.37238122302E+03  0.37238122302E+03  0.00000000000E+00 0.  1.
         21    1    1    2  503  501 -0.40309098920E+02  0.12197400427E+03 -0.17469128780E+03  0.21683986535E+03  0.00000000000E+00 0.  1.
         21    1    1    2  504  502 -0.28585842459E+02  0.22835552760E+02 -0.66717610283E+00  0.36593141200E+02  0.00000000000E+00 0.  1.
         21    1    1    2  505  503  0.64206739247E+02 -0.11115490480E+02 -0.14703350901E+03  0.16082572017E+03  0.00000000000E+00 0.  1.
          2    1    1    2  501    0  0.46882021314E+01 -0.13369406655E+03  0.10990409079E+04  0.11071526543E+04  0.00000000000E+00 0. -1.
<scales pt_clust_3="133.56584" pt_clust_4="36.58706" pt_clust_5="51.78145" pt_clust_6="14000.00000"></scales>
<clustering>
<clus scale="   36.587">  2  4  1 -1</clus>
<clus scale="   51.781">  2  5  1 -1</clus>
<clus scale="  133.566">  2  3  1 -1</clus>
<clus scale="   36.587">  2  3  1 -1</clus>
</clustering>
</event>
<event>
 6    0  0.2433432E+002  0.8395669E+02  0.7546771E-02  0.1318184E+00
         21   -1    0    0  505  502  0.00000000000E+00  0.00000000000E+00  0.14716872127E+04  0.14716872127E+04  0.00000000000E+00 0. -1.
          2   -1    0    0  503    0 -0.00000000000E+00 -0.00000000000E+00 -0.13488970717E+03  0.13488970717E+03  0.00000000000E+00 0. -1.
         21    1    1    2  503  504 -0.91360662670E+02  0.57745047470E+02  0.21807918838E+03  0.24339226281E+03  0.00000000000E+00 0.  1.
         21    1    1    2  504  502 -0.52004881840E+02  0.20135075939E+02  0.37611077903E+03  0.38022262837E+03  0.00000000000E+00 0. -1.
         21    1    1    2  505  501  0.10670790072E+03 -0.51386181752E+02  0.85429406340E+03  0.86246476015E+03  0.00000000000E+00 0. -1.
          2    1    1    2  501    0  0.36657643793E+02 -0.26493941657E+02 -0.11168652528E+03  0.12049726853E+03  0.00000000000E+00 0. -1.
<scales pt_clust_3="14000.00000" pt_clust_4="50.99714" pt_clust_5="83.95669" pt_clust_6="45.22955"></scales>
<clustering>
<clus scale="   45.230">  2  6  1 -1</clus>
<clus scale="   50.997">  1  4  2 -1</clus>
<clus scale="   83.957">  1  5  2 -1</clus>
<clus scale="   50.997">  1  3  2 -1</clus>
</clustering>
</event>
<event>
 6    0  0.2433432E+002  0.9750624E+02  0.7546771E-02  0.1285629E+00
         21   -1    0    0  505  502  0.00000000000E+00  0.00000000000E+00  0.51097374023E+03  0.51097374023E+03  0.00000000000E+00 0. -1.
          1   -1    0    0  503    0 -0.00000000000E+00 -0.00000000000E+00 -0.11997625181E+04  0.11997625181E+04  0.00000000000E+00 0.  1.
         21    1    1    2  503  502  0.25486379258E+02  0.59455664287E+02 -0.15280690308E+03  0.16593517160E+03  0.00000000000E+00 0.  1.
         21    1    1    2  504  501  0.12903444441E+03 -0.19398992080E+02 -0.35237241301E+03  0.37575593966E+03  0.00000000000E+00 0.  1.
         21    1    1    2  505  504 -0.97048849914E+02 -0.31239370578E+01  0.48617964251E+03  0.49578108379E+03  0.00000000000E+00 0. -1.
          1    1    1    2  501    0 -0.57471973756E+02 -0.36932735149E+02 -0.66978910427E+03  0.67326406327E+03  0.00000000000E+00 0.  1.
<scales pt_clust_3="64.68796" pt_clust_4="14000.00000" pt_clust_5="97.50624" pt_clust_6="41.04703"></scales>
<clustering>
<clus scale="   64.688">  2  3  1 -1</clus>
<clus scale="   41.047">  2  6  1 -1</clus>
<clus scale="   97.506">  1  5  2 -1</clus>
<clus scale="   97.506">  1  3  2 -1</clus>
</clustering>
</event>
<event>
 6    0  0.2433432E+002  0.1382804E+03  0.7546771E-02  0.1215662E+00
         21   -1    0    0  504  502  0.00000000000E+00  0.00000000000E+00  0.31074666246E+03  0.31074666246E+03  0.00000000000E+00 0. -1.
          1   -1    0    0  503    0 -0.00000000000E+00 -0.00000000000E+00 -0.60026515584E+03  0.60026515584E+03  0.00000000000E+00 0. -1.
         21    1    1    2  503  502  0.81417822785E+02 -0.46849186979E+02  0.66434342238E+02  0.11505316170E+03  0.00000000000E+00 0. -1.
         21    1    1    2  504  505 -0.12307570322E+02  0.29329961918E+02  0.99430801539E+02  0.10439447901E+03  0.00000000000E+00 0. -1.
         21    1    1    2  505  501 -0.27101247804E+02  0.14949652696E+03  0.55871616184E+02  0.16188059396E+03  0.00000000000E+00 0. -1.
          1    1    1    2  501    0 -0.42009004659E+02 -0.13197730190E+03 -0.51125525334E+03  0.52968358362E+03  0.00000000000E+00 0. -1.
<scales pt_clust_3="83.36514" pt_clust_4="31.80759" pt_clust_5="14000.00000" pt_clust_6="138.28039"></scales>
<clustering>
<clus scale="   31.808">  1  4  2 -1</clus>
<clus scale="   83.365">  1  3  2 -1</clus>
<clus scale="  138.280">  2  6  1 -1</clus>
<clus scale="   31.808">  1  3  2 -1</clus>
</clustering>
</event>
<event>
 6    0  0.2433432E+002  0.7169271E+02  0.7546771E-02  0.1354430E+00
          1   -1    0    0  504    0 -0.00000000000E+00  0.00000000000E+00  0.70104872412E+03  0.70104872412E+03  0.00000000000E+00 0.  1.
         21   -1    0    0  505  502  0.00000000000E+00 -0.00000000000E+00 -0.60446140540E+02  0.60446140540E+02  0.00000000000E+00 0.  1.
         21    1    1    2  503  501 -0.12173553687E+02  0.89108230765E+02  0.24082938806E+03  0.25707443738E+03  0.00000000000E+00 0. -1.
         21    1    1    2  504  502 -0.28189160236E+02  0.32200267332E+02 -0.91286926359E+00  0.42805598948E+02  0.00000000000E+00 0. -1.
         21    1    1    2  505  503  0.52869442404E+02 -0.83347338910E+02  0.53757195579E+02  0.11239124930E+03  0.00000000000E+00 0.  1.
          1    1    1    2  501    0 -0.12506728481E+02 -0.37961159187E+02  0.34692886920E+03  0.34922357903E+03  0.00000000000E+00 0.  1.
<scales pt_clust_3="71.69271" pt_clust_4="41.63986" pt_clust_5="14000.00000" pt_clust_6="39.96834"></scales>
<clustering>
<clus scale="   39.968">  1  6  2 -1</clus>
<clus scale="   41.640">  2  4  1 -1</clus>
<clus scale="   71.693">  1  3  2 -1</clus>
<clus scale="   41.640">  2  3  1 -1</clus>
</clustering>
</event>
<event>
 6    0  0.2433432E+002  0.6396580E+02  0.7546771E-02  0.1381905E+00
         21   -1    0    0  505  502  0.00000000000E+00  0.00000000000E+00  0.11430697287E+03  0.11430697287E+03  0.00000000000E+00 0.  1.
         -1   -1    0    0    0  501 -0.00000000000E+00 -0.00000000000E+00 -0.12021398879E+04  0.12021398879E+04  0.00000000000E+00 0.  1.
         21    1    1    2  503  502 -0.74117020492E+02  0.45289674040E+02  0.68101831320E+02  0.11037366865E+03  0.00000000000E+00 0.  1.
         21    1    1    2  504  501  0.85197428430E+02 -0.52741172648E+02 -0.19513986722E+03  0.21936225947E+03  0.00000000000E+00 0.  1.
         21    1    1    2  505  504  0.24425224758E+02 -0.24329497761E+02 -0.11678684041E+02  0.36399281953E+02  0.00000000000E+00 0.  1.
         -1    1    1    2    0  503 -0.35505632696E+02  0.31780996369E+02 -0.94911619510E+03  0.95031165072E+03  0.00000000000E+00 0.  1.
<scales pt_clust_3="63.96580" pt_clust_4="14000.00000" pt_clust_5="34.47486" pt_clust_6="47.44983"></scales>
<clustering>
<clus scale="   34.475">  1  5  2 -1</clus>
<clus scale="   47.450">  2  6  1 -1</clus>
<clus scale="   63.966">  1  3  2 -1</clus>
<clus scale="   34.475">  1  3  2 -1</clus>
</clustering>
</event>
<event>
 6    0  0.2433432E+002  0.9814220E+02  0.7546771E-02  0.1284252E+00
         -1   -1    0    0    0  501 -0.00000000000E+00  0.00000000000E+00  0.88618087826E+03  0.88618087826E+03  0.00000000000E+00 0.  1.
         21   -1    0    0  504  502  0.00000000000E+00 -0.00000000000E+00 -0.18378657345E+03  0.18378657345E+03  0.00000000000E+00 0. -1.
         21    1    1    2  503  501  0.46874850335E+02 -0.18277173176E+02  0.11885765314E+02  0.51696983184E+02  0.00000000000E+00 0.  1.
         21    1    1    2  504  503  0.31074044352E+02 -0.17556274478E+02 -0.81176939895E+02  0.88676460105E+02  0.00000000000E+00 0.  1.
         21    1    1    2  505  502 -0.87778349803E+02 -0.62841764916E+02 -0.37555301764E+02  0.11430016099E+03  0.00000000000E+00 0. -1.
         -1    1    1    2    0  505  0.98294551157E+01  0.98675212570E+02  0.80924078116E+03  0.81529384743E+03  0.00000000000E+00 0.  1.
<scales pt_clust_3="57.43469" pt_clust_4="35.69060" pt_clust_5="14000.00000" pt_clust_6="98.14220"></scales>
<clustering>
<clus scale="   35.691">  2  4  1 -1</clus>
<clus scale="   57.435">  2  3  1 -1</clus>
<clus scale="   98.142">  1  6  2 -1</clus>
<clus scale="   35.691">  2  3  1 -1</clus>
</clustering>
</event>
<event>
 6    0  0.2433432E+002  0.8782737E+02  0.7546771E-02  0.1308200E+00
         21   -1    0    0  504  502  0.00000000000E+00  0.00000000000E+00  0.12257765997E+03  0.12257765997E+03  0.00000000000E+00 0.  1.
          1   -1    0    0  503    0 -0.00000000000E+00 -0.00000000000E+00 -0.93228527948E+03  0.93228527948E+03  0.00000000000E+00 0. -1.
         21    1    1    2  503  502  0.40926151309E+02 -0.61414506200E+02 -0.59805788949E+02  0.94991703977E+02  0.00000000000E+00 0.  1.
         21    1    1    2  504  505  0.95704174743E+01  0.48992849508E+02 -0.45582405379E+01  0.50126537387E+02  0.00000000000E+00 0.  1.
         21    1    1    2  505  501 -0.11947061920E+03  0.64481192548E+02  0.22016073079E+02  0.13753457936E+03  0.00000000000E+00 0.  1.
          1    1    1    2  501    0  0.68974050417E+02 -0.52059535857E+02 -0.76735966311E+03  0.77221011873E+03  0.00000000000E+00 0. -1.
<scales pt_clust_3="67.83325" pt_clust_4="49.91886" pt_clust_5="87.82737" pt_clust_6="14000.00000"></scales>
<clustering>
<clus scale="   49.919">  1  4  2 -1</clus>
<clus scale="   67.833">  1  3  2 -1</clus>
<clus scale="   87.827">  1  5  2 -1</clus>
<clus scale="   49.919">  1  3  2 -1</clus>
</clustering>
</event>
<event>
 6    0  0.2433432E+002  0.1530957E+03  0.7546771E-02  0.1196720E+00
          2   -1    0    0  503    0 -0.00000000000E+00  0.00000000000E+00  0.18160334760E+04  0.18160334760E+04  0.00000000000E+00 0.  1.
         21   -1    0    0  504  502  0.00000000000E+00 -0.00000000000E+00 -0.28925558086E+03  0.28925558086E+03  0.00000000000E+00 0.  1.
         21    1    1    2  503  505 -0.71056176542E+02  0.20131811648E+02 -0.53673259953E+02  0.91296708041E+02  0.00000000000E+00 0.  1.
         21    1    1    2  504  501  0.22471959462E+02  0.15988865104E+03 -0.15289119461E+03  0.22236251277E+03  0.00000000000E+00 0.  1.
         21    1    1    2  505  502  0.42777543821E+02 -0.27140370398E+02 -0.88377751237E+00  0.50668521030E+02  0.00000000000E+00 0.  1.
          2    1    1    2  501    0  0.58066732590E+01 -0.15288009229E+03  0.17342261272E+04  0.17409613150E+04  0.00000000000E+00 0.  1.
<scales pt_clust_3="60.62550" pt_clust_4="153.09571" pt_clust_5="50.66081" pt_clust_6="14000.00000"></scales>
<clustering>
<clus scale="   50.661">  2  5  1 -1</clus>
<clus scale="   60.626">  2  3  1 -1</clus>
<clus scale="  153.096">  2  4  1 -1</clus>
<clus scale="   50.661">  2  3  1 -1</clus>
</clustering>
</event>
<event>
 6    0  0.2433432E+002  0.5729120E+02  0.7546771E-02  0.1409564E+00
          1   -1    0    0  505    0 -0.00000000000E+00  0.00000000000E+00  0.93970963505E+03  0.93970963505E+03  0.00000000000E+00 0.  1.
         21   -1    0    0  504  502  0.00000000000E+00 -0.00000000000E+00 -0.28695552837E+03  0.28695552837E+03  0.00000000000E+00 0. -1.
         21    1    1    2  503  501  0.65298967460E+02  0.74566703773E+02 -0.64811062718E+02  0.11842559822E+03  0.00000000000E+00 0. -1.
         21    1    1    2  504  503  0.23908962156E+02 -0.51792850835E+02 -0.16496436047E+03  0.17454907074E+03  0.00000000000E+00 0. -1.
         21    1    1    2  505  502 -0.40937371556E+02  0.73846148228E+01 -0.71363628326E+01  0.42205788708E+02  0.00000000000E+00 0.  1.
          1    1    1    2  501    0 -0.48270558061E+02 -0.30158467760E+02  0.88966589271E+03  0.89148470576E+03  0.00000000000E+00 0.  1.
<scales pt_clust_3="57.29120" pt_clust_4="47.08446" pt_clust_5="41.59809" pt_clust_6="14000.00000"></scales>
<clustering>
<clus scale="   41.598">  2  5  1 -1</clus>
<clus scale="   47.084">  2  4  1 -1</clus>
<clus scale="   57.291">  2  3  1 -1</clus>
<clus scale="   41.598">  2  3  1 -1</clus>
</clustering>
</event>
<event>
 6    0  0.2433432E+002  0.1639659E+03  0.7546771E-02  0.1184291E+00
         21   -1    0    0  504  502  0.00000000000E+00  0.00000000000E+00  0.17528950045E+03  0.17528950045E+03  0.00000000000E+00 0.  1.
         -2   -1    0    0    0  501 -0.00000000000E+00 -0.00000000000E+00 -0.45422142733E+03  0.45422142733E+03  0.00000000000E+00 0.  1.
         21    1    1    2  503  501 -0.10734884523E+03  0.77949571579E+02 -0.96896508264E+02  0.16428281588E+03  0.00000000000E+00 0.  1.
         21    1    1    2  504  505  0.24574656140E+02 -0.37307517990E+02  0.46885233856E+02  0.64761020503E+02  0.00000000000E+00 0.  1.
         21    1    1    2  505  503  0.10033662821E+03 -0.70143168580E+02  0.40437993736E+02  0.12892918365E+03  0.00000000000E+00 0.  1.
         -2    1    1    2    0  502 -0.17562439120E+02  0.29501114991E+02 -0.26935864621E+03  0.27153790774E+03  0.00000000000E+00 0.  1.
<scales pt_clust_3="155.37934" pt_clust_4="31.63256" pt_clust_5="31.63256" pt_clust_6="34.33300"></scales>
<clustering>
<clus scale="   31.633">  4  5 -1 -1</clus>
<clus scale="   34.333">  2  6  1 -1</clus>
<clus scale="  155.379">  2  3  1 -1</clus>
<clus scale="  163.966">  1  3  2 -1</clus>
</clustering>
</event>
<event>
 6    0  0.2433432E+002  0.2640002E+03  0.7546771E-02  0.1104763E+00
         21   -1    0    0  503  502  0.00000000000E+00  0.00000000000E+00  0.13347518426E+03  0.13347518426E+03  0.00000000000E+00 0.  1.
          2   -1    0    0  504    0 -0.00000000000E+00 -0.00000000000E+00 -0.40984030015E+04  0.40984030015E+04  0.00000000000E+00 0. -1.
         21    1    1    2  503  501  0.22624107095E+03  0.47570161162E+02 -0.28453275508E+03  0.36661537220E+03  0.00000000000E+00 0.  1.
         21    1    1    2  504  505 -0.14574874781E+03  0.28824265379E+02 -0.95391567153E+02  0.17655901803E+03  0.00000000000E+00 0.  1.
         21    1    1    2  505  502 -0.12484106419E+03 -0.21213540510E+02 -0.26346050714E+02  0.12934225913E+03  0.00000000000E+00 0.  1.
          2    1    1    2  501    0  0.44348741047E+02 -0.55180886031E+02 -0.35586574443E+04  0.35593615364E+04  0.00000000000E+00 0. -1.
<scales pt_clust_3="253.41138" pt_clust_4="68.33497" pt_clust_5="68.33497" pt_clust_6="70.79365"></scales>
<clustering>
<clus scale="   68.335">  4  5 -1 -1</clus>
<clus scale="   70.794">  2  6  1 -1</clus>
<clus scale="  253.411">  2  3  1 -1</clus>
<clus scale="  264.000">  1  3  2 -1</clus>
</clustering>
</event>
<event>
 6    0  0.2433432E+002  0.9821724E+02  0.7546771E-02  0.1284090E+00
         21   -1    0    0  505  502  0.00000000000E+00  0.00000000000E+00  0.17889533147E+04  0.17889533147E+04  0.00000000000E+00 0.  1.
         -3   -1    0    0    0  501 -0.00000000000E+00 -0.00000000000E+00 -0.84439497969E+02  0.84439497969E+02  0.00000000000E+00 0. -1.
         21    1    1    2  503  504  0.65074177966E+02  0.31429522922E+02  0.38565775971E+02  0.81913262817E+02  0.00000000000E+00 0.  1.
         21    1    1    2  504  502 -0.36316782010E+02 -0.95714913565E+02  0.12975408995E+04  0.13015731402E+04  0.00000000000E+00 0.  1.
         21    1    1    2  505  501 -0.79145553013E+02  0.72046707728E+02  0.41023174198E+03  0.42396323990E+03  0.00000000000E+00 0.  1.
         -3    1    1    2    0  503  0.50388157057E+02 -0.77613170850E+01 -0.41824600727E+02  0.65943169778E+02  0.00000000000E+00 0. -1.
<scales pt_clust_3="98.21724" pt_clust_4="14000.00000" pt_clust_5="97.68575" pt_clust_6="50.98239"></scales>
<clustering>
<clus scale="   50.982">  2  6  1 -1</clus>
<clus scale="   97.686">  2  5  1 -1</clus>
<clus scale="   98.217">  2  3  1 -1</clus>
<clus scale="   98.217">  1  3  2 -1</clus>
</clustering>
</event>
<event>
 6    0  0.2433432E+002  0.9027659E+02  0.7546771E-02  0.1302183E+00
          1   -1    0    0  503    0 -0.00000000000E+00  0.00000000000E+00  0.35613093581E+03  0.35613093581E+03  0.00000000000E+00 0.  1.
         21   -1    0    0  504  502  0.00000000000E+00 -0.00000000000E+00 -0.21291507396E+03  0.21291507396E+03  0.00000000000E+00 0.  1.
         21    1    1    2  503  505  0.76256624711E+02  0.10242712235E+03 -0.14293991993E+03  0.19167213912E+03  0.00000000000E+00 0.  1.
         21    1    1    2  504  501 -0.23391739640E+02 -0.32128629635E+02  0.10488875089E+01  0.39755785625E+02  0.00000000000E+00 0.  1.
         21    1    1    2  505  502  0.25991122923E+02 -0.28540181863E+02 -0.28446643576E+00  0.38602608367E+02  0.00000000000E+00 0.  1.
          1    1    1    2  501    0 -0.78856007994E+02 -0.41758310851E+02  0.28539136070E+03  0.29901547666E+03  0.00000000000E+00 0.  1.
<scales pt_clust_3="90.27659" pt_clust_4="40.69581" pt_clust_5="38.60156" pt_clust_6="14000.00000"></scales>
<clustering>
<clus scale="   38.602">  2  5  1 -1</clus>
<clus scale="   40.696">  2  4  1 -1</clus>
<clus scale="   90.277">  2  3  1 -1</clus>
<clus scale="   38.602">  2  3  1 -1</clus>
</clustering>
</event>
<event>
 6    0  0.2433432E+002  0.2417936E+03  0.7546771E-02  0.1118604E+00
         -2   -1    0    0    0  501 -0.00000000000E+00  0.00000000000E+00  0.14868969713E+04  0.14868969713E+04  0.00000000000E+00 0.  1.
         21   -1    0    0  505  502  0.00000000000E+00 -0.00000000000E+00 -0.12388224805E+03  0.12388224805E+03  0.00000000000E+00 0. -1.
         21    1    1    2  503  502 -0.37919116363E+02  0.12838032432E+02  0.27039740517E+02  0.48309647377E+02  0.00000000000E+00 0.  1.
         21    1    1    2  504  503  0.56721748447E+02  0.22711178463E+03  0.55931904195E+02  0.24067716421E+03  0.00000000000E+00 0. -1.
         21    1    1    2  505  501  0.42281912768E+02 -0.49827462536E+01  0.40716431369E+02  0.58910234179E+02  0.00000000000E+00 0.  1.
         -2    1    1    2    0  504 -0.61084544852E+02 -0.23496707081E+03  0.12393266472E+04  0.12628821736E+04  0.00000000000E+00 0.  1.
<scales pt_clust_3="40.03342" pt_clust_4="14000.00000" pt_clust_5="39.43443" pt_clust_6="241.79363"></scales>
<clustering>
<clus scale="   40.033">  2  3  1 -1</clus>
<clus scale="   39.434">  2  5  1 -1</clus>
<clus scale="  241.794">  1  6  2 -1</clus>
<clus scale="   40.033">  2  3  1 -1</clus>
</clustering>
</event>
<event>
 6    0  0.2433432E+002  0.7939144E+02  0.7546771E-02  0.1330787E+00
         21   -1    0    0  504  502  0.00000000000E+00  0.00000000000E+00  0.22416455636E+03  0.22416455636E+03  0.00000000000E+00 0. -1.
         -1   -1    0    0    0  501 -0.00000000000E+00 -0.00000000000E+00 -0.14510431447E+03  0.14510431447E+03  0.00000000000E+00 0.  1.
         21    1    1    2  503  505  0.42251164573E+02 -0.90713684476E+02 -0.17314878789E+02  0.10155756243E+03  0.00000000000E+00 0.  1.
         21    1    1    2  504  501 -0.43453362885E+02  0.25690329128E+02 -0.27019784312E+02  0.57256060823E+02  0.00000000000E+00 0.  1.
         21    1    1    2  505  502 -0.40787542234E+02  0.64387280372E+02  0.14456452317E+03  0.16342657934E+03  0.00000000000E+00 0. -1.
         -1    1    1    2    0  503  0.41989740546E+02  0.63607497553E+00 -0.21169618172E+02  0.47028668236E+02  0.00000000000E+00 0.  1.
<scales pt_clust_3="14000.00000" pt_clust_4="37.80838" pt_clust_5="79.39144" pt_clust_6="41.99456"></scales>
<clustering>
<clus scale="   41.995">  2  6  1 -1</clus>
<clus scale="   37.808">  2  4  1 -1</clus>
<clus scale="   79.391">  1  5  2 -1</clus>
<clus scale="   79.391">  1  3  2 -1</clus>
</clustering>
</event>
<event>
 6    0  0.2433432E+002  0.1573228E+03  0.7546771E-02  0.1191753E+00
          1   -1    0    0  505    0 -0.00000000000E+00  0.00000000000E+00  0.12831093772E+04  0.12831093772E+04  0.00000000000E+00 0.  1.
         21   -1    0    0  504  502  0.00000000000E+00 -0.00000000000E+00 -0.25294822441E+03  0.25294822441E+03  0.00000000000E+00 0.  1.
         21    1    1    2  503  501  0.31908264921E+02 -0.13995864766E+03 -0.11270545506E+03  0.18250775333E+03  0.00000000000E+00 0.  1.
         21    1    1    2  504  503  0.45123464249E+02  0.67546942430E+01 -0.84131818459E+02  0.95707449017E+02  0.00000000000E+00 0.  1.
         21    1    1    2  505  502 -0.35546020627E+02 -0.19055592698E+02  0.29446359211E+02  0.49937193216E+02  0.00000000000E+00 0.  1.
          1    1    1    2  501    0 -0.41485708542E+02  0.15225954611E+03  0.11975520670E+04  0.12079052060E+04  0.00000000000E+00 0.  1.
<scales pt_clust_3="14000.00000" pt_clust_4="31.95538" pt_clust_5="40.33157" pt_clust_6="157.32283"></scales>
<clustering>
<clus scale="   40.332">  2  5  1 -1</clus>
<clus scale="   31.955">  2  4  1 -1</clus>
<clus scale="  157.323">  1  6  2 -1</clus>
<clus scale="   40.332">  2  3  1 -1</clus>
</clustering>
</event>
<event>
 6    0  0.2433432E+002  0.2066129E+03  0.7546771E-02  0.1144277E+00
         -4   -1    0    0    0  501 -0.00000000000E+00  0.00000000000E+00  0.57118954085E+03  0.57118954085E+03  0.00000000000E+00 0.  1.
         21   -1    0    0  505  502  0.00000000000E+00 -0.00000000000E+00 -0.17201399826E+03  0.17201399826E+03  0.00000000000E+00 0. -1.
         21    1    1    2  503  504  0.14051028363E+02 -0.13720090260E+03  0.10551065306E+03  0.17364912030E+03  0.00000000000E+00 0. -1.
         21    1    1    2  504  501  0.42266321031E+02 -0.59852967584E+02  0.59727283684E+02  0.94531307186E+02  0.00000000000E+00 0. -1.
         21    1    1    2  505  503 -0.85322850845E+02  0.17991580084E+03 -0.36547002551E+02  0.20244843211E+03  0.00000000000E+00 0. -1.
         -4    1    1    2    0  502  0.29005501451E+02  0.17138069347E+02  0.27048460840E+03  0.27257467952E+03  0.00000000000E+00 0.  1.
<scales pt_clust_3="38.39583" pt_clust_4="38.39583" pt_clust_5="200.18388" pt_clust_6="33.69024"></scales>
<clustering>
<clus scale="   33.690">  1  6  2 -1</clus>
<clus scale="   38.396">  3  4 -1 -1</clus>
<clus scale="  200.184">  2  5  1 -1</clus>
<clus scale="  200.184">  2  3  1 -1</clus>
</clustering>
</event>
<event>
 6    0  0.2433432E+002  0.1160631E+03  0.7546771E-02  0.1249737E+00
          2   -1    0    0  505    0 -0.00000000000E+00  0.00000000000E+00  0.18841286121E+04  0.18841286121E+04  0.00000000000E+00 0.  1.
         21   -1    0    0  504  502  0.00000000000E+00 -0.00000000000E+00 -0.78261173030E+02  0.78261173030E+02  0.00000000000E+00 0. -1.
         21    1    1    2  503  502 -0.40347631610E+02  0.63058439736E+01 -0.39238865062E+02  0.56633767101E+02  0.00000000000E+00 0. -1.
         21    1    1    2  504  501 -0.96642553333E+00  0.83059570859E+02  0.34901617166E+03  0.35876470613E+03  0.00000000000E+00 0. -1.
         21    1    1    2  505  503  0.54716011623E+02 -0.13572517065E+03  0.18910111487E+03  0.23911168001E+03  0.00000000000E+00 0.  1.
          2    1    1    2  501    0 -0.13401954481E+02  0.46359755813E+02  0.13069890176E+04  0.13078796319E+04  0.00000000000E+00 0.  1.
<scales pt_clust_3="40.83742" pt_clust_4="14000.00000" pt_clust_5="116.06313" pt_clust_6="48.51459"></scales>
<clustering>
<clus scale="   40.837">  2  3  1 -1</clus>
<clus scale="   48.515">  1  6  2 -1</clus>
<clus scale="  116.063">  2  5  1 -1</clus>
<clus scale="   40.837">  2  3  1 -1</clus>
</clustering>
</event>
<event>
 6    0  0.2433432E+002  0.9509138E+02  0.7546771E-02  0.1290970E+00
          2   -1    0    0  504    0 -0.00000000000E+00  0.00000000000E+00  0.14574238714E+03  0.14574238714E+03  0.00000000000E+00 0.  1.
         21   -1    0    0  501  502  0.00000000000E+00 -0.00000000000E+00 -0.30711980913E+03  0.30711980913E+03  0.00000000000E+00 0.  1.
         21    1    1    2  503  505 -0.48397260217E+02 -0.22407006559E+02 -0.38016804745E+02  0.65495390543E+02  0.00000000000E+00 0.  1.
         21    1    1    2  504  503 -0.47847410893E+02  0.49032134336E+01 -0.39607599510E+01  0.48260789990E+02  0.00000000000E+00 0.  1.
         21    1    1    2  505  502  0.73051489698E+02 -0.51212583110E+02 -0.20698398767E+03  0.22539214709E+03  0.00000000000E+00 0.  1.
          2    1    1    2  501    0  0.23193181411E+02  0.68716376235E+02  0.87584130386E+02  0.11371386865E+03  0.00000000000E+00 0.  1.
<scales pt_clust_3="38.09219" pt_clust_4="38.09219" pt_clust_5="86.21739" pt_clust_6="72.52492"></scales>
<clustering>
<clus scale="   38.092">  3  4 -1 -1</clus>
<clus scale="   72.525">  1  6  2 -1</clus>
<clus scale="   86.217">  2  5  1 -1</clus>
<clus scale="   86.217">  2  3  1 -1</clus>
</clustering>
</event>
<event>
 6    0  0.2433432E+002  0.6072903E+02  0.7546771E-02  0.1394798E+00
         21   -1    0    0  503  502  0.00000000000E+00  0.00000000000E+00  0.17978413896E+04  0.17978413896E+04  0.00000000000E+00 0. -1.
         -1   -1    0    0    0  501 -0.00000000000E+00 -0.00000000000E+00 -0.21980528136E+02  0.21980528136E+02  0.00000000000E+00 0. -1.
         21    1    1    2  503  505 -0.47131763087E+02  0.95975335159E+01  0.56980663990E+03  0.57183312480E+03  0.00000000000E+00 0. -1.
         21    1    1    2  504  502  0.26993753120E+02 -0.59627459610E+02  0.68271981565E+03  0.68585016099E+03  0.00000000000E+00 0. -1.
         21    1    1    2  505  501 -0.38923980578E+02  0.65872174285E+02  0.48268279012E+03  0.48870941825E+03  0.00000000000E+00 0. -1.
         -1    1    1    2    0  504  0.59061990544E+02 -0.15842248191E+02  0.40651615747E+02  0.73429213653E+02  0.00000000000E+00 0. -1.
<scales pt_clust_3="48.09902" pt_clust_4="54.27974" pt_clust_5="60.72903" pt_clust_6="14000.00000"></scales>
<clustering>
<clus scale="   48.099">  1  3  2 -1</clus>
<clus scale="   54.280">  1  4  2 -1</clus>
<clus scale="   60.729">  1  5  2 -1</clus>
<clus scale="   48.099">  1  3  2 -1</clus>
</clustering>
</event>
<event>
 6    0  0.2433432E+002  0.1172494E+03  0.7546771E-02  0.1247705E+00
         21   -1    0    0  504  502  0.00000000000E+00  0.00000000000E+00  0.13860277122E+03  0.13860277122E+03  0.00000000000E+00 0.  1.
          2   -1    0    0  503    0 -0.00000000000E+00 -0.00000000000E+00 -0.12954583672E+04  0.12954583672E+04  0.00000000000E+00 0. -1.
         21    1    1    2  503  502  0.91396991274E+02  0.43247871760E+02 -0.56791013904E+03  0.57684115183E+03  0.00000000000E+00 0. -1.
         21    1    1    2  504  505 -0.27411628376E+02 -0.55558048136E+02  0.83055147213E+02  0.10361588470E+03  0.00000000000E+00 0.  1.
         21    1    1    2  505  501 -0.69686070113E+02 -0.29826420119E+02  0.43430890366E+01  0.75925135017E+02  0.00000000000E+00 0. -1.
          2    1    1    2  501    0  0.57007072156E+01  0.42136596495E+02 -0.67634369316E+03  0.67767896684E+03  0.00000000000E+00 0. -1.
<scales pt_clust_3="117.24941" pt_clust_4="61.28270" pt_clust_5="14000.00000" pt_clust_6="42.52048"></scales>
<clustering>
<clus scale="   42.520">  2  6  1 -1</clus>
<clus scale="   61.283">  1  4  2 -1</clus>
<clus scale="  117.249">  2  3  1 -1</clus>
<clus scale="   61.283">  1  3  2 -1</clus>
</clustering>
</event>
<event>
 6    0  0.2433432E+002  0.1178850E+03  0.7546771E-02  0.1246627E+00
          3   -1    0    0  503    0 -0.00000000000E+00  0.00000000000E+00  0.20010984060E+04  0.20010984060E+04  0.00000000000E+00 0.  1.
         21   -1    0    0  501  502  0.00000000000E+00 -0.00000000000E+00 -0.13705028313E+02  0.13705028313E+02  0.00000000000E+00 0. -1.
         21    1    1    2  503  505 -0.41491782738E+02 -0.54748233822E+01  0.27790848277E+03  0.28104210810E+03  0.00000000000E+00 0.  1.
         21    1    1    2  504  502  0.11466729667E+03 -0.51132560408E+02  0.45488756151E+03  0.47189598566E+03  0.00000000000E+00 0. -1.
         21    1    1    2  505  504 -0.52561135688E+02  0.28590794918E+02  0.26558851715E+03  0.27224504951E+03  0.00000000000E+00 0.  1.
          3    1    1    2  501    0 -0.20614378248E+02  0.28016588872E+02  0.98900881625E+03  0.98962029105E+03  0.00000000000E+00 0.  1.
<scales pt_clust_3="30.81297" pt_clust_4="111.97986" pt_clust_5="30.81297" pt_clust_6="34.78336"></scales>
<clustering>
<clus scale="   30.813">  3  5 -1 -1</clus>
<clus scale="   34.783">  1  6  2 -1</clus>
<clus scale="  111.980">  2  4  1 -1</clus>
<clus scale="  111.980">  2  3  1 -1</clus>
</clustering>
</event>
<event>
 6    0  0.2433432E+002  0.9287271E+02  0.7546771E-02  0.1296040E+00
          2   -1    0    0  505    0 -0.00000000000E+00  0.00000000000E+00  0.23208193520E+04  0.23208193520E+04  0.00000000000E+00 0. -1.
         21   -1    0    0  504  502  0.00000000000E+00 -0.00000000000E+00 -0.10047717334E+04  0.10047717334E+04  0.00000000000E+00 0. -1.
         21    1    1    2  503  502  0.19269791502E+02  0.24811306462E+02 -0.93808882014E+03  0.93861470277E+03  0.00000000000E+00 0. -1.
         21    1    1    2  504  501 -0.92072149400E+02  0.33826908288E+02 -0.23759279925E+02  0.10092593226E+03  0.00000000000E+00 0.  1.
         21    1    1    2  505  503  0.64386726279E+02  0.37125104072E+02  0.49331523922E+03  0.49888260054E+03  0.00000000000E+00 0.  1.
          2    1    1    2  501    0  0.84156316190E+01 -0.95763318823E+02  0.17845804794E+04  0.17871678499E+04  0.00000000000E+00 0. -1.
<scales pt_clust_3="31.41538" pt_clust_4="92.87271" pt_clust_5="75.54379" pt_clust_6="14000.00000"></scales>
<clustering>
<clus scale="   31.415">  2  3  1 -1</clus>
<clus scale="   75.544">  1  5  2 -1</clus>
<clus scale="   92.873">  2  4  1 -1</clus>
<clus scale="   31.415">  2  3  1 -1</clus>
</clustering>
</event>
<event>
 6    0  0.2433432E+002  0.1481326E+03  0.7546771E-02  0.1202787E+00
         21   -1    0    0  503  502  0.00000000000E+00  0.00000000000E+00  0.30165213663E+02  0.30165213663E+02  0.00000000000E+00 0.  1.
          3   -1    0    0  505    0 -0.00000000000E+00 -0.00000000000E+00 -0.76983535154E+03  0.76983535154E+03  0.00000000000E+00 0.  1.
         21    1    1    2  503  501  0.67351102326E+01 -0.34009703612E+02 -0.24663474880E+02  0.42547721946E+02  0.00000000000E+00 0.  1.
         21    1    1    2  504  502  0.14907618445E+02  0.70033982638E+02 -0.19021240617E+03  0.20324309403E+03  0.00000000000E+00 0.  1.
         21    1    1    2  505  504 -0.43007647220E+02  0.58743362975E+02 -0.31054524313E+03  0.31896518375E+03  0.00000000000E+00 0.  1.
          3    1    1    2  501    0  0.21364918543E+02 -0.94767642000E+02 -0.21424901369E+03  0.23524456547E+03  0.00000000000E+00 0.  1.
<scales pt_clust_3="31.13459" pt_clust_4="67.04216" pt_clust_5="67.04216" pt_clust_6="141.73700"></scales>
<clustering>
<clus scale="   31.135">  3  6 -1 -1</clus>
<clus scale="   67.042">  4  5 -1 -1</clus>
<clus scale="  141.737">  1  3  2 -1</clus>
<clus scale="  141.737">  1  3  2 -1</clus>
</clustering>
</event>
<event>
 6    0  0.2433432E+002  0.1245516E+03  0.7546771E-02  0.1235772E+00
         21   -1    0    0  504  502  0.00000000000E+00  0.00000000000E+00  0.29146235088E+03  0.29146235088E+03  0.00000000000E+00 0.  1.
         -4   -1    0    0    0  501 -0.00000000000E+00 -0.00000000000E+00 -0.60586204674E+03  0.60586204674E+03  0.00000000000E+00 0. -1.
         21    1    1    2  503  502  0.44401257710E+02  0.91388639851E+02 -0.30487613332E+03  0.32136087480E+03  0.00000000000E+00 0. -1.
         21    1    1    2  504  505 -0.10304878702E+01 -0.38805144462E+02  0.13444141494E+03  0.13993353848E+03  0.00000000000E+00 0.  1.
         21    1    1    2  505  501 -0.85284245550E+02 -0.57781220739E+02  0.12601687230E+03  0.16276462796E+03  0.00000000000E+00 0.  1.
         -4    1    1    2    0  503  0.41913475710E+02  0.51977253505E+01 -0.26998184977E+03  0.27326535638E+03  0.00000000000E+00 0. -1.
<scales pt_clust_3="124.55158" pt_clust_4="38.81882" pt_clust_5="14000.00000" pt_clust_6="42.17481"></scales>
<clustering>
<clus scale="   38.819">  1  4  2 -1</clus>
<clus scale="   42.175">  2  6  1 -1</clus>
<clus scale="  124.552">  2  3  1 -1</clus>
<clus scale="   38.819">  1  3  2 -1</clus>
</clustering>
</event>
<event>
 6    0  0.2433432E+002  0.2525135E+03  0.7546771E-02  0.1111727E+00
         21   -1    0    0  503  502  0.00000000000E+00  0.00000000000E+00  0.10390908477E+03  0.10390908477E+03  0.00000000000E+00 0. -1.
          2   -1    0    0  504    0 -0.00000000000E+00 -0.00000000000E+00 -0.12685688643E+04  0.12685688643E+04  0.00000000000E+00 0. -1.
         21    1    1    2  503  501  0.42417900079E+02  0.16216851027E+02 -0.12724781288E+02  0.47161261255E+02  0.00000000000E+00 0. -1.
         21    1    1    2  504  505 -0.11880863116E+03 -0.21204115398E+02 -0.10249261094E+03  0.15833458448E+03  0.00000000000E+00 0. -1.
         21    1    1    2  505  502 -0.14673323010E+03 -0.82203085174E+02 -0.11857932439E+03  0.20578883401E+03  0.00000000000E+00 0. -1.
          2    1    1    2  501    0  0.22312396118E+03  0.87190349545E+02 -0.93086306291E+03  0.96119326933E+03  0.00000000000E+00 0. -1.
<scales pt_clust_3="45.41216" pt_clust_4="42.41811" pt_clust_5="42.41811" pt_clust_6="247.49859"></scales>
<clustering>
<clus scale="   42.418">  4  5 -1 -1</clus>
<clus scale="   45.412">  1  3  2 -1</clus>
<clus scale="  247.499">  2  6  1 -1</clus>
<clus scale="   45.412">  1  3  2 -1</clus>
</clustering>
</event>
<event>
 6    0  0.2433432E+002  0.1487142E+03  0.7546771E-02  0.1202062E+00
         21   -1    0    0  505  502  0.00000000000E+00  0.00000000000E+00  0.51615258002E+03  0.51615258002E+03  0.00000000000E+00 0.  1.
          4   -1    0    0  503    0 -0.00000000000E+00 -0.00000000000E+00 -0.17220141596E+03  0.17220141596E+03  0.00000000000E+00 0.  1.
         21    1    1    2  503  502 -0.17852368259E+03  0.17547817552E+03  0.14989296696E+03  0.29177250877E+03  0.00000000000E+00 0.  1.
         21    1    1    2  504  501  0.86840150684E+02 -0.62112841946E+02  0.10989179630E+03  0.15321691747E+03  0.00000000000E+00 0.  1.
         21    1    1    2  505  504 -0.84822043241E+01 -0.38007395853E+02  0.10885305026E+03  0.11560924047E+03  0.00000000000E+00 0.  1.
          4    1    1    2  501    0  0.10016573623E+03 -0.75357937726E+02 -0.24686649468E+02  0.12775532926E+03  0.00000000000E+00 0.  1.
<scales pt_clust_3="14000.00000" pt_clust_4="112.33001" pt_clust_5="38.94239" pt_clust_6="148.71416"></scales>
<clustering>
<clus scale="   38.942">  1  5  2 -1</clus>
<clus scale="  112.330">  1  4  2 -1</clus>
<clus scale="  148.714">  2  6  1 -1</clus>
<clus scale="   38.942">  1  3  2 -1</clus>
</clustering>
</event>
<event>
 6    0  0.2433432E+002  0.9367264E+02  0.7546771E-02  0.1294194E+00
          1   -1    0    0  503    0 -0.00000000000E+00  0.00000000000E+00  0.31218219178E+04  0.31218219178E+04  0.00000000000E+00 0. -1.
         21   -1    0    0  505  502  0.00000000000E+00 -0.00000000000E+00 -0.15915221071E+03  0.15915221071E+03  0.00000000000E+00 0. -1.
         21    1    1    2  503  504 -0.15675401278E+02  0.51742441980E+02 -0.71882277242E+02  0.89944762431E+02  0.00000000000E+00 0. -1.
         21    1    1    2  504  502  0.24489410778E+02  0.30465008801E+02 -0.62773982222E+02  0.73948771764E+02  0.00000000000E+00 0. -1.
         21    1    1    2  505  501 -0.68863954429E+02 -0.80608743280E+02  0.28448044397E+03  0.30359370335E+03  0.00000000000E+00 0.  1.
          1    1    1    2  501    0  0.60049944928E+02 -0.15987075007E+01  0.28128455226E+04  0.28134868910E+04  0.00000000000E+00 0. -1.
<scales pt_clust_3="36.99489" pt_clust_4="36.99489" pt_clust_5="82.95501" pt_clust_6="60.07122"></scales>
<clustering>
<clus scale="   36.995">  3  4 -1 -1</clus>
<clus scale="   60.071">  1  6  2 -1</clus>
<clus scale="   82.955">  1  5  2 -1</clus>
<clus scale="   93.673">  2  3  1 -1</clus>
</clustering>
</event>
<event>
 6    0  0.2433432E+002  0.1002817E+03  0.7546771E-02  0.1279705E+00
         21   -1    0    0  504  502  0.00000000000E+00  0.00000000000E+00  0.44888744082E+02  0.44888744082E+02  0.00000000000E+00 0.  1.
          3   -1    0    0  503    0 -0.00000000000E+00 -0.00000000000E+00 -0.16896604595E+04  0.16896604595E+04  0.00000000000E+00 0.  1.
         21    1    1    2  503  505 -0.63077681736E+01  0.46938483345E+02 -0.25372505212E+03  0.25810736377E+03  0.00000000000E+00 0.  1.
         21    1    1    2  504  501  0.13917801585E+02 -0.82033490976E+02 -0.10915719891E+02  0.83918721293E+02  0.00000000000E+00 0.  1.
         21    1    1    2  505  502  0.52763369741E+02  0.63163310639E+02 -0.32379170051E+03  0.33408777637E+03  0.00000000000E+00 0.  1.
          3    1    1    2  501    0 -0.60373403152E+02 -0.28068303008E+02 -0.10563392428E+04  0.10584353421E+04  0.00000000000E+00 0.  1.
<scales pt_clust_3="40.77310" pt_clust_4="84.66083" pt_clust_5="40.77310" pt_clust_6="66.57911"></scales>
<clustering>
<clus scale="   40.773">  3  5 -1 -1</clus>
<clus scale="   66.579">  2  6  1 -1</clus>
<clus scale="   84.661">  1  4  2 -1</clus>
<clus scale="   84.661">  1  3  2 -1</clus>
</clustering>
</event>
<event>
 6    0  0.2433432E+002  0.1869592E+03  0.7546771E-02  0.1161233E+00
         21   -1    0    0  504  502  0.00000000000E+00  0.00000000000E+00  0.16174138744E+03  0.16174138744E+03  0.00000000000E+00 0. -1.
          1   -1    0    0  503    0 -0.00000000000E+00 -0.00000000000E+00 -0.62220262312E+03  0.62220262312E+03  0.00000000000E+00 0. -1.
         21    1    1    2  503  505  0.65785805009E+02  0.19139905406E+03 -0.62541499722E+02  0.21183203069E+03  0.00000000000E+00 0. -1.
         21    1    1    2  504  501 -0.28309328301E+02 -0.10878204221E+03 -0.21763876117E+03  0.24495220174E+03  0.00000000000E+00 0. -1.
         21    1    1    2  505  502 -0.20706043507E+02 -0.26191521657E+02  0.65987807622E+02  0.73953544872E+02  0.00000000000E+00 0.  1.
          1    1    1    2  501    0 -0.16770433202E+02 -0.56425490201E+02 -0.24626878241E+03  0.25320623326E+03  0.00000000000E+00 0. -1.
<scales pt_clust_3="176.99677" pt_clust_4="43.14055" pt_clust_5="33.38766" pt_clust_6="43.14055"></scales>
<clustering>
<clus scale="   33.388">  1  5  2 -1</clus>
<clus scale="   43.141">  4  6 -1 -1</clus>
<clus scale="  176.997">  1  3  2 -1</clus>
<clus scale="   33.388">  1  3  2 -1</clus>
</clustering>
</event>
<event>
 6    0  0.2433432E+002  0.2595904E+03  0.7546771E-02  0.1107390E+00
          2   -1    0    0  504    0 -0.00000000000E+00  0.00000000000E+00  0.12566424165E+04  0.12566424165E+04  0.00000000000E+00 0.  1.
         21   -1    0    0  503  502  0.00000000000E+00 -0.00000000000E+00 -0.56150234670E+03  0.56150234670E+03  0.00000000000E+00 0.  1.
         21    1    1    2  503  501  0.23971285069E+01  0.42539792062E+02 -0.46754420426E+01  0.42863036431E+02  0.00000000000E+00 0.  1.
         21    1    1    2  504  505 -0.15505090761E+02 -0.62346881099E+02  0.37662714023E+02  0.74471615061E+02  0.00000000000E+00 0.  1.
         21    1    1    2  505  502 -0.19961411197E+03 -0.20460628156E+03 -0.45738179880E+03  0.53935853940E+03  0.00000000000E+00 0.  1.
          2    1    1    2  501    0  0.21272207423E+03  0.22441337059E+03  0.11195345966E+04  0.11614515723E+04  0.00000000000E+00 0.  1.
<scales pt_clust_3="42.60728" pt_clust_4="62.81380" pt_clust_5="259.59043" pt_clust_6="14000.00000"></scales>
<clustering>
<clus scale="   42.607">  2  3  1 -1</clus>
<clus scale="   62.814">  1  4  2 -1</clus>
<clus scale="  259.590">  2  5  1 -1</clus>
<clus scale="   42.607">  2  3  1 -1</clus>
</clustering>
</event>
<event>
 6    0  0.2433432E+002  0.1178674E+03  0.7546771E-02  0.1246657E+00
         21   -1    0    0  504  502  0.00000000000E+00  0.00000000000E+00  0.27082086695E+04  0.27082086695E+04  0.00000000000E+00 0.  1.
          1   -1    0    0  505    0 -0.00000000000E+00 -0.00000000000E+00 -0.11030169771E+04  0.11030169771E+04  0.00000000000E+00 0.  1.
         21    1    1    2  503  502 -0.12456557009E+03  0.24569205997E+02  0.12818109322E+04  0.12880836514E+04  0.00000000000E+00 0.  1.
         21    1    1    2  504  501  0.99386502303E+02  0.15255947229E+02  0.34132471099E+03  0.35582717589E+03  0.00000000000E+00 0.  1.
         21    1    1    2  505  503 -0.80092045471E+02 -0.14427660456E+02  0.10704539003E+04  0.10735429408E+04  0.00000000000E+00 0.  1.
          1    1    1    2  501    0  0.10527111326E+03 -0.25397492769E+02 -0.10883978511E+04  0.10937718785E+04  0.00000000000E+00 0.  1.
<scales pt_clust_3="37.05977" pt_clust_4="100.55059" pt_clust_5="37.05977" pt_clust_6="108.39741"></scales>
<clustering>
<clus scale="   37.060">  3  5 -1 -1</clus>
<clus scale="  100.551">  1  4  2 -1</clus>
<clus scale="  108.397">  2  6  1 -1</clus>
<clus scale="  100.551">  1  3  2 -1</clus>
</clustering>
</event>
<event>
 6    0  0.2433432E+002  0.8744439E+02  0.7546771E-02  0.1309161E+00
          2   -1    0    0  505    0 -0.00000000000E+00  0.00000000000E+00  0.14208123368E+04  0.14208123368E+04  0.00000000000E+00 0.  1.
         21   -1    0    0  504  502  0.00000000000E+00 -0.00000000000E+00 -0.17299605395E+04  0.17299605395E+04  0.00000000000E+00 0.  1.
         21    1    1    2  503  502  0.68086240094E+02  0.52469746592E+02  0.41544256278E+03  0.42424206931E+03  0.00000000000E+00 0.  1.
         21    1    1    2  504  501 -0.40544960293E+02  0.12649200478E+02 -0.17162032660E+04  0.17167287340E+04  0.00000000000E+00 0.  1.
         21    1    1    2  505  503  0.35955609958E+02  0.21487659635E+02  0.67289530831E+02  0.79261632355E+02  0.00000000000E+00 0.  1.
          2    1    1    2  501    0 -0.63496889758E+02 -0.86606606705E+02  0.92432296971E+03  0.93054044064E+03  0.00000000000E+00 0.  1.
<scales pt_clust_3="14000.00000" pt_clust_4="42.46685" pt_clust_5="41.88706" pt_clust_6="87.44439"></scales>
<clustering>
<clus scale="   41.887">  1  5  2 -1</clus>
<clus scale="   42.467">  2  4  1 -1</clus>
<clus scale="   87.444">  1  6  2 -1</clus>
<clus scale="   42.467">  2  3  1 -1</clus>
</clustering>
</event>
<event>
 6    0  0.2433432E+002  0.1061118E+03  0.7546771E-02  0.1267944E+00
          1   -1    0    0  504    0 -0.00000000000E+00  0.00000000000E+00  0.71552594335E+02  0.71552594335E+02  0.00000000000E+00 0.  1.
         21   -1    0    0  505  502  0.00000000000E+00 -0.00000000000E+00 -0.34933959389E+03  0.34933959389E+03  0.00000000000E+00 0.  1.
         21    1    1    2  503  501 -0.20859390936E+02  0.27834764311E+02 -0.79233997496E+00  0.34792471845E+02  0.00000000000E+00 0.  1.
         21    1    1    2  504  502  0.80498258823E+02 -0.27858556856E+02 -0.13879288546E+03  0.16284819286E+03  0.00000000000E+00 0.  1.
         21    1    1    2  505  503 -0.20436520068E+02  0.80774866648E+02 -0.84401851002E+02  0.11859975922E+03  0.00000000000E+00 0.  1.
          1    1    1    2  501    0 -0.39202347819E+02 -0.80751074103E+02 -0.53799923115E+02  0.10465176430E+03  0.00000000000E+00 0.  1.
<scales pt_clust_3="34.00397" pt_clust_4="85.18256" pt_clust_5="34.00397" pt_clust_6="92.14115"></scales>
<clustering>
<clus scale="   34.004">  3  5 -1 -1</clus>
<clus scale="   85.183">  2  4  1 -1</clus>
<clus scale="   92.141">  1  6  2 -1</clus>
<clus scale="   85.183">  2  3  1 -1</clus>
</clustering>
</event>
<event>
 6    0  0.2433432E+002  0.2141566E+03  0.7546771E-02  0.1138316E+00
         21   -1    0    0  505  502  0.00000000000E+00  0.00000000000E+00  0.53296827689E+03  0.53296827689E+03  0.00000000000E+00 0. -1.
          2   -1    0    0  504    0 -0.00000000000E+00 -0.00000000000E+00 -0.24131638971E+04  0.24131638971E+04  0.00000000000E+00 0. -1.
         21    1    1    2  503  502 -0.59891943996E+02  0.26144526415E+01  0.32399921744E+03  0.32949866953E+03  0.00000000000E+00 0. -1.
         21    1    1    2  504  503 -0.94260367679E+02  0.30925492085E+02  0.16390198034E+03  0.19158617418E+03  0.00000000000E+00 0. -1.
         21    1    1    2  505  501 -0.63335162020E+02 -0.28769585814E+02 -0.28202958565E+02  0.75062898211E+02  0.00000000000E+00 0. -1.
          2    1    1    2  501    0  0.21748747369E+03 -0.47703589125E+01 -0.23398938594E+04  0.23499844320E+04  0.00000000000E+00 0. -1.
<scales pt_clust_3="59.94898" pt_clust_4="214.15664" pt_clust_5="75.69868" pt_clust_6="14000.00000"></scales>
<clustering>
<clus scale="   59.949">  1  3  2 -1</clus>
<clus scale="   75.699">  1  5  2 -1</clus>
<clus scale="  214.157">  1  4  2 -1</clus>
<clus scale="   59.949">  1  3  2 -1</clus>
</clustering>
</event>
<event>
 6    0  0.2433432E+002  0.2175596E+03  0.7546771E-02  0.1135716E+00
          4   -1    0    0  503    0 -0.00000000000E+00  0.00000000000E+00  0.22878999853E+04  0.22878999853E+04  0.00000000000E+00 0.  1.
         21   -1    0    0  505  502  0.00000000000E+00 -0.00000000000E+00 -0.15537070319E+03  0.15537070319E+03  0.00000000000E+00 0.  1.
         21    1    1    2  503  502  0.10382000991E+03 -0.18171910090E+03  0.11584986054E+04  0.11772507994E+04  0.00000000000E+00 0.  1.
         21    1    1    2  504  501 -0.29465633421E+02  0.71769572885E+02  0.26231659538E+03  0.27354906572E+03  0.00000000000E+00 0.  1.
         21    1    1    2  505  504  0.17285730132E+02  0.31074583394E+02 -0.13375445982E+03  0.13840043975E+03  0.00000000000E+00 0.  1.
          4    1    1    2  501    0 -0.91640106623E+02  0.78874944618E+02  0.84546854116E+03  0.85407038358E+03  0.00000000000E+00 0.  1.
<scales pt_clust_3="200.88515" pt_clust_4="69.27415" pt_clust_5="35.55877" pt_clust_6="69.27415"></scales>
<clustering>
<clus scale="   35.559">  2  5  1 -1</clus>
<clus scale="   69.274">  4  6 -1 -1</clus>
<clus scale="  200.885">  2  3  1 -1</clus>
<clus scale="   35.559">  2  3  1 -1</clus>
</clustering>
</event>
<event>
 6    0  0.2433432E+002  0.6628669E+02  0.7546771E-02  0.1373196E+00
          1   -1    0    0  502    0 -0.00000000000E+00  0.00000000000E+00  0.17312669421E+04  0.17312669421E+04  0.00000000000E+00 0.  1.
         21   -1    0    0  504  502  0.00000000000E+00 -0.00000000000E+00 -0.10126763111E+03  0.10126763111E+03  0.00000000000E+00 0.  1.
         21    1    1    2  503  501  0.10688305420E+03  0.27050823300E+02  0.87169266282E+02  0.14054968980E+03  0.00000000000E+00 0.  1.
         21    1    1    2  504  505 -0.30104087287E+02  0.79000418327E+01  0.13519398275E+02  0.33932887617E+02  0.00000000000E+00 0.  1.
         21    1    1    2  505  503 -0.39747162249E+02  0.19495208345E+02 -0.55993774078E+02  0.71380689201E+02  0.00000000000E+00 0.  1.
          1    1    1    2  501    0 -0.37031804669E+02 -0.54446073478E+02  0.15853044205E+04  0.15866713066E+04  0.00000000000E+00 0.  1.
<scales pt_clust_3="14000.00000" pt_clust_4="31.12341" pt_clust_5="65.74854" pt_clust_6="66.28669"></scales>
<clustering>
<clus scale="   31.123">  2  4  1 -1</clus>
<clus scale="   65.749">  2  5  1 -1</clus>
<clus scale="   66.287">  1  6  2 -1</clus>
<clus scale="   31.123">  2  3  1 -1</clus>
</clustering>
</event>
<event>
 6    0  0.2433432E+002  0.7965052E+02  0.7546771E-02  0.1330046E+00
          2   -1    0    0  505    0 -0.00000000000E+00  0.00000000000E+00  0.11897918628E+04  0.11897918628E+04  0.00000000000E+00 0. -1.
         21   -1    0    0  503  502  0.00000000000E+00 -0.00000000000E+00 -0.13657103642E+03  0.13657103642E+03  0.00000000000E+00 0. -1.
         21    1    1    2  503  504  0.25874605888E+02 -0.77003563750E+02 -0.93034289184E+02  0.12350879735E+03  0.00000000000E+00 0. -1.
         21    1    1    2  504  501  0.43697019820E+02  0.76265602779E+02  0.17432241663E+03  0.19522852417E+03  0.00000000000E+00 0. -1.
         21    1    1    2  505  502 -0.49395962309E+02 -0.29702894199E+02  0.29987819497E+02  0.64973012355E+02  0.00000000000E+00 0. -1.
          2    1    1    2  501    0 -0.20175663399E+02  0.30440855170E+02  0.94194487946E+03  0.94265256537E+03  0.00000000000E+00 0. -1.
<scales pt_clust_3="79.65052" pt_clust_4="14000.00000" pt_clust_5="58.36753" pt_clust_6="36.51990"></scales>
<clustering>
<clus scale="   36.520">  1  6  2 -1</clus>
<clus scale="   58.368">  1  5  2 -1</clus>
<clus scale="   79.651">  2  3  1 -1</clus>
<clus scale="   79.651">  2  3  1 -1</clus>
</clustering>
</event>
<event>
 6    0  0.2433432E+002  0.1433121E+03  0.7546771E-02  0.1208940E+00
         21   -1    0    0  504  502  0.00000000000E+00  0.00000000000E+00  0.43968320800E+03  0.43968320800E+03  0.00000000000E+00 0. -1.
          1   -1    0    0  505    0 -0.00000000000E+00 -0.00000000000E+00 -0.44727411240E+03  0.44727411240E+03  0.00000000000E+00 0.  1.
         21    1    1    2  503  502 -0.34985385256E+02  0.18456270890E+02  0.17654284032E+02  0.43316103949E+02  0.00000000000E+00 0.  1.
         21    1    1    2  504  501  0.62498893184E+02  0.35464283289E+02  0.77664290584E+02  0.10580911620E+03  0.00000000000E+00 0.  1.
         21    1    1    2  505  503 -0.75620574440E+02  0.82851880640E+02  0.29431916433E+03  0.31497091278E+03  0.00000000000E+00 0. -1.
          1    1    1    2  501    0  0.48107066511E+02 -0.13677243482E+03 -0.39722864335E+03  0.42286118747E+03  0.00000000000E+00 0.  1.
<scales pt_clust_3="39.55517" pt_clust_4="67.49483" pt_clust_5="14000.00000" pt_clust_6="143.31214"></scales>
<clustering>
<clus scale="   39.555">  1  3  2 -1</clus>
<clus scale="   67.495">  1  4  2 -1</clus>
<clus scale="  143.312">  2  6  1 -1</clus>
<clus scale="   39.555">  1  3  2 -1</clus>
</clustering>
</event>
<event>
 6    0  0.2433432E+002  0.9147615E+02  0.7546771E-02  0.1299316E+00
         21   -1    0    0  503  502  0.00000000000E+00  0.00000000000E+00  0.51224054444E+03  0.51224054444E+03  0.00000000000E+00 0. -1.
          2   -1    0    0  504    0 -0.00000000000E+00 -0.00000000000E+00 -0.11782852571E+04  0.11782852571E+04  0.00000000000E+00 0.  1.
         21    1    1    2  503  505  0.37849965652E+02 -0.75929743935E+02  0.68736755367E+02  0.10919105940E+03  0.00000000000E+00 0.  1.
         21    1    1    2  504  502 -0.55695030209E+02  0.75257810984E+02  0.38080785416E+03  0.39214830906E+03  0.00000000000E+00 0. -1.
         21    1    1    2  505  501  0.27720460454E+02  0.40359200625E+02  0.19979307136E+02  0.52881582016E+02  0.00000000000E+00 0.  1.
          2    1    1    2  501    0 -0.98753958975E+01 -0.39687267673E+02 -0.11355686294E+04  0.11363048511E+04  0.00000000000E+00 0.  1.
<scales pt_clust_3="91.47615" pt_clust_4="14000.00000" pt_clust_5="34.53333" pt_clust_6="40.89747"></scales>
<clustering>
<clus scale="   40.897">  2  6  1 -1</clus>
<clus scale="   34.533">  2  5  1 -1</clus>
<clus scale="   91.476">  2  3  1 -1</clus>
<clus scale="   91.476">  1  3  2 -1</clus>
</clustering>
</event>
<event>
 6    0  0.2433432E+002  0.1153081E+03  0.7546771E-02  0.1251044E+00
         -1   -1    0    0    0  501 -0.00000000000E+00  0.00000000000E+00  0.13999095767E+03  0.13999095767E+03  0.00000000000E+00 0. -1.
         21   -1    0    0  505  502  0.00000000000E+00 -0.00000000000E+00 -0.23830308625E+03  0.23830308625E+03  0.00000000000E+00 0. -1.
         21    1    1    2  503  501  0.38030885449E+02  0.29927427692E+02 -0.39441525793E+01  0.48554665232E+02  0.00000000000E+00 0. -1.
         21    1    1    2  504  503  0.18900881666E+01  0.49557136470E+02  0.48799346510E+01  0.49832679746E+02  0.00000000000E+00 0. -1.
         21    1    1    2  505  504  0.10308209195E+02  0.33743718500E+02 -0.14395540461E+03  0.14821624820E+03  0.00000000000E+00 0. -1.
         -1    1    1    2    0  502 -0.50229182811E+02 -0.11322828266E+03  0.44707493956E+02  0.13169045074E+03  0.00000000000E+00 0. -1.
<scales pt_clust_3="41.67265" pt_clust_4="41.67265" pt_clust_5="35.28311" pt_clust_6="107.36970"></scales>
<clustering>
<clus scale="   35.283">  2  5  1 -1</clus>
<clus scale="   41.673">  3  4 -1 -1</clus>
<clus scale="  107.370">  1  6  2 -1</clus>
<clus scale="   35.283">  2  3  1 -1</clus>
</clustering>
</event>
<event>
 6    0  0.2433432E+002  0.4408526E+03  0.7546771E-02  0.1030486E+00
         21   -1    0    0  505  502  0.00000000000E+00  0.00000000000E+00  0.81618741696E+03  0.81618741696E+03  0.00000000000E+00 0.  1.
          1   -1    0    0  504    0 -0.00000000000E+00 -0.00000000000E+00 -0.81729354089E+03  0.81729354089E+03  0.00000000000E+00 0.  1.
         21    1    1    2  503  502  0.13969880657E+02  0.82338267687E+02  0.29242724862E+02  0.88486636554E+02  0.00000000000E+00 0. -1.
         21    1    1    2  504  503  0.50368211022E+03  0.52812033760E+02  0.49001324766E+02  0.50880832235E+03  0.00000000000E+00 0.  1.
         21    1    1    2  505  501 -0.41757918469E+03 -0.53835112567E+02  0.37504336126E+03  0.56385114849E+03  0.00000000000E+00 0.  1.
          1    1    1    2  501    0 -0.10007280618E+03 -0.81315188880E+02 -0.45439353481E+03  0.47233485045E+03  0.00000000000E+00 0.  1.
<scales pt_clust_3="83.51496" pt_clust_4="440.85263" pt_clust_5="14000.00000" pt_clust_6="128.20285"></scales>
<clustering>
<clus scale="   83.515">  1  3  2 -1</clus>
<clus scale="  128.203">  2  6  1 -1</clus>
<clus scale="  440.853">  2  4  1 -1</clus>
<clus scale="   83.515">  1  3  2 -1</clus>
</clustering>
</event>
<event>
 6    0  0.2433432E+002  0.1997475E+03  0.7546771E-02  0.1149952E+00
         21   -1    0    0  505  502  0.00000000000E+00  0.00000000000E+00  0.20582056631E+03  0.20582056631E+03  0.00000000000E+00 0. -1.
          2   -1    0    0  504    0 -0.00000000000E+00 -0.00000000000E+00 -0.58580228097E+03  0.58580228097E+03  0.00000000000E+00 0. -1.
         21    1    1    2  503  502 -0.53453361567E+02  0.93839382485E+02 -0.57409008230E+02  0.12230652392E+03  0.00000000000E+00 0.  1.
         21    1    1    2  504  503 -0.67048335390E+02  0.11122117365E+03  0.34804052541E+02  0.13445055158E+03  0.00000000000E+00 0. -1.
         21    1    1    2  505  501  0.16114347831E+02 -0.14986066527E+03  0.79450247150E+01  0.15093380873E+03  0.00000000000E+00 0. -1.
          2    1    1    2  501    0  0.10438734913E+03 -0.55199890874E+02 -0.36532178369E+03  0.38393196304E+03  0.00000000000E+00 0. -1.
<scales pt_clust_3="85.75230" pt_clust_4="85.75230" pt_clust_5="176.22810" pt_clust_6="118.08364"></scales>
<clustering>
<clus scale="   85.752">  3  4 -1 -1</clus>
<clus scale="  118.084">  2  6  1 -1</clus>
<clus scale="  176.228">  1  5  2 -1</clus>
<clus scale="  176.228">  1  3  2 -1</clus>
</clustering>
</event>
<event>
 6    0  0.2433432E+002  0.1009408E+03  0.7546771E-02  0.1278330E+00
         21   -1    0    0  504  502  0.00000000000E+00  0.00000000000E+00  0.25016507530E+03  0.25016507530E+03  0.00000000000E+00 0. -1.
          1   -1    0    0  505    0 -0.00000000000E+00 -0.00000000000E+00 -0.83298573500E+03  0.83298573500E+03  0.00000000000E+00 0. -1.
         21    1    1    2  503  502  0.79868229397E+02 -0.11951497004E+02 -0.10654448825E+03  0.13369181098E+03  0.00000000000E+00 0. -1.
         21    1    1    2  504  501 -0.59247598518E+02  0.62598936137E+02  0.21799439968E+03  0.23441515102E+03  0.00000000000E+00 0. -1.
         21    1    1    2  505  503  0.27210813098E+02 -0.39668896355E+02 -0.51761489432E+02  0.70663296525E+02  0.00000000000E+00 0. -1.
          1    1    1    2  501    0 -0.47831443978E+02 -0.10978542777E+02 -0.64250908170E+03  0.64438055177E+03  0.00000000000E+00 0. -1.
<scales pt_clust_3="39.12353" pt_clust_4="87.28916" pt_clust_5="39.12353" pt_clust_6="49.07520"></scales>
<clustering>
<clus scale="   39.124">  3  5 -1 -1</clus>
<clus scale="   49.075">  2  6  1 -1</clus>
<clus scale="   87.289">  1  4  2 -1</clus>
<clus scale="   87.289">  1  3  2 -1</clus>
</clustering>
</event>
<event>
 6    0  0.2433432E+002  0.1469912E+03  0.7546771E-02  0.1204220E+00
         21   -1    0    0  504  502  0.00000000000E+00  0.00000000000E+00  0.11144866550E+03  0.11144866550E+03  0.00000000000E+00 0. -1.
          1   -1    0    0  505    0 -0.00000000000E+00 -0.00000000000E+00 -0.28989043887E+04  0.28989043887E+04  0.00000000000E+00 0.  1.
         21    1    1    2  503  501 -0.65968513994E+01  0.16577779730E+03 -0.13074626054E+04  0.13179469872E+04  0.00000000000E+00 0.  1.
         21    1    1    2  504  503 -0.93601566048E+02 -0.76571632455E+01  0.68305576027E+02  0.11612724500E+03  0.00000000000E+00 0. -1.
         21    1    1    2  505  502  0.75646721567E+02 -0.24538258119E+02 -0.13661591390E+03  0.15807738778E+03  0.00000000000E+00 0. -1.
          1    1    1    2  501    0  0.24551695881E+02 -0.13358237594E+03 -0.14116827800E+04  0.14182014343E+04  0.00000000000E+00 0.  1.
<scales pt_clust_3="14000.00000" pt_clust_4="38.72863" pt_clust_5="79.52706" pt_clust_6="146.99122"></scales>
<clustering>
<clus scale="   79.527">  1  5  2 -1</clus>
<clus scale="   38.729">  1  4  2 -1</clus>
<clus scale="  146.991">  2  6  1 -1</clus>
<clus scale="   79.527">  1  3  2 -1</clus>
</clustering>
</event>
<event>
 6    0  0.2433432E+002  0.1941811E+03  0.7546771E-02  0.1154743E+00
          2   -1    0    0  503    0 -0.00000000000E+00  0.00000000000E+00  0.31999386360E+03  0.31999386360E+03  0.00000000000E+00 0. -1.
         21   -1    0    0  504  502  0.00000000000E+00 -0.00000000000E+00 -0.69735912984E+03  0.69735912984E+03  0.00000000000E+00 0. -1.
         21    1    1    2  503  505  0.26339994093E+02 -0.16370497285E+03  0.93897235387E+02  0.19055131655E+03  0.00000000000E+00 0. -1.
         21    1    1    2  504  501 -0.33627893225E+02  0.17172450847E+03 -0.58932620405E+03  0.61475646950E+03  0.00000000000E+00 0. -1.
         21    1    1    2  505  502  0.11174920456E+02 -0.68572757139E+02 -0.10134184906E+02  0.70212559935E+02  0.00000000000E+00 0.  1.
          2    1    1    2  501    0 -0.38870213235E+01  0.60553221517E+02  0.12819788732E+03  0.14183264746E+03  0.00000000000E+00 0. -1.
<scales pt_clust_3="48.53238" pt_clust_4="179.12302" pt_clust_5="48.53238" pt_clust_6="60.67785"></scales>
<clustering>
<clus scale="   48.532">  3  5 -1 -1</clus>
<clus scale="   60.678">  1  6  2 -1</clus>
<clus scale="  179.123">  2  4  1 -1</clus>
<clus scale="  179.123">  2  3  1 -1</clus>
</clustering>
</event>
<event>
 6    0  0.2433432E+002  0.8403160E+02  0.7546771E-02  0.1317985E+00
          3   -1    0    0  504    0 -0.00000000000E+00  0.00000000000E+00  0.68209938545E+03  0.68209938545E+03  0.00000000000E+00 0. -1.
         21   -1    0    0  503  502  0.00000000000E+00 -0.00000000000E+00 -0.32437818020E+03  0.32437818020E+03  0.00000000000E+00 0.  1.
         21    1    1    2  503  505  0.49600307668E+02 -0.45161324415E+02 -0.60043741609E+02  0.90027699349E+02  0.00000000000E+00 0.  1.
         21    1    1    2  504  502 -0.25483102123E+02  0.29832079415E+02 -0.13654160860E+03  0.14206671791E+03  0.00000000000E+00 0.  1.
         21    1    1    2  505  501  0.56128552685E+02  0.41738269860E+02 -0.95907254627E+02  0.11870425050E+03  0.00000000000E+00 0.  1.
          3    1    1    2  501    0 -0.80245758229E+02 -0.26409024861E+02  0.65021381009E+03  0.65567889789E+03  0.00000000000E+00 0. -1.
<scales pt_clust_3="51.33614" pt_clust_4="39.23444" pt_clust_5="84.03160" pt_clust_6="14000.00000"></scales>
<clustering>
<clus scale="   39.234">  2  4  1 -1</clus>
<clus scale="   51.336">  2  3  1 -1</clus>
<clus scale="   84.032">  2  5  1 -1</clus>
<clus scale="   39.234">  2  3  1 -1</clus>
</clustering>
</event>
<event>
 6    0  0.2433432E+002  0.1236562E+03  0.7546771E-02  0.1237184E+00
          1   -1    0    0  503    0 -0.00000000000E+00  0.00000000000E+00  0.17443315611E+04  0.17443315611E+04  0.00000000000E+00 0. -1.
         21   -1    0    0  504  502  0.00000000000E+00 -0.00000000000E+00 -0.48247701149E+02  0.48247701149E+02  0.00000000000E+00 0. -1.
         21    1    1    2  503  505 -0.67208631649E+02  0.29266080790E+02  0.76397330463E+02  0.10587755076E+03  0.00000000000E+00 0.  1.
         21    1    1    2  504  501  0.19470022087E+02 -0.95870748873E+02  0.69433331922E+02  0.11996361878E+03  0.00000000000E+00 0. -1.
         21    1    1    2  505  502 -0.52145408952E+02  0.52537650959E+02  0.20944206417E+03  0.22213808023E+03  0.00000000000E+00 0. -1.
          1    1    1    2  501    0  0.99884018514E+02  0.14067017124E+02  0.13408111334E+04  0.13446000125E+04  0.00000000000E+00 0. -1.
<scales pt_clust_3="70.03418" pt_clust_4="97.82782" pt_clust_5="70.03418" pt_clust_6="101.67596"></scales>
<clustering>
<clus scale="   70.034">  3  5 -1 -1</clus>
<clus scale="   97.828">  2  4  1 -1</clus>
<clus scale="  101.676">  1  6  2 -1</clus>
<clus scale="   97.828">  2  3  1 -1</clus>
</clustering>
</event>
<event>
 6    0  0.2433432E+002  0.6770087E+02  0.7546771E-02  0.1368091E+00
         21   -1    0    0  503  502  0.00000000000E+00  0.00000000000E+00  0.96463180374E+02  0.96463180374E+02  0.00000000000E+00 0.  1.
          1   -1    0    0  504    0 -0.00000000000E+00 -0.00000000000E+00 -0.46521541882E+03  0.46521541882E+03  0.00000000000E+00 0.  1.
         21    1    1    2  503  501  0.52698628072E+02 -0.83498987169E+01  0.88237053694E+01  0.54080717319E+02  0.00000000000E+00 0.  1.
         21    1    1    2  504  505 -0.49239840828E+02 -0.39822354360E+02 -0.13996346882E+03  0.15362341760E+03  0.00000000000E+00 0.  1.
         21    1    1    2  505  502 -0.15255542775E+02 -0.53086863864E+02  0.33313295843E+02  0.64503661758E+02  0.00000000000E+00 0.  1.
          1    1    1    2  501    0  0.11796755530E+02  0.10125911694E+03 -0.27092577085E+03  0.28947080252E+03  0.00000000000E+00 0.  1.
<scales pt_clust_3="53.35603" pt_clust_4="59.71970" pt_clust_5="67.70087" pt_clust_6="14000.00000"></scales>
<clustering>
<clus scale="   53.356">  1  3  2 -1</clus>
<clus scale="   59.720">  2  4  1 -1</clus>
<clus scale="   67.701">  1  5  2 -1</clus>
<clus scale="   53.356">  1  3  2 -1</clus>
</clustering>
</event>
<event>
 6    0  0.2433432E+002  0.2113801E+03  0.7546771E-02  0.1140478E+00
          2   -1    0    0  503    0 -0.00000000000E+00  0.00000000000E+00  0.27276719612E+04  0.27276719612E+04  0.00000000000E+00 0.  1.
         21   -1    0    0  504  502  0.00000000000E+00 -0.00000000000E+00 -0.37318366068E+03  0.37318366068E+03  0.00000000000E+00 0.  1.
         21    1    1    2  503  505 -0.21313472848E+02 -0.13173163449E+03  0.40893009752E+03  0.43015266163E+03  0.00000000000E+00 0.  1.
         21    1    1    2  504  501 -0.27420942047E+02  0.46527041880E+02 -0.29163822313E+03  0.29659657260E+03  0.00000000000E+00 0.  1.
         21    1    1    2  505  502 -0.14869468726E+03  0.94159181064E+02  0.57042791241E+02  0.18501335474E+03  0.00000000000E+00 0. -1.
          2    1    1    2  501    0  0.19742910216E+03 -0.89545884524E+01  0.21801536349E+04  0.21890930330E+04  0.00000000000E+00 0.  1.
<scales pt_clust_3="127.95216" pt_clust_4="54.00624" pt_clust_5="211.38012" pt_clust_6="14000.00000"></scales>
<clustering>
<clus scale="   54.006">  2  4  1 -1</clus>
<clus scale="  127.952">  1  3  2 -1</clus>
<clus scale="  211.380">  2  5  1 -1</clus>
<clus scale="   54.006">  2  3  1 -1</clus>
</clustering>
</event>
<event>
 6    0  0.2433432E+002  0.1098570E+03  0.7546771E-02  0.1260835E+00
         21   -1    0    0  505  502  0.00000000000E+00  0.00000000000E+00  0.29678377777E+03  0.29678377777E+03  0.00000000000E+00 0. -1.
          2   -1    0    0  504    0 -0.00000000000E+00 -0.00000000000E+00 -0.10059358787E+04  0.10059358787E+04  0.00000000000E+00 0.  1.
         21    1    1    2  503  501 -0.32552465322E+02 -0.10681493127E+03 -0.87288764071E+02  0.14173362647E+03  0.00000000000E+00 0. -1.
         21    1    1    2  504  502 -0.73333166428E+01  0.50945758150E+02 -0.72206570144E+01  0.51974856365E+02  0.00000000000E+00 0. -1.
         21    1    1    2  505  503  0.99328606982E+02  0.24674506373E+02  0.23520925604E+03  0.25651198326E+03  0.00000000000E+00 0. -1.
          2    1    1    2  501    0 -0.59442825017E+02  0.31194666743E+02 -0.84985193590E+03  0.85249919040E+03  0.00000000000E+00 0.  1.
<scales pt_clust_3="109.85701" pt_clust_4="51.47084" pt_clust_5="14000.00000" pt_clust_6="67.27671"></scales>
<clustering>
<clus scale="   51.471">  1  4  2 -1</clus>
<clus scale="   67.277">  2  6  1 -1</clus>
<clus scale="  109.857">  2  3  1 -1</clus>
<clus scale="   51.471">  1  3  2 -1</clus>
</clustering>
</event>
<event>
 6    0  0.2779531E+002  0.6875652E+02  0.7546771E-02  0.1364373E+00
         21   -1    0    0  505  502  0.00000000000E+00  0.00000000000E+00  0.10748590393E+03  0.10748590393E+03  0.00000000000E+00 0. -1.
          2   -1    0    0  503    0 -0.00000000000E+00 -0.00000000000E+00 -0.20362580945E+04  0.20362580945E+04  0.00000000000E+00 0. -1.
         21    1    1    2  503  502 -0.32038918415E+02 -0.77380301273E+01 -0.51209090523E+02  0.60899428205E+02  0.00000000000E+00 0. -1.
         21    1    1    2  504  501  0.12659328846E+02 -0.92271523290E+02 -0.14433633367E+03  0.17177680237E+03  0.00000000000E+00 0. -1.
         21    1    1    2  505  504  0.66869341674E+02  0.50776112405E+02  0.68305353168E+02  0.10823744139E+03  0.00000000000E+00 0. -1.
          2    1    1    2  501    0 -0.47489752105E+02  0.49233441012E+02 -0.18015321195E+04  0.18028303265E+04  0.00000000000E+00 0. -1.
<scales pt_clust_3="32.96012" pt_clust_4="68.75652" pt_clust_5="59.09674" pt_clust_6="14000.00000"></scales>
<clustering>
<clus scale="   32.960">  1  3  2 -1</clus>
<clus scale="   59.097">  1  5  2 -1</clus>
<clus scale="   68.757">  1  4  2 -1</clus>
<clus scale="   32.960">  1  3  2 -1</clus>
</clustering>
</event>
<event>
 6    0  0.2433432E+002  0.1444400E+03  0.7546771E-02  0.1207476E+00
         -2   -1    0    0    0  501 -0.00000000000E+00  0.00000000000E+00  0.58720342325E+03  0.58720342325E+03  0.00000000000E+00 0.  1.
         21   -1    0    0  504  502  0.00000000000E+00 -0.00000000000E+00 -0.32520858178E+03  0.32520858178E+03  0.00000000000E+00 0. -1.
         21    1    1    2  503  502  0.16083873092E+02  0.32638641434E+02 -0.66013947314E+00  0.36392412292E+02  0.00000000000E+00 0.  1.
         21    1    1    2  504  505  0.56831288625E+00  0.11409352221E+03 -0.28043264754E+03  0.30275423134E+03  0.00000000000E+00 0. -1.
         21    1    1    2  505  501 -0.25374519183E+02 -0.22017603671E+02  0.29591740738E+02  0.44769545621E+02  0.00000000000E+00 0. -1.
         -2    1    1    2    0  503  0.87223332047E+01 -0.12471455997E+03  0.51349588774E+03  0.52849581578E+03  0.00000000000E+00 0.  1.
<scales pt_clust_3="35.38310" pt_clust_4="14000.00000" pt_clust_5="33.59525" pt_clust_6="144.44005"></scales>
<clustering>
<clus scale="   33.595">  1  5  2 -1</clus>
<clus scale="   35.383">  2  3  1 -1</clus>
<clus scale="  144.440">  1  6  2 -1</clus>
<clus scale="   35.383">  2  3  1 -1</clus>
</clustering>
</event>
<event>
 6    0  0.2433432E+002  0.9349570E+02  0.7546771E-02  0.1294601E+00
          2   -1    0    0  505    0 -0.00000000000E+00  0.00000000000E+00  0.19459142034E+04  0.19459142034E+04  0.00000000000E+00 0. -1.
         21   -1    0    0  503  502  0.00000000000E+00 -0.00000000000E+00 -0.11995866407E+03  0.11995866407E+03  0.00000000000E+00 0. -1.
         21    1    1    2  503  501  0.28250124014E+02 -0.79779449763E+02 -0.61921647974E+02  0.10486715691E+03  0.00000000000E+00 0. -1.
         21    1    1    2  504  502 -0.31228849082E+02  0.20528213125E+02 -0.38088665295E+00  0.37373702302E+02  0.00000000000E+00 0. -1.
         21    1    1    2  505  504  0.27718514957E+02 -0.31043559014E+02  0.96877868623E+01  0.42730221647E+02  0.00000000000E+00 0.  1.
          2    1    1    2  501    0 -0.24739789888E+02  0.90294795653E+02  0.18785702871E+04  0.18809017866E+04  0.00000000000E+00 0. -1.
<scales pt_clust_3="14000.00000" pt_clust_4="37.37176" pt_clust_5="35.74984" pt_clust_6="93.49570"></scales>
<clustering>
<clus scale="   37.372">  2  4  1 -1</clus>
<clus scale="   35.750">  2  5  1 -1</clus>
<clus scale="   93.496">  1  6  2 -1</clus>
<clus scale="   37.372">  2  3  1 -1</clus>
</clustering>
</event>
<event>
 6    0  0.2433432E+002  0.3082517E+03  0.7546771E-02  0.1081187E+00
          2   -1    0    0  505    0 -0.00000000000E+00  0.00000000000E+00  0.44951186938E+04  0.44951186938E+04  0.00000000000E+00 0. -1.
         21   -1    0    0  501  502  0.00000000000E+00 -0.00000000000E+00 -0.19839923547E+02  0.19839923547E+02  0.00000000000E+00 0. -1.
         21    1    1    2  503  504  0.13211694183E+03 -0.54948390632E+02  0.95451869442E+03  0.96518399797E+03  0.00000000000E+00 0. -1.
         21    1    1    2  504  502  0.56326738846E+02 -0.60260782327E+02  0.86333511242E+03  0.86726672929E+03  0.00000000000E+00 0. -1.
         21    1    1    2  505  503  0.62064584578E+02 -0.21951445720E+02  0.26316798005E+03  0.27127709884E+03  0.00000000000E+00 0. -1.
          2    1    1    2  501    0 -0.25050826525E+03  0.13716061868E+03  0.23942569834E+04  0.24112307913E+04  0.00000000000E+00 0. -1.
<scales pt_clust_3="62.92311" pt_clust_4="62.92311" pt_clust_5="33.60911" pt_clust_6="285.60012"></scales>
<clustering>
<clus scale="   33.609">  3  5 -1 -1</clus>
<clus scale="   62.923">  3  4 -1 -1</clus>
<clus scale="  285.600">  1  6  2 -1</clus>
<clus scale="  308.252">  2  3  1 -1</clus>
</clustering>
</event>
<event>
 6    0  0.2433432E+002  0.7539380E+02  0.7546771E-02  0.1342656E+00
         21   -1    0    0  504  502  0.00000000000E+00  0.00000000000E+00  0.72287346926E+02  0.72287346926E+02  0.00000000000E+00 0. -1.
          1   -1    0    0  503    0 -0.00000000000E+00 -0.00000000000E+00 -0.82264060429E+03  0.82264060429E+03  0.00000000000E+00 0. -1.
         21    1    1    2  503  505 -0.31297247336E+02 -0.47046674164E+02 -0.66371948528E+02  0.87167326402E+02  0.00000000000E+00 0.  1.
         21    1    1    2  504  501  0.51661648351E+02  0.12740928606E+03 -0.19023993871E+03  0.23471959093E+03  0.00000000000E+00 0. -1.
         21    1    1    2  505  502  0.29210106962E+02 -0.31178651982E+02  0.25079753808E+02  0.49541222625E+02  0.00000000000E+00 0. -1.
          1    1    1    2  501    0 -0.49574507978E+02 -0.49183959911E+02 -0.51882112394E+03  0.52349981127E+03  0.00000000000E+00 0. -1.
<scales pt_clust_3="60.68604" pt_clust_4="75.39380" pt_clust_5="42.72398" pt_clust_6="14000.00000"></scales>
<clustering>
<clus scale="   42.724">  1  5  2 -1</clus>
<clus scale="   60.686">  1  3  2 -1</clus>
<clus scale="   75.394">  1  4  2 -1</clus>
<clus scale="   42.724">  1  3  2 -1</clus>
</clustering>
</event>
<event>
 6    0  0.2433432E+002  0.1904610E+03  0.7546771E-02  0.1158046E+00
          2   -1    0    0  502    0 -0.00000000000E+00  0.00000000000E+00  0.30310432569E+04  0.30310432569E+04  0.00000000000E+00 0. -1.
         21   -1    0    0  504  502  0.00000000000E+00 -0.00000000000E+00 -0.23910532821E+03  0.23910532821E+03  0.00000000000E+00 0. -1.
         21    1    1    2  503  501 -0.48838386304E+02 -0.11196782841E+03  0.48194692990E+03  0.49718691235E+03  0.00000000000E+00 0. -1.
         21    1    1    2  504  505  0.62100218448E+02  0.17190814703E+03 -0.18568977544E+03  0.26055621438E+03  0.00000000000E+00 0. -1.
         21    1    1    2  505  503 -0.78572796915E+02 -0.75575076882E+02  0.37156628029E+03  0.38722961833E+03  0.00000000000E+00 0. -1.
          2    1    1    2  501    0  0.65310964770E+02  0.15634758259E+02  0.21241144939E+04  0.21251758400E+04  0.00000000000E+00 0. -1.
<scales pt_clust_3="45.32461" pt_clust_4="184.31914" pt_clust_5="45.32461" pt_clust_6="67.15629"></scales>
<clustering>
<clus scale="   45.325">  3  5 -1 -1</clus>
<clus scale="   67.156">  1  6  2 -1</clus>
<clus scale="  184.319">  2  4  1 -1</clus>
<clus scale="  184.319">  2  3  1 -1</clus>
</clustering>
</event>
<event>
 6    0  0.2433432E+002  0.8248105E+02  0.7546771E-02  0.1322154E+00
         21   -1    0    0  505  502  0.00000000000E+00  0.00000000000E+00  0.14951639436E+03  0.14951639436E+03  0.00000000000E+00 0.  1.
          2   -1    0    0  503    0 -0.00000000000E+00 -0.00000000000E+00 -0.42540978595E+03  0.42540978595E+03  0.00000000000E+00 0. -1.
         21    1    1    2  503  502  0.36647760928E+02 -0.98477883181E+02 -0.85034391559E+01  0.10541944951E+03  0.00000000000E+00 0.  1.
         21    1    1    2  504  501 -0.22553306755E+02  0.61322414565E+02 -0.31695340669E+01  0.65415106205E+02  0.00000000000E+00 0.  1.
         21    1    1    2  505  504 -0.47386780526E+02  0.13821720494E+02  0.59794199300E+02  0.77536399168E+02  0.00000000000E+00 0.  1.
          2    1    1    2  501    0  0.33292326353E+02  0.23333748122E+02 -0.32401461767E+03  0.32655522543E+03  0.00000000000E+00 0. -1.
<scales pt_clust_3="82.48105" pt_clust_4="14000.00000" pt_clust_5="47.19234" pt_clust_6="40.65517"></scales>
<clustering>
<clus scale="   40.655">  2  6  1 -1</clus>
<clus scale="   47.192">  1  5  2 -1</clus>
<clus scale="   82.481">  1  3  2 -1</clus>
<clus scale="   47.192">  1  3  2 -1</clus>
</clustering>
</event>
<event>
 6    0  0.2433432E+002  0.1455444E+03  0.7546771E-02  0.1206057E+00
         -1   -1    0    0    0  501 -0.00000000000E+00  0.00000000000E+00  0.42907109619E+03  0.42907109619E+03  0.00000000000E+00 0.  1.
         21   -1    0    0  501  502  0.00000000000E+00 -0.00000000000E+00 -0.36365622697E+03  0.36365622697E+03  0.00000000000E+00 0.  1.
         21    1    1    2  503  505  0.63767651302E+01 -0.62092961286E+02  0.55575614728E+01  0.62666462038E+02  0.00000000000E+00 0.  1.
         21    1    1    2  504  502 -0.23825761312E+02  0.14332851164E+03 -0.29455913939E+03  0.32844453984E+03  0.00000000000E+00 0.  1.
         21    1    1    2  505  504  0.44619701031E+02 -0.33980299768E+02  0.15283509099E+02  0.58130578380E+02  0.00000000000E+00 0.  1.
         -1    1    1    2    0  503 -0.27170704850E+02 -0.47255250588E+02  0.33913293804E+03  0.34348574290E+03  0.00000000000E+00 0.  1.
<scales pt_clust_3="45.72464" pt_clust_4="137.31828" pt_clust_5="45.72464" pt_clust_6="54.50969"></scales>
<clustering>
<clus scale="   45.725">  3  5 -1 -1</clus>
<clus scale="   54.510">  1  6  2 -1</clus>
<clus scale="  137.318">  2  4  1 -1</clus>
<clus scale="  137.318">  2  3  1 -1</clus>
</clustering>
</event>
<event>
 6    0  0.2433432E+002  0.2366996E+03  0.7546771E-02  0.1122011E+00
          1   -1    0    0  503    0 -0.00000000000E+00  0.00000000000E+00  0.28509237978E+04  0.28509237978E+04  0.00000000000E+00 0. -1.
         21   -1    0    0  504  502  0.00000000000E+00 -0.00000000000E+00 -0.74962996269E+02  0.74962996269E+02  0.00000000000E+00 0. -1.
         21    1    1    2  503  502  0.32133037132E+02  0.39082799187E+02 -0.13859796403E+02  0.52460377657E+02  0.00000000000E+00 0. -1.
         21    1    1    2  504  505  0.16455034594E+03 -0.76166652088E+02  0.25204678806E+03  0.31049276740E+03  0.00000000000E+00 0. -1.
         21    1    1    2  505  501  0.72072351991E+01 -0.48048667882E+02  0.69549364460E+02  0.84839453212E+02  0.00000000000E+00 0. -1.
          1    1    1    2  501    0 -0.20389061827E+03  0.85132520783E+02  0.24682244455E+04  0.24780941958E+04  0.00000000000E+00 0. -1.
<scales pt_clust_3="50.59642" pt_clust_4="46.10609" pt_clust_5="46.10609" pt_clust_6="219.30189"></scales>
<clustering>
<clus scale="   46.106">  4  5 -1 -1</clus>
<clus scale="   50.596">  2  3  1 -1</clus>
<clus scale="  219.302">  1  6  2 -1</clus>
<clus scale="   50.596">  2  3  1 -1</clus>
</clustering>
</event>
<event>
 6    0  0.2433432E+002  0.1482155E+03  0.7546771E-02  0.1202683E+00
          2   -1    0    0  504    0 -0.00000000000E+00  0.00000000000E+00  0.60195995820E+03  0.60195995820E+03  0.00000000000E+00 0.  1.
         21   -1    0    0  503  502  0.00000000000E+00 -0.00000000000E+00 -0.21247347930E+03  0.21247347930E+03  0.00000000000E+00 0.  1.
         21    1    1    2  503  505  0.75347864898E+02  0.29465651246E+02 -0.10177014443E+03  0.13001033668E+03  0.00000000000E+00 0.  1.
         21    1    1    2  504  502 -0.10130151103E+03 -0.42455874007E+02  0.77122671249E+02  0.13421029690E+03  0.00000000000E+00 0.  1.
         21    1    1    2  505  501  0.70175171087E+02  0.23542139354E+02 -0.46452676389E+02  0.87387860176E+02  0.00000000000E+00 0.  1.
          2    1    1    2  501    0 -0.44221524958E+02 -0.10551916593E+02  0.46058662847E+03  0.46282494373E+03  0.00000000000E+00 0.  1.
<scales pt_clust_3="34.55589" pt_clust_4="143.74508" pt_clust_5="34.55589" pt_clust_6="45.46302"></scales>
<clustering>
<clus scale="   34.556">  3  5 -1 -1</clus>
<clus scale="   45.463">  1  6  2 -1</clus>
<clus scale="  143.745">  1  4  2 -1</clus>
<clus scale="  148.216">  2  3  1 -1</clus>
</clustering>
</event>
<event>
 6    0  0.2433432E+002  0.1033734E+03  0.7546771E-02  0.1273358E+00
          2   -1    0    0  503    0 -0.00000000000E+00  0.00000000000E+00  0.21827949781E+03  0.21827949781E+03  0.00000000000E+00 0.  1.
         21   -1    0    0  504  502  0.00000000000E+00 -0.00000000000E+00 -0.39824538505E+03  0.39824538505E+03  0.00000000000E+00 0.  1.
         21    1    1    2  503  505  0.13908025535E+01 -0.66616594352E+02 -0.21121187953E+02  0.69898566189E+02  0.00000000000E+00 0.  1.
         21    1    1    2  504  501 -0.49509896760E+02 -0.71570035207E+02 -0.98670264177E+02  0.13156489216E+03  0.00000000000E+00 0.  1.
         21    1    1    2  505  502  0.74291980533E+01  0.40436694020E+02 -0.21974510739E+03  0.22355811645E+03  0.00000000000E+00 0.  1.
          2    1    1    2  501    0  0.40689896153E+02  0.97749935538E+02  0.15957067228E+03  0.19150330806E+03  0.00000000000E+00 0.  1.
<scales pt_clust_3="56.29280" pt_clust_4="103.37341" pt_clust_5="41.11349" pt_clust_6="14000.00000"></scales>
<clustering>
<clus scale="   41.113">  2  5  1 -1</clus>
<clus scale="   56.293">  2  3  1 -1</clus>
<clus scale="  103.373">  2  4  1 -1</clus>
<clus scale="   41.113">  2  3  1 -1</clus>
</clustering>
</event>
<event>
 6    0  0.2433432E+002  0.8913526E+02  0.7546771E-02  0.1304959E+00
         21   -1    0    0  505  502  0.00000000000E+00  0.00000000000E+00  0.13277509903E+03  0.13277509903E+03  0.00000000000E+00 0.  1.
          1   -1    0    0  504    0 -0.00000000000E+00 -0.00000000000E+00 -0.66477922191E+03  0.66477922191E+03  0.00000000000E+00 0. -1.
         21    1    1    2  503  501  0.23281794313E+02  0.64844416038E+02 -0.41099358270E+02  0.80224668824E+02  0.00000000000E+00 0.  1.
         21    1    1    2  504  502 -0.37331924729E+02  0.17613050666E+02  0.46614170459E+02  0.62263737804E+02  0.00000000000E+00 0.  1.
         21    1    1    2  505  503  0.25594138818E+02 -0.11735744997E+03 -0.38967532908E+01  0.12017909839E+03  0.00000000000E+00 0.  1.
          1    1    1    2  501    0 -0.11544008402E+02  0.34899983264E+02 -0.53362218177E+03  0.53488681592E+03  0.00000000000E+00 0. -1.
<scales pt_clust_3="89.13526" pt_clust_4="42.82662" pt_clust_5="14000.00000" pt_clust_6="36.75966"></scales>
<clustering>
<clus scale="   36.760">  2  6  1 -1</clus>
<clus scale="   42.827">  1  4  2 -1</clus>
<clus scale="   89.135">  2  3  1 -1</clus>
<clus scale="   42.827">  1  3  2 -1</clus>
</clustering>
</event>
<event>
 6    0  0.2433432E+002  0.1154661E+03  0.7546771E-02  0.1250770E+00
         21   -1    0    0  503  502  0.00000000000E+00  0.00000000000E+00  0.58511156947E+02  0.58511156947E+02  0.00000000000E+00 0.  1.
          1   -1    0    0  505    0 -0.00000000000E+00 -0.00000000000E+00 -0.24495299736E+04  0.24495299736E+04  0.00000000000E+00 0.  1.
         21    1    1    2  503  501 -0.41609028025E+02 -0.12126447651E+03 -0.46609214886E+02  0.13641408794E+03  0.00000000000E+00 0.  1.
         21    1    1    2  504  502 -0.41059590962E+02  0.35001930650E+02 -0.71199680185E+02  0.89333194378E+02  0.00000000000E+00 0. -1.
         21    1    1    2  505  504  0.57639537799E+02  0.19182719132E+02 -0.23177305937E+03  0.23960184490E+03  0.00000000000E+00 0.  1.
          1    1    1    2  501    0  0.25029081188E+02  0.67079826728E+02 -0.20414368622E+04  0.20426920033E+04  0.00000000000E+00 0.  1.
<scales pt_clust_3="115.46608" pt_clust_4="53.95392" pt_clust_5="58.65257" pt_clust_6="14000.00000"></scales>
<clustering>
<clus scale="   53.954">  1  4  2 -1</clus>
<clus scale="   58.653">  2  5  1 -1</clus>
<clus scale="  115.466">  1  3  2 -1</clus>
<clus scale="   53.954">  1  3  2 -1</clus>
</clustering>
</event>
<event>
 6    0  0.2433432E+002  0.9084750E+02  0.7546771E-02  0.1300812E+00
         21   -1    0    0  504  502  0.00000000000E+00  0.00000000000E+00  0.45565416090E+03  0.45565416090E+03  0.00000000000E+00 0. -1.
          2   -1    0    0  502    0 -0.00000000000E+00 -0.00000000000E+00 -0.47080204575E+03  0.47080204575E+03  0.00000000000E+00 0. -1.
         21    1    1    2  503  501 -0.52739733672E+02  0.60198063493E+02 -0.18138398497E+01  0.80053584374E+02  0.00000000000E+00 0.  1.
         21    1    1    2  504  505 -0.29809944253E+02  0.26861148763E+02  0.64968472677E+02  0.76361354959E+02  0.00000000000E+00 0.  1.
         21    1    1    2  505  503  0.49515735157E+02 -0.28740165084E+00  0.33896809881E+03  0.34256570558E+03  0.00000000000E+00 0. -1.
          2    1    1    2  501    0  0.33033942768E+02 -0.86771810604E+02 -0.41727061649E+03  0.42747556173E+03  0.00000000000E+00 0. -1.
<scales pt_clust_3="90.84750" pt_clust_4="40.12673" pt_clust_5="32.96506" pt_clust_6="14000.00000"></scales>
<clustering>
<clus scale="   40.127">  1  4  2 -1</clus>
<clus scale="   32.965">  1  5  2 -1</clus>
<clus scale="   90.848">  1  3  2 -1</clus>
<clus scale="   40.127">  1  3  2 -1</clus>
</clustering>
</event>
<event>
 6    0  0.2433432E+002  0.8113516E+02  0.7546771E-02  0.1325861E+00
          2   -1    0    0  504    0 -0.00000000000E+00  0.00000000000E+00  0.71444206041E+03  0.71444206041E+03  0.00000000000E+00 0. -1.
         21   -1    0    0  503  502  0.00000000000E+00 -0.00000000000E+00 -0.52096700740E+03  0.52096700740E+03  0.00000000000E+00 0. -1.
         21    1    1    2  503  501  0.42639494849E+02  0.55874177418E+02 -0.12678164072E+03  0.14496080383E+03  0.00000000000E+00 0. -1.
         21    1    1    2  504  505 -0.94645907573E+02 -0.38453194041E+02 -0.11965830573E+03  0.15733596563E+03  0.00000000000E+00 0. -1.
         21    1    1    2  505  502  0.47334109491E+02 -0.59193992672E+02 -0.24011068342E+03  0.25178877453E+03  0.00000000000E+00 0. -1.
          2    1    1    2  501    0  0.46723032326E+01  0.41773009295E+02  0.68002568288E+03  0.68132352382E+03  0.00000000000E+00 0. -1.
<scales pt_clust_3="81.13516" pt_clust_4="14000.00000" pt_clust_5="70.84210" pt_clust_6="42.03350"></scales>
<clustering>
<clus scale="   42.033">  1  6  2 -1</clus>
<clus scale="   70.842">  2  5  1 -1</clus>
<clus scale="   81.135">  2  3  1 -1</clus>
<clus scale="   70.842">  2  3  1 -1</clus>
</clustering>
</event>
<event>
 6    0  0.2433432E+002  0.9449022E+02  0.7546771E-02  0.1292328E+00
          2   -1    0    0  503    0 -0.00000000000E+00  0.00000000000E+00  0.14380858233E+04  0.14380858233E+04  0.00000000000E+00 0. -1.
         21   -1    0    0  504  502  0.00000000000E+00 -0.00000000000E+00 -0.34058627680E+02  0.34058627680E+02  0.00000000000E+00 0. -1.
         21    1    1    2  503  505  0.45399399243E+02  0.14262831154E+03  0.31914223087E+03  0.35249922585E+03  0.00000000000E+00 0. -1.
         21    1    1    2  504  501 -0.58231745908E+02 -0.20541840226E+02  0.86774519990E+02  0.10650221007E+03  0.00000000000E+00 0.  1.
         21    1    1    2  505  502  0.39977792313E+02 -0.39259054614E+02  0.14274465707E+03  0.15334775633E+03  0.00000000000E+00 0.  1.
          2    1    1    2  501    0 -0.27145445648E+02 -0.82827416699E+02  0.85536578770E+03  0.85979525874E+03  0.00000000000E+00 0. -1.
<scales pt_clust_3="94.49022" pt_clust_4="56.02224" pt_clust_5="56.03122" pt_clust_6="14000.00000"></scales>
<clustering>
<clus scale="   56.031">  2  5  1 -1</clus>
<clus scale="   56.022">  2  4  1 -1</clus>
<clus scale="   94.490">  2  3  1 -1</clus>
<clus scale="   56.031">  2  3  1 -1</clus>
</clustering>
</event>
<event>
 6    0  0.2433432E+002  0.7672021E+02  0.7546771E-02  0.1338625E+00
         21   -1    0    0  505  502  0.00000000000E+00  0.00000000000E+00  0.12203010547E+03  0.12203010547E+03  0.00000000000E+00 0. -1.
          1   -1    0    0  504    0 -0.00000000000E+00 -0.00000000000E+00 -0.17685083373E+04  0.17685083373E+04  0.00000000000E+00 0.  1.
         21    1    1    2  503  502  0.51547621343E+02 -0.31341020394E+02 -0.71718679309E+03  0.71971960721E+03  0.00000000000E+00 0. -1.
         21    1    1    2  504  503 -0.38848672420E+02  0.29895536715E+02 -0.19059211540E+03  0.19679511406E+03  0.00000000000E+00 0. -1.
         21    1    1    2  505  501  0.44642391357E+01  0.76600443917E+02  0.10320165220E+03  0.12860069384E+03  0.00000000000E+00 0. -1.
          1    1    1    2  501    0 -0.17163188058E+02 -0.75154960237E+02 -0.84190097556E+03  0.84542302768E+03  0.00000000000E+00 0.  1.
<scales pt_clust_3="38.17660" pt_clust_4="49.02002" pt_clust_5="76.72021" pt_clust_6="14000.00000"></scales>
<clustering>
<clus scale="   49.020">  2  4  1 -1</clus>
<clus scale="   38.177">  2  3  1 -1</clus>
<clus scale="   76.720">  1  5  2 -1</clus>
<clus scale="   76.720">  1  3  2 -1</clus>
</clustering>
</event>
<event>
 6    0  0.2433432E+002  0.1448019E+03  0.7546771E-02  0.1207010E+00
          2   -1    0    0  504    0 -0.00000000000E+00  0.00000000000E+00  0.42716334805E+03  0.42716334805E+03  0.00000000000E+00 0.  1.
         21   -1    0    0  501  502  0.00000000000E+00 -0.00000000000E+00 -0.12119806638E+03  0.12119806638E+03  0.00000000000E+00 0.  1.
         21    1    1    2  503  502 -0.47283648897E+02  0.10345015203E+03 -0.36992173882E+02  0.11960810314E+03  0.00000000000E+00 0.  1.
         21    1    1    2  504  505  0.90541513932E+01 -0.11654574840E+03  0.11057239768E+03  0.16090725359E+03  0.00000000000E+00 0.  1.
         21    1    1    2  505  503  0.11753003822E+02  0.34428331189E+02  0.36096958261E+01  0.36557803425E+02  0.00000000000E+00 0.  1.
          2    1    1    2  501    0  0.26476493682E+02 -0.21332734816E+02  0.22877536204E+03  0.23128825428E+03  0.00000000000E+00 0.  1.
<scales pt_clust_3="30.97839" pt_clust_4="134.04137" pt_clust_5="30.97839" pt_clust_6="34.00133"></scales>
<clustering>
<clus scale="   30.978">  3  5 -1 -1</clus>
<clus scale="   34.001">  1  6  2 -1</clus>
<clus scale="  134.041">  1  4  2 -1</clus>
<clus scale="  144.802">  2  3  1 -1</clus>
</clustering>
</event>
<event>
 6    0  0.2433432E+002  0.7321716E+02  0.7546771E-02  0.1349482E+00
         21   -1    0    0  504  502  0.00000000000E+00  0.00000000000E+00  0.35860568217E+02  0.35860568217E+02  0.00000000000E+00 0.  1.
          1   -1    0    0  503    0 -0.00000000000E+00 -0.00000000000E+00 -0.16048037786E+04  0.16048037786E+04  0.00000000000E+00 0.  1.
         21    1    1    2  503  505  0.10324327788E+02  0.89721582840E+02 -0.34300843595E+03  0.35469894460E+03  0.00000000000E+00 0.  1.
         21    1    1    2  504  501  0.46449877598E+02  0.71540839439E+01 -0.32111353575E+01  0.47107148462E+02  0.00000000000E+00 0.  1.
         21    1    1    2  505  502 -0.67451714172E+02 -0.27433647962E+02 -0.18583506217E+03  0.19959210685E+03  0.00000000000E+00 0. -1.
          1    1    1    2  501    0  0.10677508786E+02 -0.69442018822E+02 -0.10368885769E+04  0.10392661469E+04  0.00000000000E+00 0.  1.
<scales pt_clust_3="14000.00000" pt_clust_4="46.99757" pt_clust_5="50.49837" pt_clust_6="73.21716"></scales>
<clustering>
<clus scale="   46.998">  1  4  2 -1</clus>
<clus scale="   50.498">  1  5  2 -1</clus>
<clus scale="   73.217">  2  6  1 -1</clus>
<clus scale="   46.998">  1  3  2 -1</clus>
</clustering>
</event>
<event>
 6    0  0.2433432E+002  0.1005855E+03  0.7546771E-02  0.1279070E+00
         -1   -1    0    0    0  501 -0.00000000000E+00  0.00000000000E+00  0.86206800679E+03  0.86206800679E+03  0.00000000000E+00 0.  1.
         21   -1    0    0  504  502  0.00000000000E+00 -0.00000000000E+00 -0.95739151170E+02  0.95739151170E+02  0.00000000000E+00 0. -1.
         21    1    1    2  503  502 -0.87287214653E+02 -0.43792937673E+02  0.92674970305E+02  0.13463108613E+03  0.00000000000E+00 0.  1.
         21    1    1    2  504  501  0.68333276516E+02  0.24685674129E+01 -0.22824728540E+02  0.72086744533E+02  0.00000000000E+00 0. -1.
         21    1    1    2  505  503  0.38242632072E+02 -0.63203844710E+02  0.36119680854E+02  0.82230506741E+02  0.00000000000E+00 0. -1.
         -1    1    1    2    0  505 -0.19288693935E+02  0.10452821497E+03  0.66035893300E+03  0.66885882055E+03  0.00000000000E+00 0.  1.
<scales pt_clust_3="71.71161" pt_clust_4="68.37785" pt_clust_5="100.58550" pt_clust_6="14000.00000"></scales>
<clustering>
<clus scale="   68.378">  2  4  1 -1</clus>
<clus scale="   71.712">  2  3  1 -1</clus>
<clus scale="  100.586">  2  5  1 -1</clus>
<clus scale="   68.378">  2  3  1 -1</clus>
</clustering>
</event>
<event>
 6    0  0.2433432E+002  0.1481835E+03  0.7546771E-02  0.1202723E+00
         21   -1    0    0  504  502  0.00000000000E+00  0.00000000000E+00  0.19702138840E+03  0.19702138840E+03  0.00000000000E+00 0.  1.
          2   -1    0    0  505    0 -0.00000000000E+00 -0.00000000000E+00 -0.18646406291E+04  0.18646406291E+04  0.00000000000E+00 0.  1.
         21    1    1    2  503  501 -0.33919107503E+02 -0.84022204890E+02 -0.89498303135E+03  0.89955814885E+03  0.00000000000E+00 0.  1.
         21    1    1    2  504  503  0.85527772296E+02  0.12345380659E+03  0.15747184336E+03  0.21760795860E+03  0.00000000000E+00 0.  1.
         21    1    1    2  505  502 -0.32527384768E+02 -0.72344068804E+02 -0.22884801846E+03  0.24220468741E+03  0.00000000000E+00 0.  1.
          2    1    1    2  501    0 -0.19081280025E+02  0.32912467104E+02 -0.70126003428E+03  0.70229122266E+03  0.00000000000E+00 0.  1.
<scales pt_clust_3="148.18354" pt_clust_4="14000.00000" pt_clust_5="75.08650" pt_clust_6="38.04373"></scales>
<clustering>
<clus scale="   38.044">  2  6  1 -1</clus>
<clus scale="   75.087">  2  5  1 -1</clus>
<clus scale="  148.184">  2  3  1 -1</clus>
<clus scale="  148.184">  1  3  2 -1</clus>
</clustering>
</event>
<event>
 6    0  0.2433432E+002  0.1087708E+03  0.7546771E-02  0.1262863E+00
         21   -1    0    0  503  502  0.00000000000E+00  0.00000000000E+00  0.95552639745E+03  0.95552639745E+03  0.00000000000E+00 0. -1.
          2   -1    0    0  504    0 -0.00000000000E+00 -0.00000000000E+00 -0.20811540644E+04  0.20811540644E+04  0.00000000000E+00 0. -1.
         21    1    1    2  503  501 -0.41273103480E+02  0.15542920248E+02  0.66858163641E+02  0.80094103941E+02  0.00000000000E+00 0. -1.
         21    1    1    2  504  505 -0.56993903080E+02 -0.38904666732E+02  0.48952532143E+03  0.49436516707E+03  0.00000000000E+00 0. -1.
         21    1    1    2  505  502 -0.10501539995E+02  0.29249867170E+02  0.38805181028E+03  0.38929429039E+03  0.00000000000E+00 0. -1.
          2    1    1    2  501    0  0.10876854656E+03 -0.58881206861E+01 -0.20700629623E+04  0.20729269005E+04  0.00000000000E+00 0. -1.
<scales pt_clust_3="46.81348" pt_clust_4="14000.00000" pt_clust_5="31.07792" pt_clust_6="108.77080"></scales>
<clustering>
<clus scale="   31.078">  1  5  2 -1</clus>
<clus scale="   46.813">  1  3  2 -1</clus>
<clus scale="  108.771">  2  6  1 -1</clus>
<clus scale="   31.078">  1  3  2 -1</clus>
</clustering>
</event>
<event>
 6    0  0.2433432E+002  0.1429329E+03  0.7546771E-02  0.1209436E+00
         21   -1    0    0  503  502  0.00000000000E+00  0.00000000000E+00  0.61912277076E+03  0.61912277076E+03  0.00000000000E+00 0. -1.
         -4   -1    0    0    0  501 -0.00000000000E+00 -0.00000000000E+00 -0.37831352875E+03  0.37831352875E+03  0.00000000000E+00 0. -1.
         21    1    1    2  503  505 -0.20748164253E+03 -0.11432917229E+03  0.14063810766E+03  0.27549749355E+03  0.00000000000E+00 0. -1.
         21    1    1    2  504  502  0.99019817873E+02  0.82308958794E+02  0.38269035874E+03  0.40377171731E+03  0.00000000000E+00 0. -1.
         21    1    1    2  505  501  0.49681472128E+02  0.24060491169E+02 -0.39153449280E+02  0.67676794387E+02  0.00000000000E+00 0. -1.
         -4    1    1    2    0  504  0.58780352527E+02  0.79597223309E+01 -0.24336577511E+03  0.25049029426E+03  0.00000000000E+00 0. -1.
<scales pt_clust_3="14000.00000" pt_clust_4="142.93293" pt_clust_5="55.20105" pt_clust_6="100.04324"></scales>
<clustering>
<clus scale="   55.201">  2  5  1 -1</clus>
<clus scale="  100.043">  2  6  1 -1</clus>
<clus scale="  142.933">  1  4  2 -1</clus>
<clus scale="  142.933">  1  3  2 -1</clus>
</clustering>
</event>
<event>
 6    0  0.2433432E+002  0.1916014E+03  0.7546771E-02  0.1157025E+00
          2   -1    0    0  505    0 -0.00000000000E+00  0.00000000000E+00  0.82704668492E+03  0.82704668492E+03  0.00000000000E+00 0. -1.
         21   -1    0    0  503  502  0.00000000000E+00 -0.00000000000E+00 -0.41297103954E+03  0.41297103954E+03  0.00000000000E+00 0. -1.
         21    1    1    2  503  501 -0.77090296487E+02 -0.13702985841E+03  0.11750840325E+03  0.19628632337E+03  0.00000000000E+00 0. -1.
         21    1    1    2  504  502  0.39164837851E+02  0.34627431447E+02 -0.12287468022E+03  0.13353325643E+03  0.00000000000E+00 0. -1.
         21    1    1    2  505  504  0.21813952250E+02  0.13919090806E+03 -0.22447694384E+03  0.26502802816E+03  0.00000000000E+00 0. -1.
          2    1    1    2  501    0  0.16111506386E+02 -0.36788481093E+02  0.64391886619E+03  0.64517011649E+03  0.00000000000E+00 0. -1.
<scales pt_clust_3="180.12320" pt_clust_4="39.78916" pt_clust_5="39.78916" pt_clust_6="40.16183"></scales>
<clustering>
<clus scale="   39.789">  4  5 -1 -1</clus>
<clus scale="   40.162">  1  6  2 -1</clus>
<clus scale="  180.123">  1  3  2 -1</clus>
<clus scale="  191.601">  2  3  1 -1</clus>
</clustering>
</event>
<event>
 6    0  0.2433432E+002  0.1833591E+03  0.7546771E-02  0.1164591E+00
          2   -1    0    0  502    0 -0.00000000000E+00  0.00000000000E+00  0.91146591152E+03  0.91146591152E+03  0.00000000000E+00 0.  1.
         21   -1    0    0  503  502  0.00000000000E+00 -0.00000000000E+00 -0.25649648516E+03  0.25649648516E+03  0.00000000000E+00 0.  1.
         21    1    1    2  503  504  0.14671987451E+02  0.28410282431E+02 -0.19142924923E+03  0.19408134589E+03  0.00000000000E+00 0.  1.
         21    1    1    2  504  505  0.62704788244E+02 -0.98502936635E+02  0.97435443670E+02  0.15208019160E+03  0.00000000000E+00 0.  1.
         21    1    1    2  505  501  0.51440009064E+02 -0.50200908663E+02  0.24086948167E+02  0.75804926193E+02  0.00000000000E+00 0.  1.
          2    1    1    2  501    0 -0.12881678476E+03  0.12029356287E+03  0.72487628375E+03  0.74599593300E+03  0.00000000000E+00 0.  1.
<scales pt_clust_3="31.97517" pt_clust_4="35.58569" pt_clust_5="35.58569" pt_clust_6="177.75968"></scales>
<clustering>
<clus scale="   31.975">  2  3  1 -1</clus>
<clus scale="   35.586">  4  5 -1 -1</clus>
<clus scale="  177.760">  1  6  2 -1</clus>
<clus scale="   31.975">  2  3  1 -1</clus>
</clustering>
</event>
<event>
 6    0  0.2433432E+002  0.7503521E+02  0.7546771E-02  0.1343762E+00
          2   -1    0    0  503    0 -0.00000000000E+00  0.00000000000E+00  0.21534461923E+04  0.21534461923E+04  0.00000000000E+00 0.  1.
         21   -1    0    0  505  502  0.00000000000E+00 -0.00000000000E+00 -0.65542316285E+02  0.65542316285E+02  0.00000000000E+00 0. -1.
         21    1    1    2  503  504 -0.93346143236E+02  0.18023504164E+02  0.29424692058E+02  0.99519654652E+02  0.00000000000E+00 0. -1.
         21    1    1    2  504  502 -0.93161022993E+01  0.38786967766E+02  0.16427673022E+02  0.43140318397E+02  0.00000000000E+00 0. -1.
         21    1    1    2  505  501  0.28442786512E+02 -0.65439935662E+02  0.61016703827E+02  0.93885118256E+02  0.00000000000E+00 0. -1.
          2    1    1    2  501    0  0.74219459023E+02  0.86294637322E+01  0.19810348071E+04  0.19824434173E+04  0.00000000000E+00 0.  1.
<scales pt_clust_3="14000.00000" pt_clust_4="39.89008" pt_clust_5="59.02238" pt_clust_6="75.03521"></scales>
<clustering>
<clus scale="   39.890">  2  4  1 -1</clus>
<clus scale="   59.022">  2  5  1 -1</clus>
<clus scale="   75.035">  1  6  2 -1</clus>
<clus scale="   39.890">  2  3  1 -1</clus>
</clustering>
</event>
<event>
 6    0  0.2433432E+002  0.1068852E+03  0.7546771E-02  0.1266449E+00
          2   -1    0    0  504    0 -0.00000000000E+00  0.00000000000E+00  0.22717666706E+04  0.22717666706E+04  0.00000000000E+00 0. -1.
         21   -1    0    0  503  502  0.00000000000E+00 -0.00000000000E+00 -0.15597492749E+03  0.15597492749E+03  0.00000000000E+00 0. -1.
         21    1    1    2  503  505 -0.18435243047E+00 -0.34395493921E+02 -0.18446764953E+02  0.39030335959E+02  0.00000000000E+00 0. -1.
         21    1    1    2  504  502  0.53844041828E+02 -0.41678439018E+02 -0.10511628442E+03  0.12524259008E+03  0.00000000000E+00 0. -1.
         21    1    1    2  505  501  0.44052948516E+02  0.31617605340E+02  0.57724561534E+02  0.79198865172E+02  0.00000000000E+00 0. -1.
          2    1    1    2  501    0 -0.97712637913E+02  0.44456327598E+02  0.21816302309E+04  0.21842698068E+04  0.00000000000E+00 0. -1.
<scales pt_clust_3="34.39599" pt_clust_4="106.88523" pt_clust_5="52.57230" pt_clust_6="14000.00000"></scales>
<clustering>
<clus scale="   34.396">  2  3  1 -1</clus>
<clus scale="   52.572">  2  5  1 -1</clus>
<clus scale="  106.885">  2  4  1 -1</clus>
<clus scale="   34.396">  2  3  1 -1</clus>
</clustering>
</event>
<event>
 6    0  0.2433432E+002  0.1052631E+03  0.7546771E-02  0.1269602E+00
         21   -1    0    0  503  502  0.00000000000E+00  0.00000000000E+00  0.17725648026E+03  0.17725648026E+03  0.00000000000E+00 0. -1.
          2   -1    0    0  504    0 -0.00000000000E+00 -0.00000000000E+00 -0.19942869223E+03  0.19942869223E+03  0.00000000000E+00 0. -1.
         21    1    1    2  503  501 -0.33819626704E+02 -0.17700759540E+02  0.26145992435E+02  0.46267666454E+02  0.00000000000E+00 0.  1.
         21    1    1    2  504  505  0.83565907491E+02  0.56217470487E+02  0.78560726933E+02  0.12773195645E+03  0.00000000000E+00 0. -1.
         21    1    1    2  505  502  0.55832313916E+00  0.32368352789E+02  0.15483472160E+02  0.35885371632E+02  0.00000000000E+00 0. -1.
          2    1    1    2  501    0 -0.50304603926E+02 -0.70885063736E+02 -0.14236240349E+03  0.16680017795E+03  0.00000000000E+00 0. -1.
<scales pt_clust_3="38.17177" pt_clust_4="31.06334" pt_clust_5="31.06334" pt_clust_6="89.87951"></scales>
<clustering>
<clus scale="   31.063">  4  5 -1 -1</clus>
<clus scale="   38.172">  1  3  2 -1</clus>
<clus scale="   89.880">  2  6  1 -1</clus>
<clus scale="   38.172">  1  3  2 -1</clus>
</clustering>
</event>
<event>
 6    0  0.2433432E+002  0.8339479E+02  0.7546771E-02  0.1319685E+00
         21   -1    0    0  503  502  0.00000000000E+00  0.00000000000E+00  0.15859377051E+03  0.15859377051E+03  0.00000000000E+00 0. -1.
          1   -1    0    0  504    0 -0.00000000000E+00 -0.00000000000E+00 -0.74637203008E+03  0.74637203008E+03  0.00000000000E+00 0.  1.
         21    1    1    2  503  505  0.50656078100E+02  0.52686847575E+02  0.99730850807E+02  0.12364539926E+03  0.00000000000E+00 0. -1.
         21    1    1    2  504  502 -0.26878467210E+02  0.16852447822E+02 -0.17359701361E+02  0.36163741904E+02  0.00000000000E+00 0.  1.
         21    1    1    2  505  501 -0.29734793657E+02 -0.11086726185E+03 -0.52714064532E+02  0.12631104585E+03  0.00000000000E+00 0. -1.
          1    1    1    2  501    0  0.59571827669E+01  0.41327966450E+02 -0.61743534448E+03  0.61884561359E+03  0.00000000000E+00 0.  1.
<scales pt_clust_3="83.39479" pt_clust_4="31.72471" pt_clust_5="14000.00000" pt_clust_6="41.81604"></scales>
<clustering>
<clus scale="   31.725">  1  4  2 -1</clus>
<clus scale="   41.816">  2  6  1 -1</clus>
<clus scale="   83.395">  1  3  2 -1</clus>
<clus scale="   31.725">  1  3  2 -1</clus>
</clustering>
</event>
<event>
 6    0  0.2433432E+002  0.2044082E+03  0.7546771E-02  0.1146072E+00
          2   -1    0    0  504    0 -0.00000000000E+00  0.00000000000E+00  0.16297084471E+04  0.16297084471E+04  0.00000000000E+00 0. -1.
         21   -1    0    0  503  502  0.00000000000E+00 -0.00000000000E+00 -0.50948531848E+02  0.50948531848E+02  0.00000000000E+00 0.  1.
         21    1    1    2  503  501 -0.40829205946E+01 -0.60927379968E+02  0.37447918870E+02  0.71632133139E+02  0.00000000000E+00 0.  1.
         21    1    1    2  504  505 -0.91842037760E+02  0.39163268334E+02  0.20565019052E+03  0.22860604180E+03  0.00000000000E+00 0.  1.
         21    1    1    2  505  502 -0.88740924272E+02  0.85861390862E+02  0.26890376247E+03  0.29589924561E+03  0.00000000000E+00 0.  1.
          2    1    1    2  501    0  0.18466588263E+03 -0.64097279228E+02  0.10667580434E+04  0.10845195584E+04  0.00000000000E+00 0. -1.
<scales pt_clust_3="61.06403" pt_clust_4="36.66951" pt_clust_5="36.66951" pt_clust_6="200.29908"></scales>
<clustering>
<clus scale="   36.670">  4  5 -1 -1</clus>
<clus scale="   61.064">  2  3  1 -1</clus>
<clus scale="  200.299">  1  6  2 -1</clus>
<clus scale="   61.064">  2  3  1 -1</clus>
</clustering>
</event>
<event>
 6    0  0.2433432E+002  0.1536356E+03  0.7546771E-02  0.1196075E+00
          1   -1    0    0  503    0 -0.00000000000E+00  0.00000000000E+00  0.90087350260E+03  0.90087350260E+03  0.00000000000E+00 0. -1.
         21   -1    0    0  504  502  0.00000000000E+00 -0.00000000000E+00 -0.59526072616E+03  0.59526072616E+03  0.00000000000E+00 0. -1.
         21    1    1    2  503  502  0.46877636451E+02 -0.12199960987E+03 -0.67305940843E+01  0.13086908919E+03  0.00000000000E+00 0.  1.
         21    1    1    2  504  505 -0.55847269394E+02 -0.26446608117E+02 -0.21529699688E+02  0.65435988175E+02  0.00000000000E+00 0.  1.
         21    1    1    2  505  501 -0.65509864512E+02  0.14806920647E+03 -0.46763279749E+03  0.49487015018E+03  0.00000000000E+00 0. -1.
          1    1    1    2  501    0  0.74479497455E+02  0.37701151496E+00  0.80150586770E+03  0.80495900122E+03  0.00000000000E+00 0. -1.
<scales pt_clust_3="14000.00000" pt_clust_4="61.79272" pt_clust_5="153.63563" pt_clust_6="74.30533"></scales>
<clustering>
<clus scale="   61.793">  2  4  1 -1</clus>
<clus scale="   74.305">  1  6  2 -1</clus>
<clus scale="  153.636">  2  5  1 -1</clus>
<clus scale="   61.793">  2  3  1 -1</clus>
</clustering>
</event>
<event>
 6    0  0.2433432E+002  0.8506050E+02  0.7546771E-02  0.1315274E+00
          2   -1    0    0  504    0 -0.00000000000E+00  0.00000000000E+00  0.15098741901E+04  0.15098741901E+04  0.00000000000E+00 0.  1.
         21   -1    0    0  503  502  0.00000000000E+00 -0.00000000000E+00 -0.36374972665E+02  0.36374972665E+02  0.00000000000E+00 0. -1.
         21    1    1    2  503  501 -0.47355066935E+01 -0.30194345183E+02  0.78049143993E+02  0.83819999896E+02  0.00000000000E+00 0. -1.
         21    1    1    2  504  505  0.53726327998E+02  0.96934825443E+02  0.12467260553E+03  0.16681168207E+03  0.00000000000E+00 0. -1.
         21    1    1    2  505  502  0.22864887180E+02 -0.22795134880E+02  0.12654026004E+02  0.34677739460E+02  0.00000000000E+00 0. -1.
          2    1    1    2  501    0 -0.71855708484E+02 -0.43945345380E+02  0.12581234419E+04  0.12609397413E+04  0.00000000000E+00 0.  1.
<scales pt_clust_3="30.56343" pt_clust_4="14000.00000" pt_clust_5="39.04930" pt_clust_6="85.06050"></scales>
<clustering>
<clus scale="   30.563">  2  3  1 -1</clus>
<clus scale="   39.049">  2  5  1 -1</clus>
<clus scale="   85.061">  1  6  2 -1</clus>
<clus scale="   30.563">  2  3  1 -1</clus>
</clustering>
</event>
<event>
 6    0  0.2433432E+002  0.9351148E+02  0.7546771E-02  0.1294564E+00
         21   -1    0    0  501  502  0.00000000000E+00  0.00000000000E+00  0.91009149696E+02  0.91009149696E+02  0.00000000000E+00 0. -1.
          2   -1    0    0  505    0 -0.00000000000E+00 -0.00000000000E+00 -0.25815299772E+04  0.25815299772E+04  0.00000000000E+00 0.  1.
         21    1    1    2  503  504 -0.60637130936E+02  0.15867950072E+02 -0.16553997280E+03  0.17700885877E+03  0.00000000000E+00 0. -1.
         21    1    1    2  504  502  0.51281035304E+02  0.31149244302E+02  0.63638109520E+02  0.87463300794E+02  0.00000000000E+00 0. -1.
         21    1    1    2  505  503 -0.66297331299E+02 -0.29065142227E+02 -0.13564790292E+03  0.15375458431E+03  0.00000000000E+00 0. -1.
          2    1    1    2  501    0  0.75653426931E+02 -0.17952052146E+02 -0.22529710613E+04  0.22543123830E+04  0.00000000000E+00 0.  1.
<scales pt_clust_3="45.62201" pt_clust_4="60.00017" pt_clust_5="45.62201" pt_clust_6="79.62790"></scales>
<clustering>
<clus scale="   45.622">  3  5 -1 -1</clus>
<clus scale="   60.000">  1  4  2 -1</clus>
<clus scale="   79.628">  2  6  1 -1</clus>
<clus scale="   60.000">  1  3  2 -1</clus>
</clustering>
</event>
<event>
 6    0  0.2433432E+002  0.9718706E+02  0.7546771E-02  0.1286325E+00
         21   -1    0    0  503  502  0.00000000000E+00  0.00000000000E+00  0.32263373458E+03  0.32263373458E+03  0.00000000000E+00 0.  1.
          2   -1    0    0  505    0 -0.00000000000E+00 -0.00000000000E+00 -0.95448116299E+03  0.95448116299E+03  0.00000000000E+00 0.  1.
         21    1    1    2  503  504 -0.14879826606E+02 -0.97142464772E+02  0.29233866961E+03  0.30841524841E+03  0.00000000000E+00 0.  1.
         21    1    1    2  504  501  0.77739168423E+02  0.64946086045E+02 -0.13057174785E+03  0.16525844528E+03  0.00000000000E+00 0. -1.
         21    1    1    2  505  502 -0.11201959903E+02  0.35413673100E+02 -0.82851704997E+02  0.90796570249E+02  0.00000000000E+00 0. -1.
          2    1    1    2  501    0 -0.51657381914E+02 -0.32172943737E+01 -0.71076264516E+03  0.71264463363E+03  0.00000000000E+00 0.  1.
<scales pt_clust_3="97.18706" pt_clust_4="14000.00000" pt_clust_5="37.14313" pt_clust_6="66.10195"></scales>
<clustering>
<clus scale="   37.143">  2  5  1 -1</clus>
<clus scale="   66.102">  2  6  1 -1</clus>
<clus scale="   97.187">  1  3  2 -1</clus>
<clus scale="   97.187">  1  3  2 -1</clus>
</clustering>
</event>
<event>
 6    0  0.2433432E+002  0.1728599E+03  0.7546771E-02  0.1174898E+00
         21   -1    0    0  503  502  0.00000000000E+00  0.00000000000E+00  0.11823654950E+03  0.11823654950E+03  0.00000000000E+00 0.  1.
          2   -1    0    0  505    0 -0.00000000000E+00 -0.00000000000E+00 -0.18047405150E+04  0.18047405150E+04  0.00000000000E+00 0. -1.
         21    1    1    2  503  501 -0.16031650650E+03  0.31855591536E+02  0.38148616678E+02  0.16784361151E+03  0.00000000000E+00 0.  1.
         21    1    1    2  504  502  0.10539318299E+03 -0.14451039678E+02 -0.26660671871E+03  0.28704650848E+03  0.00000000000E+00 0. -1.
         21    1    1    2  505  504  0.79674447891E+02  0.85270340963E+01 -0.33428837877E+03  0.34375783357E+03  0.00000000000E+00 0. -1.
          2    1    1    2  501    0 -0.24751124382E+02 -0.25931585954E+02 -0.11237574847E+04  0.11243291110E+04  0.00000000000E+00 0. -1.
<scales pt_clust_3="165.30719" pt_clust_4="41.82227" pt_clust_5="41.82227" pt_clust_6="35.84781"></scales>
<clustering>
<clus scale="   35.848">  2  6  1 -1</clus>
<clus scale="   41.822">  4  5 -1 -1</clus>
<clus scale="  165.307">  1  3  2 -1</clus>
<clus scale="  165.307">  1  3  2 -1</clus>
</clustering>
</event>
<event>
 6    0  0.2433432E+002  0.1043304E+03  0.7546771E-02  0.1271445E+00
          1   -1    0    0  504    0 -0.00000000000E+00  0.00000000000E+00  0.19872637876E+04  0.19872637876E+04  0.00000000000E+00 0.  1.
         21   -1    0    0  505  502  0.00000000000E+00 -0.00000000000E+00 -0.97825760646E+03  0.97825760646E+03  0.00000000000E+00 0. -1.
         21    1    1    2  503  501  0.48428185024E+02  0.85697410823E+02 -0.74812048170E+03  0.75456847964E+03  0.00000000000E+00 0. -1.
         21    1    1    2  504  502 -0.26563109634E+01 -0.74144233638E+02 -0.63369332266E+02  0.97570977455E+02  0.00000000000E+00 0.  1.
         21    1    1    2  505  503  0.58652720887E+02 -0.10322422249E+02 -0.13893970705E+03  0.15116526143E+03  0.00000000000E+00 0. -1.
          1    1    1    2  501    0 -0.10442459495E+03 -0.12307549361E+01  0.19594357022E+04  0.19622166756E+04  0.00000000000E+00 0.  1.
<scales pt_clust_3="104.33037" pt_clust_4="75.20136" pt_clust_5="59.55413" pt_clust_6="14000.00000"></scales>
<clustering>
<clus scale="   59.554">  2  5  1 -1</clus>
<clus scale="   75.201">  2  4  1 -1</clus>
<clus scale="  104.330">  2  3  1 -1</clus>
<clus scale="   59.554">  2  3  1 -1</clus>
</clustering>
</event>
<event>
 6    0  0.2433432E+002  0.1346789E+03  0.7546771E-02  0.1220674E+00
          2   -1    0    0  504    0 -0.00000000000E+00  0.00000000000E+00  0.31719802706E+03  0.31719802706E+03  0.00000000000E+00 0.  1.
         21   -1    0    0  503  502  0.00000000000E+00 -0.00000000000E+00 -0.78198749868E+03  0.78198749868E+03  0.00000000000E+00 0.  1.
         21    1    1    2  503  501 -0.86417142592E+02 -0.10369383424E+03  0.44097371918E+02  0.14200321124E+03  0.00000000000E+00 0.  1.
         21    1    1    2  504  505  0.25541195163E+02 -0.21437967302E+02  0.28746947396E+01  0.33469433253E+02  0.00000000000E+00 0. -1.
         21    1    1    2  505  502  0.17419964873E+02  0.13491482724E+03 -0.70878275214E+03  0.72171909738E+03  0.00000000000E+00 0.  1.
          2    1    1    2  501    0  0.43455982556E+02 -0.97830256979E+01  0.19702121386E+03  0.20199378387E+03  0.00000000000E+00 0.  1.
<scales pt_clust_3="14000.00000" pt_clust_4="33.34575" pt_clust_5="134.67885" pt_clust_6="65.11540"></scales>
<clustering>
<clus scale="   33.346">  1  4  2 -1</clus>
<clus scale="   65.115">  1  6  2 -1</clus>
<clus scale="  134.679">  2  5  1 -1</clus>
<clus scale="  134.679">  2  3  1 -1</clus>
</clustering>
</event>
<event>
 6    0  0.2433432E+002  0.1823969E+03  0.7546771E-02  0.1165503E+00
          1   -1    0    0  504    0 -0.00000000000E+00  0.00000000000E+00  0.25643950742E+04  0.25643950742E+04  0.00000000000E+00 0.  1.
         21   -1    0    0  503  502  0.00000000000E+00 -0.00000000000E+00 -0.97785827250E+02  0.97785827250E+02  0.00000000000E+00 0.  1.
         21    1    1    2  503  501 -0.13262485949E+03  0.83040066105E+02  0.55256297290E+02  0.16594657069E+03  0.00000000000E+00 0.  1.
         21    1    1    2  504  505 -0.39034029306E+02 -0.16864836505E+02  0.40434761389E+02  0.58677492131E+02  0.00000000000E+00 0.  1.
         21    1    1    2  505  502  0.14539205815E+02  0.29684700824E+02 -0.20612351685E+02  0.38954319538E+02  0.00000000000E+00 0.  1.
          1    1    1    2  501    0  0.15711968298E+03 -0.95859930423E+02  0.23915305400E+04  0.23986025191E+04  0.00000000000E+00 0.  1.
<scales pt_clust_3="182.39692" pt_clust_4="39.25795" pt_clust_5="33.05405" pt_clust_6="14000.00000"></scales>
<clustering>
<clus scale="   33.054">  2  5  1 -1</clus>
<clus scale="   39.258">  2  4  1 -1</clus>
<clus scale="  182.397">  2  3  1 -1</clus>
<clus scale="   33.054">  2  3  1 -1</clus>
</clustering>
</event>
<event>
 6    0  0.2433432E+002  0.1402186E+03  0.7546771E-02  0.1213035E+00
         -4   -1    0    0    0  501 -0.00000000000E+00  0.00000000000E+00  0.15415398804E+03  0.15415398804E+03  0.00000000000E+00 0. -1.
         21   -1    0    0  503  502  0.00000000000E+00 -0.00000000000E+00 -0.62467316356E+03  0.62467316356E+03  0.00000000000E+00 0.  1.
         21    1    1    2  503  501 -0.43799558823E+02 -0.86331157095E+01 -0.20271064390E+02  0.49029053544E+02  0.00000000000E+00 0. -1.
         21    1    1    2  504  502  0.58041559601E+02 -0.77630965677E+00 -0.22995326736E+03  0.23716646152E+03  0.00000000000E+00 0.  1.
         21    1    1    2  505  504  0.50114666943E+02  0.68058519788E+02 -0.33676682829E+03  0.34721079850E+03  0.00000000000E+00 0.  1.
         -4    1    1    2    0  505 -0.64356667720E+02 -0.58649094422E+02  0.11647198452E+03  0.14542083804E+03  0.00000000000E+00 0. -1.
<scales pt_clust_3="44.64227" pt_clust_4="52.93409" pt_clust_5="52.93409" pt_clust_6="124.74298"></scales>
<clustering>
<clus scale="   44.642">  1  3  2 -1</clus>
<clus scale="   52.934">  4  5 -1 -1</clus>
<clus scale="  124.743">  1  6  2 -1</clus>
<clus scale="  140.219">  2  3  1 -1</clus>
</clustering>
</event>
<event>
 6    0  0.2433432E+002  0.1505909E+03  0.7546771E-02  0.1199749E+00
          1   -1    0    0  504    0 -0.00000000000E+00  0.00000000000E+00  0.10265513077E+04  0.10265513077E+04  0.00000000000E+00 0. -1.
         21   -1    0    0  505  502  0.00000000000E+00 -0.00000000000E+00 -0.20656217859E+03  0.20656217859E+03  0.00000000000E+00 0. -1.
         21    1    1    2  503  502 -0.11345352017E+02 -0.47957606835E+02 -0.53718315353E+02  0.72899289915E+02  0.00000000000E+00 0. -1.
         21    1    1    2  504  503 -0.62494817405E+02 -0.92544760928E+02 -0.35613793557E+02  0.11721125061E+03  0.00000000000E+00 0. -1.
         21    1    1    2  505  501  0.29331428320E+02  0.79771573793E+01 -0.58079566975E+02  0.65553061158E+02  0.00000000000E+00 0. -1.
          1    1    1    2  501    0  0.44508741102E+02  0.13252521038E+03  0.96740080504E+03  0.97744988466E+03  0.00000000000E+00 0. -1.
<scales pt_clust_3="36.33100" pt_clust_4="36.33100" pt_clust_5="30.39684" pt_clust_6="140.38911"></scales>
<clustering>
<clus scale="   30.397">  2  5  1 -1</clus>
<clus scale="   36.331">  3  4 -1 -1</clus>
<clus scale="  140.389">  1  6  2 -1</clus>
<clus scale="   30.397">  2  3  1 -1</clus>
</clustering>
</event>
<event>
 6    0  0.2433432E+002  0.1143871E+03  0.7546771E-02  0.1252655E+00
         21   -1    0    0  504  502  0.00000000000E+00  0.00000000000E+00  0.32575559216E+02  0.32575559216E+02  0.00000000000E+00 0.  1.
          2   -1    0    0  505    0 -0.00000000000E+00 -0.00000000000E+00 -0.32763016692E+04  0.32763016692E+04  0.00000000000E+00 0.  1.
         21    1    1    2  503  502  0.61734682121E+02  0.55214259626E+02 -0.34641928103E+02  0.89776659691E+02  0.00000000000E+00 0.  1.
         21    1    1    2  504  501  0.26930425698E+02  0.19306008290E+02 -0.11857606140E+03  0.12311885364E+03  0.00000000000E+00 0.  1.
         21    1    1    2  505  503 -0.12110807588E+03 -0.64339723920E+02 -0.28218463979E+04  0.28251767838E+04  0.00000000000E+00 0.  1.
          2    1    1    2  501    0  0.32442968064E+02 -0.10180543996E+02 -0.26866172251E+03  0.27080493126E+03  0.00000000000E+00 0.  1.
<scales pt_clust_3="114.38712" pt_clust_4="33.13563" pt_clust_5="14000.00000" pt_clust_6="34.71964"></scales>
<clustering>
<clus scale="   33.136">  1  4  2 -1</clus>
<clus scale="   34.720">  2  6  1 -1</clus>
<clus scale="  114.387">  1  3  2 -1</clus>
<clus scale="   33.136">  1  3  2 -1</clus>
</clustering>
</event>
<event>
 6    0  0.2433432E+002  0.8954752E+02  0.7546771E-02  0.1303951E+00
          2   -1    0    0  503    0 -0.00000000000E+00  0.00000000000E+00  0.56110537587E+03  0.56110537587E+03  0.00000000000E+00 0.  1.
         21   -1    0    0  501  502  0.00000000000E+00 -0.00000000000E+00 -0.13067021930E+03  0.13067021930E+03  0.00000000000E+00 0.  1.
         21    1    1    2  503  505 -0.52147179855E+01 -0.71401971642E+02  0.49067671924E+02  0.86793267401E+02  0.00000000000E+00 0.  1.
         21    1    1    2  504  502 -0.14758696384E+02 -0.44477294159E+02 -0.32809512645E+02  0.57205881994E+02  0.00000000000E+00 0.  1.
         21    1    1    2  505  504  0.54951578824E+02  0.11935330551E+03 -0.71525487882E+00  0.13139786582E+03  0.00000000000E+00 0.  1.
          2    1    1    2  501    0 -0.34978164455E+02 -0.34740397091E+01  0.41489225217E+03  0.41637857996E+03  0.00000000000E+00 0.  1.
<scales pt_clust_3="14000.00000" pt_clust_4="48.13757" pt_clust_5="89.54752" pt_clust_6="35.15026"></scales>
<clustering>
<clus scale="   35.150">  1  6  2 -1</clus>
<clus scale="   48.138">  2  4  1 -1</clus>
<clus scale="   89.548">  2  5  1 -1</clus>
<clus scale="   48.138">  2  3  1 -1</clus>
</clustering>
</event>
<event>
 6    0  0.2433432E+002  0.7894952E+02  0.7546771E-02  0.1332059E+00
          2   -1    0    0  505    0 -0.00000000000E+00  0.00000000000E+00  0.86417856836E+03  0.86417856836E+03  0.00000000000E+00 0.  1.
         21   -1    0    0  503  502  0.00000000000E+00 -0.00000000000E+00 -0.18272660217E+03  0.18272660217E+03  0.00000000000E+00 0.  1.
         21    1    1    2  503  504  0.31294959655E+02  0.10842809155E+02  0.75454692849E+01  0.33968737346E+02  0.00000000000E+00 0.  1.
         21    1    1    2  504  501 -0.13929729656E+03  0.36549305002E+02 -0.10824511923E+03  0.18015713798E+03  0.00000000000E+00 0.  1.
         21    1    1    2  505  502  0.31436676628E+02 -0.32099889569E+02 -0.17841097255E+01  0.44964992998E+02  0.00000000000E+00 0.  1.
          2    1    1    2  501    0  0.76565660280E+02 -0.15292224588E+02  0.78393572587E+03  0.78781430220E+03  0.00000000000E+00 0.  1.
<scales pt_clust_3="33.12010" pt_clust_4="14000.00000" pt_clust_5="47.06224" pt_clust_6="78.94952"></scales>
<clustering>
<clus scale="   33.120">  2  3  1 -1</clus>
<clus scale="   47.062">  2  5  1 -1</clus>
<clus scale="   78.950">  1  6  2 -1</clus>
<clus scale="   33.120">  2  3  1 -1</clus>
</clustering>
</event>
<event>
 6    0  0.2433432E+002  0.1358905E+03  0.7546771E-02  0.1218968E+00
         21   -1    0    0  503  502  0.00000000000E+00  0.00000000000E+00  0.45647958100E+02  0.45647958100E+02  0.00000000000E+00 0. -1.
          4   -1    0    0  505    0 -0.00000000000E+00 -0.00000000000E+00 -0.21826943941E+04  0.21826943941E+04  0.00000000000E+00 0. -1.
         21    1    1    2  503  504  0.65945612292E+02  0.57911409197E+02 -0.12061548412E+03  0.14916651804E+03  0.00000000000E+00 0. -1.
         21    1    1    2  504  501  0.35872137738E+02  0.79330242685E+02 -0.89839043436E+02  0.12510456185E+03  0.00000000000E+00 0. -1.
         21    1    1    2  505  502 -0.59306342102E+02 -0.17562315238E+02 -0.71102754618E+02  0.94240537161E+02  0.00000000000E+00 0. -1.
          4    1    1    2  501    0 -0.42511407929E+02 -0.11967933664E+03 -0.18554891538E+04  0.18598307352E+04  0.00000000000E+00 0. -1.
<scales pt_clust_3="41.44362" pt_clust_4="41.44362" pt_clust_5="61.85206" pt_clust_6="129.36325"></scales>
<clustering>
<clus scale="   41.444">  3  4 -1 -1</clus>
<clus scale="   61.852">  1  5  2 -1</clus>
<clus scale="  129.363">  2  6  1 -1</clus>
<clus scale="   61.852">  1  3  2 -1</clus>
</clustering>
</event>
<event>
 6    0  0.2433432E+002  0.9436880E+02  0.7546771E-02  0.1292604E+00
          1   -1    0    0  503    0 -0.00000000000E+00  0.00000000000E+00  0.15955121380E+03  0.15955121380E+03  0.00000000000E+00 0.  1.
         21   -1    0    0  505  502  0.00000000000E+00 -0.00000000000E+00 -0.29813122464E+03  0.29813122464E+03  0.00000000000E+00 0.  1.
         21    1    1    2  503  504  0.11984005720E+03  0.67982243462E+01 -0.14349079061E+03  0.18707608654E+03  0.00000000000E+00 0.  1.
         21    1    1    2  504  502 -0.24508751126E+02  0.22979248847E+02 -0.27721205183E+02  0.43556744324E+02  0.00000000000E+00 0.  1.
         21    1    1    2  505  501 -0.41650512536E+01 -0.41506745750E+02 -0.74809856935E+02  0.85654376942E+02  0.00000000000E+00 0.  1.
          1    1    1    2  501    0 -0.91166254825E+02  0.11729272557E+02  0.10744184190E+03  0.14139523063E+03  0.00000000000E+00 0.  1.
<scales pt_clust_3="94.36880" pt_clust_4="33.59650" pt_clust_5="36.39983" pt_clust_6="14000.00000"></scales>
<clustering>
<clus scale="   33.596">  2  4  1 -1</clus>
<clus scale="   36.400">  2  5  1 -1</clus>
<clus scale="   94.369">  2  3  1 -1</clus>
<clus scale="   33.596">  2  3  1 -1</clus>
</clustering>
</event>
<event>
 6    0  0.2433432E+002  0.1445005E+03  0.7546771E-02  0.1207398E+00
         21   -1    0    0  504  502  0.00000000000E+00  0.00000000000E+00  0.76781136391E+03  0.76781136391E+03  0.00000000000E+00 0. -1.
          3   -1    0    0  503    0 -0.00000000000E+00 -0.00000000000E+00 -0.35029244320E+03  0.35029244320E+03  0.00000000000E+00 0.  1.
         21    1    1    2  503  505  0.30910819521E+02 -0.44960744909E+02 -0.44408607089E+02  0.70349639159E+02  0.00000000000E+00 0.  1.
         21    1    1    2  504  501  0.13860025428E+03  0.45051040884E+02  0.71405797545E+03  0.72877871749E+03  0.00000000000E+00 0. -1.
         21    1    1    2  505  502 -0.63077787124E+02  0.10375239662E+02 -0.26343125623E+02  0.69140531486E+02  0.00000000000E+00 0.  1.
          3    1    1    2  501    0 -0.10643328668E+03 -0.10465535637E+02 -0.22578732203E+03  0.24983491897E+03  0.00000000000E+00 0.  1.
<scales pt_clust_3="54.56141" pt_clust_4="14000.00000" pt_clust_5="58.11958" pt_clust_6="144.50050"></scales>
<clustering>
<clus scale="   54.561">  2  3  1 -1</clus>
<clus scale="   58.120">  2  5  1 -1</clus>
<clus scale="  144.500">  2  6  1 -1</clus>
<clus scale="  144.500">  1  3  2 -1</clus>
</clustering>
</event>
<event>
 6    0  0.2433432E+002  0.1223025E+03  0.7546771E-02  0.1239346E+00
         21   -1    0    0  503  502  0.00000000000E+00  0.00000000000E+00  0.10906720620E+03  0.10906720620E+03  0.00000000000E+00 0. -1.
          2   -1    0    0  504    0 -0.00000000000E+00 -0.00000000000E+00 -0.14537882965E+04  0.14537882965E+04  0.00000000000E+00 0.  1.
         21    1    1    2  503  501  0.84293193322E+02  0.90434443554E+01 -0.60180426913E+02  0.10396542747E+03  0.00000000000E+00 0. -1.
         21    1    1    2  504  505 -0.35635613044E+02  0.10330720229E+02 -0.10895524196E+03  0.11509937205E+03  0.00000000000E+00 0.  1.
         21    1    1    2  505  502  0.12907885979E+02 -0.93590514280E+02  0.55075537693E+02  0.10935772829E+03  0.00000000000E+00 0. -1.
          2    1    1    2  501    0 -0.61565466257E+02  0.74216349695E+02 -0.12306609591E+04  0.12344329749E+04  0.00000000000E+00 0.  1.
<scales pt_clust_3="82.68149" pt_clust_4="37.10284" pt_clust_5="14000.00000" pt_clust_6="122.30252"></scales>
<clustering>
<clus scale="   37.103">  2  4  1 -1</clus>
<clus scale="   82.681">  1  3  2 -1</clus>
<clus scale="  122.303">  2  6  1 -1</clus>
<clus scale="   82.681">  1  3  2 -1</clus>
</clustering>
</event>
<event>
 6    0  0.2433432E+002  0.7612940E+02  0.7546771E-02  0.1340409E+00
         21   -1    0    0  505  502  0.00000000000E+00  0.00000000000E+00  0.35346920000E+03  0.35346920000E+03  0.00000000000E+00 0.  1.
         -1   -1    0    0    0  501 -0.00000000000E+00 -0.00000000000E+00 -0.19876849494E+04  0.19876849494E+04  0.00000000000E+00 0.  1.
         21    1    1    2  503  502 -0.77480521971E+01  0.45611937031E+02 -0.22994161718E+03  0.23454984209E+03  0.00000000000E+00 0. -1.
         21    1    1    2  504  501 -0.22684707184E+02 -0.12238661470E+03 -0.60172967875E+02  0.13825290399E+03  0.00000000000E+00 0.  1.
         21    1    1    2  505  504  0.32680062683E+02  0.42664387174E+02  0.30963380914E+03  0.31426315755E+03  0.00000000000E+00 0.  1.
         -1    1    1    2    0  503 -0.22473033022E+01  0.34110290497E+02 -0.16537349734E+04  0.16540882457E+04  0.00000000000E+00 0.  1.
<scales pt_clust_3="76.12940" pt_clust_4="14000.00000" pt_clust_5="53.92085" pt_clust_6="34.18424"></scales>
<clustering>
<clus scale="   34.184">  2  6  1 -1</clus>
<clus scale="   53.921">  1  5  2 -1</clus>
<clus scale="   76.129">  2  3  1 -1</clus>
<clus scale="   53.921">  1  3  2 -1</clus>
</clustering>
</event>
<event>
 6    0  0.2433432E+002  0.1004516E+03  0.7546771E-02  0.1279349E+00
         21   -1    0    0  505  502  0.00000000000E+00  0.00000000000E+00  0.26366440881E+03  0.26366440881E+03  0.00000000000E+00 0. -1.
          2   -1    0    0  503    0 -0.00000000000E+00 -0.00000000000E+00 -0.13527394248E+04  0.13527394248E+04  0.00000000000E+00 0. -1.
         21    1    1    2  503  504  0.16873624760E+02  0.79919434327E+02 -0.78964721966E+02  0.11361013384E+03  0.00000000000E+00 0.  1.
         21    1    1    2  504  502  0.27897016780E+02 -0.28124352009E+02  0.12055855232E+01  0.39631756933E+02  0.00000000000E+00 0.  1.
         21    1    1    2  505  501 -0.14129729780E+03 -0.77663464779E+02  0.19482404975E+03  0.25288920596E+03  0.00000000000E+00 0. -1.
          2    1    1    2  501    0  0.96526656258E+02  0.25868382461E+02 -0.12061399293E+04  0.12102727368E+04  0.00000000000E+00 0. -1.
<scales pt_clust_3="80.16671" pt_clust_4="39.61342" pt_clust_5="100.45160" pt_clust_6="14000.00000"></scales>
<clustering>
<clus scale="   39.613">  1  4  2 -1</clus>
<clus scale="   80.167">  1  3  2 -1</clus>
<clus scale="  100.452">  1  5  2 -1</clus>
<clus scale="   39.613">  1  3  2 -1</clus>
</clustering>
</event>
<event>
 6    0  0.2433432E+002  0.1232492E+03  0.7546771E-02  0.1237831E+00
         21   -1    0    0  503  502  0.00000000000E+00  0.00000000000E+00  0.60917493155E+02  0.60917493155E+02  0.00000000000E+00 0. -1.
          1   -1    0    0  502    0 -0.00000000000E+00 -0.00000000000E+00 -0.32780405498E+04  0.32780405498E+04  0.00000000000E+00 0. -1.
         21    1    1    2  503  504  0.30096884892E+02  0.34972661302E+02 -0.69114366434E+02  0.83100572599E+02  0.00000000000E+00 0.  1.
         21    1    1    2  504  505  0.74754733227E+02  0.57136475572E+02  0.69494188395E+01  0.94345860550E+02  0.00000000000E+00 0. -1.
         21    1    1    2  505  501 -0.52584112807E+02 -0.62452496632E+02 -0.56617262795E+03  0.57202871247E+03  0.00000000000E+00 0.  1.
          1    1    1    2  501    0 -0.52267505312E+02 -0.29656640241E+02 -0.25887854811E+04  0.25894828974E+04  0.00000000000E+00 0. -1.
<scales pt_clust_3="46.14011" pt_clust_4="123.24919" pt_clust_5="14000.00000" pt_clust_6="59.81420"></scales>
<clustering>
<clus scale="   46.140">  1  3  2 -1</clus>
<clus scale="   59.814">  2  6  1 -1</clus>
<clus scale="  123.249">  1  4  2 -1</clus>
<clus scale="   46.140">  1  3  2 -1</clus>
</clustering>
</event>
<event>
 6    0  0.2433432E+002  0.9309334E+02  0.7546771E-02  0.1295529E+00
         21   -1    0    0  505  502  0.00000000000E+00  0.00000000000E+00  0.26921097118E+03  0.26921097118E+03  0.00000000000E+00 0.  1.
          2   -1    0    0  504    0 -0.00000000000E+00 -0.00000000000E+00 -0.37129864670E+03  0.37129864670E+03  0.00000000000E+00 0. -1.
         21    1    1    2  503  501 -0.11660947390E+03 -0.76168005960E+02 -0.81959259431E+02  0.16160648112E+03  0.00000000000E+00 0. -1.
         21    1    1    2  504  502  0.52682825988E+01  0.56902607891E+02  0.61151809305E+01  0.57472228286E+02  0.00000000000E+00 0.  1.
         21    1    1    2  505  503  0.79807515400E+02  0.40065987497E+02  0.18574838146E+03  0.20609945192E+03  0.00000000000E+00 0.  1.
          2    1    1    2  501    0  0.31533675899E+02 -0.20800589428E+02 -0.21199197848E+03  0.21533145654E+03  0.00000000000E+00 0. -1.
<scales pt_clust_3="14000.00000" pt_clust_4="54.51642" pt_clust_5="93.09334" pt_clust_6="37.77615"></scales>
<clustering>
<clus scale="   37.776">  2  6  1 -1</clus>
<clus scale="   54.516">  2  4  1 -1</clus>
<clus scale="   93.093">  1  5  2 -1</clus>
<clus scale="   93.093">  1  3  2 -1</clus>
</clustering>
</event>
<event>
 6    0  0.2433432E+002  0.6499088E+02  0.7546771E-02  0.1378006E+00
         -2   -1    0    0    0  501 -0.00000000000E+00  0.00000000000E+00  0.33837187409E+03  0.33837187409E+03  0.00000000000E+00 0.  1.
         21   -1    0    0  503  502  0.00000000000E+00 -0.00000000000E+00 -0.62371927763E+03  0.62371927763E+03  0.00000000000E+00 0.  1.
         21    1    1    2  503  501  0.51484324595E+02 -0.53586860980E+02  0.26009546996E+02  0.78731720949E+02  0.00000000000E+00 0.  1.
         21    1    1    2  504  505 -0.65297563726E+02 -0.51749640244E+02 -0.56460071053E+02  0.10064559959E+03  0.00000000000E+00 0.  1.
         21    1    1    2  505  502 -0.11552757868E+02  0.48827832601E+02 -0.51393220508E+03  0.51637576906E+03  0.00000000000E+00 0.  1.
         -2    1    1    2    0  504  0.25365996999E+02  0.56508668623E+02  0.25903532560E+03  0.26633806213E+03  0.00000000000E+00 0.  1.
<scales pt_clust_3="64.99088" pt_clust_4="14000.00000" pt_clust_5="50.17593" pt_clust_6="63.28822"></scales>
<clustering>
<clus scale="   50.176">  2  5  1 -1</clus>
<clus scale="   63.288">  1  6  2 -1</clus>
<clus scale="   64.991">  1  3  2 -1</clus>
<clus scale="   50.176">  2  3  1 -1</clus>
</clustering>
</event>
<event>
 6    0  0.2433432E+002  0.1759670E+03  0.7546771E-02  0.1171764E+00
         21   -1    0    0  505  502  0.00000000000E+00  0.00000000000E+00  0.23281983380E+02  0.23281983380E+02  0.00000000000E+00 0.  1.
          1   -1    0    0  504    0 -0.00000000000E+00 -0.00000000000E+00 -0.31499358119E+04  0.31499358119E+04  0.00000000000E+00 0.  1.
         21    1    1    2  503  502 -0.18304064845E+03 -0.69734568226E+02 -0.11694364472E+04  0.11857269471E+04  0.00000000000E+00 0.  1.
         21    1    1    2  504  503 -0.32228618891E+02 -0.39118007190E+02 -0.56163255465E+03  0.56391491273E+03  0.00000000000E+00 0.  1.
         21    1    1    2  505  501  0.10801341079E+03  0.46461272492E+02 -0.32112117256E+03  0.34197127689E+03  0.00000000000E+00 0.  1.
          1    1    1    2  501    0  0.10725585656E+03  0.62391302925E+02 -0.10744636541E+04  0.10816046586E+04  0.00000000000E+00 0.  1.
<scales pt_clust_3="40.87556" pt_clust_4="40.87556" pt_clust_5="117.58209" pt_clust_6="156.54836"></scales>
<clustering>
<clus scale="   40.876">  3  4 -1 -1</clus>
<clus scale="  117.582">  1  5  2 -1</clus>
<clus scale="  156.548">  2  6  1 -1</clus>
<clus scale="  117.582">  1  3  2 -1</clus>
</clustering>
</event>
<event>
 6    0  0.2433432E+002  0.1030402E+03  0.7546771E-02  0.1274030E+00
          2   -1    0    0  504    0 -0.00000000000E+00  0.00000000000E+00  0.74804840149E+03  0.74804840149E+03  0.00000000000E+00 0.  1.
         21   -1    0    0  505  502  0.00000000000E+00 -0.00000000000E+00 -0.34358147359E+03  0.34358147359E+03  0.00000000000E+00 0. -1.
         21    1    1    2  503  501 -0.89631033885E+02  0.10563228666E+02 -0.20160465404E+03  0.22088399799E+03  0.00000000000E+00 0. -1.
         21    1    1    2  504  502  0.32519754337E+02 -0.10476909371E+02 -0.20328882181E+01  0.34226198834E+02  0.00000000000E+00 0. -1.
         21    1    1    2  505  503 -0.27442832117E+02 -0.26682976772E+02 -0.10819019444E+03  0.11476152864E+03  0.00000000000E+00 0. -1.
          2    1    1    2  501    0  0.84554111665E+02  0.26596657476E+02  0.71629466461E+03  0.72175814961E+03  0.00000000000E+00 0.  1.
<scales pt_clust_3="33.95773" pt_clust_4="34.16577" pt_clust_5="33.95773" pt_clust_6="88.87263"></scales>
<clustering>
<clus scale="   33.958">  3  5 -1 -1</clus>
<clus scale="   34.166">  2  4  1 -1</clus>
<clus scale="   88.873">  1  6  2 -1</clus>
<clus scale="   34.166">  2  3  1 -1</clus>
</clustering>
</event>
<event>
 6    0  0.2433432E+002  0.1127781E+03  0.7546771E-02  0.1255510E+00
         -2   -1    0    0    0  501 -0.00000000000E+00  0.00000000000E+00  0.74855576596E+02  0.74855576596E+02  0.00000000000E+00 0.  1.
         21   -1    0    0  503  502  0.00000000000E+00 -0.00000000000E+00 -0.87425054061E+03  0.87425054061E+03  0.00000000000E+00 0.  1.
         21    1    1    2  503  501 -0.11389641724E+03  0.32095542632E+02 -0.45273032305E+03  0.46793937975E+03  0.00000000000E+00 0.  1.
         21    1    1    2  504  505 -0.10972274944E+02 -0.37166070888E+02 -0.11412478856E+03  0.12052458258E+03  0.00000000000E+00 0.  1.
         21    1    1    2  505  502  0.19146994139E+02 -0.39804129234E+02 -0.24143954762E+03  0.24544659550E+03  0.00000000000E+00 0. -1.
         -2    1    1    2    0  504  0.10572169804E+03  0.44874657491E+02  0.88996952213E+01  0.11519555936E+03  0.00000000000E+00 0.  1.
<scales pt_clust_3="14000.00000" pt_clust_4="36.48983" pt_clust_5="86.65394" pt_clust_6="112.77806"></scales>
<clustering>
<clus scale="   36.490">  4  5 -1 -1</clus>
<clus scale="   86.654">  2  4  1 -1</clus>
<clus scale="  112.778">  1  6  2 -1</clus>
<clus scale="   86.654">  2  3  1 -1</clus>
</clustering>
</event>
<event>
 6    0  0.2433432E+002  0.8337785E+02  0.7546771E-02  0.1319730E+00
         21   -1    0    0  505  502  0.00000000000E+00  0.00000000000E+00  0.12194724813E+03  0.12194724813E+03  0.00000000000E+00 0. -1.
         -3   -1    0    0    0  501 -0.00000000000E+00 -0.00000000000E+00 -0.68669507726E+03  0.68669507726E+03  0.00000000000E+00 0. -1.
         21    1    1    2  503  504  0.49606889213E+02  0.37389569073E+02 -0.64338519599E+02  0.89433038845E+02  0.00000000000E+00 0. -1.
         21    1    1    2  504  502 -0.29903959813E+02  0.37257145496E+02  0.31095481603E+02  0.57002374329E+02  0.00000000000E+00 0. -1.
         21    1    1    2  505  501 -0.69192638252E+02 -0.62416565706E+02  0.30381585269E+02  0.98012701148E+02  0.00000000000E+00 0. -1.
         -3    1    1    2    0  503  0.49489708852E+02 -0.12230148863E+02 -0.56188637640E+03  0.56419421107E+03  0.00000000000E+00 0. -1.
<scales pt_clust_3="83.37785" pt_clust_4="47.77386" pt_clust_5="14000.00000" pt_clust_6="50.41789"></scales>
<clustering>
<clus scale="   47.774">  1  4  2 -1</clus>
<clus scale="   50.418">  2  6  1 -1</clus>
<clus scale="   83.378">  2  3  1 -1</clus>
<clus scale="   47.774">  1  3  2 -1</clus>
</clustering>
</event>
<event>
 6    0  0.2433432E+002  0.1436889E+03  0.7546771E-02  0.1208450E+00
          2   -1    0    0  505    0 -0.00000000000E+00  0.00000000000E+00  0.18964217257E+04  0.18964217257E+04  0.00000000000E+00 0. -1.
         21   -1    0    0  503  502  0.00000000000E+00 -0.00000000000E+00 -0.21882389059E+04  0.21882389059E+04  0.00000000000E+00 0.  1.
         21    1    1    2  503  501 -0.11834834329E+02 -0.36852897074E+02 -0.21377309703E+04  0.21380813597E+04  0.00000000000E+00 0.  1.
         21    1    1    2  504  502  0.81768293909E+02 -0.97281637980E+02  0.41350175369E+02  0.13363984428E+03  0.00000000000E+00 0.  1.
         21    1    1    2  505  504 -0.38072011274E+02  0.54386215061E+02  0.37741697547E+03  0.38321131482E+03  0.00000000000E+00 0. -1.
          2    1    1    2  501    0 -0.31861448306E+02  0.79748319993E+02  0.14271466393E+04  0.14297281128E+04  0.00000000000E+00 0. -1.
<scales pt_clust_3="38.70658" pt_clust_4="14000.00000" pt_clust_5="65.06487" pt_clust_6="143.68891"></scales>
<clustering>
<clus scale="   38.707">  2  3  1 -1</clus>
<clus scale="   65.065">  1  5  2 -1</clus>
<clus scale="  143.689">  1  6  2 -1</clus>
<clus scale="   38.707">  2  3  1 -1</clus>
</clustering>
</event>
<event>
 6    0  0.2433432E+002  0.2077492E+03  0.7546771E-02  0.1143361E+00
         21   -1    0    0  501  502  0.00000000000E+00  0.00000000000E+00  0.42457697399E+02  0.42457697399E+02  0.00000000000E+00 0.  1.
          1   -1    0    0  504    0 -0.00000000000E+00 -0.00000000000E+00 -0.34579346477E+04  0.34579346477E+04  0.00000000000E+00 0.  1.
         21    1    1    2  503  502  0.67990418286E+02 -0.16947567858E+03 -0.25703771587E+03  0.31529841418E+03  0.00000000000E+00 0.  1.
         21    1    1    2  504  505 -0.79654899093E+02  0.17685241400E+03 -0.10754201933E+04  0.10927718295E+04  0.00000000000E+00 0.  1.
         21    1    1    2  505  503 -0.59897653563E+02  0.33860221913E+02 -0.31739591622E+03  0.32476824224E+03  0.00000000000E+00 0. -1.
          1    1    1    2  501    0  0.71562134370E+02 -0.41236957338E+02 -0.17656231249E+04  0.17675538592E+04  0.00000000000E+00 0.  1.
<scales pt_clust_3="193.78168" pt_clust_4="44.60392" pt_clust_5="44.60392" pt_clust_6="82.59313"></scales>
<clustering>
<clus scale="   44.604">  4  5 -1 -1</clus>
<clus scale="   82.593">  2  6  1 -1</clus>
<clus scale="  193.782">  1  3  2 -1</clus>
<clus scale="  193.782">  1  3  2 -1</clus>
</clustering>
</event>
<event>
 6    0  0.2433432E+002  0.1372170E+03  0.7546771E-02  0.1217123E+00
          2   -1    0    0  505    0 -0.00000000000E+00  0.00000000000E+00  0.28385489905E+04  0.28385489905E+04  0.00000000000E+00 0.  1.
         21   -1    0    0  504  502  0.00000000000E+00 -0.00000000000E+00 -0.96831384422E+03  0.96831384422E+03  0.00000000000E+00 0.  1.
         21    1    1    2  503  501 -0.19565651481E+02 -0.58068349325E+02 -0.31718963453E+02  0.68998844583E+02  0.00000000000E+00 0. -1.
         21    1    1    2  504  503  0.44100338611E+02 -0.21233452457E+02 -0.20813803139E+02  0.53187533971E+02  0.00000000000E+00 0.  1.
         21    1    1    2  505  502 -0.14754101765E+02 -0.57721070985E+02 -0.87826180850E+03  0.88028018825E+03  0.00000000000E+00 0.  1.
          2    1    1    2  501    0 -0.97805853654E+01  0.13702287277E+03  0.28010297214E+04  0.28043962680E+04  0.00000000000E+00 0.  1.
<scales pt_clust_3="61.65859" pt_clust_4="48.94588" pt_clust_5="137.21702" pt_clust_6="14000.00000"></scales>
<clustering>
<clus scale="   48.946">  2  4  1 -1</clus>
<clus scale="   61.659">  2  3  1 -1</clus>
<clus scale="  137.217">  2  5  1 -1</clus>
<clus scale="   48.946">  2  3  1 -1</clus>
</clustering>
</event>
<event>
 6    0  0.2433432E+002  0.1264653E+03  0.7546771E-02  0.1232797E+00
          2   -1    0    0  505    0 -0.00000000000E+00  0.00000000000E+00  0.99600189763E+03  0.99600189763E+03  0.00000000000E+00 0.  1.
         21   -1    0    0  503  502  0.00000000000E+00 -0.00000000000E+00 -0.79153260736E+02  0.79153260736E+02  0.00000000000E+00 0. -1.
         21    1    1    2  503  504  0.79124246569E+01  0.34740603291E+02  0.17878508976E+02  0.39864232893E+02  0.00000000000E+00 0.  1.
         21    1    1    2  504  501 -0.93702345660E+02  0.11829198737E+02 -0.13060544293E+02  0.95344833851E+02  0.00000000000E+00 0. -1.
         21    1    1    2  505  502 -0.39616284594E+02 -0.14916343151E+02  0.39555231892E+02  0.57935858223E+02  0.00000000000E+00 0.  1.
          2    1    1    2  501    0  0.12540620560E+03 -0.31653458876E+02  0.87247544031E+03  0.88201023339E+03  0.00000000000E+00 0.  1.
<scales pt_clust_3="35.63027" pt_clust_4="126.46535" pt_clust_5="39.88427" pt_clust_6="14000.00000"></scales>
<clustering>
<clus scale="   35.630">  2  3  1 -1</clus>
<clus scale="   39.884">  2  5  1 -1</clus>
<clus scale="  126.465">  2  4  1 -1</clus>
<clus scale="   35.630">  2  3  1 -1</clus>
</clustering>
</event>
<event>
 6    0  0.2433432E+002  0.6078386E+02  0.7546771E-02  0.1394571E+00
          1   -1    0    0  504    0 -0.00000000000E+00  0.00000000000E+00  0.22032421655E+04  0.22032421655E+04  0.00000000000E+00 0. -1.
         21   -1    0    0  503  502  0.00000000000E+00 -0.00000000000E+00 -0.10371067809E+03  0.10371067809E+03  0.00000000000E+00 0.  1.
         21    1    1    2  503  505 -0.53285483904E+01 -0.49234645176E+02 -0.36530254075E+02  0.61537819074E+02  0.00000000000E+00 0.  1.
         21    1    1    2  504  502  0.56278956829E+02  0.23876613630E+02 -0.35470098702E+01  0.61237202249E+02  0.00000000000E+00 0.  1.
         21    1    1    2  505  501 -0.67911900531E+02  0.82918725977E+02  0.10964843852E+03  0.15333075823E+03  0.00000000000E+00 0.  1.
          1    1    1    2  501    0  0.16961492092E+02 -0.57560694430E+02  0.20299603128E+04  0.20308470640E+04  0.00000000000E+00 0. -1.
<scales pt_clust_3="49.52215" pt_clust_4="53.38505" pt_clust_5="14000.00000" pt_clust_6="60.78386"></scales>
<clustering>
<clus scale="   49.522">  2  3  1 -1</clus>
<clus scale="   53.385">  2  4  1 -1</clus>
<clus scale="   60.784">  1  6  2 -1</clus>
<clus scale="   49.522">  2  3  1 -1</clus>
</clustering>
</event>
<event>
 6    0  0.2433432E+002  0.1631405E+03  0.7546771E-02  0.1185196E+00
         21   -1    0    0  501  502  0.00000000000E+00  0.00000000000E+00  0.19956218136E+02  0.19956218136E+02  0.00000000000E+00 0. -1.
          2   -1    0    0  503    0 -0.00000000000E+00 -0.00000000000E+00 -0.24637797645E+04  0.24637797645E+04  0.00000000000E+00 0. -1.
         21    1    1    2  503  505  0.23709872249E+02 -0.65029835321E+02 -0.47243586671E+03  0.47747951336E+03  0.00000000000E+00 0. -1.
         21    1    1    2  504  502 -0.30549348377E+02  0.39272127791E+02 -0.61109677422E+02  0.78803270124E+02  0.00000000000E+00 0. -1.
         21    1    1    2  505  504  0.16487453968E+02 -0.10982852382E+03 -0.11279383743E+04  0.11333927462E+04  0.00000000000E+00 0. -1.
          2    1    1    2  501    0 -0.96479778397E+01  0.13558623135E+03 -0.78233962794E+03  0.79406045302E+03  0.00000000000E+00 0. -1.
<scales pt_clust_3="30.78342" pt_clust_4="49.75503" pt_clust_5="30.78342" pt_clust_6="158.41200"></scales>
<clustering>
<clus scale="   30.783">  3  5 -1 -1</clus>
<clus scale="   49.755">  1  4  2 -1</clus>
<clus scale="  158.412">  1  6  2 -1</clus>
<clus scale="   49.755">  1  3  2 -1</clus>
</clustering>
</event>
<event>
 6    0  0.2433432E+002  0.1147358E+03  0.7546771E-02  0.1252043E+00
         21   -1    0    0  503  502  0.00000000000E+00  0.00000000000E+00  0.33887530107E+03  0.33887530107E+03  0.00000000000E+00 0.  1.
          2   -1    0    0  505    0 -0.00000000000E+00 -0.00000000000E+00 -0.81914793640E+03  0.81914793640E+03  0.00000000000E+00 0.  1.
         21    1    1    2  503  501 -0.67461320298E+02  0.13639063417E+03  0.28851169701E+03  0.32617853108E+03  0.00000000000E+00 0.  1.
         21    1    1    2  504  502  0.12930178699E+02 -0.36333533787E+02 -0.62086009042E+01  0.39062282625E+02  0.00000000000E+00 0.  1.
         21    1    1    2  505  504  0.59832751844E+02  0.81958247613E+01 -0.73005509660E+02  0.94746684256E+02  0.00000000000E+00 0.  1.
          2    1    1    2  501    0 -0.53016102449E+01 -0.10825292514E+03 -0.68957022178E+03  0.69803573951E+03  0.00000000000E+00 0.  1.
<scales pt_clust_3="114.73578" pt_clust_4="38.56573" pt_clust_5="60.67047" pt_clust_6="14000.00000"></scales>
<clustering>
<clus scale="   38.566">  1  4  2 -1</clus>
<clus scale="   60.670">  2  5  1 -1</clus>
<clus scale="  114.736">  1  3  2 -1</clus>
<clus scale="   38.566">  1  3  2 -1</clus>
</clustering>
</event>
<event>
 6    0  0.2433432E+002  0.1846566E+03  0.7546771E-02  0.1163371E+00
         21   -1    0    0  504  502  0.00000000000E+00  0.00000000000E+00  0.12975021716E+03  0.12975021716E+03  0.00000000000E+00 0.  1.
          2   -1    0    0  505    0 -0.00000000000E+00 -0.00000000000E+00 -0.24741748947E+04  0.24741748947E+04  0.00000000000E+00 0. -1.
         21    1    1    2  503  502 -0.25989869289E+02 -0.13537950224E+03  0.14606717884E+01  0.13785940844E+03  0.00000000000E+00 0.  1.
         21    1    1    2  504  501  0.43508659596E+02  0.31666982494E+02  0.10527947412E+02  0.54832827000E+02  0.00000000000E+00 0.  1.
         21    1    1    2  505  503  0.41478927315E+01 -0.72157688365E+02 -0.30285505081E+02  0.78365482339E+02  0.00000000000E+00 0.  1.
          2    1    1    2  501    0 -0.21666683038E+02  0.17587020811E+03 -0.23261277916E+04  0.23328673941E+04  0.00000000000E+00 0. -1.
<scales pt_clust_3="35.27727" pt_clust_4="53.81265" pt_clust_5="35.27727" pt_clust_6="178.11370"></scales>
<clustering>
<clus scale="   35.277">  3  5 -1 -1</clus>
<clus scale="   53.813">  1  4  2 -1</clus>
<clus scale="  178.114">  2  6  1 -1</clus>
<clus scale="   53.813">  1  3  2 -1</clus>
</clustering>
</event>
<event>
 6    0  0.2433432E+002  0.9659836E+02  0.7546771E-02  0.1287616E+00
          2   -1    0    0  505    0 -0.00000000000E+00  0.00000000000E+00  0.21006307985E+04  0.21006307985E+04  0.00000000000E+00 0. -1.
         21   -1    0    0  503  502  0.00000000000E+00 -0.00000000000E+00 -0.13277318361E+03  0.13277318361E+03  0.00000000000E+00 0.  1.
         21    1    1    2  503  501  0.12392587302E+03 -0.80554616496E+01  0.91848647240E+02  0.15446257303E+03  0.00000000000E+00 0.  1.
         21    1    1    2  504  502 -0.40755175414E+02  0.60141350490E+02 -0.81861544733E+02  0.10944989204E+03  0.00000000000E+00 0.  1.
         21    1    1    2  505  504 -0.48878132063E+02  0.64805395520E+01  0.11198680997E+03  0.12236059331E+03  0.00000000000E+00 0.  1.
          2    1    1    2  501    0 -0.34292565542E+02 -0.58566428392E+02  0.18458837024E+04  0.18471309237E+04  0.00000000000E+00 0. -1.
<scales pt_clust_3="14000.00000" pt_clust_4="72.87807" pt_clust_5="49.30587" pt_clust_6="96.59836"></scales>
<clustering>
<clus scale="   49.306">  1  5  2 -1</clus>
<clus scale="   72.878">  2  4  1 -1</clus>
<clus scale="   96.598">  1  6  2 -1</clus>
<clus scale="   72.878">  2  3  1 -1</clus>
</clustering>
</event>
<event>
 6    0  0.2433432E+002  0.1021257E+03  0.7546771E-02  0.1275888E+00
         -1   -1    0    0    0  501 -0.00000000000E+00  0.00000000000E+00  0.13627105835E+04  0.13627105835E+04  0.00000000000E+00 0.  1.
         21   -1    0    0  503  502  0.00000000000E+00 -0.00000000000E+00 -0.10489332673E+03  0.10489332673E+03  0.00000000000E+00 0. -1.
         21    1    1    2  503  505  0.14364037263E+02  0.38785167171E+02 -0.43189876918E+01  0.41584473228E+02  0.00000000000E+00 0.  1.
         21    1    1    2  504  502 -0.64300488118E+02 -0.60630703370E+01 -0.44152871948E+02  0.78235475939E+02  0.00000000000E+00 0. -1.
         21    1    1    2  505  501  0.47281136884E+02  0.57465017407E+02  0.53262236084E+02  0.91512840210E+02  0.00000000000E+00 0.  1.
         -1    1    1    2    0  504  0.26553139713E+01 -0.90187114241E+02  0.12530268803E+04  0.12562711208E+04  0.00000000000E+00 0.  1.
<scales pt_clust_3="35.40383" pt_clust_4="64.58571" pt_clust_5="35.40383" pt_clust_6="90.41258"></scales>
<clustering>
<clus scale="   35.404">  3  5 -1 -1</clus>
<clus scale="   64.586">  2  4  1 -1</clus>
<clus scale="   90.413">  1  6  2 -1</clus>
<clus scale="   64.586">  2  3  1 -1</clus>
</clustering>
</event>
<event>
 6    0  0.2433432E+002  0.1582505E+03  0.7546771E-02  0.1190686E+00
         -1   -1    0    0    0  501 -0.00000000000E+00  0.00000000000E+00  0.45952806826E+03  0.45952806826E+03  0.00000000000E+00 0. -1.
         21   -1    0    0  504  502  0.00000000000E+00 -0.00000000000E+00 -0.43367375242E+03  0.43367375242E+03  0.00000000000E+00 0.  1.
         21    1    1    2  503  501  0.83700671697E+02  0.23345939024E+02 -0.11354815138E+03  0.14298257934E+03  0.00000000000E+00 0.  1.
         21    1    1    2  504  503  0.89028230429E+02 -0.17380833570E+02 -0.98062675237E+02  0.13358296098E+03  0.00000000000E+00 0.  1.
         21    1    1    2  505  502 -0.13087261947E+03 -0.48171754523E+02 -0.16143627216E+03  0.21333033172E+03  0.00000000000E+00 0.  1.
         -1    1    1    2    0  505 -0.41856282653E+02  0.42206649069E+02  0.39890141463E+03  0.40330594865E+03  0.00000000000E+00 0. -1.
<scales pt_clust_3="41.96676" pt_clust_4="41.96676" pt_clust_5="152.33093" pt_clust_6="59.44199"></scales>
<clustering>
<clus scale="   41.967">  3  4 -1 -1</clus>
<clus scale="   59.442">  1  6  2 -1</clus>
<clus scale="  152.331">  2  5  1 -1</clus>
<clus scale="  152.331">  2  3  1 -1</clus>
</clustering>
</event>
<event>
 6    0  0.2433432E+002  0.3594972E+03  0.7546771E-02  0.1058783E+00
         21   -1    0    0  503  502  0.00000000000E+00  0.00000000000E+00  0.16230919897E+03  0.16230919897E+03  0.00000000000E+00 0.  1.
          2   -1    0    0  505    0 -0.00000000000E+00 -0.00000000000E+00 -0.32904174000E+04  0.32904174000E+04  0.00000000000E+00 0.  1.
         21    1    1    2  503  501  0.70923550953E+02 -0.20391205388E+03  0.58193255665E+00  0.21589491528E+03  0.00000000000E+00 0.  1.
         21    1    1    2  504  502 -0.12471096859E+02  0.11381012782E+03 -0.40123065951E+03  0.41724610913E+03  0.00000000000E+00 0.  1.
         21    1    1    2  505  504 -0.17438578604E+03  0.36034424051E+03 -0.12293333060E+04  0.12928722873E+04  0.00000000000E+00 0.  1.
          2    1    1    2  501    0  0.11593333195E+03 -0.27024231445E+03 -0.14981261681E+04  0.15267132872E+04  0.00000000000E+00 0.  1.
<scales pt_clust_3="215.89413" pt_clust_4="41.52177" pt_clust_5="41.52177" pt_clust_6="351.01286"></scales>
<clustering>
<clus scale="   41.522">  4  5 -1 -1</clus>
<clus scale="  215.894">  1  3  2 -1</clus>
<clus scale="  351.013">  2  6  1 -1</clus>
<clus scale="  215.894">  1  3  2 -1</clus>
</clustering>
</event>
<event>
 6    0  0.2433432E+002  0.2874929E+03  0.7546771E-02  0.1091665E+00
          2   -1    0    0  505    0 -0.00000000000E+00  0.00000000000E+00  0.20907895781E+04  0.20907895781E+04  0.00000000000E+00 0. -1.
         21   -1    0    0  503  502  0.00000000000E+00 -0.00000000000E+00 -0.86707461241E+02  0.86707461241E+02  0.00000000000E+00 0. -1.
         21    1    1    2  503  504 -0.23800037336E+03 -0.18406437655E+03  0.41368090238E+03  0.51152298231E+03  0.00000000000E+00 0. -1.
         21    1    1    2  504  501  0.16793188544E+03  0.21947985667E+03  0.53524125585E+03  0.60237507219E+03  0.00000000000E+00 0. -1.
         21    1    1    2  505  502  0.43163995376E+02 -0.16634787428E+02  0.13226466025E+03  0.14012061590E+03  0.00000000000E+00 0. -1.
          2    1    1    2  501    0  0.26904492547E+02 -0.18780692694E+02  0.92289529838E+03  0.92347836894E+03  0.00000000000E+00 0. -1.
<scales pt_clust_3="287.49291" pt_clust_4="14000.00000" pt_clust_5="49.98291" pt_clust_6="32.81107"></scales>
<clustering>
<clus scale="   32.811">  1  6  2 -1</clus>
<clus scale="   49.983">  1  5  2 -1</clus>
<clus scale="  287.493">  2  3  1 -1</clus>
<clus scale="  287.493">  2  3  1 -1</clus>
</clustering>
</event>
<event>
 6    0  0.2433432E+002  0.9739430E+02  0.7546771E-02  0.1285873E+00
         21   -1    0    0  505  502  0.00000000000E+00  0.00000000000E+00  0.46692213364E+02  0.46692213364E+02  0.00000000000E+00 0.  1.
          2   -1    0    0  503    0 -0.00000000000E+00 -0.00000000000E+00 -0.22301544286E+04  0.22301544286E+04  0.00000000000E+00 0.  1.
         21    1    1    2  503  504  0.59456882045E+02 -0.10970862153E+02 -0.11784997660E+03  0.13245413404E+03  0.00000000000E+00 0.  1.
         21    1    1    2  504  502  0.65848523905E+02 -0.16993622816E+02 -0.65478345188E+02  0.94404581485E+02  0.00000000000E+00 0.  1.
         21    1    1    2  505  501 -0.41493878128E+02 -0.11719578689E+00  0.59843377611E+01  0.41923358112E+02  0.00000000000E+00 0.  1.
          2    1    1    2  501    0 -0.83811527822E+02  0.28081680756E+02 -0.20061182312E+04  0.20080645683E+04  0.00000000000E+00 0.  1.
<scales pt_clust_3="34.92712" pt_clust_4="34.92712" pt_clust_5="41.49404" pt_clust_6="90.07499"></scales>
<clustering>
<clus scale="   34.927">  3  4 -1 -1</clus>
<clus scale="   41.494">  1  5  2 -1</clus>
<clus scale="   90.075">  2  6  1 -1</clus>
<clus scale="   41.494">  1  3  2 -1</clus>
</clustering>
</event>
<event>
 6    0  0.2433432E+002  0.1258458E+03  0.7546771E-02  0.1233753E+00
         21   -1    0    0  503  502  0.00000000000E+00  0.00000000000E+00  0.58407283936E+03  0.58407283936E+03  0.00000000000E+00 0.  1.
          2   -1    0    0  504    0 -0.00000000000E+00 -0.00000000000E+00 -0.10791378207E+03  0.10791378207E+03  0.00000000000E+00 0.  1.
         21    1    1    2  503  501 -0.47971004591E+02  0.85024647655E+02  0.13106839065E+03  0.16342989634E+03  0.00000000000E+00 0.  1.
         21    1    1    2  504  505  0.73636954602E+02 -0.26881699042E+01  0.16275721437E+03  0.17866039899E+03  0.00000000000E+00 0.  1.
         21    1    1    2  505  502  0.53354565478E+02  0.11949724224E+02  0.21562599877E+03  0.22245016725E+03  0.00000000000E+00 0.  1.
          2    1    1    2  501    0 -0.79020515490E+02 -0.94286201974E+02 -0.33292546489E+02  0.12744615884E+03  0.00000000000E+00 0.  1.
<scales pt_clust_3="97.62381" pt_clust_4="33.39772" pt_clust_5="33.39772" pt_clust_6="119.72448"></scales>
<clustering>
<clus scale="   33.398">  4  5 -1 -1</clus>
<clus scale="   97.624">  1  3  2 -1</clus>
<clus scale="  119.724">  2  6  1 -1</clus>
<clus scale="   97.624">  1  3  2 -1</clus>
</clustering>
</event>
<event>
 6    0  0.2433432E+002  0.1518519E+03  0.7546771E-02  0.1198216E+00
          1   -1    0    0  503    0 -0.00000000000E+00  0.00000000000E+00  0.20008533980E+04  0.20008533980E+04  0.00000000000E+00 0.  1.
         21   -1    0    0  501  502  0.00000000000E+00 -0.00000000000E+00 -0.15274348478E+03  0.15274348478E+03  0.00000000000E+00 0. -1.
         21    1    1    2  503  505 -0.72395233594E+01  0.55328764165E+02  0.14722516428E+02  0.57709924038E+02  0.00000000000E+00 0.  1.
         21    1    1    2  504  502 -0.29304622455E+02  0.28705267999E+02 -0.65335124699E+02  0.77145523704E+02  0.00000000000E+00 0. -1.
         21    1    1    2  505  504  0.15673363006E+02  0.54438788501E+02 -0.43532584404E+02  0.71444537274E+02  0.00000000000E+00 0. -1.
          1    1    1    2  501    0  0.20870782809E+02 -0.13847282067E+03  0.19422551059E+04  0.19472968977E+04  0.00000000000E+00 0.  1.
<scales pt_clust_3="56.76729" pt_clust_4="41.02138" pt_clust_5="56.76729" pt_clust_6="139.02590"></scales>
<clustering>
<clus scale="   41.021">  2  4  1 -1</clus>
<clus scale="   56.767">  3  5 -1 -1</clus>
<clus scale="  139.026">  1  6  2 -1</clus>
<clus scale="   41.021">  2  3  1 -1</clus>
</clustering>
</event>
<event>
 6    0  0.2433432E+002  0.1181308E+03  0.7546771E-02  0.1246213E+00
         21   -1    0    0  505  502  0.00000000000E+00  0.00000000000E+00  0.12285393348E+03  0.12285393348E+03  0.00000000000E+00 0. -1.
          2   -1    0    0  504    0 -0.00000000000E+00 -0.00000000000E+00 -0.11771703583E+04  0.11771703583E+04  0.00000000000E+00 0. -1.
         21    1    1    2  503  501 -0.72941799208E+02  0.11737117943E+03 -0.22942994075E+03  0.26783315244E+03  0.00000000000E+00 0. -1.
         21    1    1    2  504  502 -0.76778827556E+02 -0.24033032106E+02 -0.22515243811E+03  0.23909453231E+03  0.00000000000E+00 0. -1.
         21    1    1    2  505  503  0.12300393159E+03 -0.69351892820E+01  0.53008014163E+02  0.13411902774E+03  0.00000000000E+00 0. -1.
          2    1    1    2  501    0  0.26716695178E+02 -0.86402958042E+02 -0.65274206014E+03  0.65897757931E+03  0.00000000000E+00 0. -1.
<scales pt_clust_3="118.13081" pt_clust_4="80.45232" pt_clust_5="14000.00000" pt_clust_6="106.45044"></scales>
<clustering>
<clus scale="   80.452">  2  4  1 -1</clus>
<clus scale="  106.450">  2  6  1 -1</clus>
<clus scale="  118.131">  2  3  1 -1</clus>
<clus scale="  118.131">  1  3  2 -1</clus>
</clustering>
</event>
<event>
 6    0  0.2433432E+002  0.8770237E+02  0.7546771E-02  0.1308513E+00
         -1   -1    0    0    0  501 -0.00000000000E+00  0.00000000000E+00  0.96451411925E+03  0.96451411925E+03  0.00000000000E+00 0.  1.
         21   -1    0    0  505  502  0.00000000000E+00 -0.00000000000E+00 -0.13461788259E+03  0.13461788259E+03  0.00000000000E+00 0.  1.
         21    1    1    2  503  504 -0.56161077904E+02  0.92470540607E+02 -0.31666984212E+01  0.10823537098E+03  0.00000000000E+00 0.  1.
         21    1    1    2  504  502  0.69036865314E+01 -0.79440477273E+02 -0.23720644729E+02  0.83193264772E+02  0.00000000000E+00 0.  1.
         21    1    1    2  505  501  0.44850037819E+02 -0.68482583046E+02  0.43845935875E+02  0.92864719704E+02  0.00000000000E+00 0.  1.
         -1    1    1    2    0  503  0.44073535533E+01  0.55452519711E+02  0.81293764394E+03  0.81483864638E+03  0.00000000000E+00 0.  1.
<scales pt_clust_3="14000.00000" pt_clust_4="87.70237" pt_clust_5="63.80724" pt_clust_6="55.62739"></scales>
<clustering>
<clus scale="   55.627">  1  6  2 -1</clus>
<clus scale="   63.807">  1  5  2 -1</clus>
<clus scale="   87.702">  2  4  1 -1</clus>
<clus scale="   87.702">  2  3  1 -1</clus>
</clustering>
</event>
<event>
 6    0  0.2433432E+002  0.7542054E+02  0.7546771E-02  0.1342574E+00
         21   -1    0    0  505  502  0.00000000000E+00  0.00000000000E+00  0.19965216497E+03  0.19965216497E+03  0.00000000000E+00 0.  1.
          2   -1    0    0  503    0 -0.00000000000E+00 -0.00000000000E+00 -0.88907101353E+03  0.88907101353E+03  0.00000000000E+00 0.  1.
         21    1    1    2  503  502  0.10873294625E+03  0.45977372899E+01  0.89942192655E+02  0.14118636906E+03  0.00000000000E+00 0.  1.
         21    1    1    2  504  501 -0.47596875153E+02  0.50056216270E+02  0.78867815613E+01  0.69521857247E+02  0.00000000000E+00 0.  1.
         21    1    1    2  505  504 -0.40214482496E+02 -0.30055061799E+02  0.31082497246E+02  0.59047717799E+02  0.00000000000E+00 0.  1.
          2    1    1    2  501    0 -0.20921588597E+02 -0.24598891761E+02 -0.81833032002E+03  0.81896723440E+03  0.00000000000E+00 0.  1.
<scales pt_clust_3="75.42054" pt_clust_4="14000.00000" pt_clust_5="56.47407" pt_clust_6="32.29270"></scales>
<clustering>
<clus scale="   32.293">  2  6  1 -1</clus>
<clus scale="   56.474">  1  5  2 -1</clus>
<clus scale="   75.421">  1  3  2 -1</clus>
<clus scale="   56.474">  1  3  2 -1</clus>
</clustering>
</event>
<event>
 6    0  0.2433432E+002  0.1638541E+03  0.7546771E-02  0.1184413E+00
         21   -1    0    0  501  502  0.00000000000E+00  0.00000000000E+00  0.86617183559E+02  0.86617183559E+02  0.00000000000E+00 0. -1.
          1   -1    0    0  504    0 -0.00000000000E+00 -0.00000000000E+00 -0.89701016425E+03  0.89701016425E+03  0.00000000000E+00 0. -1.
         21    1    1    2  503  505  0.64906685952E+02 -0.69983913618E+02 -0.28189090672E+03  0.29761234742E+03  0.00000000000E+00 0. -1.
         21    1    1    2  504  503  0.67492784731E+02 -0.81582567097E+01 -0.34982692268E+03  0.35637158834E+03  0.00000000000E+00 0. -1.
         21    1    1    2  505  502  0.44587511665E+01  0.44136047131E+02  0.46301801225E+02  0.64122756608E+02  0.00000000000E+00 0. -1.
          1    1    1    2  501    0 -0.13685822185E+03  0.34006123197E+02 -0.22497695252E+03  0.26552065545E+03  0.00000000000E+00 0. -1.
<scales pt_clust_3="61.95366" pt_clust_4="61.95366" pt_clust_5="44.36069" pt_clust_6="147.83913"></scales>
<clustering>
<clus scale="   44.361">  1  5  2 -1</clus>
<clus scale="   61.954">  3  4 -1 -1</clus>
<clus scale="  147.839">  1  6  2 -1</clus>
<clus scale="   44.361">  1  3  2 -1</clus>
</clustering>
</event>
<event>
 6    0  0.2433432E+002  0.1000402E+03  0.7546771E-02  0.1280211E+00
          1   -1    0    0  505    0 -0.00000000000E+00  0.00000000000E+00  0.22256859039E+03  0.22256859039E+03  0.00000000000E+00 0. -1.
         21   -1    0    0  504  502  0.00000000000E+00 -0.00000000000E+00 -0.77676071276E+03  0.77676071276E+03  0.00000000000E+00 0. -1.
         21    1    1    2  503  502 -0.10150971104E+03 -0.55971338583E+01 -0.50593822352E+03  0.51605138830E+03  0.00000000000E+00 0. -1.
         21    1    1    2  504  501  0.78999127580E+02  0.97948797096E+02 -0.11006941214E+03  0.16718284751E+03  0.00000000000E+00 0. -1.
         21    1    1    2  505  503  0.66429667774E+02 -0.65350316469E+02 -0.10564960111E+03  0.14087371237E+03  0.00000000000E+00 0. -1.
          1    1    1    2  501    0 -0.43919084312E+02 -0.27001346769E+02  0.16746511441E+03  0.17522135497E+03  0.00000000000E+00 0. -1.
<scales pt_clust_3="100.04025" pt_clust_4="14000.00000" pt_clust_5="90.58108" pt_clust_6="51.55539"></scales>
<clustering>
<clus scale="   51.555">  1  6  2 -1</clus>
<clus scale="   90.581">  1  5  2 -1</clus>
<clus scale="  100.040">  2  3  1 -1</clus>
<clus scale="  100.040">  2  3  1 -1</clus>
</clustering>
</event>
<event>
 6    0  0.2433432E+002  0.2677641E+03  0.7546771E-02  0.1102566E+00
          1   -1    0    0  503    0 -0.00000000000E+00  0.00000000000E+00  0.22867570778E+04  0.22867570778E+04  0.00000000000E+00 0.  1.
         21   -1    0    0  505  502  0.00000000000E+00 -0.00000000000E+00 -0.14220410897E+03  0.14220410897E+03  0.00000000000E+00 0.  1.
         21    1    1    2  503  504 -0.80538502309E+02 -0.13454513758E+03  0.33025088761E+02  0.16024824769E+03  0.00000000000E+00 0.  1.
         21    1    1    2  504  502 -0.90108389902E+02 -0.66499098764E+02  0.26052158439E+01  0.11201981618E+03  0.00000000000E+00 0.  1.
         21    1    1    2  505  501  0.26775546759E+02 -0.17274208956E+02  0.24249433376E+00  0.31865137734E+02  0.00000000000E+00 0.  1.
          1    1    1    2  501    0  0.14387134545E+03  0.21831844530E+03  0.21086801699E+04  0.21248279851E+04  0.00000000000E+00 0.  1.
<scales pt_clust_3="47.59561" pt_clust_4="47.59561" pt_clust_5="31.86422" pt_clust_6="261.48880"></scales>
<clustering>
<clus scale="   31.864">  2  5  1 -1</clus>
<clus scale="   47.596">  3  4 -1 -1</clus>
<clus scale="  261.489">  1  6  2 -1</clus>
<clus scale="   31.864">  2  3  1 -1</clus>
</clustering>
</event>
<event>
 6    0  0.2433432E+002  0.1596420E+03  0.7546771E-02  0.1189102E+00
          1   -1    0    0  504    0 -0.00000000000E+00  0.00000000000E+00  0.16955995275E+04  0.16955995275E+04  0.00000000000E+00 0.  1.
         21   -1    0    0  505  502  0.00000000000E+00 -0.00000000000E+00 -0.11262506169E+03  0.11262506169E+03  0.00000000000E+00 0. -1.
         21    1    1    2  503  502  0.22077168260E+02  0.33016948521E+02 -0.72681825850E+02  0.82826131486E+02  0.00000000000E+00 0. -1.
         21    1    1    2  504  503 -0.40415146154E+02  0.80542712122E+02  0.76332387610E+02  0.11809803518E+03  0.00000000000E+00 0. -1.
         21    1    1    2  505  501  0.43392767593E+02  0.68897222997E+02  0.20318406542E+03  0.21889158060E+03  0.00000000000E+00 0. -1.
          1    1    1    2  501    0 -0.25054789699E+02 -0.18245688364E+03  0.13761398387E+04  0.13884088420E+04  0.00000000000E+00 0.  1.
<scales pt_clust_3="39.71801" pt_clust_4="14000.00000" pt_clust_5="90.36572" pt_clust_6="159.64195"></scales>
<clustering>
<clus scale="   39.718">  2  3  1 -1</clus>
<clus scale="   90.366">  2  5  1 -1</clus>
<clus scale="  159.642">  1  6  2 -1</clus>
<clus scale="   39.718">  2  3  1 -1</clus>
</clustering>
</event>
<event>
 6    0  0.2433432E+002  0.1258258E+03  0.7546771E-02  0.1233784E+00
         -4   -1    0    0    0  501 -0.00000000000E+00  0.00000000000E+00  0.68246128799E+03  0.68246128799E+03  0.00000000000E+00 0.  1.
         21   -1    0    0  501  502  0.00000000000E+00 -0.00000000000E+00 -0.15486003522E+03  0.15486003522E+03  0.00000000000E+00 0.  1.
         21    1    1    2  503  504  0.11716516625E+03  0.11764012996E+02 -0.70444028070E+01  0.11796479049E+03  0.00000000000E+00 0.  1.
         21    1    1    2  504  502  0.11902399177E+02  0.56394840463E+02 -0.55248930542E+02  0.79840399943E+02  0.00000000000E+00 0.  1.
         21    1    1    2  505  503 -0.11115295372E+03 -0.41895138375E+02  0.12105885700E+03  0.16960373993E+03  0.00000000000E+00 0.  1.
         -4    1    1    2    0  505 -0.17914611704E+02 -0.26263715084E+02  0.46883572913E+03  0.46991239284E+03  0.00000000000E+00 0.  1.
<scales pt_clust_3="14000.00000" pt_clust_4="55.94525" pt_clust_5="125.82583" pt_clust_6="31.79176"></scales>
<clustering>
<clus scale="   31.792">  1  6  2 -1</clus>
<clus scale="   55.945">  2  4  1 -1</clus>
<clus scale="  125.826">  1  5  2 -1</clus>
<clus scale="   55.945">  2  3  1 -1</clus>
</clustering>
</event>
<event>
 6    0  0.2433432E+002  0.1516021E+03  0.7546771E-02  0.1198518E+00
          4   -1    0    0  504    0 -0.00000000000E+00  0.00000000000E+00  0.29182196351E+03  0.29182196351E+03  0.00000000000E+00 0.  1.
         21   -1    0    0  505  502  0.00000000000E+00 -0.00000000000E+00 -0.14634524770E+03  0.14634524770E+03  0.00000000000E+00 0.  1.
         21    1    1    2  503  502 -0.13425601107E+02 -0.53269576972E+02  0.23018549079E+02  0.59562976735E+02  0.00000000000E+00 0.  1.
         21    1    1    2  504  503 -0.53696605350E+02 -0.53070538956E+02  0.56563078805E+02  0.94335515132E+02  0.00000000000E+00 0.  1.
         21    1    1    2  505  501  0.25717159554E+02 -0.78653295310E+02 -0.23611542189E+01  0.82784589193E+02  0.00000000000E+00 0.  1.
          4    1    1    2  501    0  0.41405046903E+02  0.18499341124E+03  0.68256242150E+02  0.20148413015E+03  0.00000000000E+00 0.  1.
<scales pt_clust_3="33.45222" pt_clust_4="33.45222" pt_clust_5="82.75091" pt_clust_6="146.44214"></scales>
<clustering>
<clus scale="   33.452">  3  4 -1 -1</clus>
<clus scale="   82.751">  2  5  1 -1</clus>
<clus scale="  146.442">  2  6  1 -1</clus>
<clus scale="   82.751">  2  3  1 -1</clus>
</clustering>
</event>
<event>
 6    0  0.2433432E+002  0.1133037E+03  0.7546771E-02  0.1254571E+00
         21   -1    0    0  504  502  0.00000000000E+00  0.00000000000E+00  0.11627071252E+03  0.11627071252E+03  0.00000000000E+00 0.  1.
          2   -1    0    0  505    0 -0.00000000000E+00 -0.00000000000E+00 -0.29708042880E+04  0.29708042880E+04  0.00000000000E+00 0. -1.
         21    1    1    2  503  502 -0.39696802764E+02 -0.11872337156E+03  0.11316363511E+02  0.12569461081E+03  0.00000000000E+00 0.  1.
         21    1    1    2  504  501 -0.21863292431E+02  0.23648494066E+02  0.37222705575E+02  0.49221790274E+02  0.00000000000E+00 0.  1.
         21    1    1    2  505  503  0.49516374285E+02 -0.32919027202E+01 -0.16519435439E+03  0.17248734061E+03  0.00000000000E+00 0.  1.
          2    1    1    2  501    0  0.12043720909E+02  0.98366780215E+02 -0.27378782901E+04  0.27396712588E+04  0.00000000000E+00 0. -1.
<scales pt_clust_3="14000.00000" pt_clust_4="32.20644" pt_clust_5="48.47099" pt_clust_6="113.30367"></scales>
<clustering>
<clus scale="   32.206">  1  4  2 -1</clus>
<clus scale="   48.471">  2  5  1 -1</clus>
<clus scale="  113.304">  2  6  1 -1</clus>
<clus scale="   32.206">  1  3  2 -1</clus>
</clustering>
</event>
<event>
 6    0  0.2433432E+002  0.1554812E+03  0.7546771E-02  0.1193895E+00
         21   -1    0    0  505  502  0.00000000000E+00  0.00000000000E+00  0.91520777429E+02  0.91520777429E+02  0.00000000000E+00 0. -1.
          1   -1    0    0  502    0 -0.00000000000E+00 -0.00000000000E+00 -0.15637032450E+04  0.15637032450E+04  0.00000000000E+00 0.  1.
         21    1    1    2  503  504  0.27565056789E+02 -0.69498463094E+02 -0.30841717003E+03  0.31734999527E+03  0.00000000000E+00 0.  1.
         21    1    1    2  504  501 -0.21207862833E+02 -0.45575712097E+02 -0.43561914137E+03  0.43850992612E+03  0.00000000000E+00 0.  1.
         21    1    1    2  505  503  0.13061939556E+02  0.14193151115E+03  0.25665995036E+02  0.14482372535E+03  0.00000000000E+00 0. -1.
          1    1    1    2  501    0 -0.19419133512E+02 -0.26857335959E+02 -0.75381215120E+03  0.75454037568E+03  0.00000000000E+00 0.  1.
<scales pt_clust_3="60.59209" pt_clust_4="60.59209" pt_clust_5="140.43750" pt_clust_6="33.14241"></scales>
<clustering>
<clus scale="   33.142">  2  6  1 -1</clus>
<clus scale="   60.592">  3  4 -1 -1</clus>
<clus scale="  140.438">  1  5  2 -1</clus>
<clus scale="  140.438">  1  3  2 -1</clus>
</clustering>
</event>
<event>
 6    0  0.2433432E+002  0.8808641E+02  0.7546771E-02  0.1307553E+00
         21   -1    0    0  505  502  0.00000000000E+00  0.00000000000E+00  0.65668595591E+02  0.65668595591E+02  0.00000000000E+00 0.  1.
          2   -1    0    0  504    0 -0.00000000000E+00 -0.00000000000E+00 -0.84645475382E+03  0.84645475382E+03  0.00000000000E+00 0.  1.
         21    1    1    2  503  501  0.23736808052E+01 -0.94086608396E+02 -0.13084383071E+01  0.94125640773E+02  0.00000000000E+00 0.  1.
         21    1    1    2  504  502 -0.22830967803E+02  0.20489025940E+02 -0.14179355717E+02  0.33795079573E+02  0.00000000000E+00 0.  1.
         21    1    1    2  505  503  0.38614679449E+02 -0.12326499870E+02 -0.54090330598E+02  0.67592898534E+02  0.00000000000E+00 0.  1.
          2    1    1    2  501    0 -0.18157392451E+02  0.85924082326E+02 -0.71120803361E+03  0.71660973053E+03  0.00000000000E+00 0.  1.
<scales pt_clust_3="14000.00000" pt_clust_4="30.67659" pt_clust_5="37.18377" pt_clust_6="88.08641"></scales>
<clustering>
<clus scale="   30.677">  1  4  2 -1</clus>
<clus scale="   37.184">  1  5  2 -1</clus>
<clus scale="   88.086">  2  6  1 -1</clus>
<clus scale="   30.677">  1  3  2 -1</clus>
</clustering>
</event>
<event>
 6    0  0.2433432E+002  0.8630148E+02  0.7546771E-02  0.1312064E+00
         21   -1    0    0  505  502  0.00000000000E+00  0.00000000000E+00  0.39217667905E+03  0.39217667905E+03  0.00000000000E+00 0. -1.
          2   -1    0    0  503    0 -0.00000000000E+00 -0.00000000000E+00 -0.76626425901E+03  0.76626425901E+03  0.00000000000E+00 0. -1.
         21    1    1    2  503  504  0.89091284445E+02 -0.67042165327E+02  0.40678780033E+01  0.11157265134E+03  0.00000000000E+00 0. -1.
         21    1    1    2  504  502 -0.60858235653E+02 -0.25673762022E+02  0.11676591657E+03  0.13415344265E+03  0.00000000000E+00 0. -1.
         21    1    1    2  505  501  0.24397615637E+02  0.99690159349E+02  0.19520941131E+03  0.22054497452E+03  0.00000000000E+00 0. -1.
          2    1    1    2  501    0 -0.52630664429E+02 -0.69742319995E+01 -0.69013078584E+03  0.69216986955E+03  0.00000000000E+00 0. -1.
<scales pt_clust_3="86.30148" pt_clust_4="71.99661" pt_clust_5="14000.00000" pt_clust_6="53.09074"></scales>
<clustering>
<clus scale="   53.091">  2  6  1 -1</clus>
<clus scale="   71.997">  1  4  2 -1</clus>
<clus scale="   86.301">  2  3  1 -1</clus>
<clus scale="   71.997">  1  3  2 -1</clus>
</clustering>
</event>
<event>
 6    0  0.2433432E+002  0.4075506E+03  0.7546771E-02  0.1041196E+00
         -2   -1    0    0    0  501 -0.00000000000E+00  0.00000000000E+00  0.11074024313E+03  0.11074024313E+03  0.00000000000E+00 0. -1.
         21   -1    0    0  505  502  0.00000000000E+00 -0.00000000000E+00 -0.41120778348E+04  0.41120778348E+04  0.00000000000E+00 0. -1.
         21    1    1    2  503  501  0.11295409705E+03  0.29285454476E+02 -0.81997648434E+03  0.82823770788E+03  0.00000000000E+00 0. -1.
         21    1    1    2  504  502 -0.14691311721E+02  0.88568660912E+02 -0.49871972253E+03  0.50673622722E+03  0.00000000000E+00 0. -1.
         21    1    1    2  505  503  0.27837725288E+03 -0.15564133014E+03 -0.23852118103E+04  0.24064400051E+04  0.00000000000E+00 0. -1.
         -2    1    1    2    0  504 -0.37664003821E+03  0.37787214757E+02 -0.29742957459E+03  0.48140413773E+03  0.00000000000E+00 0. -1.
<scales pt_clust_3="87.24009" pt_clust_4="89.77885" pt_clust_5="87.24009" pt_clust_6="381.17658"></scales>
<clustering>
<clus scale="   87.240">  3  5 -1 -1</clus>
<clus scale="   89.779">  2  4  1 -1</clus>
<clus scale="  381.177">  1  6  2 -1</clus>
<clus scale="   89.779">  2  3  1 -1</clus>
</clustering>
</event>
<event>
 6    0  0.2433432E+002  0.1119026E+03  0.7546771E-02  0.1257087E+00
         21   -1    0    0  504  502  0.00000000000E+00  0.00000000000E+00  0.67262935491E+02  0.67262935491E+02  0.00000000000E+00 0. -1.
          3   -1    0    0  505    0 -0.00000000000E+00 -0.00000000000E+00 -0.47808723463E+03  0.47808723463E+03  0.00000000000E+00 0. -1.
         21    1    1    2  503  502 -0.59768946999E+02  0.27532730668E+02 -0.12049716068E+03  0.13729509829E+03  0.00000000000E+00 0.  1.
         21    1    1    2  504  501  0.13968647426E+02 -0.52487310441E+02  0.60714244189E+00  0.54317671987E+02  0.00000000000E+00 0. -1.
         21    1    1    2  505  503 -0.21318923517E+02  0.55201476464E+02 -0.27111320777E+03  0.27749607372E+03  0.00000000000E+00 0. -1.
          3    1    1    2  501    0  0.67119223091E+02 -0.30246896691E+02 -0.19821073126E+02  0.76241326114E+02  0.00000000000E+00 0. -1.
<scales pt_clust_3="96.25963" pt_clust_4="49.01411" pt_clust_5="59.17516" pt_clust_6="49.01411"></scales>
<clustering>
<clus scale="   49.014">  4  6 -1 -1</clus>
<clus scale="   59.175">  2  5  1 -1</clus>
<clus scale="   96.260">  2  3  1 -1</clus>
<clus scale="  111.903">  1  3  2 -1</clus>
</clustering>
</event>
<event>
 6    0  0.2433432E+002  0.7520703E+02  0.7546771E-02  0.1343231E+00
          2   -1    0    0  504    0 -0.00000000000E+00  0.00000000000E+00  0.38914249150E+04  0.38914249150E+04  0.00000000000E+00 0.  1.
         21   -1    0    0  503  502  0.00000000000E+00 -0.00000000000E+00 -0.12011917663E+02  0.12011917663E+02  0.00000000000E+00 0.  1.
         21    1    1    2  503  501 -0.33975196939E+02  0.57084220991E+02  0.21852105000E+03  0.22839520920E+03  0.00000000000E+00 0.  1.
         21    1    1    2  504  505 -0.44663650946E+02 -0.34287242976E+02  0.29125164789E+03  0.29664453332E+03  0.00000000000E+00 0.  1.
         21    1    1    2  505  502  0.94915685083E+02 -0.61092025010E+02  0.75184345342E+03  0.76026955828E+03  0.00000000000E+00 0.  1.
          2    1    1    2  501    0 -0.16276837198E+02  0.38295046995E+02  0.26177968460E+04  0.26181275319E+04  0.00000000000E+00 0.  1.
<scales pt_clust_3="14000.00000" pt_clust_4="54.70063" pt_clust_5="75.20703" pt_clust_6="41.61065"></scales>
<clustering>
<clus scale="   41.611">  1  6  2 -1</clus>
<clus scale="   54.701">  1  4  2 -1</clus>
<clus scale="   75.207">  1  5  2 -1</clus>
<clus scale="   75.207">  2  3  1 -1</clus>
</clustering>
</event>
<event>
 6    0  0.2433432E+002  0.9975243E+02  0.7546771E-02  0.1280817E+00
         21   -1    0    0  505  502  0.00000000000E+00  0.00000000000E+00  0.62504496343E+03  0.62504496343E+03  0.00000000000E+00 0.  1.
         -1   -1    0    0    0  501 -0.00000000000E+00 -0.00000000000E+00 -0.61413051992E+02  0.61413051992E+02  0.00000000000E+00 0. -1.
         21    1    1    2  503  502 -0.77892174578E+02  0.10715741831E+02  0.20680596438E+03  0.22124810708E+03  0.00000000000E+00 0.  1.
         21    1    1    2  504  501  0.29448482066E+02 -0.46927379082E+02  0.17261936855E+03  0.18129213552E+03  0.00000000000E+00 0.  1.
         21    1    1    2  505  504  0.60223435858E+02 -0.16717637848E+02  0.21337902994E+03  0.22234421976E+03  0.00000000000E+00 0. -1.
         -1    1    1    2    0  503 -0.11779743346E+02  0.52929275099E+02 -0.29172451422E+02  0.61573553071E+02  0.00000000000E+00 0. -1.
<scales pt_clust_3="90.08187" pt_clust_4="40.33978" pt_clust_5="40.33978" pt_clust_6="54.22426"></scales>
<clustering>
<clus scale="   40.340">  4  5 -1 -1</clus>
<clus scale="   54.224">  2  6  1 -1</clus>
<clus scale="   90.082">  1  3  2 -1</clus>
<clus scale="   90.082">  1  3  2 -1</clus>
</clustering>
</event>
<event>
 6    0  0.2433432E+002  0.1053758E+03  0.7546771E-02  0.1269381E+00
          2   -1    0    0  503    0 -0.00000000000E+00  0.00000000000E+00  0.42121687084E+04  0.42121687084E+04  0.00000000000E+00 0.  1.
         21   -1    0    0  505  502  0.00000000000E+00 -0.00000000000E+00 -0.19222306560E+03  0.19222306560E+03  0.00000000000E+00 0. -1.
         21    1    1    2  503  502  0.13972647416E+01 -0.52832901215E+02 -0.27722950270E+02  0.59681067108E+02  0.00000000000E+00 0. -1.
         21    1    1    2  504  501 -0.17303948477E+02  0.72610522310E+02  0.13492615397E+03  0.15419721661E+03  0.00000000000E+00 0.  1.
         21    1    1    2  505  504  0.79651462186E+02 -0.37150113395E+02 -0.12468372415E+03  0.15254677126E+03  0.00000000000E+00 0. -1.
          2    1    1    2  501    0 -0.63744778451E+02  0.17372492300E+02  0.40374261632E+04  0.40379667190E+04  0.00000000000E+00 0.  1.
<scales pt_clust_3="52.85137" pt_clust_4="105.37575" pt_clust_5="14000.00000" pt_clust_6="66.04199"></scales>
<clustering>
<clus scale="   52.851">  2  3  1 -1</clus>
<clus scale="   66.042">  1  6  2 -1</clus>
<clus scale="  105.376">  1  4  2 -1</clus>
<clus scale="   52.851">  2  3  1 -1</clus>
</clustering>
</event>
<event>
 6    0  0.2433432E+002  0.8075372E+02  0.7546771E-02  0.1326926E+00
         -2   -1    0    0    0  501 -0.00000000000E+00  0.00000000000E+00  0.30975223212E+03  0.30975223212E+03  0.00000000000E+00 0. -1.
         21   -1    0    0  505  502  0.00000000000E+00 -0.00000000000E+00 -0.18151469043E+04  0.18151469043E+04  0.00000000000E+00 0.  1.
         21    1    1    2  503  502  0.10079168046E+02 -0.76497511377E+02 -0.41310541832E+03  0.42024938492E+03  0.00000000000E+00 0.  1.
         21    1    1    2  504  501 -0.51886081080E+02 -0.81830662140E+01  0.99535634712E+01  0.53462149305E+02  0.00000000000E+00 0. -1.
         21    1    1    2  505  504 -0.86438982478E+02  0.52603305219E+02 -0.13588064003E+04  0.13625687649E+04  0.00000000000E+00 0.  1.
         -2    1    1    2    0  503  0.12824589551E+03  0.32077272371E+02  0.25656358302E+03  0.28861883731E+03  0.00000000000E+00 0. -1.
<scales pt_clust_3="77.17876" pt_clust_4="52.52740" pt_clust_5="80.75372" pt_clust_6="14000.00000"></scales>
<clustering>
<clus scale="   52.527">  1  4  2 -1</clus>
<clus scale="   77.179">  2  3  1 -1</clus>
<clus scale="   80.754">  2  5  1 -1</clus>
<clus scale="   77.179">  2  3  1 -1</clus>
</clustering>
</event>
<event>
 6    0  0.2433432E+002  0.1661320E+03  0.7546771E-02  0.1181943E+00
         21   -1    0    0  505  502  0.00000000000E+00  0.00000000000E+00  0.10894230297E+04  0.10894230297E+04  0.00000000000E+00 0. -1.
          3   -1    0    0  503    0 -0.00000000000E+00 -0.00000000000E+00 -0.22155799954E+03  0.22155799954E+03  0.00000000000E+00 0.  1.
         21    1    1    2  503  504  0.43980700168E+02 -0.54407165247E+02  0.48299713463E+03  0.48803757405E+03  0.00000000000E+00 0. -1.
         21    1    1    2  504  502  0.21774651996E+01 -0.42852983863E+02  0.43848457916E+03  0.44057898922E+03  0.00000000000E+00 0. -1.
         21    1    1    2  505  501 -0.41494109421E+02 -0.66070227007E+02  0.12052139339E+03  0.14357033913E+03  0.00000000000E+00 0.  1.
          3    1    1    2  501    0 -0.46640559461E+01  0.16333037612E+03 -0.17413807698E+03  0.23879412689E+03  0.00000000000E+00 0.  1.
<scales pt_clust_3="31.42431" pt_clust_4="31.42431" pt_clust_5="78.01946" pt_clust_6="161.21350"></scales>
<clustering>
<clus scale="   31.424">  3  4 -1 -1</clus>
<clus scale="   78.019">  1  5  2 -1</clus>
<clus scale="  161.213">  2  6  1 -1</clus>
<clus scale="   78.019">  1  3  2 -1</clus>
</clustering>
</event>
<event>
 6    0  0.2433432E+002  0.1768156E+03  0.7546771E-02  0.1170921E+00
         21   -1    0    0  505  502  0.00000000000E+00  0.00000000000E+00  0.45327014351E+03  0.45327014351E+03  0.00000000000E+00 0.  1.
         -1   -1    0    0    0  501 -0.00000000000E+00 -0.00000000000E+00 -0.54135583736E+03  0.54135583736E+03  0.00000000000E+00 0.  1.
         21    1    1    2  503  501 -0.44899902317E+02  0.50260754100E+01 -0.21464442704E+02  0.50019845689E+02  0.00000000000E+00 0.  1.
         21    1    1    2  504  502 -0.66755248082E+01 -0.18118051595E+03  0.38146609220E+03  0.42235923275E+03  0.00000000000E+00 0.  1.
         21    1    1    2  505  503 -0.54142628097E+02  0.10532229549E+03 -0.32208323009E+03  0.34316441717E+03  0.00000000000E+00 0.  1.
         -1    1    1    2    0  504  0.10571805522E+03  0.70832145045E+02 -0.12600411326E+03  0.17908248527E+03  0.00000000000E+00 0.  1.
<scales pt_clust_3="45.18033" pt_clust_4="176.81563" pt_clust_5="14000.00000" pt_clust_6="117.17485"></scales>
<clustering>
<clus scale="   45.180">  2  3  1 -1</clus>
<clus scale="  117.175">  2  6  1 -1</clus>
<clus scale="  176.816">  1  4  2 -1</clus>
<clus scale="  176.816">  1  3  2 -1</clus>
</clustering>
</event>
<event>
 6    0  0.2433432E+002  0.8590675E+02  0.7546771E-02  0.1313078E+00
          4   -1    0    0  504    0 -0.00000000000E+00  0.00000000000E+00  0.89164509592E+03  0.89164509592E+03  0.00000000000E+00 0.  1.
         21   -1    0    0  501  502  0.00000000000E+00 -0.00000000000E+00 -0.36115911260E+02  0.36115911260E+02  0.00000000000E+00 0. -1.
         21    1    1    2  503  502  0.12170527580E+02  0.95158184640E+02  0.96946731204E+02  0.13638867452E+03  0.00000000000E+00 0. -1.
         21    1    1    2  504  505  0.29989629782E+02 -0.53411480266E+02  0.15624890026E+03  0.16782694346E+03  0.00000000000E+00 0. -1.
         21    1    1    2  505  503 -0.71483080964E+02 -0.51386637711E+02  0.18297482004E+03  0.20305221537E+03  0.00000000000E+00 0. -1.
          4    1    1    2  501    0  0.29322923602E+02  0.96399333368E+01  0.41935873315E+03  0.42049317382E+03  0.00000000000E+00 0.  1.
<scales pt_clust_3="14000.00000" pt_clust_4="64.14828" pt_clust_5="85.90675" pt_clust_6="30.86685"></scales>
<clustering>
<clus scale="   30.867">  1  6  2 -1</clus>
<clus scale="   64.148">  1  4  2 -1</clus>
<clus scale="   85.907">  1  5  2 -1</clus>
<clus scale="   85.907">  2  3  1 -1</clus>
</clustering>
</event>
<event>
 6    0  0.2433432E+002  0.1111379E+03  0.7546771E-02  0.1258477E+00
         21   -1    0    0  503  502  0.00000000000E+00  0.00000000000E+00  0.92607296707E+02  0.92607296707E+02  0.00000000000E+00 0.  1.
          2   -1    0    0  504    0 -0.00000000000E+00 -0.00000000000E+00 -0.21974713902E+04  0.21974713902E+04  0.00000000000E+00 0. -1.
         21    1    1    2  503  501 -0.57926646273E+02 -0.63654404917E+00  0.64684079069E+02  0.86832779650E+02  0.00000000000E+00 0.  1.
         21    1    1    2  504  505  0.27381889591E+02 -0.22244873861E+02 -0.10902295801E+04  0.10908002290E+04  0.00000000000E+00 0. -1.
         21    1    1    2  505  502  0.36196476318E+02 -0.83680377095E+02 -0.89370386054E+03  0.89834246296E+03  0.00000000000E+00 0. -1.
          2    1    1    2  501    0 -0.56517196362E+01  0.10656179501E+03 -0.18561473192E+03  0.21410321529E+03  0.00000000000E+00 0. -1.
<scales pt_clust_3="57.65911" pt_clust_4="35.27892" pt_clust_5="111.13788" pt_clust_6="14000.00000"></scales>
<clustering>
<clus scale="   35.279">  2  4  1 -1</clus>
<clus scale="   57.659">  1  3  2 -1</clus>
<clus scale="  111.138">  2  5  1 -1</clus>
<clus scale="   57.659">  1  3  2 -1</clus>
</clustering>
</event>
<event>
 6    0  0.2433432E+002  0.1492016E+03  0.7546771E-02  0.1201458E+00
         21   -1    0    0  505  502  0.00000000000E+00  0.00000000000E+00  0.66815183685E+03  0.66815183685E+03  0.00000000000E+00 0. -1.
          1   -1    0    0  502    0 -0.00000000000E+00 -0.00000000000E+00 -0.45122275287E+03  0.45122275287E+03  0.00000000000E+00 0. -1.
         21    1    1    2  503  501  0.22364958566E+02  0.22506295071E+03  0.33088813290E+02  0.22857907323E+03  0.00000000000E+00 0. -1.
         21    1    1    2  504  503 -0.31865109855E+02 -0.80491290993E+02  0.37407923945E+03  0.38396550696E+03  0.00000000000E+00 0. -1.
         21    1    1    2  505  504  0.14796972120E+01 -0.52342908476E+02  0.14755964623E+03  0.15657528146E+03  0.00000000000E+00 0.  1.
          1    1    1    2  501    0  0.80204540768E+01 -0.92228751246E+02 -0.33779861498E+03  0.35025472805E+03  0.00000000000E+00 0. -1.
<scales pt_clust_3="144.05585" pt_clust_4="30.21212" pt_clust_5="30.21212" pt_clust_6="92.57683"></scales>
<clustering>
<clus scale="   30.212">  4  5 -1 -1</clus>
<clus scale="   92.577">  2  6  1 -1</clus>
<clus scale="  144.056">  2  3  1 -1</clus>
<clus scale="  149.202">  1  3  2 -1</clus>
</clustering>
</event>
<event>
 6    0  0.2433432E+002  0.9840154E+02  0.7546771E-02  0.1283694E+00
          2   -1    0    0  503    0 -0.00000000000E+00  0.00000000000E+00  0.75391876749E+03  0.75391876749E+03  0.00000000000E+00 0. -1.
         21   -1    0    0  501  502  0.00000000000E+00 -0.00000000000E+00 -0.25941589362E+03  0.25941589362E+03  0.00000000000E+00 0.  1.
         21    1    1    2  503  505 -0.33783217374E+02 -0.85949408010E+02  0.74891691508E+02  0.11890068112E+03  0.00000000000E+00 0. -1.
         21    1    1    2  504  502  0.21882582965E+02  0.41755256174E+02 -0.22363222486E+03  0.22854697734E+03  0.00000000000E+00 0.  1.
         21    1    1    2  505  504  0.23984982802E+02 -0.30495406174E+02  0.32891866461E+02  0.50863779618E+02  0.00000000000E+00 0. -1.
          2    1    1    2  501    0 -0.12084348394E+02  0.74689558010E+02  0.61035154076E+03  0.61502322303E+03  0.00000000000E+00 0. -1.
<scales pt_clust_3="38.60380" pt_clust_4="47.14180" pt_clust_5="38.60380" pt_clust_6="78.32999"></scales>
<clustering>
<clus scale="   38.604">  3  5 -1 -1</clus>
<clus scale="   47.142">  2  4  1 -1</clus>
<clus scale="   78.330">  1  6  2 -1</clus>
<clus scale="   47.142">  2  3  1 -1</clus>
</clustering>
</event>
<event>
 6    0  0.2433432E+002  0.8370712E+02  0.7546771E-02  0.1318849E+00
         21   -1    0    0  503  502  0.00000000000E+00  0.00000000000E+00  0.17121362445E+03  0.17121362445E+03  0.00000000000E+00 0.  1.
          2   -1    0    0  505    0 -0.00000000000E+00 -0.00000000000E+00 -0.63940232661E+03  0.63940232661E+03  0.00000000000E+00 0.  1.
         21    1    1    2  503  504 -0.69519440107E+02 -0.41609051449E+02 -0.76703907187E+02  0.11156950790E+03  0.00000000000E+00 0. -1.
         21    1    1    2  504  501  0.11723689802E+02 -0.55440478819E+02 -0.24516498347E+03  0.25162861664E+03  0.00000000000E+00 0. -1.
         21    1    1    2  505  502  0.54339704558E+02  0.64781631393E+02  0.13767929092E+03  0.16157057407E+03  0.00000000000E+00 0.  1.
          2    1    1    2  501    0  0.34560457468E+01  0.32267898875E+02 -0.28399910243E+03  0.28584725244E+03  0.00000000000E+00 0.  1.
<scales pt_clust_3="83.70712" pt_clust_4="35.74700" pt_clust_5="14000.00000" pt_clust_6="32.45245"></scales>
<clustering>
<clus scale="   32.452">  2  6  1 -1</clus>
<clus scale="   35.747">  2  4  1 -1</clus>
<clus scale="   83.707">  2  3  1 -1</clus>
<clus scale="   83.707">  1  3  2 -1</clus>
</clustering>
</event>
<event>
 6    0  0.2433432E+002  0.9942115E+02  0.7546771E-02  0.1281518E+00
          2   -1    0    0  504    0 -0.00000000000E+00  0.00000000000E+00  0.20805359034E+04  0.20805359034E+04  0.00000000000E+00 0. -1.
         21   -1    0    0  505  502  0.00000000000E+00 -0.00000000000E+00 -0.45016428714E+02  0.45016428714E+02  0.00000000000E+00 0.  1.
         21    1    1    2  503  501 -0.94092162686E+02  0.54411677676E+01  0.17754034505E+03  0.20100625738E+03  0.00000000000E+00 0.  1.
         21    1    1    2  504  502  0.82512104710E+02  0.22763337278E+02  0.66189185230E+02  0.10820085577E+03  0.00000000000E+00 0.  1.
         21    1    1    2  505  503 -0.28828046730E+02  0.71355792219E+02  0.12990283710E+03  0.15098825268E+03  0.00000000000E+00 0.  1.
          2    1    1    2  501    0  0.40408104706E+02 -0.99560297265E+02  0.16618871073E+04  0.16653569663E+04  0.00000000000E+00 0. -1.
<scales pt_clust_3="99.42115" pt_clust_4="92.76904" pt_clust_5="76.95911" pt_clust_6="14000.00000"></scales>
<clustering>
<clus scale="   76.959">  2  5  1 -1</clus>
<clus scale="   92.769">  2  4  1 -1</clus>
<clus scale="   99.421">  2  3  1 -1</clus>
<clus scale="   76.959">  2  3  1 -1</clus>
</clustering>
</event>
<event>
 6    0  0.2433432E+002  0.1685791E+03  0.7546771E-02  0.1179338E+00
         21   -1    0    0  503  502  0.00000000000E+00  0.00000000000E+00  0.39417567897E+02  0.39417567897E+02  0.00000000000E+00 0.  1.
          2   -1    0    0  505    0 -0.00000000000E+00 -0.00000000000E+00 -0.10678513766E+04  0.10678513766E+04  0.00000000000E+00 0.  1.
         21    1    1    2  503  501 -0.23690831971E+02  0.53807896994E+02 -0.70119531821E+02  0.91505704965E+02  0.00000000000E+00 0.  1.
         21    1    1    2  504  502 -0.10812652076E+02 -0.85190086268E+02 -0.37791295715E+03  0.38754672934E+03  0.00000000000E+00 0.  1.
         21    1    1    2  505  504 -0.23296773856E+02 -0.61820999301E+02 -0.46249541450E+03  0.46719009413E+03  0.00000000000E+00 0.  1.
          2    1    1    2  501    0  0.57800257903E+02  0.93203188575E+02 -0.11790590519E+03  0.16102641601E+03  0.00000000000E+00 0.  1.
<scales pt_clust_3="55.00186" pt_clust_4="155.84866" pt_clust_5="34.11841" pt_clust_6="55.00186"></scales>
<clustering>
<clus scale="   34.118">  4  5 -1 -1</clus>
<clus scale="   55.002">  3  6 -1 -1</clus>
<clus scale="  155.849">  2  4  1 -1</clus>
<clus scale="  168.579">  1  3  2 -1</clus>
</clustering>
</event>
<event>
 6    0  0.2433432E+002  0.8496202E+02  0.7546771E-02  0.1315532E+00
         21   -1    0    0  505  502  0.00000000000E+00  0.00000000000E+00  0.76807856135E+02  0.76807856135E+02  0.00000000000E+00 0.  1.
          1   -1    0    0  503    0 -0.00000000000E+00 -0.00000000000E+00 -0.46058728227E+03  0.46058728227E+03  0.00000000000E+00 0.  1.
         21    1    1    2  503  502  0.46210890863E+02 -0.68971236923E+01 -0.35057475177E+02  0.58412698237E+02  0.00000000000E+00 0.  1.
         21    1    1    2  504  501 -0.70777539095E+02 -0.90526513742E+01 -0.36258037267E+02  0.80037839824E+02  0.00000000000E+00 0.  1.
         21    1    1    2  505  504 -0.64272182076E+02  0.15460204427E+02  0.78212728093E+01  0.66566535272E+02  0.00000000000E+00 0.  1.
          1    1    1    2  501    0  0.88838830307E+02  0.48957063930E+00 -0.32028518650E+03  0.33237806508E+03  0.00000000000E+00 0.  1.
<scales pt_clust_3="46.72276" pt_clust_4="14000.00000" pt_clust_5="39.59585" pt_clust_6="84.96202"></scales>
<clustering>
<clus scale="   46.723">  1  3  2 -1</clus>
<clus scale="   39.596">  1  5  2 -1</clus>
<clus scale="   84.962">  2  6  1 -1</clus>
<clus scale="   46.723">  1  3  2 -1</clus>
</clustering>
</event>
<event>
 6    0  0.2433432E+002  0.7797991E+02  0.7546771E-02  0.1334884E+00
         -1   -1    0    0    0  501 -0.00000000000E+00  0.00000000000E+00  0.41414303671E+02  0.41414303671E+02  0.00000000000E+00 0. -1.
         21   -1    0    0  504  502  0.00000000000E+00 -0.00000000000E+00 -0.16643468908E+04  0.16643468908E+04  0.00000000000E+00 0. -1.
         21    1    1    2  503  502  0.12886131178E+02  0.72753881713E+02 -0.13233578921E+04  0.13254189112E+04  0.00000000000E+00 0. -1.
         21    1    1    2  504  505 -0.73002413018E+02 -0.77879058692E+01 -0.21024924352E+03  0.22269878353E+03  0.00000000000E+00 0. -1.
         21    1    1    2  505  501 -0.22837820432E+02 -0.29619409037E+02 -0.40399438042E+02  0.55054427868E+02  0.00000000000E+00 0. -1.
         -1    1    1    2    0  503  0.82954102273E+02 -0.35346566807E+02 -0.48926013489E+02  0.10258907186E+03  0.00000000000E+00 0. -1.
<scales pt_clust_3="72.88600" pt_clust_4="77.97991" pt_clust_5="37.40154" pt_clust_6="14000.00000"></scales>
<clustering>
<clus scale="   37.402">  1  5  2 -1</clus>
<clus scale="   72.886">  2  3  1 -1</clus>
<clus scale="   77.980">  2  4  1 -1</clus>
<clus scale="   72.886">  2  3  1 -1</clus>
</clustering>
</event>
<event>
 6    0  0.2433432E+002  0.9444651E+02  0.7546771E-02  0.1292428E+00
         21   -1    0    0  505  502  0.00000000000E+00  0.00000000000E+00  0.84250614913E+03  0.84250614913E+03  0.00000000000E+00 0. -1.
          1   -1    0    0  504    0 -0.00000000000E+00 -0.00000000000E+00 -0.10327635318E+04  0.10327635318E+04  0.00000000000E+00 0. -1.
         21    1    1    2  503  502  0.38175009500E+02  0.43568162069E+02  0.30152832175E+03  0.30704208981E+03  0.00000000000E+00 0. -1.
         21    1    1    2  504  503  0.92232774867E+02 -0.62713616044E+02  0.43924139843E+03  0.45318085627E+03  0.00000000000E+00 0. -1.
         21    1    1    2  505  501 -0.35955400043E+02  0.20426641492E+02  0.85059459969E+02  0.94578804207E+02  0.00000000000E+00 0.  1.
          1    1    1    2  501    0 -0.94452384324E+02 -0.12811875175E+01 -0.10160865628E+04  0.10204679306E+04  0.00000000000E+00 0. -1.
<scales pt_clust_3="56.96274" pt_clust_4="94.44651" pt_clust_5="41.35261" pt_clust_6="14000.00000"></scales>
<clustering>
<clus scale="   41.353">  1  5  2 -1</clus>
<clus scale="   56.963">  1  3  2 -1</clus>
<clus scale="   94.447">  1  4  2 -1</clus>
<clus scale="   41.353">  1  3  2 -1</clus>
</clustering>
</event>
<event>
 6    0  0.2433432E+002  0.1042644E+03  0.7546771E-02  0.1271576E+00
         21   -1    0    0  505  502  0.00000000000E+00  0.00000000000E+00  0.30307080940E+03  0.30307080940E+03  0.00000000000E+00 0.  1.
          2   -1    0    0  504    0 -0.00000000000E+00 -0.00000000000E+00 -0.35623306874E+03  0.35623306874E+03  0.00000000000E+00 0.  1.
         21    1    1    2  503  501  0.47089343793E+02  0.63268178781E+02 -0.79603977880E+02  0.11205829750E+03  0.00000000000E+00 0.  1.
         21    1    1    2  504  502 -0.27548898780E+02 -0.98557922466E+02  0.18554287776E+03  0.21189328774E+03  0.00000000000E+00 0.  1.
         21    1    1    2  505  503 -0.41333601613E+02  0.10637133072E+02  0.81772945906E+02  0.92241150819E+02  0.00000000000E+00 0.  1.
          2    1    1    2  501    0  0.21793156600E+02  0.24652610614E+02 -0.24087410512E+03  0.24311114208E+03  0.00000000000E+00 0.  1.
<scales pt_clust_3="104.26438" pt_clust_4="14000.00000" pt_clust_5="42.01637" pt_clust_6="32.90430"></scales>
<clustering>
<clus scale="   32.904">  2  6  1 -1</clus>
<clus scale="   42.016">  1  5  2 -1</clus>
<clus scale="  104.264">  2  3  1 -1</clus>
<clus scale="   42.016">  1  3  2 -1</clus>
</clustering>
</event>
<event>
 6    0  0.2433432E+002  0.8088404E+02  0.7546771E-02  0.1326561E+00
          2   -1    0    0  504    0 -0.00000000000E+00  0.00000000000E+00  0.13448629042E+04  0.13448629042E+04  0.00000000000E+00 0.  1.
         21   -1    0    0  505  502  0.00000000000E+00 -0.00000000000E+00 -0.76036395499E+02  0.76036395499E+02  0.00000000000E+00 0.  1.
         21    1    1    2  503  502  0.77963308299E+02  0.21984936026E+02 -0.35990071309E+02  0.88639156618E+02  0.00000000000E+00 0.  1.
         21    1    1    2  504  503  0.24471728137E+02 -0.50556570235E+02  0.10300510920E+03  0.11732384580E+03  0.00000000000E+00 0. -1.
         21    1    1    2  505  501 -0.81758568964E+02 -0.27827684085E+01  0.26425284218E+03  0.27662568933E+03  0.00000000000E+00 0.  1.
          2    1    1    2  501    0 -0.20676467472E+02  0.31354402618E+02  0.93755862859E+03  0.93831060791E+03  0.00000000000E+00 0.  1.
<scales pt_clust_3="14000.00000" pt_clust_4="46.10825" pt_clust_5="80.88404" pt_clust_6="37.55815"></scales>
<clustering>
<clus scale="   37.558">  1  6  2 -1</clus>
<clus scale="   46.108">  1  4  2 -1</clus>
<clus scale="   80.884">  1  5  2 -1</clus>
<clus scale="   80.884">  2  3  1 -1</clus>
</clustering>
</event>
<event>
 6    0  0.2433432E+002  0.7756309E+02  0.7546771E-02  0.1336113E+00
         21   -1    0    0  505  502  0.00000000000E+00  0.00000000000E+00  0.15867016002E+03  0.15867016002E+03  0.00000000000E+00 0.  1.
         -3   -1    0    0    0  501 -0.00000000000E+00 -0.00000000000E+00 -0.78512063225E+03  0.78512063225E+03  0.00000000000E+00 0.  1.
         21    1    1    2  503  504  0.81941194040E+02 -0.76984001394E+02 -0.25075918259E+02  0.11519417272E+03  0.00000000000E+00 0.  1.
         21    1    1    2  504  502 -0.61809778265E+02  0.15435992639E+02  0.84029229600E+02  0.10544965616E+03  0.00000000000E+00 0. -1.
         21    1    1    2  505  501  0.48048609505E+02  0.27784968368E+02 -0.29521053031E+02  0.62866254180E+02  0.00000000000E+00 0.  1.
         -3    1    1    2    0  503 -0.68180025281E+02  0.33763040387E+02 -0.65588273054E+03  0.66028070922E+03  0.00000000000E+00 0.  1.
<scales pt_clust_3="14000.00000" pt_clust_4="45.15990" pt_clust_5="55.50381" pt_clust_6="77.56309"></scales>
<clustering>
<clus scale="   55.504">  1  5  2 -1</clus>
<clus scale="   45.160">  1  4  2 -1</clus>
<clus scale="   77.563">  2  6  1 -1</clus>
<clus scale="   55.504">  1  3  2 -1</clus>
</clustering>
</event>
<event>
 6    0  0.2433432E+002  0.1101644E+03  0.7546771E-02  0.1260266E+00
         21   -1    0    0  504  502  0.00000000000E+00  0.00000000000E+00  0.28425792766E+03  0.28425792766E+03  0.00000000000E+00 0.  1.
          1   -1    0    0  503    0 -0.00000000000E+00 -0.00000000000E+00 -0.37012785011E+03  0.37012785011E+03  0.00000000000E+00 0.  1.
         21    1    1    2  503  505 -0.45289820241E+02  0.11493131706E+03  0.15553913518E+03  0.19862728421E+03  0.00000000000E+00 0.  1.
         21    1    1    2  504  501 -0.84543853707E+01 -0.70742197133E+02  0.46602879021E+02  0.85133797168E+02  0.00000000000E+00 0.  1.
         21    1    1    2  505  502 -0.41625455451E+02  0.12190958963E+02  0.16637935236E+02  0.46455558449E+02  0.00000000000E+00 0. -1.
          1    1    1    2  501    0  0.95369661062E+02 -0.56380078891E+02 -0.30464987189E+03  0.32416913793E+03  0.00000000000E+00 0.  1.
<scales pt_clust_3="110.16439" pt_clust_4="70.26824" pt_clust_5="43.37393" pt_clust_6="14000.00000"></scales>
<clustering>
<clus scale="   43.374">  1  5  2 -1</clus>
<clus scale="   70.268">  1  4  2 -1</clus>
<clus scale="  110.164">  1  3  2 -1</clus>
<clus scale="   43.374">  1  3  2 -1</clus>
</clustering>
</event>
<event>
 6    0  0.2433432E+002  0.1270658E+03  0.7546771E-02  0.1231876E+00
         21   -1    0    0  505  502  0.00000000000E+00  0.00000000000E+00  0.37167839214E+02  0.37167839214E+02  0.00000000000E+00 0.  1.
          2   -1    0    0  504    0 -0.00000000000E+00 -0.00000000000E+00 -0.13657952895E+04  0.13657952895E+04  0.00000000000E+00 0.  1.
         21    1    1    2  503  501  0.23981278097E+02  0.13730731247E+03 -0.40972322199E+03  0.43278345439E+03  0.00000000000E+00 0.  1.
         21    1    1    2  504  502 -0.17011607939E+02 -0.12469989079E+03 -0.25616033361E+03  0.28540773304E+03  0.00000000000E+00 0.  1.
         21    1    1    2  505  503  0.38985052813E+02  0.13423310625E+02 -0.32983805399E+02  0.52801051405E+02  0.00000000000E+00 0.  1.
          2    1    1    2  501    0 -0.45954722971E+02 -0.26030732303E+02 -0.62976008934E+03  0.63197088992E+03  0.00000000000E+00 0.  1.
<scales pt_clust_3="127.06581" pt_clust_4="14000.00000" pt_clust_5="41.23129" pt_clust_6="51.17219"></scales>
<clustering>
<clus scale="   41.231">  1  5  2 -1</clus>
<clus scale="   51.172">  2  6  1 -1</clus>
<clus scale="  127.066">  2  3  1 -1</clus>
<clus scale="   41.231">  1  3  2 -1</clus>
</clustering>
</event>
<event>
 6    0  0.2433432E+002  0.1850096E+03  0.7546771E-02  0.1163041E+00
          1   -1    0    0  503    0 -0.00000000000E+00  0.00000000000E+00  0.14756591207E+03  0.14756591207E+03  0.00000000000E+00 0.  1.
         21   -1    0    0  505  502  0.00000000000E+00 -0.00000000000E+00 -0.77445483611E+03  0.77445483611E+03  0.00000000000E+00 0.  1.
         21    1    1    2  503  502 -0.62385035165E+02 -0.94400622039E+02 -0.61263152857E+03  0.62299338669E+03  0.00000000000E+00 0.  1.
         21    1    1    2  504  501  0.49493849598E+02  0.10764584007E+03  0.46576674230E+01  0.11857049337E+03  0.00000000000E+00 0.  1.
         21    1    1    2  505  504 -0.16460384015E+02 -0.69973178036E+02 -0.68732071197E+02  0.99454952101E+02  0.00000000000E+00 0. -1.
          1    1    1    2  501    0  0.29351569582E+02  0.56727960004E+02  0.49817008308E+02  0.81001916026E+02  0.00000000000E+00 0.  1.
<scales pt_clust_3="174.93496" pt_clust_4="44.21459" pt_clust_5="71.88317" pt_clust_6="44.21459"></scales>
<clustering>
<clus scale="   44.215">  4  6 -1 -1</clus>
<clus scale="   71.883">  2  5  1 -1</clus>
<clus scale="  174.935">  2  3  1 -1</clus>
<clus scale="   71.883">  2  3  1 -1</clus>
</clustering>
</event>
<event>
 6    0  0.2433432E+002  0.6045761E+02  0.7546771E-02  0.1395921E+00
          2   -1    0    0  504    0 -0.00000000000E+00  0.00000000000E+00  0.97767978350E+03  0.97767978350E+03  0.00000000000E+00 0.  1.
         21   -1    0    0  505  502  0.00000000000E+00 -0.00000000000E+00 -0.12194590144E+04  0.12194590144E+04  0.00000000000E+00 0.  1.
         21    1    1    2  503  502  0.59037107731E+02 -0.10162512930E+02 -0.11494798906E+04  0.11510398236E+04  0.00000000000E+00 0.  1.
         21    1    1    2  504  503  0.40288599431E+02  0.36993860554E+02  0.61087555040E+01  0.55036659206E+02  0.00000000000E+00 0.  1.
         21    1    1    2  505  501 -0.10142671871E+03  0.20672588495E+02  0.16648466776E+02  0.10484229409E+03  0.00000000000E+00 0.  1.
          2    1    1    2  501    0  0.21010115470E+01 -0.47503936118E+02  0.88494343739E+03  0.88622002098E+03  0.00000000000E+00 0.  1.
<scales pt_clust_3="14000.00000" pt_clust_4="46.15557" pt_clust_5="60.45761" pt_clust_6="47.55038"></scales>
<clustering>
<clus scale="   47.550">  1  6  2 -1</clus>
<clus scale="   46.156">  1  4  2 -1</clus>
<clus scale="   60.458">  1  5  2 -1</clus>
<clus scale="   60.458">  2  3  1 -1</clus>
</clustering>
</event>
<event>
 6    0  0.2433432E+002  0.2102016E+03  0.7546771E-02  0.1141406E+00
         21   -1    0    0  503  502  0.00000000000E+00  0.00000000000E+00  0.27668366296E+03  0.27668366296E+03  0.00000000000E+00 0. -1.
          2   -1    0    0  504    0 -0.00000000000E+00 -0.00000000000E+00 -0.11527038074E+04  0.11527038074E+04  0.00000000000E+00 0. -1.
         21    1    1    2  503  501 -0.20415458697E+02 -0.27695170330E+03 -0.21510386811E+03  0.35126729280E+03  0.00000000000E+00 0. -1.
         21    1    1    2  504  505  0.79779024447E+02  0.13073599233E+03 -0.82761553809E+02  0.17408637862E+03  0.00000000000E+00 0. -1.
         21    1    1    2  505  502 -0.59427702710E+02  0.18983197076E+03  0.10126922044E+03  0.22321129895E+03  0.00000000000E+00 0. -1.
          2    1    1    2  501    0  0.64136960808E-01 -0.43616259790E+02 -0.67942394291E+03  0.68082249994E+03  0.00000000000E+00 0. -1.
<scales pt_clust_3="210.20161" pt_clust_4="143.18066" pt_clust_5="14000.00000" pt_clust_6="43.61631"></scales>
<clustering>
<clus scale="   43.616">  2  6  1 -1</clus>
<clus scale="  143.181">  2  4  1 -1</clus>
<clus scale="  210.202">  2  3  1 -1</clus>
<clus scale="  210.202">  1  3  2 -1</clus>
</clustering>
</event>
<event>
 6    0  0.2433432E+002  0.9291135E+02  0.7546771E-02  0.1295951E+00
         -2   -1    0    0    0  501 -0.00000000000E+00  0.00000000000E+00  0.45716925895E+03  0.45716925895E+03  0.00000000000E+00 0. -1.
         21   -1    0    0  503  502  0.00000000000E+00 -0.00000000000E+00 -0.13922650456E+03  0.13922650456E+03  0.00000000000E+00 0.  1.
         21    1    1    2  503  505 -0.13685164817E+02 -0.47250354281E+02 -0.33194167172E+02  0.59344186321E+02  0.00000000000E+00 0. -1.
         21    1    1    2  504  502  0.84817225365E+02 -0.16255571310E+02 -0.48646886045E+02  0.99119749995E+02  0.00000000000E+00 0.  1.
         21    1    1    2  505  501  0.34362591867E+02  0.28393656650E+02  0.35279763584E+02  0.56847596047E+02  0.00000000000E+00 0.  1.
         -2    1    1    2    0  504 -0.10549465241E+03  0.35112268941E+02  0.36450404403E+03  0.38108423115E+03  0.00000000000E+00 0. -1.
<scales pt_clust_3="48.02748" pt_clust_4="92.91135" pt_clust_5="44.57564" pt_clust_6="14000.00000"></scales>
<clustering>
<clus scale="   44.576">  1  5  2 -1</clus>
<clus scale="   48.027">  2  3  1 -1</clus>
<clus scale="   92.911">  2  4  1 -1</clus>
<clus scale="   48.027">  2  3  1 -1</clus>
</clustering>
</event>
<event>
 6    0  0.2613843E+002  0.2427839E+03  0.7546771E-02  0.1117952E+00
          2   -1    0    0  503    0 -0.00000000000E+00  0.00000000000E+00  0.12481941729E+04  0.12481941729E+04  0.00000000000E+00 0. -1.
         21   -1    0    0  505  502  0.00000000000E+00 -0.00000000000E+00 -0.57027198317E+03  0.57027198317E+03  0.00000000000E+00 0. -1.
         21    1    1    2  503  504 -0.14608833827E+02  0.48494857602E+02  0.38270592556E+02  0.63480764758E+02  0.00000000000E+00 0.  1.
         21    1    1    2  504  502 -0.14901063182E+03 -0.14652324839E+03 -0.50244408915E+03  0.54417211747E+03  0.00000000000E+00 0. -1.
         21    1    1    2  505  501 -0.20478791517E+02 -0.30659600496E+02 -0.90448828510E+01  0.37963165179E+02  0.00000000000E+00 0. -1.
          2    1    1    2  501    0  0.18409825716E+03  0.12868799128E+03  0.11511405692E+04  0.11728501086E+04  0.00000000000E+00 0. -1.
<scales pt_clust_3="50.11119" pt_clust_4="242.78393" pt_clust_5="36.86993" pt_clust_6="14000.00000"></scales>
<clustering>
<clus scale="   36.870">  2  5  1 -1</clus>
<clus scale="   50.111">  1  3  2 -1</clus>
<clus scale="  242.784">  2  4  1 -1</clus>
<clus scale="   36.870">  2  3  1 -1</clus>
</clustering>
</event>
<event>
 6    0  0.2433432E+002  0.1203421E+03  0.7546771E-02  0.1242534E+00
         21   -1    0    0  501  502  0.00000000000E+00  0.00000000000E+00  0.67400304775E+02  0.67400304775E+02  0.00000000000E+00 0.  1.
          2   -1    0    0  503    0 -0.00000000000E+00 -0.00000000000E+00 -0.29828034594E+04  0.29828034594E+04  0.00000000000E+00 0.  1.
         21    1    1    2  503  505 -0.41935344845E+02 -0.34231817712E+02 -0.10102833369E+02  0.55067755840E+02  0.00000000000E+00 0.  1.
         21    1    1    2  504  502  0.45432268640E+02  0.37893622020E+02 -0.61620314150E+02  0.85422952065E+02  0.00000000000E+00 0.  1.
         21    1    1    2  505  504 -0.11077169063E+03 -0.28266508083E+02 -0.70419332582E+02  0.13426930150E+03  0.00000000000E+00 0.  1.
          2    1    1    2  501    0  0.10727476683E+03  0.24604703774E+02 -0.27732606746E+04  0.27754437548E+04  0.00000000000E+00 0.  1.
<scales pt_clust_3="31.82700" pt_clust_4="59.16095" pt_clust_5="31.82700" pt_clust_6="111.09908"></scales>
<clustering>
<clus scale="   31.827">  3  5 -1 -1</clus>
<clus scale="   59.161">  1  4  2 -1</clus>
<clus scale="  111.099">  2  6  1 -1</clus>
<clus scale="   59.161">  1  3  2 -1</clus>
</clustering>
</event>
<event>
 6    0  0.2433432E+002  0.1278832E+03  0.7546771E-02  0.1230631E+00
          1   -1    0    0  505    0 -0.00000000000E+00  0.00000000000E+00  0.17613853916E+04  0.17613853916E+04  0.00000000000E+00 0.  1.
         21   -1    0    0  504  502  0.00000000000E+00 -0.00000000000E+00 -0.10064810892E+03  0.10064810892E+03  0.00000000000E+00 0.  1.
         21    1    1    2  503  502  0.16352408312E+02 -0.30820290745E+02  0.13805753065E+02  0.37521865584E+02  0.00000000000E+00 0.  1.
         21    1    1    2  504  501 -0.33035124134E+02 -0.84047097111E+01 -0.29505273033E+01  0.34214970163E+02  0.00000000000E+00 0. -1.
         21    1    1    2  505  503 -0.77292014097E+02  0.12521016250E+03  0.12179588937E+02  0.14764817175E+03  0.00000000000E+00 0.  1.
          1    1    1    2  501    0  0.93974729920E+02 -0.85985162039E+02  0.16377024680E+04  0.16426484930E+04  0.00000000000E+00 0.  1.
<scales pt_clust_3="34.06313" pt_clust_4="34.08751" pt_clust_5="127.88320" pt_clust_6="14000.00000"></scales>
<clustering>
<clus scale="   34.088">  2  4  1 -1</clus>
<clus scale="   34.063">  2  3  1 -1</clus>
<clus scale="  127.883">  2  5  1 -1</clus>
<clus scale="   34.088">  2  3  1 -1</clus>
</clustering>
</event>
<event>
 6    0  0.2433432E+002  0.1039736E+03  0.7546771E-02  0.1272155E+00
          2   -1    0    0  503    0 -0.00000000000E+00  0.00000000000E+00  0.96598530928E+03  0.96598530928E+03  0.00000000000E+00 0.  1.
         21   -1    0    0  505  502  0.00000000000E+00 -0.00000000000E+00 -0.98927494956E+03  0.98927494956E+03  0.00000000000E+00 0.  1.
         21    1    1    2  503  504  0.34327172629E+02  0.52021533217E+02 -0.12174462534E+03  0.13677115375E+03  0.00000000000E+00 0. -1.
         21    1    1    2  504  502  0.51551861229E+02 -0.11270524362E+02 -0.18726232483E+03  0.19455538393E+03  0.00000000000E+00 0. -1.
         21    1    1    2  505  501 -0.88846465761E+01  0.30556840842E+02 -0.66584356173E+03  0.66660355997E+03  0.00000000000E+00 0.  1.
          2    1    1    2  501    0 -0.76994387282E+02 -0.71307849697E+02  0.95156087163E+03  0.95733016119E+03  0.00000000000E+00 0.  1.
<scales pt_clust_3="14000.00000" pt_clust_4="46.79625" pt_clust_5="31.82228" pt_clust_6="103.97364"></scales>
<clustering>
<clus scale="   31.822">  2  5  1 -1</clus>
<clus scale="   46.796">  2  4  1 -1</clus>
<clus scale="  103.974">  1  6  2 -1</clus>
<clus scale="   31.822">  2  3  1 -1</clus>
</clustering>
</event>
<event>
 6    0  0.2433432E+002  0.1521079E+03  0.7546771E-02  0.1197907E+00
          1   -1    0    0  504    0 -0.00000000000E+00  0.00000000000E+00  0.12995942946E+04  0.12995942946E+04  0.00000000000E+00 0. -1.
         21   -1    0    0  505  502  0.00000000000E+00 -0.00000000000E+00 -0.74612646112E+02  0.74612646112E+02  0.00000000000E+00 0. -1.
         21    1    1    2  503  501  0.38483402515E+02 -0.92414021566E+02  0.12490448795E+03  0.16007015575E+03  0.00000000000E+00 0. -1.
         21    1    1    2  504  502 -0.13949535562E+03  0.13410536697E+03  0.16538326416E+03  0.25454828177E+03  0.00000000000E+00 0. -1.
         21    1    1    2  505  503 -0.45753741779E+02 -0.11858937817E+02  0.89362165392E+02  0.10109221482E+03  0.00000000000E+00 0. -1.
          1    1    1    2  501    0  0.14676569489E+03 -0.29832407588E+02  0.84533173101E+03  0.85849628840E+03  0.00000000000E+00 0. -1.
<scales pt_clust_3="99.13318" pt_clust_4="14000.00000" pt_clust_5="47.26562" pt_clust_6="152.10786"></scales>
<clustering>
<clus scale="   47.266">  2  5  1 -1</clus>
<clus scale="   99.133">  2  3  1 -1</clus>
<clus scale="  152.108">  1  6  2 -1</clus>
<clus scale="   47.266">  2  3  1 -1</clus>
</clustering>
</event>
<event>
 6    0  0.2433432E+002  0.1048818E+03  0.7546771E-02  0.1270353E+00
         21   -1    0    0  503  502  0.00000000000E+00  0.00000000000E+00  0.62840824236E+03  0.62840824236E+03  0.00000000000E+00 0. -1.
          2   -1    0    0  504    0 -0.00000000000E+00 -0.00000000000E+00 -0.37024282017E+03  0.37024282017E+03  0.00000000000E+00 0. -1.
         21    1    1    2  503  501  0.52127660289E+02 -0.49395512142E+02 -0.11227723363E+03  0.13327935616E+03  0.00000000000E+00 0. -1.
         21    1    1    2  504  505 -0.10323742655E+03  0.15480664508E+02  0.87907821846E+02  0.13647491475E+03  0.00000000000E+00 0. -1.
         21    1    1    2  505  502 -0.13503105832E+01  0.37658116727E+02  0.50190121817E+03  0.50331380857E+03  0.00000000000E+00 0. -1.
          2    1    1    2  501    0  0.52460076843E+02 -0.37432690935E+01 -0.21936638420E+03  0.22558298305E+03  0.00000000000E+00 0. -1.
<scales pt_clust_3="14000.00000" pt_clust_4="104.88183" pt_clust_5="37.68232" pt_clust_6="52.50212"></scales>
<clustering>
<clus scale="   37.682">  1  5  2 -1</clus>
<clus scale="   52.502">  2  6  1 -1</clus>
<clus scale="  104.882">  1  4  2 -1</clus>
<clus scale="   37.682">  1  3  2 -1</clus>
</clustering>
</event>
<event>
 6    0  0.2433432E+002  0.7339034E+02  0.7546771E-02  0.1348929E+00
          2   -1    0    0  505    0 -0.00000000000E+00  0.00000000000E+00  0.15873868553E+04  0.15873868553E+04  0.00000000000E+00 0.  1.
         21   -1    0    0  503  502  0.00000000000E+00 -0.00000000000E+00 -0.44247777659E+03  0.44247777659E+03  0.00000000000E+00 0.  1.
         21    1    1    2  503  501 -0.95424841756E+02 -0.83167878734E+01  0.66324255029E+03  0.67012368254E+03  0.00000000000E+00 0. -1.
         21    1    1    2  504  502  0.72837135473E+02 -0.81777948784E+01 -0.42953505520E+03  0.43574360383E+03  0.00000000000E+00 0.  1.
         21    1    1    2  505  504  0.20512427829E+02 -0.32200067581E+02  0.58202706763E+02  0.69607177232E+02  0.00000000000E+00 0.  1.
          2    1    1    2  501    0  0.20752784548E+01  0.48694650333E+02  0.85299887688E+03  0.85439016831E+03  0.00000000000E+00 0.  1.
<scales pt_clust_3="73.39034" pt_clust_4="14000.00000" pt_clust_5="38.17858" pt_clust_6="33.52049"></scales>
<clustering>
<clus scale="   38.179">  1  5  2 -1</clus>
<clus scale="   33.520">  1  6  2 -1</clus>
<clus scale="   73.390">  1  3  2 -1</clus>
<clus scale="   73.390">  2  3  1 -1</clus>
</clustering>
</event>
<event>
 6    0  0.2433432E+002  0.8947766E+02  0.7546771E-02  0.1304122E+00
         21   -1    0    0  505  502  0.00000000000E+00  0.00000000000E+00  0.47690048851E+02  0.47690048851E+02  0.00000000000E+00 0.  1.
          2   -1    0    0  504    0 -0.00000000000E+00 -0.00000000000E+00 -0.93050277254E+03  0.93050277254E+03  0.00000000000E+00 0. -1.
         21    1    1    2  503  502 -0.53415502806E+02  0.41833149113E+02 -0.68205045777E+02  0.96203724326E+02  0.00000000000E+00 0.  1.
         21    1    1    2  504  503 -0.31849545950E+02 -0.11266390022E+03 -0.12109826267E+03  0.16844090124E+03  0.00000000000E+00 0.  1.
         21    1    1    2  505  501  0.41966761029E+02 -0.40062361555E+01 -0.55442043061E+02  0.69649688428E+02  0.00000000000E+00 0.  1.
          2    1    1    2  501    0  0.43298287728E+02  0.74836987260E+02 -0.63806737218E+03  0.64389850740E+03  0.00000000000E+00 0. -1.
<scales pt_clust_3="56.14827" pt_clust_4="14000.00000" pt_clust_5="42.15755" pt_clust_6="89.47766"></scales>
<clustering>
<clus scale="   42.158">  1  5  2 -1</clus>
<clus scale="   56.148">  1  3  2 -1</clus>
<clus scale="   89.478">  2  6  1 -1</clus>
<clus scale="   42.158">  1  3  2 -1</clus>
</clustering>
</event>
<event>
 6    0  0.2433432E+002  0.1822590E+03  0.7546771E-02  0.1165635E+00
          2   -1    0    0  504    0 -0.00000000000E+00  0.00000000000E+00  0.75982005952E+02  0.75982005952E+02  0.00000000000E+00 0.  1.
         21   -1    0    0  505  502  0.00000000000E+00 -0.00000000000E+00 -0.88938299619E+03  0.88938299619E+03  0.00000000000E+00 0.  1.
         21    1    1    2  503  502  0.22300603854E+02 -0.22952786473E+02 -0.23788697656E+03  0.24002991680E+03  0.00000000000E+00 0.  1.
         21    1    1    2  504  503  0.11247268698E+03 -0.13512127724E+03 -0.34662130273E+03  0.38865690832E+03  0.00000000000E+00 0.  1.
         21    1    1    2  505  501 -0.15155235864E+03  0.10404871631E+03 -0.20476139884E+03  0.27517536813E+03  0.00000000000E+00 0.  1.
          2    1    1    2  501    0  0.16779067803E+02  0.54025347396E+02 -0.24131312111E+02  0.61502808893E+02  0.00000000000E+00 0.  1.
<scales pt_clust_3="32.00230" pt_clust_4="14000.00000" pt_clust_5="182.25900" pt_clust_6="55.59422"></scales>
<clustering>
<clus scale="   32.002">  2  3  1 -1</clus>
<clus scale="   55.594">  1  6  2 -1</clus>
<clus scale="  182.259">  1  5  2 -1</clus>
<clus scale="   32.002">  2  3  1 -1</clus>
</clustering>
</event>
<event>
 6    0  0.2433432E+002  0.9563384E+02  0.7546771E-02  0.1289755E+00
          1   -1    0    0  504    0 -0.00000000000E+00  0.00000000000E+00  0.50921225086E+03  0.50921225086E+03  0.00000000000E+00 0.  1.
         21   -1    0    0  503  502  0.00000000000E+00 -0.00000000000E+00 -0.18127292965E+04  0.18127292965E+04  0.00000000000E+00 0.  1.
         21    1    1    2  503  501 -0.29209977487E+02  0.10850708640E+03 -0.75783011990E+03  0.76611585365E+03  0.00000000000E+00 0.  1.
         21    1    1    2  504  505  0.37063328864E+02 -0.49273299840E+02 -0.63614139807E+02  0.88590672235E+02  0.00000000000E+00 0.  1.
         21    1    1    2  505  502 -0.63128386710E+02 -0.37830031840E+02 -0.97147382444E+03  0.97425751015E+03  0.00000000000E+00 0.  1.
          1    1    1    2  501    0  0.55275035333E+02 -0.21403754722E+02  0.48940103848E+03  0.49297751136E+03  0.00000000000E+00 0.  1.
<scales pt_clust_3="14000.00000" pt_clust_4="95.63384" pt_clust_5="70.87574" pt_clust_6="59.27436"></scales>
<clustering>
<clus scale="   59.274">  1  6  2 -1</clus>
<clus scale="   70.876">  2  5  1 -1</clus>
<clus scale="   95.634">  1  4  2 -1</clus>
<clus scale="   70.876">  2  3  1 -1</clus>
</clustering>
</event>
<event>
 6    0  0.2433432E+002  0.1195994E+03  0.7546771E-02  0.1243759E+00
         21   -1    0    0  501  502  0.00000000000E+00  0.00000000000E+00  0.18492775685E+03  0.18492775685E+03  0.00000000000E+00 0. -1.
          2   -1    0    0  504    0 -0.00000000000E+00 -0.00000000000E+00 -0.11803474930E+04  0.11803474930E+04  0.00000000000E+00 0.  1.
         21    1    1    2  503  502  0.12662597249E+02 -0.72894188723E+02  0.14715752437E+03  0.16470956590E+03  0.00000000000E+00 0. -1.
         21    1    1    2  504  505 -0.22069195000E+02  0.81542726239E+02 -0.16113115782E+03  0.18193272271E+03  0.00000000000E+00 0.  1.
         21    1    1    2  505  503 -0.45933679224E+02  0.83145229492E+02 -0.13297142789E+03  0.16341490969E+03  0.00000000000E+00 0. -1.
          2    1    1    2  501    0  0.55340276975E+02 -0.91793767007E+02 -0.84847467485E+03  0.85521805159E+03  0.00000000000E+00 0.  1.
<scales pt_clust_3="73.98584" pt_clust_4="30.14987" pt_clust_5="30.14987" pt_clust_6="115.24699"></scales>
<clustering>
<clus scale="   30.150">  4  5 -1 -1</clus>
<clus scale="   73.986">  1  3  2 -1</clus>
<clus scale="  115.247">  2  6  1 -1</clus>
<clus scale="   73.986">  1  3  2 -1</clus>
</clustering>
</event>
<event>
 6    0  0.2433432E+002  0.1141744E+03  0.7546771E-02  0.1253029E+00
          2   -1    0    0  505    0 -0.00000000000E+00  0.00000000000E+00  0.99281489635E+03  0.99281489635E+03  0.00000000000E+00 0. -1.
         21   -1    0    0  504  502  0.00000000000E+00 -0.00000000000E+00 -0.82557978301E+02  0.82557978301E+02  0.00000000000E+00 0.  1.
         21    1    1    2  503  501  0.11055580018E+02  0.45393041099E+02  0.10951630937E+03  0.11906542759E+03  0.00000000000E+00 0.  1.
         21    1    1    2  504  503 -0.11150963307E+03 -0.64093959841E+02 -0.12195037903E+02  0.12919424486E+03  0.00000000000E+00 0.  1.
         21    1    1    2  505  502  0.73680769230E+02 -0.55720406128E+01  0.20167579444E+03  0.21478600851E+03  0.00000000000E+00 0.  1.
          2    1    1    2  501    0  0.26773283823E+02  0.24272959354E+02  0.61125985214E+03  0.61232719368E+03  0.00000000000E+00 0. -1.
<scales pt_clust_3="56.02533" pt_clust_4="14000.00000" pt_clust_5="114.17441" pt_clust_6="36.13842"></scales>
<clustering>
<clus scale="   36.138">  1  6  2 -1</clus>
<clus scale="   56.025">  1  3  2 -1</clus>
<clus scale="  114.174">  1  5  2 -1</clus>
<clus scale="  114.174">  2  3  1 -1</clus>
</clustering>
</event>
<event>
 6    0  0.2433432E+002  0.9272538E+02  0.7546771E-02  0.1296383E+00
          2   -1    0    0  503    0 -0.00000000000E+00  0.00000000000E+00  0.83306324084E+03  0.83306324084E+03  0.00000000000E+00 0.  1.
         21   -1    0    0  505  502  0.00000000000E+00 -0.00000000000E+00 -0.72435383012E+02  0.72435383012E+02  0.00000000000E+00 0.  1.
         21    1    1    2  503  504  0.63725544256E+02 -0.43812154403E+02  0.22021584222E+03  0.23339980083E+03  0.00000000000E+00 0.  1.
         21    1    1    2  504  502  0.15481383674E+02  0.53190926284E+02 -0.25272628692E+02  0.60890505339E+02  0.00000000000E+00 0.  1.
         21    1    1    2  505  501  0.43350233364E+02  0.32944969875E+02  0.34569295171E+02  0.64495348215E+02  0.00000000000E+00 0.  1.
          2    1    1    2  501    0 -0.12255716129E+03 -0.42323741756E+02  0.53111534913E+03  0.54671296947E+03  0.00000000000E+00 0.  1.
<scales pt_clust_3="79.51135" pt_clust_4="14000.00000" pt_clust_5="54.44827" pt_clust_6="92.72538"></scales>
<clustering>
<clus scale="   54.448">  2  5  1 -1</clus>
<clus scale="   79.511">  1  3  2 -1</clus>
<clus scale="   92.725">  1  6  2 -1</clus>
<clus scale="   54.448">  2  3  1 -1</clus>
</clustering>
</event>
<event>
 6    0  0.2433432E+002  0.9715693E+02  0.7546771E-02  0.1286391E+00
         -1   -1    0    0    0  501 -0.00000000000E+00  0.00000000000E+00  0.37148308418E+02  0.37148308418E+02  0.00000000000E+00 0.  1.
         21   -1    0    0  503  502  0.00000000000E+00 -0.00000000000E+00 -0.14573317726E+04  0.14573317726E+04  0.00000000000E+00 0.  1.
         21    1    1    2  503  504  0.16216617202E+02  0.56955167512E+02 -0.10791329592E+04  0.10807565931E+04  0.00000000000E+00 0.  1.
         21    1    1    2  504  505 -0.19459678413E+02 -0.39768484234E+02 -0.17179581323E+03  0.17740916793E+03  0.00000000000E+00 0.  1.
         21    1    1    2  505  501 -0.37162762844E+02 -0.76128130459E+02 -0.12890022371E+03  0.15424600761E+03  0.00000000000E+00 0.  1.
         -1    1    1    2    0  502  0.40405824055E+02  0.58941447181E+02 -0.40354468015E+02  0.82068312412E+02  0.00000000000E+00 0.  1.
<scales pt_clust_3="59.21883" pt_clust_4="39.19139" pt_clust_5="39.19139" pt_clust_6="80.62597"></scales>
<clustering>
<clus scale="   39.191">  4  5 -1 -1</clus>
<clus scale="   59.219">  2  3  1 -1</clus>
<clus scale="   80.626">  1  6  2 -1</clus>
<clus scale="   59.219">  2  3  1 -1</clus>
</clustering>
</event>
<event>
 6    0  0.2433432E+002  0.7038055E+02  0.7546771E-02  0.1358804E+00
          1   -1    0    0  504    0 -0.00000000000E+00  0.00000000000E+00  0.12441794513E+04  0.12441794513E+04  0.00000000000E+00 0.  1.
         21   -1    0    0  505  502  0.00000000000E+00 -0.00000000000E+00 -0.47173822149E+02  0.47173822149E+02  0.00000000000E+00 0. -1.
         21    1    1    2  503  502 -0.37213432943E+02  0.58630949676E+02  0.89057067031E+02  0.11293178932E+03  0.00000000000E+00 0. -1.
         21    1    1    2  504  503  0.10406234250E+03  0.16155853253E+02  0.18449764867E+03  0.21243673196E+03  0.00000000000E+00 0. -1.
         21    1    1    2  505  501 -0.24915865525E+02 -0.61056291563E+02  0.31744487045E+02  0.73187318246E+02  0.00000000000E+00 0. -1.
          1    1    1    2  501    0 -0.41933044032E+02 -0.13730511367E+02  0.89170642645E+03  0.89279743397E+03  0.00000000000E+00 0.  1.
<scales pt_clust_3="14000.00000" pt_clust_4="70.07911" pt_clust_5="70.38055" pt_clust_6="44.12377"></scales>
<clustering>
<clus scale="   44.124">  1  6  2 -1</clus>
<clus scale="   70.381">  2  5  1 -1</clus>
<clus scale="   70.079">  1  4  2 -1</clus>
<clus scale="   70.381">  2  3  1 -1</clus>
</clustering>
</event>
<event>
 6    0  0.4833301E+002  0.8386142E+02  0.7546771E-02  0.1318437E+00
          1   -1    0    0  505    0 -0.00000000000E+00  0.00000000000E+00  0.39592705372E+04  0.39592705372E+04  0.00000000000E+00 0.  1.
         21   -1    0    0  503  502  0.00000000000E+00 -0.00000000000E+00 -0.48281394300E+03  0.48281394300E+03  0.00000000000E+00 0. -1.
         21    1    1    2  503  501 -0.56544920008E+01  0.30157700724E+02  0.12188268764E+02  0.33015361398E+02  0.00000000000E+00 0. -1.
         21    1    1    2  504  502  0.33758878031E+02 -0.81403430521E+02 -0.38279934339E+03  0.39281231861E+03  0.00000000000E+00 0. -1.
         21    1    1    2  505  504  0.54364113101E+02  0.34961403954E+02 -0.71731280590E+02  0.96556373041E+02  0.00000000000E+00 0. -1.
          1    1    1    2  501    0 -0.82468499131E+02  0.16284325843E+02  0.39187989494E+04  0.39197004272E+04  0.00000000000E+00 0.  1.
<scales pt_clust_3="30.68322" pt_clust_4="63.69135" pt_clust_5="14000.00000" pt_clust_6="83.86142"></scales>
<clustering>
<clus scale="   30.683">  2  3  1 -1</clus>
<clus scale="   63.691">  2  4  1 -1</clus>
<clus scale="   83.861">  1  6  2 -1</clus>
<clus scale="   30.683">  2  3  1 -1</clus>
</clustering>
</event>
<event>
 6    0  0.2433432E+002  0.1621374E+03  0.7546771E-02  0.1186305E+00
         21   -1    0    0  501  502  0.00000000000E+00  0.00000000000E+00  0.28686465297E+03  0.28686465297E+03  0.00000000000E+00 0. -1.
          2   -1    0    0  504    0 -0.00000000000E+00 -0.00000000000E+00 -0.28317786599E+03  0.28317786599E+03  0.00000000000E+00 0.  1.
         21    1    1    2  503  505  0.57255740363E+02 -0.14010587648E+03  0.74590953282E+02  0.16873555269E+03  0.00000000000E+00 0. -1.
         21    1    1    2  504  503  0.39977969354E+01 -0.36149266406E+02 -0.44738691768E+02  0.57656763550E+02  0.00000000000E+00 0. -1.
         21    1    1    2  505  502 -0.35684062052E+02 -0.14891287419E+02  0.10401875017E+03  0.11097298371E+03  0.00000000000E+00 0. -1.
          2    1    1    2  501    0 -0.25569475246E+02  0.19114643031E+03 -0.13018422471E+03  0.23267721901E+03  0.00000000000E+00 0.  1.
<scales pt_clust_3="14000.00000" pt_clust_4="36.36966" pt_clust_5="38.82345" pt_clust_6="162.13735"></scales>
<clustering>
<clus scale="   36.370">  2  4  1 -1</clus>
<clus scale="   38.823">  1  5  2 -1</clus>
<clus scale="  162.137">  2  6  1 -1</clus>
<clus scale="   38.823">  1  3  2 -1</clus>
</clustering>
</event>
<event>
 6    0  0.2433432E+002  0.1152518E+03  0.7546771E-02  0.1251142E+00
         21   -1    0    0  503  502  0.00000000000E+00  0.00000000000E+00  0.39976807401E+03  0.39976807401E+03  0.00000000000E+00 0. -1.
          1   -1    0    0  505    0 -0.00000000000E+00 -0.00000000000E+00 -0.51666471502E+03  0.51666471502E+03  0.00000000000E+00 0.  1.
         21    1    1    2  503  501  0.37978337277E+02 -0.13535921043E+02  0.27836930864E+03  0.28127397187E+03  0.00000000000E+00 0. -1.
         21    1    1    2  504  502 -0.38571219762E+02  0.12037592478E+03  0.42616166089E+02  0.13339505191E+03  0.00000000000E+00 0. -1.
         21    1    1    2  505  504 -0.68426369157E+02  0.39586081022E+02 -0.10328291467E+03  0.13006377770E+03  0.00000000000E+00 0.  1.
          1    1    1    2  501    0  0.69019251642E+02 -0.14642608476E+03 -0.33459920106E+03  0.37169998755E+03  0.00000000000E+00 0.  1.
<scales pt_clust_3="40.31842" pt_clust_4="115.25178" pt_clust_5="74.62990" pt_clust_6="14000.00000"></scales>
<clustering>
<clus scale="   40.318">  1  3  2 -1</clus>
<clus scale="   74.630">  2  5  1 -1</clus>
<clus scale="  115.252">  1  4  2 -1</clus>
<clus scale="   40.318">  1  3  2 -1</clus>
</clustering>
</event>
<event>
 6    0  0.2433432E+002  0.1235159E+03  0.7546771E-02  0.1237407E+00
         21   -1    0    0  505  502  0.00000000000E+00  0.00000000000E+00  0.29686289491E+03  0.29686289491E+03  0.00000000000E+00 0.  1.
          1   -1    0    0  503    0 -0.00000000000E+00 -0.00000000000E+00 -0.22699157642E+04  0.22699157642E+04  0.00000000000E+00 0. -1.
         21    1    1    2  503  502 -0.40708318381E+02 -0.95621567374E+01  0.18769905231E+03  0.19230064031E+03  0.00000000000E+00 0.  1.
         21    1    1    2  504  501  0.65990474994E+02 -0.76089106125E+02  0.22387293128E+02  0.10317696329E+03  0.00000000000E+00 0.  1.
         21    1    1    2  505  504  0.34264302199E+02 -0.64941711910E+01  0.35609060925E+02  0.49841969108E+02  0.00000000000E+00 0.  1.
          1    1    1    2  501    0 -0.59546458812E+02  0.92145434053E+02 -0.22187482756E+04  0.22214590864E+04  0.00000000000E+00 0. -1.
<scales pt_clust_3="41.81629" pt_clust_4="33.18367" pt_clust_5="33.18367" pt_clust_6="109.89078"></scales>
<clustering>
<clus scale="   33.184">  4  5 -1 -1</clus>
<clus scale="   41.816">  1  3  2 -1</clus>
<clus scale="  109.891">  2  6  1 -1</clus>
<clus scale="   41.816">  1  3  2 -1</clus>
</clustering>
</event>
<event>
 6    0  0.2433432E+002  0.1486866E+03  0.7546771E-02  0.1202096E+00
          1   -1    0    0  503    0 -0.00000000000E+00  0.00000000000E+00  0.17528622659E+04  0.17528622659E+04  0.00000000000E+00 0. -1.
         21   -1    0    0  505  502  0.00000000000E+00 -0.00000000000E+00 -0.37644547021E+03  0.37644547021E+03  0.00000000000E+00 0.  1.
         21    1    1    2  503  504 -0.90051135445E+01 -0.16807429802E+03 -0.20992701690E+03  0.26907139229E+03  0.00000000000E+00 0.  1.
         21    1    1    2  504  502  0.22752863585E+02  0.10528969846E+03 -0.32639560340E+02  0.11255644940E+03  0.00000000000E+00 0. -1.
         21    1    1    2  505  501 -0.71243338508E+02 -0.74184558746E+02 -0.17616946936E+02  0.10435189916E+03  0.00000000000E+00 0. -1.
          1    1    1    2  501    0  0.57495588468E+02  0.13696915831E+03  0.16366003199E+04  0.16433279953E+04  0.00000000000E+00 0. -1.
<scales pt_clust_3="14000.00000" pt_clust_4="88.44616" pt_clust_5="102.85408" pt_clust_6="148.68665"></scales>
<clustering>
<clus scale="  102.854">  2  5  1 -1</clus>
<clus scale="   88.446">  2  4  1 -1</clus>
<clus scale="  148.687">  1  6  2 -1</clus>
<clus scale="  102.854">  2  3  1 -1</clus>
</clustering>
</event>
<event>
 6    0  0.2433432E+002  0.6671451E+02  0.7546771E-02  0.1371636E+00
         21   -1    0    0  505  502  0.00000000000E+00  0.00000000000E+00  0.84069840197E+02  0.84069840197E+02  0.00000000000E+00 0. -1.
         -1   -1    0    0    0  501 -0.00000000000E+00 -0.00000000000E+00 -0.29161631542E+04  0.29161631542E+04  0.00000000000E+00 0.  1.
         21    1    1    2  503  504 -0.57034734429E+01  0.82419111825E+02 -0.51300842138E+02  0.97248218531E+02  0.00000000000E+00 0. -1.
         21    1    1    2  504  502  0.53368471352E+01 -0.63561542765E+02  0.25916946893E+02  0.68849399360E+02  0.00000000000E+00 0. -1.
         21    1    1    2  505  501  0.43257130191E+02  0.20975775245E+02 -0.29699467163E+02  0.56508590579E+02  0.00000000000E+00 0. -1.
         -1    1    1    2    0  503 -0.42890503883E+02 -0.39833344305E+02 -0.27770099516E+04  0.27776267859E+04  0.00000000000E+00 0.  1.
<scales pt_clust_3="14000.00000" pt_clust_4="66.71451" pt_clust_5="48.07455" pt_clust_6="58.33392"></scales>
<clustering>
<clus scale="   48.075">  1  5  2 -1</clus>
<clus scale="   58.334">  2  6  1 -1</clus>
<clus scale="   66.715">  1  4  2 -1</clus>
<clus scale="   48.075">  1  3  2 -1</clus>
</clustering>
</event>
<event>
 6    0  0.2433432E+002  0.1443781E+03  0.7546771E-02  0.1207556E+00
         21   -1    0    0  504  502  0.00000000000E+00  0.00000000000E+00  0.19871449365E+02  0.19871449365E+02  0.00000000000E+00 0.  1.
          2   -1    0    0  503    0 -0.00000000000E+00 -0.00000000000E+00 -0.30066472179E+04  0.30066472179E+04  0.00000000000E+00 0. -1.
         21    1    1    2  503  505 -0.11379964791E+03 -0.17841942190E+02 -0.33093273926E+03  0.35040715273E+03  0.00000000000E+00 0.  1.
         21    1    1    2  504  501  0.24897028836E+02  0.38934234734E+02 -0.10063332157E+03  0.11073753695E+03  0.00000000000E+00 0. -1.
         21    1    1    2  505  502 -0.35712143180E+02  0.24824448084E+02 -0.14196650686E+03  0.14847928967E+03  0.00000000000E+00 0.  1.
          2    1    1    2  501    0  0.12461476226E+03 -0.45916740627E+02 -0.24132432009E+04  0.24168946880E+04  0.00000000000E+00 0. -1.
<scales pt_clust_3="32.81210" pt_clust_4="46.21403" pt_clust_5="32.81210" pt_clust_6="134.14012"></scales>
<clustering>
<clus scale="   32.812">  3  5 -1 -1</clus>
<clus scale="   46.214">  1  4  2 -1</clus>
<clus scale="  134.140">  2  6  1 -1</clus>
<clus scale="   46.214">  1  3  2 -1</clus>
</clustering>
</event>
<event>
 6    0  0.2433432E+002  0.1182851E+03  0.7546771E-02  0.1245953E+00
          2   -1    0    0  503    0 -0.00000000000E+00  0.00000000000E+00  0.41386504894E+03  0.41386504894E+03  0.00000000000E+00 0. -1.
         21   -1    0    0  505  502  0.00000000000E+00 -0.00000000000E+00 -0.90166887008E+03  0.90166887008E+03  0.00000000000E+00 0.  1.
         21    1    1    2  503  504 -0.99345266044E+01  0.47352238438E+02 -0.43329032305E+01  0.48576777933E+02  0.00000000000E+00 0.  1.
         21    1    1    2  504  502  0.22604816943E+02 -0.89969029186E+02 -0.27152901297E+03  0.28693798780E+03  0.00000000000E+00 0.  1.
         21    1    1    2  505  501 -0.10784333260E+03  0.29844822267E+01 -0.58403094509E+03  0.59391180855E+03  0.00000000000E+00 0.  1.
          2    1    1    2  501    0  0.95173042266E+02  0.39632308521E+02  0.37208904015E+03  0.38610734473E+03  0.00000000000E+00 0. -1.
<scales pt_clust_3="48.38315" pt_clust_4="91.81450" pt_clust_5="14000.00000" pt_clust_6="118.28506"></scales>
<clustering>
<clus scale="   48.383">  1  3  2 -1</clus>
<clus scale="   91.815">  2  4  1 -1</clus>
<clus scale="  118.285">  1  6  2 -1</clus>
<clus scale="   91.815">  2  3  1 -1</clus>
</clustering>
</event>
<event>
 6    0  0.2433432E+002  0.1461995E+03  0.7546771E-02  0.1205222E+00
         21   -1    0    0  504  502  0.00000000000E+00  0.00000000000E+00  0.14457370968E+03  0.14457370968E+03  0.00000000000E+00 0. -1.
          2   -1    0    0  503    0 -0.00000000000E+00 -0.00000000000E+00 -0.19978797603E+04  0.19978797603E+04  0.00000000000E+00 0. -1.
         21    1    1    2  503  505 -0.28075910538E+02 -0.76155484897E+02 -0.20636722317E+03  0.22175514748E+03  0.00000000000E+00 0. -1.
         21    1    1    2  504  501  0.80033261748E+02  0.10784860416E+03  0.83725869928E+02  0.15826138411E+03  0.00000000000E+00 0. -1.
         21    1    1    2  505  502 -0.44520318140E+02 -0.85073519246E+02 -0.13393174036E+03  0.16479464033E+03  0.00000000000E+00 0. -1.
          2    1    1    2  501    0 -0.74370330697E+01  0.53380399985E+02 -0.15967329570E+04  0.15976422981E+04  0.00000000000E+00 0. -1.
<scales pt_clust_3="44.59235" pt_clust_4="137.92010" pt_clust_5="44.59235" pt_clust_6="53.89598"></scales>
<clustering>
<clus scale="   44.592">  3  5 -1 -1</clus>
<clus scale="   53.896">  2  6  1 -1</clus>
<clus scale="  137.920">  1  4  2 -1</clus>
<clus scale="  137.920">  1  3  2 -1</clus>
</clustering>
</event>
<event>
 6    0  0.2433432E+002  0.6068407E+03  0.7546771E-02  0.9891314E-01
         21   -1    0    0  504  502  0.00000000000E+00  0.00000000000E+00  0.14661185154E+04  0.14661185154E+04  0.00000000000E+00 0. -1.
          2   -1    0    0  505    0 -0.00000000000E+00 -0.00000000000E+00 -0.82887375779E+03  0.82887375779E+03  0.00000000000E+00 0.  1.
         21    1    1    2  503  502  0.55884781121E+03  0.23625533315E+03  0.11842832915E+04  0.13306593753E+04  0.00000000000E+00 0. -1.
         21    1    1    2  504  501 -0.56701391307E+02 -0.11269522511E+02  0.27034554333E+01  0.57873643268E+02  0.00000000000E+00 0. -1.
         21    1    1    2  505  503 -0.78377602871E+02 -0.26767137175E+03 -0.12734031787E+03  0.30660490610E+03  0.00000000000E+00 0.  1.
          2    1    1    2  501    0 -0.42376881703E+03  0.42685561113E+02 -0.42240167144E+03  0.59985434853E+03  0.00000000000E+00 0.  1.
<scales pt_clust_3="586.20368" pt_clust_4="57.80893" pt_clust_5="278.91040" pt_clust_6="57.80893"></scales>
<clustering>
<clus scale="   57.809">  4  6 -1 -1</clus>
<clus scale="  278.910">  2  5  1 -1</clus>
<clus scale="  586.204">  1  3  2 -1</clus>
<clus scale="  586.204">  1  3  2 -1</clus>
</clustering>
</event>
<event>
 6    0  0.2433432E+002  0.2421319E+03  0.7546771E-02  0.1118381E+00
         21   -1    0    0  504  502  0.00000000000E+00  0.00000000000E+00  0.14637122647E+03  0.14637122647E+03  0.00000000000E+00 0. -1.
          2   -1    0    0  505    0 -0.00000000000E+00 -0.00000000000E+00 -0.19644026498E+04  0.19644026498E+04  0.00000000000E+00 0.  1.
         21    1    1    2  503  501  0.20359513651E+03  0.17362462911E+02 -0.78019849224E+03  0.80651231982E+03  0.00000000000E+00 0.  1.
         21    1    1    2  504  503 -0.26347415652E+02  0.42022433859E+02  0.26299157506E+01  0.49668780092E+02  0.00000000000E+00 0. -1.
         21    1    1    2  505  502 -0.22711687511E+03 -0.54377352943E+02 -0.21638227174E+02  0.23453610457E+03  0.00000000000E+00 0. -1.
          2    1    1    2  501    0  0.49869154248E+02 -0.50075438272E+01 -0.10188246196E+04  0.10200566718E+04  0.00000000000E+00 0.  1.
<scales pt_clust_3="242.13187" pt_clust_4="49.59911" pt_clust_5="14000.00000" pt_clust_6="49.96450"></scales>
<clustering>
<clus scale="   49.599">  1  4  2 -1</clus>
<clus scale="   49.964">  2  6  1 -1</clus>
<clus scale="  242.132">  2  3  1 -1</clus>
<clus scale="   49.599">  1  3  2 -1</clus>
</clustering>
</event>
<event>
 6    0  0.2433432E+002  0.9778935E+02  0.7546771E-02  0.1285015E+00
          2   -1    0    0  505    0 -0.00000000000E+00  0.00000000000E+00  0.23870487121E+04  0.23870487121E+04  0.00000000000E+00 0. -1.
         21   -1    0    0  503  502  0.00000000000E+00 -0.00000000000E+00 -0.46267910817E+02  0.46267910817E+02  0.00000000000E+00 0.  1.
         21    1    1    2  503  504 -0.33037771811E+02  0.17264094681E+02  0.43001028040E+02  0.56908977709E+02  0.00000000000E+00 0.  1.
         21    1    1    2  504  501 -0.85850506922E+02 -0.12406641283E+02  0.19318589487E+02  0.88867554183E+02  0.00000000000E+00 0.  1.
         21    1    1    2  505  502  0.23526816457E+02 -0.28093970386E+02  0.94223331976E+02  0.10109806404E+03  0.00000000000E+00 0.  1.
          2    1    1    2  501    0  0.95361462275E+02  0.23236516988E+02  0.21842378518E+04  0.21864420270E+04  0.00000000000E+00 0. -1.
<scales pt_clust_3="31.85983" pt_clust_4="14000.00000" pt_clust_5="36.64399" pt_clust_6="97.78935"></scales>
<clustering>
<clus scale="   36.644">  2  5  1 -1</clus>
<clus scale="   31.860">  2  3  1 -1</clus>
<clus scale="   97.789">  1  6  2 -1</clus>
<clus scale="   36.644">  2  3  1 -1</clus>
</clustering>
</event>
<event>
 6    0  0.2433432E+002  0.2314298E+03  0.7546771E-02  0.1125637E+00
         21   -1    0    0  501  502  0.00000000000E+00  0.00000000000E+00  0.32172193004E+03  0.32172193004E+03  0.00000000000E+00 0. -1.
          1   -1    0    0  503    0 -0.00000000000E+00 -0.00000000000E+00 -0.11130122217E+04  0.11130122217E+04  0.00000000000E+00 0.  1.
         21    1    1    2  503  504 -0.24696653117E+02 -0.27606369089E+02 -0.38554334254E+02  0.53464689087E+02  0.00000000000E+00 0.  1.
         21    1    1    2  504  505  0.21992555873E+02 -0.83798160539E+02  0.43094075396E+02  0.96762097734E+02  0.00000000000E+00 0.  1.
         21    1    1    2  505  502  0.20567043498E+02 -0.12498339288E+03  0.21320849134E+03  0.24799538817E+03  0.00000000000E+00 0. -1.
          1    1    1    2  501    0 -0.17862946254E+02  0.23638792251E+03 -0.10090385241E+04  0.10365119767E+04  0.00000000000E+00 0.  1.
<scales pt_clust_3="37.04101" pt_clust_4="72.98851" pt_clust_5="72.98851" pt_clust_6="213.99554"></scales>
<clustering>
<clus scale="   37.041">  2  3  1 -1</clus>
<clus scale="   72.989">  4  5 -1 -1</clus>
<clus scale="  213.996">  2  6  1 -1</clus>
<clus scale="  231.430">  1  3  2 -1</clus>
</clustering>
</event>
<event>
 6    0  0.2433432E+002  0.1208496E+03  0.7546771E-02  0.1241702E+00
         21   -1    0    0  505  502  0.00000000000E+00  0.00000000000E+00  0.33683557953E+03  0.33683557953E+03  0.00000000000E+00 0. -1.
          2   -1    0    0  503    0 -0.00000000000E+00 -0.00000000000E+00 -0.10863178741E+04  0.10863178741E+04  0.00000000000E+00 0.  1.
         21    1    1    2  503  502  0.64664902703E+02 -0.19102174238E+02  0.27713743502E+03  0.28522201982E+03  0.00000000000E+00 0. -1.
         21    1    1    2  504  501 -0.95102077486E+02  0.30381564710E+02 -0.30682375100E+03  0.32265811441E+03  0.00000000000E+00 0. -1.
         21    1    1    2  505  504  0.80575573894E+02  0.79679264461E+01  0.11699061194E+02  0.81809406507E+02  0.00000000000E+00 0. -1.
          2    1    1    2  501    0 -0.50138399111E+02 -0.19247316918E+02 -0.73149503977E+03  0.73346391287E+03  0.00000000000E+00 0.  1.
<scales pt_clust_3="66.94133" pt_clust_4="14000.00000" pt_clust_5="120.84957" pt_clust_6="53.70585"></scales>
<clustering>
<clus scale="   53.706">  2  6  1 -1</clus>
<clus scale="   66.941">  1  3  2 -1</clus>
<clus scale="  120.850">  1  5  2 -1</clus>
<clus scale="   66.941">  1  3  2 -1</clus>
</clustering>
</event>
<event>
 6    0  0.2433432E+002  0.7584212E+02  0.7546771E-02  0.1341283E+00
          2   -1    0    0  504    0 -0.00000000000E+00  0.00000000000E+00  0.15898526867E+04  0.15898526867E+04  0.00000000000E+00 0.  1.
         21   -1    0    0  501  502  0.00000000000E+00 -0.00000000000E+00 -0.45456634629E+02  0.45456634629E+02  0.00000000000E+00 0.  1.
         21    1    1    2  503  505 -0.92888124172E+02 -0.45067641621E+02  0.42297420382E+03  0.43539232083E+03  0.00000000000E+00 0.  1.
         21    1    1    2  504  503 -0.28555229502E+02  0.26565077769E+02  0.33745603420E+03  0.33970233956E+03  0.00000000000E+00 0.  1.
         21    1    1    2  505  502  0.72872802047E+02  0.11913101193E+02 -0.87443364896E+00  0.73845324107E+02  0.00000000000E+00 0.  1.
          2    1    1    2  501    0  0.48570551627E+02  0.65894626590E+01  0.78484024771E+03  0.78636933685E+03  0.00000000000E+00 0.  1.
<scales pt_clust_3="14000.00000" pt_clust_4="39.00134" pt_clust_5="75.84212" pt_clust_6="38.47545"></scales>
<clustering>
<clus scale="   39.001">  1  4  2 -1</clus>
<clus scale="   38.475">  1  6  2 -1</clus>
<clus scale="   75.842">  2  5  1 -1</clus>
<clus scale="   75.842">  2  3  1 -1</clus>
</clustering>
</event>
<event>
 6    0  0.2433432E+002  0.1128972E+03  0.7546771E-02  0.1255297E+00
         21   -1    0    0  504  502  0.00000000000E+00  0.00000000000E+00  0.36674851476E+03  0.36674851476E+03  0.00000000000E+00 0.  1.
          2   -1    0    0  503    0 -0.00000000000E+00 -0.00000000000E+00 -0.27146800994E+04  0.27146800994E+04  0.00000000000E+00 0.  1.
         21    1    1    2  503  502 -0.57887523935E+02 -0.48503445083E+02 -0.28175126919E+03  0.29169732139E+03  0.00000000000E+00 0. -1.
         21    1    1    2  504  505  0.10758428944E+02  0.51992517887E+02  0.28321740617E+03  0.28815111464E+03  0.00000000000E+00 0.  1.
         21    1    1    2  505  501  0.10833201602E+03 -0.16111562565E+02  0.36057676220E+02  0.11530639252E+03  0.00000000000E+00 0.  1.
          2    1    1    2  501    0 -0.61202921025E+02  0.12622489761E+02 -0.23854553979E+04  0.23862737856E+04  0.00000000000E+00 0.  1.
<scales pt_clust_3="112.89716" pt_clust_4="53.09393" pt_clust_5="14000.00000" pt_clust_6="62.49140"></scales>
<clustering>
<clus scale="   53.094">  1  4  2 -1</clus>
<clus scale="   62.491">  2  6  1 -1</clus>
<clus scale="  112.897">  2  3  1 -1</clus>
<clus scale="   53.094">  1  3  2 -1</clus>
</clustering>
</event>
<event>
 6    0  0.2433432E+002  0.1516146E+03  0.7546771E-02  0.1198503E+00
         21   -1    0    0  503  502  0.00000000000E+00  0.00000000000E+00  0.48028128151E+03  0.48028128151E+03  0.00000000000E+00 0. -1.
          2   -1    0    0  504    0 -0.00000000000E+00 -0.00000000000E+00 -0.22030136913E+04  0.22030136913E+04  0.00000000000E+00 0.  1.
         21    1    1    2  503  501 -0.47073163396E+02 -0.93574158651E+02 -0.38673562009E+02  0.11165863280E+03  0.00000000000E+00 0. -1.
         21    1    1    2  504  505 -0.71109630628E+02 -0.39927761246E+02 -0.12428551573E+03  0.14865293507E+03  0.00000000000E+00 0. -1.
         21    1    1    2  505  502  0.31590881336E+02  0.42438228976E+01  0.42797263354E+03  0.42915797660E+03  0.00000000000E+00 0. -1.
          2    1    1    2  501    0  0.86591912688E+02  0.12925809700E+03 -0.19877459656E+04  0.19938254284E+04  0.00000000000E+00 0.  1.
<scales pt_clust_3="14000.00000" pt_clust_4="74.62503" pt_clust_5="31.87466" pt_clust_6="151.61465"></scales>
<clustering>
<clus scale="   31.875">  1  5  2 -1</clus>
<clus scale="   74.625">  1  4  2 -1</clus>
<clus scale="  151.615">  2  6  1 -1</clus>
<clus scale="   31.875">  1  3  2 -1</clus>
</clustering>
</event>
<event>
 6    0  0.2433432E+002  0.8093059E+02  0.7546771E-02  0.1326431E+00
          2   -1    0    0  502    0 -0.00000000000E+00  0.00000000000E+00  0.71409207734E+03  0.71409207734E+03  0.00000000000E+00 0.  1.
         21   -1    0    0  503  502  0.00000000000E+00 -0.00000000000E+00 -0.35472033613E+03  0.35472033613E+03  0.00000000000E+00 0.  1.
         21    1    1    2  503  504 -0.33637256722E+00 -0.33544905623E+02 -0.17001056731E+03  0.17328868064E+03  0.00000000000E+00 0.  1.
         21    1    1    2  504  505  0.74383715658E+02 -0.21385776235E+02 -0.11049904028E+03  0.13490858565E+03  0.00000000000E+00 0.  1.
         21    1    1    2  505  501 -0.86088081001E+02 -0.14770866462E+02 -0.25885726836E+02  0.91101081445E+02  0.00000000000E+00 0.  1.
          2    1    1    2  501    0  0.12040737911E+02  0.69701548320E+02  0.66576707564E+03  0.66951406573E+03  0.00000000000E+00 0.  1.
<scales pt_clust_3="33.54659" pt_clust_4="14000.00000" pt_clust_5="80.93059" pt_clust_6="70.39506"></scales>
<clustering>
<clus scale="   33.547">  2  3  1 -1</clus>
<clus scale="   70.395">  1  6  2 -1</clus>
<clus scale="   80.931">  1  5  2 -1</clus>
<clus scale="   33.547">  2  3  1 -1</clus>
</clustering>
</event>
<event>
 6    0  0.2433432E+002  0.1111311E+03  0.7546771E-02  0.1258489E+00
          2   -1    0    0  504    0 -0.00000000000E+00  0.00000000000E+00  0.28681204112E+04  0.28681204112E+04  0.00000000000E+00 0. -1.
         21   -1    0    0  501  502  0.00000000000E+00 -0.00000000000E+00 -0.28521774938E+03  0.28521774938E+03  0.00000000000E+00 0. -1.
         21    1    1    2  503  502 -0.79645576205E+02  0.32381547700E+02 -0.20271112785E+03  0.22019033538E+03  0.00000000000E+00 0. -1.
         21    1    1    2  504  505 -0.31499103751E+01 -0.12189814446E+03  0.10208407002E+03  0.15902904423E+03  0.00000000000E+00 0.  1.
         21    1    1    2  505  503  0.23856734455E+02  0.92655315078E+02  0.59217835591E+01  0.95860412640E+02  0.00000000000E+00 0. -1.
          2    1    1    2  501    0  0.58938752125E+02 -0.31387183225E+01  0.26776079361E+04  0.26782583683E+04  0.00000000000E+00 0. -1.
<scales pt_clust_3="83.41807" pt_clust_4="14000.00000" pt_clust_5="111.13111" pt_clust_6="59.02227"></scales>
<clustering>
<clus scale="   59.022">  1  6  2 -1</clus>
<clus scale="   83.418">  2  3  1 -1</clus>
<clus scale="  111.131">  2  5  1 -1</clus>
<clus scale="   83.418">  2  3  1 -1</clus>
</clustering>
</event>
<event>
 6    0  0.2433432E+002  0.9874841E+02  0.7546771E-02  0.1282950E+00
         21   -1    0    0  501  502  0.00000000000E+00  0.00000000000E+00  0.64062390132E+03  0.64062390132E+03  0.00000000000E+00 0.  1.
          2   -1    0    0  505    0 -0.00000000000E+00 -0.00000000000E+00 -0.10064800186E+04  0.10064800186E+04  0.00000000000E+00 0. -1.
         21    1    1    2  503  502 -0.59063412147E+01  0.62490104591E+02  0.60457148195E+03  0.60782117010E+03  0.00000000000E+00 0.  1.
         21    1    1    2  504  503 -0.10914085720E+03 -0.84488030544E+02 -0.17281629683E+03  0.22116832157E+03  0.00000000000E+00 0. -1.
         21    1    1    2  505  504  0.73475889406E+02  0.97056974620E+01 -0.13434004700E+03  0.15342801281E+03  0.00000000000E+00 0. -1.
          2    1    1    2  501    0  0.41571309011E+02  0.12292228491E+02 -0.66327125544E+03  0.66468641547E+03  0.00000000000E+00 0. -1.
<scales pt_clust_3="62.80843" pt_clust_4="98.74841" pt_clust_5="14000.00000" pt_clust_6="43.35058"></scales>
<clustering>
<clus scale="   43.351">  2  6  1 -1</clus>
<clus scale="   62.808">  1  3  2 -1</clus>
<clus scale="   98.748">  1  4  2 -1</clus>
<clus scale="   62.808">  1  3  2 -1</clus>
</clustering>
</event>
<event>
 6    0  0.2433432E+002  0.7756992E+02  0.7546771E-02  0.1336093E+00
         21   -1    0    0  503  502  0.00000000000E+00  0.00000000000E+00  0.35574649635E+03  0.35574649635E+03  0.00000000000E+00 0. -1.
          2   -1    0    0  505    0 -0.00000000000E+00 -0.00000000000E+00 -0.13499933429E+04  0.13499933429E+04  0.00000000000E+00 0.  1.
         21    1    1    2  503  504 -0.77301629884E+02 -0.21894231193E+01  0.31138539447E+03  0.32084450976E+03  0.00000000000E+00 0. -1.
         21    1    1    2  504  501  0.85473665155E+02 -0.41235854012E+02 -0.12558371963E+03  0.15740842966E+03  0.00000000000E+00 0. -1.
         21    1    1    2  505  502 -0.45432882851E+02  0.31070922123E+02 -0.89900864920E+01  0.55770697511E+02  0.00000000000E+00 0. -1.
          2    1    1    2  501    0  0.37260847581E+02  0.12354355009E+02 -0.11710584349E+04  0.11717162023E+04  0.00000000000E+00 0.  1.
<scales pt_clust_3="14000.00000" pt_clust_4="77.56992" pt_clust_5="51.04474" pt_clust_6="39.25558"></scales>
<clustering>
<clus scale="   39.256">  2  6  1 -1</clus>
<clus scale="   51.045">  2  5  1 -1</clus>
<clus scale="   77.570">  2  4  1 -1</clus>
<clus scale="   77.570">  1  3  2 -1</clus>
</clustering>
</event>
<event>
 6    0  0.2433432E+002  0.1162929E+03  0.7546771E-02  0.1249341E+00
          4   -1    0    0  505    0 -0.00000000000E+00  0.00000000000E+00  0.97199178976E+03  0.97199178976E+03  0.00000000000E+00 0.  1.
         21   -1    0    0  501  502  0.00000000000E+00 -0.00000000000E+00 -0.53766426843E+02  0.53766426843E+02  0.00000000000E+00 0.  1.
         21    1    1    2  503  502  0.40889931047E+02  0.41688981282E+02 -0.17412019368E+02  0.60935507217E+02  0.00000000000E+00 0.  1.
         21    1    1    2  504  503 -0.63738857940E+02 -0.36122207140E+02  0.32482224602E+03  0.33298190247E+03  0.00000000000E+00 0.  1.
         21    1    1    2  505  504 -0.66945111825E+02 -0.51250192430E+01  0.33876716730E+03  0.34535649330E+03  0.00000000000E+00 0. -1.
          4    1    1    2  501    0  0.89794038718E+02 -0.44175489893E+00  0.27204796896E+03  0.28648431362E+03  0.00000000000E+00 0.  1.
<scales pt_clust_3="58.39484" pt_clust_4="30.46040" pt_clust_5="30.46040" pt_clust_6="111.85531"></scales>
<clustering>
<clus scale="   30.460">  4  5 -1 -1</clus>
<clus scale="   58.395">  2  3  1 -1</clus>
<clus scale="  111.855">  2  6  1 -1</clus>
<clus scale="   58.395">  2  3  1 -1</clus>
</clustering>
</event>
<event>
 6    0  0.2433432E+002  0.9810454E+02  0.7546771E-02  0.1284333E+00
         21   -1    0    0  503  502  0.00000000000E+00  0.00000000000E+00  0.20344303468E+03  0.20344303468E+03  0.00000000000E+00 0. -1.
          2   -1    0    0  502    0 -0.00000000000E+00 -0.00000000000E+00 -0.11417762167E+04  0.11417762167E+04  0.00000000000E+00 0.  1.
         21    1    1    2  503  504 -0.43350379071E+02  0.93642191155E+00  0.92828869618E+02  0.10245648484E+03  0.00000000000E+00 0. -1.
         21    1    1    2  504  505 -0.36412588493E+02  0.37768852552E+02  0.83058402249E+02  0.98239813762E+02  0.00000000000E+00 0. -1.
         21    1    1    2  505  501  0.10537685725E+03 -0.64836796172E+02 -0.24440109635E+03  0.27393427693E+03  0.00000000000E+00 0. -1.
          2    1    1    2  501    0 -0.25613889682E+02  0.26131521709E+02 -0.86981935754E+03  0.87058867585E+03  0.00000000000E+00 0.  1.
<scales pt_clust_3="35.00335" pt_clust_4="35.00335" pt_clust_5="90.23336" pt_clust_6="36.59136"></scales>
<clustering>
<clus scale="   35.003">  3  4 -1 -1</clus>
<clus scale="   36.591">  2  6  1 -1</clus>
<clus scale="   90.233">  2  5  1 -1</clus>
<clus scale="   98.105">  1  3  2 -1</clus>
</clustering>
</event>
<event>
 6    0  0.2433432E+002  0.9721066E+02  0.7546771E-02  0.1286273E+00
         21   -1    0    0  504  502  0.00000000000E+00  0.00000000000E+00  0.57143121075E+03  0.57143121075E+03  0.00000000000E+00 0. -1.
         -3   -1    0    0    0  501 -0.00000000000E+00 -0.00000000000E+00 -0.95955861932E+03  0.95955861932E+03  0.00000000000E+00 0. -1.
         21    1    1    2  503  501 -0.52854462170E+02 -0.36492944463E+02 -0.65375332926E+01  0.64560580143E+02  0.00000000000E+00 0. -1.
         21    1    1    2  504  503  0.37883382144E+02 -0.58804960380E+02  0.10329859539E+03  0.12475485489E+03  0.00000000000E+00 0. -1.
         21    1    1    2  505  502  0.41201844773E+01  0.13005769386E+03  0.41813644209E+03  0.43791558987E+03  0.00000000000E+00 0. -1.
         -3    1    1    2    0  505  0.10850895549E+02 -0.34759789018E+02 -0.90302491275E+03  0.90375880517E+03  0.00000000000E+00 0. -1.
<scales pt_clust_3="74.40579" pt_clust_4="14000.00000" pt_clust_5="97.21066" pt_clust_6="36.41408"></scales>
<clustering>
<clus scale="   36.414">  2  6  1 -1</clus>
<clus scale="   74.406">  2  3  1 -1</clus>
<clus scale="   97.211">  1  5  2 -1</clus>
<clus scale="   97.211">  1  3  2 -1</clus>
</clustering>
</event>
<event>
 6    0  0.2433432E+002  0.1524149E+03  0.7546771E-02  0.1197537E+00
          2   -1    0    0  503    0 -0.00000000000E+00  0.00000000000E+00  0.36639937681E+03  0.36639937681E+03  0.00000000000E+00 0. -1.
         21   -1    0    0  501  502  0.00000000000E+00 -0.00000000000E+00 -0.22717421625E+03  0.22717421625E+03  0.00000000000E+00 0. -1.
         21    1    1    2  503  505  0.23456252497E+02  0.58797575556E+02  0.74412236770E+02  0.97696118928E+02  0.00000000000E+00 0.  1.
         21    1    1    2  504  502  0.30452789367E+02 -0.13763890940E+03 -0.16234007584E+03  0.21500265577E+03  0.00000000000E+00 0. -1.
         21    1    1    2  505  504 -0.23835815770E+02  0.96278285853E+02  0.73794087673E+02  0.12362532837E+03  0.00000000000E+00 0. -1.
          2    1    1    2  501    0 -0.30073226094E+02 -0.17436952007E+02  0.15335891196E+03  0.15724948999E+03  0.00000000000E+00 0. -1.
<scales pt_clust_3="40.46133" pt_clust_4="142.34082" pt_clust_5="40.46133" pt_clust_6="34.76271"></scales>
<clustering>
<clus scale="   34.763">  1  6  2 -1</clus>
<clus scale="   40.461">  3  5 -1 -1</clus>
<clus scale="  142.341">  2  4  1 -1</clus>
<clus scale="  142.341">  2  3  1 -1</clus>
</clustering>
</event>
<event>
 6    0  0.2433432E+002  0.7503910E+02  0.7546771E-02  0.1343750E+00
          1   -1    0    0  504    0 -0.00000000000E+00  0.00000000000E+00  0.30501658334E+03  0.30501658334E+03  0.00000000000E+00 0.  1.
         21   -1    0    0  501  502  0.00000000000E+00 -0.00000000000E+00 -0.29276186433E+03  0.29276186433E+03  0.00000000000E+00 0.  1.
         21    1    1    2  503  505 -0.45741696446E+02  0.76955122662E+02 -0.40432128092E+02  0.98230090501E+02  0.00000000000E+00 0.  1.
         21    1    1    2  504  503  0.46465483599E+02  0.20500880937E+02 -0.41464228352E+02  0.65563782060E+02  0.00000000000E+00 0. -1.
         21    1    1    2  505  502 -0.30641585040E+02 -0.73143748050E+02 -0.15912516442E+03  0.17779126122E+03  0.00000000000E+00 0.  1.
          1    1    1    2  501    0  0.29917797887E+02 -0.24312255549E+02  0.25327623987E+03  0.25619331389E+03  0.00000000000E+00 0.  1.
<scales pt_clust_3="75.03910" pt_clust_4="55.60639" pt_clust_5="14000.00000" pt_clust_6="38.55075"></scales>
<clustering>
<clus scale="   38.551">  1  6  2 -1</clus>
<clus scale="   55.606">  1  4  2 -1</clus>
<clus scale="   75.039">  1  3  2 -1</clus>
<clus scale="   75.039">  2  3  1 -1</clus>
</clustering>
</event>
<event>
 6    0  0.2433432E+002  0.1089979E+03  0.7546771E-02  0.1262437E+00
          2   -1    0    0  504    0 -0.00000000000E+00  0.00000000000E+00  0.14974095735E+04  0.14974095735E+04  0.00000000000E+00 0.  1.
         21   -1    0    0  501  502  0.00000000000E+00 -0.00000000000E+00 -0.14998358681E+02  0.14998358681E+02  0.00000000000E+00 0. -1.
         21    1    1    2  503  505  0.95371286566E+01  0.51368265957E+02  0.26223449287E+03  0.26738845304E+03  0.00000000000E+00 0.  1.
         21    1    1    2  504  503  0.10660884344E+02  0.49293062910E+02  0.49977924385E+03  0.50231738282E+03  0.00000000000E+00 0. -1.
         21    1    1    2  505  502  0.55972086809E+02 -0.17022375048E+02  0.14627326457E+03  0.15753889578E+03  0.00000000000E+00 0. -1.
          2    1    1    2  501    0 -0.76170099809E+02 -0.83638953819E+02  0.57412421356E+03  0.58516320057E+03  0.00000000000E+00 0.  1.
<scales pt_clust_3="34.61772" pt_clust_4="34.61772" pt_clust_5="58.50330" pt_clust_6="103.14580"></scales>
<clustering>
<clus scale="   34.618">  3  4 -1 -1</clus>
<clus scale="   58.503">  2  5  1 -1</clus>
<clus scale="  103.146">  2  6  1 -1</clus>
<clus scale="   58.503">  2  3  1 -1</clus>
</clustering>
</event>
<event>
 6    0  0.2433432E+002  0.7805282E+02  0.7546771E-02  0.1334670E+00
          2   -1    0    0  503    0 -0.00000000000E+00  0.00000000000E+00  0.48934301581E+04  0.48934301581E+04  0.00000000000E+00 0. -1.
         21   -1    0    0  504  502  0.00000000000E+00 -0.00000000000E+00 -0.79667975849E+01  0.79667975849E+01  0.00000000000E+00 0.  1.
         21    1    1    2  503  502  0.54019594876E+02 -0.19388438764E+02  0.72210715032E+03  0.72438440398E+03  0.00000000000E+00 0.  1.
         21    1    1    2  504  505 -0.28877524455E+02  0.31108299322E+02  0.81806092225E+02  0.92162218020E+02  0.00000000000E+00 0.  1.
         21    1    1    2  505  501 -0.11647528626E+02  0.70536330729E+02  0.12250588887E+04  0.12271431537E+04  0.00000000000E+00 0.  1.
          2    1    1    2  501    0 -0.13494541795E+02 -0.82256191286E+02  0.28564912293E+04  0.28577071800E+04  0.00000000000E+00 0. -1.
<scales pt_clust_3="42.75522" pt_clust_4="42.44570" pt_clust_5="78.05282" pt_clust_6="14000.00000"></scales>
<clustering>
<clus scale="   42.446">  2  4  1 -1</clus>
<clus scale="   42.755">  2  3  1 -1</clus>
<clus scale="   78.053">  2  5  1 -1</clus>
<clus scale="   42.446">  2  3  1 -1</clus>
</clustering>
</event>
<event>
 6    0  0.2433432E+002  0.1342786E+03  0.7546771E-02  0.1221242E+00
          2   -1    0    0  503    0 -0.00000000000E+00  0.00000000000E+00  0.23754079824E+04  0.23754079824E+04  0.00000000000E+00 0.  1.
         21   -1    0    0  505  502  0.00000000000E+00 -0.00000000000E+00 -0.17617328835E+02  0.17617328835E+02  0.00000000000E+00 0.  1.
         21    1    1    2  503  502 -0.99678239364E+02  0.72768327475E+01  0.43578762235E+03  0.44710128102E+03  0.00000000000E+00 0.  1.
         21    1    1    2  504  501  0.86439739275E+02 -0.38231906177E+02  0.35755482587E+03  0.36983639718E+03  0.00000000000E+00 0.  1.
         21    1    1    2  505  504  0.82863062550E+02  0.48365433105E+01  0.36423758769E+03  0.37357556072E+03  0.00000000000E+00 0.  1.
          2    1    1    2  501    0 -0.69624562461E+02  0.26118530119E+02  0.12002106177E+04  0.12025120723E+04  0.00000000000E+00 0.  1.
<scales pt_clust_3="127.01327" pt_clust_4="40.83041" pt_clust_5="40.83041" pt_clust_6="74.36234"></scales>
<clustering>
<clus scale="   40.830">  4  5 -1 -1</clus>
<clus scale="   74.362">  1  6  2 -1</clus>
<clus scale="  127.013">  2  3  1 -1</clus>
<clus scale="  127.013">  2  3  1 -1</clus>
</clustering>
</event>
<event>
 6    0  0.2433432E+002  0.8476923E+02  0.7546771E-02  0.1316037E+00
         21   -1    0    0  501  502  0.00000000000E+00  0.00000000000E+00  0.99299555477E+03  0.99299555477E+03  0.00000000000E+00 0. -1.
          1   -1    0    0  503    0 -0.00000000000E+00 -0.00000000000E+00 -0.15283227731E+03  0.15283227731E+03  0.00000000000E+00 0.  1.
         21    1    1    2  503  505  0.45840158029E+02 -0.11331435711E+02  0.11086012990E+02  0.48503826730E+02  0.00000000000E+00 0. -1.
         21    1    1    2  504  502 -0.84970528912E+02 -0.16559244605E+02  0.91884887520E+03  0.92291790253E+03  0.00000000000E+00 0. -1.
         21    1    1    2  505  504  0.25665657215E+02  0.77909601907E+02 -0.14912545558E+02  0.83372753610E+02  0.00000000000E+00 0. -1.
          1    1    1    2  501    0  0.13464713669E+02 -0.50018921591E+02 -0.74859065169E+02  0.91033349215E+02  0.00000000000E+00 0.  1.
<scales pt_clust_3="47.21993" pt_clust_4="84.76923" pt_clust_5="14000.00000" pt_clust_6="70.71370"></scales>
<clustering>
<clus scale="   47.220">  2  3  1 -1</clus>
<clus scale="   70.714">  2  6  1 -1</clus>
<clus scale="   84.769">  1  4  2 -1</clus>
<clus scale="   84.769">  1  3  2 -1</clus>
</clustering>
</event>
<event>
 6    0  0.2433432E+002  0.9074044E+02  0.7546771E-02  0.1301068E+00
          2   -1    0    0  503    0 -0.00000000000E+00  0.00000000000E+00  0.13056501455E+04  0.13056501455E+04  0.00000000000E+00 0. -1.
         21   -1    0    0  505  502  0.00000000000E+00 -0.00000000000E+00 -0.87519628536E+02  0.87519628536E+02  0.00000000000E+00 0. -1.
         21    1    1    2  503  502 -0.70578472284E+02 -0.46070666408E+02  0.66911003749E+02  0.10761463412E+03  0.00000000000E+00 0. -1.
         21    1    1    2  504  501  0.92160974741E+02  0.53565857365E+01 -0.20310475061E+02  0.94524354920E+02  0.00000000000E+00 0. -1.
         21    1    1    2  505  504  0.14921712914E+02 -0.44489664507E+02  0.62609058441E+02  0.78242456269E+02  0.00000000000E+00 0. -1.
          2    1    1    2  501    0 -0.36504215370E+02  0.85203745178E+02  0.11089209298E+04  0.11127883287E+04  0.00000000000E+00 0. -1.
<scales pt_clust_3="88.06993" pt_clust_4="90.74044" pt_clust_5="46.92534" pt_clust_6="14000.00000"></scales>
<clustering>
<clus scale="   46.925">  2  5  1 -1</clus>
<clus scale="   88.070">  2  3  1 -1</clus>
<clus scale="   90.740">  2  4  1 -1</clus>
<clus scale="   46.925">  2  3  1 -1</clus>
</clustering>
</event>
<event>
 6    0  0.2433432E+002  0.2617413E+03  0.7546771E-02  0.1106101E+00
         21   -1    0    0  504  502  0.00000000000E+00  0.00000000000E+00  0.12822328505E+03  0.12822328505E+03  0.00000000000E+00 0. -1.
          1   -1    0    0  505    0 -0.00000000000E+00 -0.00000000000E+00 -0.14431813324E+04  0.14431813324E+04  0.00000000000E+00 0. -1.
         21    1    1    2  503  501 -0.44387697957E+02 -0.15166520622E+02 -0.13700852285E+02  0.48867212229E+02  0.00000000000E+00 0.  1.
         21    1    1    2  504  503 -0.18320833086E+03  0.13288086538E+03 -0.53607885624E+02  0.23258637596E+03  0.00000000000E+00 0. -1.
         21    1    1    2  505  502  0.48543449195E+00 -0.32163469865E+02 -0.18574188262E+02  0.37144648470E+02  0.00000000000E+00 0.  1.
          1    1    1    2  501    0  0.22711059432E+03 -0.85550874896E+02 -0.12290751212E+04  0.12528063808E+04  0.00000000000E+00 0. -1.
<scales pt_clust_3="45.41462" pt_clust_4="45.41462" pt_clust_5="32.16713" pt_clust_6="243.88417"></scales>
<clustering>
<clus scale="   32.167">  1  5  2 -1</clus>
<clus scale="   45.415">  3  4 -1 -1</clus>
<clus scale="  243.884">  2  6  1 -1</clus>
<clus scale="   32.167">  1  3  2 -1</clus>
</clustering>
</event>
<event>
 6    0  0.2433432E+002  0.1572953E+03  0.7546771E-02  0.1191785E+00
         21   -1    0    0  503  502  0.00000000000E+00  0.00000000000E+00  0.14559114975E+04  0.14559114975E+04  0.00000000000E+00 0.  1.
         -2   -1    0    0    0  501 -0.00000000000E+00 -0.00000000000E+00 -0.73770848697E+02  0.73770848697E+02  0.00000000000E+00 0.  1.
         21    1    1    2  503  501 -0.10330745099E+03 -0.12741283463E+03  0.12548899574E+04  0.12655651959E+04  0.00000000000E+00 0.  1.
         21    1    1    2  504  505  0.18970081282E+02  0.65953262784E+02  0.76972268896E+02  0.10312335834E+03  0.00000000000E+00 0.  1.
         21    1    1    2  505  502  0.36551226798E+02  0.21113862139E+02  0.80982173312E+02  0.91323051576E+02  0.00000000000E+00 0.  1.
         -2    1    1    2    0  504  0.47786142913E+02  0.40345709702E+02 -0.30703750845E+02  0.69670740356E+02  0.00000000000E+00 0.  1.
<scales pt_clust_3="150.15094" pt_clust_4="36.75627" pt_clust_5="36.75627" pt_clust_6="62.54032"></scales>
<clustering>
<clus scale="   36.756">  4  5 -1 -1</clus>
<clus scale="   62.540">  2  6  1 -1</clus>
<clus scale="  150.151">  1  3  2 -1</clus>
<clus scale="  150.151">  1  3  2 -1</clus>
</clustering>
</event>
<event>
 6    0  0.2433432E+002  0.1005328E+03  0.7546771E-02  0.1279179E+00
         21   -1    0    0  503  502  0.00000000000E+00  0.00000000000E+00  0.37512710959E+02  0.37512710959E+02  0.00000000000E+00 0. -1.
          2   -1    0    0  504    0 -0.00000000000E+00 -0.00000000000E+00 -0.31982218615E+04  0.31982218615E+04  0.00000000000E+00 0.  1.
         21    1    1    2  503  501 -0.12368336827E+03  0.22581066787E+02 -0.75866259113E+03  0.76901001771E+03  0.00000000000E+00 0. -1.
         21    1    1    2  504  505  0.50998236155E+02  0.30072627970E+02 -0.42825962110E+02  0.73070144892E+02  0.00000000000E+00 0. -1.
         21    1    1    2  505  502  0.33675046567E+02 -0.74744452051E+01 -0.82590956589E+00  0.34504466653E+02  0.00000000000E+00 0. -1.
          2    1    1    2  501    0  0.39010085544E+02 -0.45179249552E+02 -0.23583946877E+04  0.23591499432E+04  0.00000000000E+00 0.  1.
<scales pt_clust_3="90.11258" pt_clust_4="34.02119" pt_clust_5="34.02119" pt_clust_6="59.69046"></scales>
<clustering>
<clus scale="   34.021">  4  5 -1 -1</clus>
<clus scale="   59.690">  2  6  1 -1</clus>
<clus scale="   90.113">  2  3  1 -1</clus>
<clus scale="  100.533">  1  3  2 -1</clus>
</clustering>
</event>
<event>
 6    0  0.2433432E+002  0.1836825E+03  0.7546771E-02  0.1164286E+00
         21   -1    0    0  505  502  0.00000000000E+00  0.00000000000E+00  0.11792476742E+03  0.11792476742E+03  0.00000000000E+00 0. -1.
          1   -1    0    0  504    0 -0.00000000000E+00 -0.00000000000E+00 -0.16992211144E+04  0.16992211144E+04  0.00000000000E+00 0.  1.
         21    1    1    2  503  502  0.21409608657E+02 -0.36427125784E+02  0.74330659089E+01  0.42901716801E+02  0.00000000000E+00 0.  1.
         21    1    1    2  504  503  0.34856532520E+02  0.37364052649E+02 -0.50223797690E+02  0.71648308732E+02  0.00000000000E+00 0. -1.
         21    1    1    2  505  501  0.13103140392E+03  0.85137020275E+01  0.20022336435E+02  0.13282547154E+03  0.00000000000E+00 0. -1.
          1    1    1    2  501    0 -0.18729754509E+03 -0.94506288929E+01 -0.15585279517E+04  0.15697703848E+04  0.00000000000E+00 0.  1.
<scales pt_clust_3="42.25289" pt_clust_4="49.92854" pt_clust_5="183.68253" pt_clust_6="14000.00000"></scales>
<clustering>
<clus scale="   42.253">  1  3  2 -1</clus>
<clus scale="   49.929">  1  4  2 -1</clus>
<clus scale="  183.683">  1  5  2 -1</clus>
<clus scale="   42.253">  1  3  2 -1</clus>
</clustering>
</event>
<event>
 6    0  0.2433432E+002  0.1960319E+03  0.7546771E-02  0.1153131E+00
          2   -1    0    0  503    0 -0.00000000000E+00  0.00000000000E+00  0.17908844229E+04  0.17908844229E+04  0.00000000000E+00 0. -1.
         21   -1    0    0  504  502  0.00000000000E+00 -0.00000000000E+00 -0.11526382337E+04  0.11526382337E+04  0.00000000000E+00 0. -1.
         21    1    1    2  503  505  0.51353544632E+02 -0.93777094168E+01 -0.58744951951E+03  0.58976441563E+03  0.00000000000E+00 0. -1.
         21    1    1    2  504  501  0.30996511788E+02 -0.36835510122E+02 -0.62376371191E+02  0.78793719496E+02  0.00000000000E+00 0. -1.
         21    1    1    2  505  502  0.67481247608E+02 -0.62176375385E+02 -0.48432791180E+03  0.49294335028E+03  0.00000000000E+00 0. -1.
          2    1    1    2  501    0 -0.14983130403E+03  0.10838959492E+03  0.17723999917E+04  0.17820211712E+04  0.00000000000E+00 0. -1.
<scales pt_clust_3="53.13072" pt_clust_4="48.14186" pt_clust_5="53.13072" pt_clust_6="184.71864"></scales>
<clustering>
<clus scale="   48.142">  2  4  1 -1</clus>
<clus scale="   53.131">  3  5 -1 -1</clus>
<clus scale="  184.719">  1  6  2 -1</clus>
<clus scale="   48.142">  2  3  1 -1</clus>
</clustering>
</event>
<event>
 6    0  0.2433432E+002  0.7006032E+02  0.7546771E-02  0.1359888E+00
         21   -1    0    0  504  502  0.00000000000E+00  0.00000000000E+00  0.58910377190E+02  0.58910377190E+02  0.00000000000E+00 0.  1.
          2   -1    0    0  503    0 -0.00000000000E+00 -0.00000000000E+00 -0.85322289140E+03  0.85322289140E+03  0.00000000000E+00 0. -1.
         21    1    1    2  503  505 -0.69402896928E+02 -0.27210081672E+02 -0.52491952184E+03  0.53018643424E+03  0.00000000000E+00 0. -1.
         21    1    1    2  504  501  0.51264879541E+02  0.76738178747E+01  0.12557267593E+02  0.53335357171E+02  0.00000000000E+00 0.  1.
         21    1    1    2  505  502 -0.27501993587E+01 -0.61384760179E+02 -0.41751494471E+02  0.74288893310E+02  0.00000000000E+00 0.  1.
          2    1    1    2  501    0  0.20888216746E+02  0.80921023976E+02 -0.24019876549E+03  0.25432258387E+03  0.00000000000E+00 0. -1.
<scales pt_clust_3="14000.00000" pt_clust_4="51.83604" pt_clust_5="63.74628" pt_clust_6="70.06032"></scales>
<clustering>
<clus scale="   51.836">  1  4  2 -1</clus>
<clus scale="   63.746">  1  5  2 -1</clus>
<clus scale="   70.060">  1  6  2 -1</clus>
<clus scale="   51.836">  1  3  2 -1</clus>
</clustering>
</event>
<event>
 6    0  0.2433432E+002  0.6773388E+02  0.7546771E-02  0.1367973E+00
         21   -1    0    0  504  502  0.00000000000E+00  0.00000000000E+00  0.82027880757E+02  0.82027880757E+02  0.00000000000E+00 0.  1.
          1   -1    0    0  505    0 -0.00000000000E+00 -0.00000000000E+00 -0.18117607075E+04  0.18117607075E+04  0.00000000000E+00 0.  1.
         21    1    1    2  503  501 -0.62347665186E+02 -0.47859446844E+02 -0.17235504194E+03  0.18943077493E+03  0.00000000000E+00 0. -1.
         21    1    1    2  504  503  0.55316986357E+02 -0.16704874350E+02  0.58577243465E+02  0.82281925467E+02  0.00000000000E+00 0.  1.
         21    1    1    2  505  502 -0.32433794359E+02 -0.22446765101E+02 -0.28803230800E+03  0.29072051653E+03  0.00000000000E+00 0. -1.
          1    1    1    2  501    0  0.39464473189E+02  0.87011086295E+02 -0.13279227203E+04  0.13313553713E+04  0.00000000000E+00 0.  1.
<scales pt_clust_3="14000.00000" pt_clust_4="57.59356" pt_clust_5="39.44374" pt_clust_6="67.73388"></scales>
<clustering>
<clus scale="   39.444">  2  5  1 -1</clus>
<clus scale="   57.594">  1  4  2 -1</clus>
<clus scale="   67.734">  2  6  1 -1</clus>
<clus scale="   57.594">  1  3  2 -1</clus>
</clustering>
</event>
<event>
 6    0  0.2433432E+002  0.3335101E+03  0.7546771E-02  0.1069594E+00
          2   -1    0    0  504    0 -0.00000000000E+00  0.00000000000E+00  0.23369406480E+04  0.23369406480E+04  0.00000000000E+00 0.  1.
         21   -1    0    0  503  502  0.00000000000E+00 -0.00000000000E+00 -0.52793056495E+03  0.52793056495E+03  0.00000000000E+00 0.  1.
         21    1    1    2  503  505  0.16153219158E+03  0.35153449360E+03 -0.37698957403E+03  0.54017616389E+03  0.00000000000E+00 0.  1.
         21    1    1    2  504  502  0.35648440248E+01 -0.42972737141E+02 -0.40379035525E+02  0.59074789548E+02  0.00000000000E+00 0. -1.
         21    1    1    2  505  501 -0.12918947829E+03 -0.14323947214E+03  0.59483258309E+03  0.62532653037E+03  0.00000000000E+00 0. -1.
          2    1    1    2  501    0 -0.35907557315E+02 -0.16532228433E+03  0.16315461096E+04  0.16402937292E+04  0.00000000000E+00 0.  1.
<scales pt_clust_3="14000.00000" pt_clust_4="43.12035" pt_clust_5="333.51013" pt_clust_6="169.55407"></scales>
<clustering>
<clus scale="   43.120">  2  4  1 -1</clus>
<clus scale="  169.554">  1  6  2 -1</clus>
<clus scale="  333.510">  1  5  2 -1</clus>
<clus scale="   43.120">  2  3  1 -1</clus>
</clustering>
</event>
<event>
 6    0  0.2433432E+002  0.1140548E+03  0.7546771E-02  0.1253240E+00
          1   -1    0    0  505    0 -0.00000000000E+00  0.00000000000E+00  0.78637306048E+03  0.78637306048E+03  0.00000000000E+00 0.  1.
         21   -1    0    0  504  502  0.00000000000E+00 -0.00000000000E+00 -0.96583075645E+03  0.96583075645E+03  0.00000000000E+00 0. -1.
         21    1    1    2  503  502  0.85343881668E+01  0.31929775745E+02 -0.22464951573E+03  0.22706772399E+03  0.00000000000E+00 0. -1.
         21    1    1    2  504  501  0.34914189852E+02 -0.22783844248E+02 -0.56224111649E+03  0.56378469054E+03  0.00000000000E+00 0. -1.
         21    1    1    2  505  503  0.11226438264E+02  0.91734835209E+02 -0.16033100368E+03  0.18506037839E+03  0.00000000000E+00 0.  1.
          1    1    1    2  501    0 -0.54675016282E+02 -0.10088076671E+03  0.76776393994E+03  0.77629102402E+03  0.00000000000E+00 0.  1.
<scales pt_clust_3="33.05066" pt_clust_4="41.43517" pt_clust_5="114.05482" pt_clust_6="14000.00000"></scales>
<clustering>
<clus scale="   33.051">  2  3  1 -1</clus>
<clus scale="   41.435">  2  4  1 -1</clus>
<clus scale="  114.055">  2  5  1 -1</clus>
<clus scale="   33.051">  2  3  1 -1</clus>
</clustering>
</event>
<event>
 6    0  0.2433432E+002  0.7557428E+02  0.7546771E-02  0.1342102E+00
          2   -1    0    0  504    0 -0.00000000000E+00  0.00000000000E+00  0.39953215883E+03  0.39953215883E+03  0.00000000000E+00 0.  1.
         21   -1    0    0  503  502  0.00000000000E+00 -0.00000000000E+00 -0.52113707769E+03  0.52113707769E+03  0.00000000000E+00 0.  1.
         21    1    1    2  503  501 -0.50962213857E+02 -0.36419391163E+01 -0.42889186076E+02  0.66707520146E+02  0.00000000000E+00 0.  1.
         21    1    1    2  504  505 -0.73199939926E+02 -0.39161655603E+02 -0.33452973388E+03  0.34467667360E+03  0.00000000000E+00 0.  1.
         21    1    1    2  505  502  0.52157663439E+02  0.20073637078E+02 -0.11659569674E+03  0.12929783161E+03  0.00000000000E+00 0.  1.
          2    1    1    2  501    0  0.72004490344E+02  0.22729957641E+02  0.37240969784E+03  0.37998721117E+03  0.00000000000E+00 0.  1.
<scales pt_clust_3="51.09218" pt_clust_4="75.57428" pt_clust_5="43.18225" pt_clust_6="14000.00000"></scales>
<clustering>
<clus scale="   51.092">  2  3  1 -1</clus>
<clus scale="   43.182">  2  5  1 -1</clus>
<clus scale="   75.574">  2  4  1 -1</clus>
<clus scale="   51.092">  2  3  1 -1</clus>
</clustering>
</event>
<event>
 6    0  0.2433432E+002  0.7860120E+02  0.7546771E-02  0.1333069E+00
          2   -1    0    0  503    0 -0.00000000000E+00  0.00000000000E+00  0.29880967614E+03  0.29880967614E+03  0.00000000000E+00 0. -1.
         21   -1    0    0  505  502  0.00000000000E+00 -0.00000000000E+00 -0.48993217394E+03  0.48993217394E+03  0.00000000000E+00 0.  1.
         21    1    1    2  503  504 -0.37876690474E+02  0.11534002379E+03  0.26020972534E+02  0.12415738311E+03  0.00000000000E+00 0.  1.
         21    1    1    2  504  502  0.46759850938E+02 -0.22135936469E+02 -0.37934455831E+03  0.38285607905E+03  0.00000000000E+00 0.  1.
         21    1    1    2  505  501 -0.24513685964E+02 -0.55480543128E+02 -0.41811399867E+02  0.73669563757E+02  0.00000000000E+00 0.  1.
          2    1    1    2  501    0  0.15630525501E+02 -0.37723544196E+02  0.20401248784E+03  0.20805882416E+03  0.00000000000E+00 0. -1.
<scales pt_clust_3="78.60120" pt_clust_4="52.31015" pt_clust_5="14000.00000" pt_clust_6="40.83355"></scales>
<clustering>
<clus scale="   40.834">  1  6  2 -1</clus>
<clus scale="   52.310">  2  4  1 -1</clus>
<clus scale="   78.601">  1  3  2 -1</clus>
<clus scale="   52.310">  2  3  1 -1</clus>
</clustering>
</event>
<event>
 6    0  0.2433432E+002  0.1078697E+03  0.7546771E-02  0.1264566E+00
         21   -1    0    0  501  502  0.00000000000E+00  0.00000000000E+00  0.21821094634E+03  0.21821094634E+03  0.00000000000E+00 0.  1.
          2   -1    0    0  503    0 -0.00000000000E+00 -0.00000000000E+00 -0.84518340431E+03  0.84518340431E+03  0.00000000000E+00 0. -1.
         21    1    1    2  503  504  0.37180754005E+02  0.39063775898E+01  0.47997090962E+02  0.60839041701E+02  0.00000000000E+00 0.  1.
         21    1    1    2  504  505  0.40936007232E+02  0.23630211882E+02  0.14681024978E+02  0.49494202651E+02  0.00000000000E+00 0. -1.
         21    1    1    2  505  502  0.16951798855E+02 -0.66403718607E+02  0.11931764090E+03  0.13759911613E+03  0.00000000000E+00 0.  1.
          2    1    1    2  501    0 -0.95068560092E+02  0.38867129136E+02 -0.80896821481E+03  0.81546199017E+03  0.00000000000E+00 0. -1.
<scales pt_clust_3="33.09039" pt_clust_4="33.09039" pt_clust_5="68.53333" pt_clust_6="101.24967"></scales>
<clustering>
<clus scale="   33.090">  3  4 -1 -1</clus>
<clus scale="   68.533">  1  5  2 -1</clus>
<clus scale="  101.250">  2  6  1 -1</clus>
<clus scale="   68.533">  1  3  2 -1</clus>
</clustering>
</event>
<event>
 6    0  0.2433432E+002  0.1311959E+03  0.7546771E-02  0.1225692E+00
         21   -1    0    0  504  502  0.00000000000E+00  0.00000000000E+00  0.11885189024E+03  0.11885189024E+03  0.00000000000E+00 0.  1.
         -2   -1    0    0    0  501 -0.00000000000E+00 -0.00000000000E+00 -0.52042943905E+03  0.52042943905E+03  0.00000000000E+00 0. -1.
         21    1    1    2  503  502 -0.50436090479E+02  0.39905447764E+02  0.46279241362E+02  0.79233907925E+02  0.00000000000E+00 0.  1.
         21    1    1    2  504  505  0.37978378617E+02 -0.17550176056E+02 -0.33726728401E+01  0.41973096670E+02  0.00000000000E+00 0. -1.
         21    1    1    2  505  501  0.11154861794E+03  0.26787050146E+02 -0.87308000776E+02  0.14416423697E+03  0.00000000000E+00 0.  1.
         -2    1    1    2    0  503 -0.99090906080E+02 -0.49142321853E+02 -0.35717611656E+03  0.37391008773E+03  0.00000000000E+00 0. -1.
<scales pt_clust_3="64.31364" pt_clust_4="38.10050" pt_clust_5="38.10050" pt_clust_6="115.02995"></scales>
<clustering>
<clus scale="   38.100">  4  5 -1 -1</clus>
<clus scale="   64.314">  1  3  2 -1</clus>
<clus scale="  115.030">  2  6  1 -1</clus>
<clus scale="   64.314">  1  3  2 -1</clus>
</clustering>
</event>
<event>
 6    0  0.2433432E+002  0.1104695E+03  0.7546771E-02  0.1259703E+00
         21   -1    0    0  505  502  0.00000000000E+00  0.00000000000E+00  0.19764936439E+03  0.19764936439E+03  0.00000000000E+00 0.  1.
          2   -1    0    0  503    0 -0.00000000000E+00 -0.00000000000E+00 -0.23656802355E+04  0.23656802355E+04  0.00000000000E+00 0. -1.
         21    1    1    2  503  504  0.27216420223E+02  0.25086643003E+02 -0.12416913900E+03  0.12956870096E+03  0.00000000000E+00 0.  1.
         21    1    1    2  504  502 -0.22614869401E+02  0.29927312208E+02  0.79386902698E+01  0.38341871853E+02  0.00000000000E+00 0. -1.
         21    1    1    2  505  501 -0.85012658591E+02 -0.11549173802E+01  0.16016780258E+03  0.18133452770E+03  0.00000000000E+00 0.  1.
          2    1    1    2  501    0  0.80411107769E+02 -0.53859037830E+02 -0.22119682250E+04  0.22140844994E+04  0.00000000000E+00 0. -1.
<scales pt_clust_3="37.01450" pt_clust_4="37.53634" pt_clust_5="14000.00000" pt_clust_6="110.46949"></scales>
<clustering>
<clus scale="   37.014">  2  3  1 -1</clus>
<clus scale="   37.536">  1  4  2 -1</clus>
<clus scale="  110.469">  2  6  1 -1</clus>
<clus scale="   37.536">  1  3  2 -1</clus>
</clustering>
</event>
<event>
 6    0  0.2433432E+002  0.1779515E+03  0.7546771E-02  0.1169800E+00
         -1   -1    0    0    0  501 -0.00000000000E+00  0.00000000000E+00  0.18231696016E+04  0.18231696016E+04  0.00000000000E+00 0. -1.
         21   -1    0    0  504  502  0.00000000000E+00 -0.00000000000E+00 -0.15144695170E+03  0.15144695170E+03  0.00000000000E+00 0. -1.
         21    1    1    2  503  502 -0.47323141845E+01 -0.30354038191E+02 -0.68904197757E+02  0.75442368074E+02  0.00000000000E+00 0. -1.
         21    1    1    2  504  505 -0.38019935834E+02  0.53055243693E+02 -0.11132626587E+02  0.66214120691E+02  0.00000000000E+00 0. -1.
         21    1    1    2  505  501 -0.83768860423E+02  0.85226390013E+02  0.61238809451E+02  0.13427937784E+03  0.00000000000E+00 0. -1.
         -1    1    1    2    0  503  0.12652111044E+03 -0.10792759552E+03  0.16905206648E+04  0.16986806867E+04  0.00000000000E+00 0. -1.
<scales pt_clust_3="30.72072" pt_clust_4="43.10925" pt_clust_5="43.10925" pt_clust_6="167.13481"></scales>
<clustering>
<clus scale="   30.721">  2  3  1 -1</clus>
<clus scale="   43.109">  4  5 -1 -1</clus>
<clus scale="  167.135">  1  6  2 -1</clus>
<clus scale="   30.721">  2  3  1 -1</clus>
</clustering>
</event>
<event>
 6    0  0.2433432E+002  0.1931535E+03  0.7546771E-02  0.1155647E+00
         21   -1    0    0  503  502  0.00000000000E+00  0.00000000000E+00  0.22258502523E+03  0.22258502523E+03  0.00000000000E+00 0.  1.
          2   -1    0    0  505    0 -0.00000000000E+00 -0.00000000000E+00 -0.36067403752E+04  0.36067403752E+04  0.00000000000E+00 0.  1.
         21    1    1    2  503  504 -0.14428156789E+02 -0.37548669085E+02  0.98107273253E+02  0.10603353867E+03  0.00000000000E+00 0.  1.
         21    1    1    2  504  501 -0.87056464696E+02 -0.14872048262E+03  0.48615298479E+02  0.17905322461E+03  0.00000000000E+00 0.  1.
         21    1    1    2  505  502  0.68672777600E+02  0.87790567376E+02 -0.53130761521E+03  0.54287283602E+03  0.00000000000E+00 0.  1.
          2    1    1    2  501    0  0.32811843885E+02  0.98478584329E+02 -0.29995703065E+04  0.30013658011E+04  0.00000000000E+00 0.  1.
<scales pt_clust_3="40.22529" pt_clust_4="193.15355" pt_clust_5="14000.00000" pt_clust_6="103.50166"></scales>
<clustering>
<clus scale="   40.225">  1  3  2 -1</clus>
<clus scale="  103.502">  2  6  1 -1</clus>
<clus scale="  193.154">  1  4  2 -1</clus>
<clus scale="   40.225">  1  3  2 -1</clus>
</clustering>
</event>
<event>
 6    0  0.2433432E+002  0.1834230E+03  0.7546771E-02  0.1164531E+00
         21   -1    0    0  504  502  0.00000000000E+00  0.00000000000E+00  0.24205721294E+02  0.24205721294E+02  0.00000000000E+00 0. -1.
          1   -1    0    0  505    0 -0.00000000000E+00 -0.00000000000E+00 -0.14708021591E+04  0.14708021591E+04  0.00000000000E+00 0.  1.
         21    1    1    2  503  502  0.71472188108E+02  0.40207773626E+02 -0.51351935988E+03  0.52002602983E+03  0.00000000000E+00 0. -1.
         21    1    1    2  504  501 -0.78316430956E+02 -0.97170198044E+02 -0.27558508864E+03  0.30252710924E+03  0.00000000000E+00 0.  1.
         21    1    1    2  505  503  0.10612176850E+02  0.98583541638E+02 -0.44954852261E+03  0.46035335033E+03  0.00000000000E+00 0. -1.
          1    1    1    2  501    0 -0.37679340011E+01 -0.41621117220E+02 -0.20794346665E+03  0.21210139096E+03  0.00000000000E+00 0.  1.
<scales pt_clust_3="79.50676" pt_clust_4="41.08880" pt_clust_5="79.50676" pt_clust_6="176.18919"></scales>
<clustering>
<clus scale="   41.089">  4  6 -1 -1</clus>
<clus scale="   79.507">  3  5 -1 -1</clus>
<clus scale="  176.189">  1  4  2 -1</clus>
<clus scale="  176.189">  1  3  2 -1</clus>
</clustering>
</event>
<event>
 6    0  0.2433432E+002  0.8365407E+02  0.7546771E-02  0.1318990E+00
         -3   -1    0    0    0  501 -0.00000000000E+00  0.00000000000E+00  0.39524503386E+03  0.39524503386E+03  0.00000000000E+00 0.  1.
         21   -1    0    0  504  502  0.00000000000E+00 -0.00000000000E+00 -0.17292962149E+03  0.17292962149E+03  0.00000000000E+00 0. -1.
         21    1    1    2  503  501  0.30887603250E+02 -0.31905904761E+01  0.21587328160E+02  0.37818469551E+02  0.00000000000E+00 0.  1.
         21    1    1    2  504  503 -0.88360925568E+01  0.12238383436E+03 -0.49660301794E+02  0.13237078612E+03  0.00000000000E+00 0. -1.
         21    1    1    2  505  502  0.28927806123E+02 -0.62857534738E+02 -0.51772181184E+02  0.86419016339E+02  0.00000000000E+00 0. -1.
         -3    1    1    2    0  505 -0.50979316816E+02 -0.56335709144E+02  0.30216056718E+03  0.31156638334E+03  0.00000000000E+00 0.  1.
<scales pt_clust_3="31.05195" pt_clust_4="14000.00000" pt_clust_5="83.65407" pt_clust_6="64.11059"></scales>
<clustering>
<clus scale="   31.052">  1  3  2 -1</clus>
<clus scale="   64.111">  1  6  2 -1</clus>
<clus scale="   83.654">  2  5  1 -1</clus>
<clus scale="   83.654">  2  3  1 -1</clus>
</clustering>
</event>
<event>
 6    0  0.2433432E+002  0.9680552E+02  0.7546771E-02  0.1287161E+00
         21   -1    0    0  505  502  0.00000000000E+00  0.00000000000E+00  0.52683303971E+03  0.52683303971E+03  0.00000000000E+00 0. -1.
          2   -1    0    0  503    0 -0.00000000000E+00 -0.00000000000E+00 -0.20431808763E+04  0.20431808763E+04  0.00000000000E+00 0. -1.
         21    1    1    2  503  504  0.78619244053E+02  0.61615682377E+02  0.62696389509E+02  0.11793351986E+03  0.00000000000E+00 0. -1.
         21    1    1    2  504  502 -0.82010087360E+02 -0.49941705804E+02  0.26319314912E+03  0.28016149298E+03  0.00000000000E+00 0. -1.
         21    1    1    2  505  501  0.75334841801E+02 -0.47665925136E+02  0.15191709709E+03  0.17614250820E+03  0.00000000000E+00 0. -1.
          2    1    1    2  501    0 -0.71943998494E+02  0.35991948563E+02 -0.19941544723E+04  0.19957763949E+04  0.00000000000E+00 0. -1.
<scales pt_clust_3="14000.00000" pt_clust_4="96.80552" pt_clust_5="69.06982" pt_clust_6="80.44476"></scales>
<clustering>
<clus scale="   80.445">  2  6  1 -1</clus>
<clus scale="   69.070">  2  5  1 -1</clus>
<clus scale="   96.806">  1  4  2 -1</clus>
<clus scale="   96.806">  1  3  2 -1</clus>
</clustering>
</event>
<event>
 6    0  0.2433432E+002  0.1215762E+03  0.7546771E-02  0.1240519E+00
         21   -1    0    0  503  502  0.00000000000E+00  0.00000000000E+00  0.30412446756E+03  0.30412446756E+03  0.00000000000E+00 0.  1.
          1   -1    0    0  505    0 -0.00000000000E+00 -0.00000000000E+00 -0.64925552721E+03  0.64925552721E+03  0.00000000000E+00 0.  1.
         21    1    1    2  503  501  0.96116822255E+02 -0.76104162473E+02  0.25933084271E+03  0.28684973950E+03  0.00000000000E+00 0.  1.
         21    1    1    2  504  502 -0.54150574142E+02 -0.29251622455E+01 -0.39633806825E+02  0.67169039725E+02  0.00000000000E+00 0. -1.
         21    1    1    2  505  504 -0.26387963531E+02 -0.30779968821E+02 -0.23653133750E+02  0.46938276877E+02  0.00000000000E+00 0. -1.
          1    1    1    2  501    0 -0.15578284582E+02  0.10980929354E+03 -0.54117496179E+03  0.55242293867E+03  0.00000000000E+00 0.  1.
<scales pt_clust_3="121.57623" pt_clust_4="94.94863" pt_clust_5="32.26833" pt_clust_6="14000.00000"></scales>
<clustering>
<clus scale="   32.268">  4  5 -1 -1</clus>
<clus scale="   94.949">  2  4  1 -1</clus>
<clus scale="  121.576">  1  3  2 -1</clus>
<clus scale="  121.576">  1  3  2 -1</clus>
</clustering>
</event>
<event>
 6    0  0.2433432E+002  0.1378877E+03  0.7546771E-02  0.1216200E+00
          2   -1    0    0  504    0 -0.00000000000E+00  0.00000000000E+00  0.73969809701E+03  0.73969809701E+03  0.00000000000E+00 0.  1.
         21   -1    0    0  501  502  0.00000000000E+00 -0.00000000000E+00 -0.25685650595E+03  0.25685650595E+03  0.00000000000E+00 0.  1.
         21    1    1    2  503  505  0.91646848555E+02 -0.12045642026E+03 -0.18222433880E+03  0.23688521204E+03  0.00000000000E+00 0.  1.
         21    1    1    2  504  503 -0.26412705349E+02  0.65004380041E+02  0.41109220832E+02  0.81321389964E+02  0.00000000000E+00 0.  1.
         21    1    1    2  505  502  0.29048186431E+02  0.44752760465E+02  0.66213725488E+01  0.53762898719E+02  0.00000000000E+00 0.  1.
          2    1    1    2  501    0 -0.94282329637E+02  0.10699279753E+02  0.61733533648E+03  0.62458510223E+03  0.00000000000E+00 0.  1.
<scales pt_clust_3="137.88772" pt_clust_4="72.89409" pt_clust_5="53.35360" pt_clust_6="14000.00000"></scales>
<clustering>
<clus scale="   53.354">  2  5  1 -1</clus>
<clus scale="   72.894">  1  4  2 -1</clus>
<clus scale="  137.888">  2  3  1 -1</clus>
<clus scale="   53.354">  2  3  1 -1</clus>
</clustering>
</event>
<event>
 6    0  0.2433432E+002  0.1151504E+03  0.7546771E-02  0.1251319E+00
         21   -1    0    0  503  502  0.00000000000E+00  0.00000000000E+00  0.53014180255E+03  0.53014180255E+03  0.00000000000E+00 0. -1.
          2   -1    0    0  504    0 -0.00000000000E+00 -0.00000000000E+00 -0.11962209438E+03  0.11962209438E+03  0.00000000000E+00 0. -1.
         21    1    1    2  503  501  0.26774472375E+01  0.70316549627E+02  0.75922981857E+02  0.10351755913E+03  0.00000000000E+00 0. -1.
         21    1    1    2  504  505 -0.67110363265E+02 -0.79853131849E+02  0.23094946659E+03  0.25341266670E+03  0.00000000000E+00 0. -1.
         21    1    1    2  505  502  0.85083743288E+01 -0.61594775364E+02  0.16974781560E+03  0.18077784623E+03  0.00000000000E+00 0.  1.
          2    1    1    2  501    0  0.55924541698E+02  0.71131357587E+02 -0.66100555892E+02  0.11205582486E+03  0.00000000000E+00 0. -1.
<scales pt_clust_3="70.36751" pt_clust_4="51.91579" pt_clust_5="51.91579" pt_clust_6="93.47847"></scales>
<clustering>
<clus scale="   51.916">  4  5 -1 -1</clus>
<clus scale="   70.368">  1  3  2 -1</clus>
<clus scale="   93.478">  2  6  1 -1</clus>
<clus scale="   70.368">  1  3  2 -1</clus>
</clustering>
</event>
<event>
 6    0  0.2433432E+002  0.9253270E+02  0.7546771E-02  0.1296832E+00
          1   -1    0    0  503    0 -0.00000000000E+00  0.00000000000E+00  0.18188248180E+04  0.18188248180E+04  0.00000000000E+00 0.  1.
         21   -1    0    0  504  502  0.00000000000E+00 -0.00000000000E+00 -0.23308115935E+03  0.23308115935E+03  0.00000000000E+00 0. -1.
         21    1    1    2  503  505 -0.94347484947E+02 -0.56813397617E+02 -0.52508087379E+02  0.12200946400E+03  0.00000000000E+00 0. -1.
         21    1    1    2  504  501  0.30624672030E+02 -0.41533350011E+01 -0.12396362468E+01  0.30929879189E+02  0.00000000000E+00 0.  1.
         21    1    1    2  505  502  0.74416182686E+02  0.80338892540E+01 -0.11849293599E+03  0.14015308595E+03  0.00000000000E+00 0. -1.
          1    1    1    2  501    0 -0.10693369770E+02  0.52932843364E+02  0.17579843182E+04  0.17588135482E+04  0.00000000000E+00 0.  1.
<scales pt_clust_3="92.53270" pt_clust_4="30.90503" pt_clust_5="14000.00000" pt_clust_6="53.98283"></scales>
<clustering>
<clus scale="   30.905">  2  4  1 -1</clus>
<clus scale="   53.983">  1  6  2 -1</clus>
<clus scale="   92.533">  1  3  2 -1</clus>
<clus scale="   30.905">  2  3  1 -1</clus>
</clustering>
</event>
<event>
 6    0  0.2433432E+002  0.9030378E+02  0.7546771E-02  0.1302118E+00
          2   -1    0    0  504    0 -0.00000000000E+00  0.00000000000E+00  0.81461071121E+03  0.81461071121E+03  0.00000000000E+00 0. -1.
         21   -1    0    0  505  502  0.00000000000E+00 -0.00000000000E+00 -0.20106314201E+03  0.20106314201E+03  0.00000000000E+00 0. -1.
         21    1    1    2  503  502 -0.55987102570E+02  0.33032625987E+02 -0.90635977754E+02  0.11153739506E+03  0.00000000000E+00 0. -1.
         21    1    1    2  504  503  0.12366701165E+02  0.76481437960E+02 -0.45022420399E+02  0.89606718435E+02  0.00000000000E+00 0. -1.
         21    1    1    2  505  501 -0.64298465730E+01 -0.32782846754E+02 -0.20628716563E+02  0.39263238726E+02  0.00000000000E+00 0. -1.
          2    1    1    2  501    0  0.50050247978E+02 -0.76731217194E+02  0.76983468391E+03  0.77526650100E+03  0.00000000000E+00 0. -1.
<scales pt_clust_3="61.32760" pt_clust_4="14000.00000" pt_clust_5="33.40745" pt_clust_6="90.30378"></scales>
<clustering>
<clus scale="   33.407">  2  5  1 -1</clus>
<clus scale="   61.328">  2  3  1 -1</clus>
<clus scale="   90.304">  1  6  2 -1</clus>
<clus scale="   33.407">  2  3  1 -1</clus>
</clustering>
</event>
<event>
 6    0  0.2433432E+002  0.1729656E+03  0.7546771E-02  0.1174790E+00
         21   -1    0    0  503  502  0.00000000000E+00  0.00000000000E+00  0.65616850222E+03  0.65616850222E+03  0.00000000000E+00 0.  1.
          2   -1    0    0  504    0 -0.00000000000E+00 -0.00000000000E+00 -0.12348664881E+04  0.12348664881E+04  0.00000000000E+00 0.  1.
         21    1    1    2  503  505 -0.22022437605E+02 -0.21270372202E+02  0.12069912797E+03  0.12452186951E+03  0.00000000000E+00 0.  1.
         21    1    1    2  504  502 -0.20000666978E+03  0.55589176414E+02  0.34419763589E+03  0.40195128690E+03  0.00000000000E+00 0.  1.
         21    1    1    2  505  501  0.50281538497E+02 -0.51647720214E+02  0.14583241305E+03  0.16267394633E+03  0.00000000000E+00 0.  1.
          2    1    1    2  501    0  0.17174756888E+03  0.17328916001E+02 -0.11894271628E+04  0.12018878876E+04  0.00000000000E+00 0.  1.
<scales pt_clust_3="30.61726" pt_clust_4="14000.00000" pt_clust_5="72.58793" pt_clust_6="172.96560"></scales>
<clustering>
<clus scale="   30.617">  1  3  2 -1</clus>
<clus scale="   72.588">  1  5  2 -1</clus>
<clus scale="  172.966">  2  6  1 -1</clus>
<clus scale="   30.617">  1  3  2 -1</clus>
</clustering>
</event>
<event>
 6    0  0.2433432E+002  0.1351504E+03  0.7546771E-02  0.1220008E+00
          2   -1    0    0  503    0 -0.00000000000E+00  0.00000000000E+00  0.10909249720E+04  0.10909249720E+04  0.00000000000E+00 0.  1.
         21   -1    0    0  501  502  0.00000000000E+00 -0.00000000000E+00 -0.25933592086E+03  0.25933592086E+03  0.00000000000E+00 0.  1.
         21    1    1    2  503  504  0.40578199204E+02 -0.35636257486E+01  0.41570697306E+02  0.58201482401E+02  0.00000000000E+00 0.  1.
         21    1    1    2  504  505  0.45324927008E+02  0.46515673452E+02  0.13779102513E+03  0.15232998225E+03  0.00000000000E+00 0. -1.
         21    1    1    2  505  502 -0.10200259677E+03  0.89825624709E+02 -0.21929756774E+03  0.25800115468E+03  0.00000000000E+00 0.  1.
          2    1    1    2  501    0  0.16099470562E+02 -0.13277767241E+03  0.87152489647E+03  0.88172827357E+03  0.00000000000E+00 0.  1.
<scales pt_clust_3="40.73438" pt_clust_4="68.67776" pt_clust_5="135.15040" pt_clust_6="14000.00000"></scales>
<clustering>
<clus scale="   40.734">  1  3  2 -1</clus>
<clus scale="   68.678">  1  4  2 -1</clus>
<clus scale="  135.150">  2  5  1 -1</clus>
<clus scale="  135.150">  2  3  1 -1</clus>
</clustering>
</event>
<event>
 6    0  0.2433432E+002  0.1896321E+03  0.7546771E-02  0.1158794E+00
          2   -1    0    0  503    0 -0.00000000000E+00  0.00000000000E+00  0.44565418673E+04  0.44565418673E+04  0.00000000000E+00 0. -1.
         21   -1    0    0  501  502  0.00000000000E+00 -0.00000000000E+00 -0.24757310108E+02  0.24757310108E+02  0.00000000000E+00 0. -1.
         21    1    1    2  503  504 -0.26812644856E+02  0.45481019556E+02  0.38144431199E+03  0.38508077622E+03  0.00000000000E+00 0.  1.
         21    1    1    2  504  505  0.17174017917E+03  0.10487695918E-01  0.18685143456E+04  0.18763902977E+04  0.00000000000E+00 0. -1.
         21    1    1    2  505  502 -0.18724464806E+03 -0.58996672377E+02  0.49631382811E+03  0.53373081376E+03  0.00000000000E+00 0. -1.
          2    1    1    2  501    0  0.42317113752E+02  0.13505165126E+02  0.16855120714E+04  0.16860972898E+04  0.00000000000E+00 0. -1.
<scales pt_clust_3="51.78054" pt_clust_4="14000.00000" pt_clust_5="189.63214" pt_clust_6="44.41990"></scales>
<clustering>
<clus scale="   44.420">  1  6  2 -1</clus>
<clus scale="   51.781">  1  3  2 -1</clus>
<clus scale="  189.632">  2  5  1 -1</clus>
<clus scale="  189.632">  2  3  1 -1</clus>
</clustering>
</event>
<event>
 6    0  0.2433432E+002  0.1021921E+03  0.7546771E-02  0.1275753E+00
         21   -1    0    0  505  502  0.00000000000E+00  0.00000000000E+00  0.52546192728E+03  0.52546192728E+03  0.00000000000E+00 0. -1.
         -1   -1    0    0    0  501 -0.00000000000E+00 -0.00000000000E+00 -0.37321463281E+03  0.37321463281E+03  0.00000000000E+00 0.  1.
         21    1    1    2  503  501  0.80760325309E+02 -0.30253947664E+02  0.21289517856E+02  0.88830034694E+02  0.00000000000E+00 0. -1.
         21    1    1    2  504  502 -0.47187136054E+02  0.98603328726E+02  0.39242857368E+03  0.40736890859E+03  0.00000000000E+00 0. -1.
         21    1    1    2  505  503 -0.26465632099E+02 -0.14845657190E+02  0.64915936909E+02  0.71658231102E+02  0.00000000000E+00 0.  1.
         -1    1    1    2    0  504 -0.71075571560E+01 -0.53503723872E+02 -0.32638673398E+03  0.33081938570E+03  0.00000000000E+00 0.  1.
<scales pt_clust_3="102.19207" pt_clust_4="14000.00000" pt_clust_5="30.34507" pt_clust_6="54.06212"></scales>
<clustering>
<clus scale="   30.345">  1  5  2 -1</clus>
<clus scale="   54.062">  2  6  1 -1</clus>
<clus scale="  102.192">  2  3  1 -1</clus>
<clus scale="   30.345">  1  3  2 -1</clus>
</clustering>
</event>
<event>
 6    0  0.2433432E+002  0.1217566E+03  0.7546771E-02  0.1240227E+00
          1   -1    0    0  503    0 -0.00000000000E+00  0.00000000000E+00  0.18323021814E+03  0.18323021814E+03  0.00000000000E+00 0.  1.
         21   -1    0    0  505  502  0.00000000000E+00 -0.00000000000E+00 -0.10615246851E+04  0.10615246851E+04  0.00000000000E+00 0.  1.
         21    1    1    2  503  504  0.45528738207E+02 -0.15660821377E+02 -0.35594899030E+02  0.59875906389E+02  0.00000000000E+00 0.  1.
         21    1    1    2  504  502  0.81275740389E+02 -0.66405782526E+02 -0.30928681083E+03  0.32660956092E+03  0.00000000000E+00 0.  1.
         21    1    1    2  505  501 -0.97204947691E+02  0.93042862943E+02 -0.68772305518E+03  0.70076299619E+03  0.00000000000E+00 0.  1.
          1    1    1    2  501    0 -0.29599530906E+02 -0.10976259041E+02  0.15431029804E+03  0.15750643978E+03  0.00000000000E+00 0.  1.
<scales pt_clust_3="38.34097" pt_clust_4="14000.00000" pt_clust_5="121.75656" pt_clust_6="31.56914"></scales>
<clustering>
<clus scale="   31.569">  1  6  2 -1</clus>
<clus scale="   38.341">  1  3  2 -1</clus>
<clus scale="  121.757">  2  5  1 -1</clus>
<clus scale="  121.757">  2  3  1 -1</clus>
</clustering>
</event>
<event>
 6    0  0.2433432E+002  0.9363434E+02  0.7546771E-02  0.1294282E+00
          1   -1    0    0  505    0 -0.00000000000E+00  0.00000000000E+00  0.22159640360E+04  0.22159640360E+04  0.00000000000E+00 0. -1.
         21   -1    0    0  504  502  0.00000000000E+00 -0.00000000000E+00 -0.47500134396E+03  0.47500134396E+03  0.00000000000E+00 0. -1.
         21    1    1    2  503  502  0.20934991085E+02 -0.56591355371E+02  0.31912916325E+03  0.32478343275E+03  0.00000000000E+00 0. -1.
         21    1    1    2  504  501 -0.74987691005E+02  0.42415914760E+02 -0.46524034861E+03  0.47314991874E+03  0.00000000000E+00 0. -1.
         21    1    1    2  505  503  0.46474594660E+02 -0.51719963012E+02  0.55980729958E+03  0.56410908093E+03  0.00000000000E+00 0. -1.
          1    1    1    2  501    0  0.75781052599E+01  0.65895403623E+02  0.13272665778E+04  0.13289229475E+04  0.00000000000E+00 0. -1.
<scales pt_clust_3="33.91144" pt_clust_4="86.26812" pt_clust_5="33.91144" pt_clust_6="66.32972"></scales>
<clustering>
<clus scale="   33.911">  3  5 -1 -1</clus>
<clus scale="   66.330">  1  6  2 -1</clus>
<clus scale="   86.268">  2  4  1 -1</clus>
<clus scale="   86.268">  2  3  1 -1</clus>
</clustering>
</event>
<event>
 6    0  0.2433432E+002  0.9051387E+02  0.7546771E-02  0.1301612E+00
          2   -1    0    0  503    0 -0.00000000000E+00  0.00000000000E+00  0.51442781475E+03  0.51442781475E+03  0.00000000000E+00 0.  1.
         21   -1    0    0  504  502  0.00000000000E+00 -0.00000000000E+00 -0.34061555017E+03  0.34061555017E+03  0.00000000000E+00 0. -1.
         21    1    1    2  503  505 -0.37922489189E+02 -0.56151264155E+02  0.13256758750E+03  0.14887996812E+03  0.00000000000E+00 0. -1.
         21    1    1    2  504  501  0.55011550662E+02 -0.43481460209E+02  0.72564440245E+02  0.10090840439E+03  0.00000000000E+00 0. -1.
         21    1    1    2  505  502  0.43169151316E+02  0.12142121985E+02 -0.30676918786E+03  0.31002958145E+03  0.00000000000E+00 0. -1.
          2    1    1    2  501    0 -0.60258212789E+02  0.87490602379E+02  0.27544942470E+03  0.29522541097E+03  0.00000000000E+00 0.  1.
<scales pt_clust_3="59.54689" pt_clust_4="90.51387" pt_clust_5="44.84425" pt_clust_6="14000.00000"></scales>
<clustering>
<clus scale="   44.844">  2  5  1 -1</clus>
<clus scale="   59.547">  2  3  1 -1</clus>
<clus scale="   90.514">  2  4  1 -1</clus>
<clus scale="   44.844">  2  3  1 -1</clus>
</clustering>
</event>
<event>
 6    0  0.2433432E+002  0.1039367E+03  0.7546771E-02  0.1272229E+00
         21   -1    0    0  505  502  0.00000000000E+00  0.00000000000E+00  0.59394406264E+02  0.59394406264E+02  0.00000000000E+00 0.  1.
         -2   -1    0    0    0  501 -0.00000000000E+00 -0.00000000000E+00 -0.48467161820E+04  0.48467161820E+04  0.00000000000E+00 0. -1.
         21    1    1    2  503  501  0.66153180893E+02  0.87275879128E+01 -0.18011366799E+03  0.19207641065E+03  0.00000000000E+00 0.  1.
         21    1    1    2  504  502  0.21435235798E+02 -0.23029834716E+02  0.98263377944E+01  0.32960575468E+02  0.00000000000E+00 0.  1.
         21    1    1    2  505  503 -0.13808390060E+03 -0.24919362211E+02 -0.12302691896E+03  0.18661125638E+03  0.00000000000E+00 0.  1.
         -2    1    1    2    0  504  0.50495483913E+02  0.39221609013E+02 -0.44940075266E+04  0.44944623458E+04  0.00000000000E+00 0. -1.
<scales pt_clust_3="14000.00000" pt_clust_4="31.46176" pt_clust_5="103.93672" pt_clust_6="63.95551"></scales>
<clustering>
<clus scale="   31.462">  1  4  2 -1</clus>
<clus scale="   63.956">  2  6  1 -1</clus>
<clus scale="  103.937">  1  5  2 -1</clus>
<clus scale="   31.462">  1  3  2 -1</clus>
</clustering>
</event>
<event>
 6    0  0.2433432E+002  0.2704502E+03  0.7546771E-02  0.1101022E+00
         21   -1    0    0  503  502  0.00000000000E+00  0.00000000000E+00  0.17569558602E+03  0.17569558602E+03  0.00000000000E+00 0.  1.
          2   -1    0    0  505    0 -0.00000000000E+00 -0.00000000000E+00 -0.32909489907E+04  0.32909489907E+04  0.00000000000E+00 0.  1.
         21    1    1    2  503  504 -0.46195914513E+01 -0.63090045657E+02  0.95667626110E+01  0.63978257503E+02  0.00000000000E+00 0.  1.
         21    1    1    2  504  501 -0.10554638979E+03 -0.10870777207E+03  0.77376203992E+02  0.17013082334E+03  0.00000000000E+00 0.  1.
         21    1    1    2  505  502 -0.45373731334E+01 -0.63601724060E+02 -0.95545735572E+02  0.11486842318E+03  0.00000000000E+00 0. -1.
          2    1    1    2  501    0  0.11470335438E+03  0.23539954179E+03 -0.31066506357E+04  0.31176670727E+04  0.00000000000E+00 0.  1.
<scales pt_clust_3="48.33991" pt_clust_4="48.33991" pt_clust_5="63.76337" pt_clust_6="259.89683"></scales>
<clustering>
<clus scale="   48.340">  3  4 -1 -1</clus>
<clus scale="   63.763">  1  5  2 -1</clus>
<clus scale="  259.897">  2  6  1 -1</clus>
<clus scale="   63.763">  1  3  2 -1</clus>
</clustering>
</event>
<event>
 6    0  0.2433432E+002  0.7543100E+02  0.7546771E-02  0.1342542E+00
         21   -1    0    0  505  502  0.00000000000E+00  0.00000000000E+00  0.23143339963E+03  0.23143339963E+03  0.00000000000E+00 0. -1.
          2   -1    0    0  504    0 -0.00000000000E+00 -0.00000000000E+00 -0.24200170351E+04  0.24200170351E+04  0.00000000000E+00 0. -1.
         21    1    1    2  503  501 -0.87606745538E+02  0.14846149975E+02  0.95788710346E+02  0.13065537518E+03  0.00000000000E+00 0. -1.
         21    1    1    2  504  502  0.46599491348E+02  0.23503633011E+01  0.66515235906E+02  0.81248467119E+02  0.00000000000E+00 0. -1.
         21    1    1    2  505  503 -0.30204242769E+01  0.44131081304E+02  0.32546182335E+02  0.54917477040E+02  0.00000000000E+00 0. -1.
          2    1    1    2  501    0  0.44027678467E+02 -0.61327594580E+02 -0.23834337641E+04  0.23846291154E+04  0.00000000000E+00 0. -1.
<scales pt_clust_3="75.43100" pt_clust_4="49.50797" pt_clust_5="44.23432" pt_clust_6="14000.00000"></scales>
<clustering>
<clus scale="   44.234">  1  5  2 -1</clus>
<clus scale="   49.508">  1  4  2 -1</clus>
<clus scale="   75.431">  1  3  2 -1</clus>
<clus scale="   44.234">  1  3  2 -1</clus>
</clustering>
</event>
<event>
 6    0  0.2433432E+002  0.1225510E+03  0.7546771E-02  0.1238947E+00
          1   -1    0    0  505    0 -0.00000000000E+00  0.00000000000E+00  0.91525235295E+02  0.91525235295E+02  0.00000000000E+00 0.  1.
         21   -1    0    0  503  502  0.00000000000E+00 -0.00000000000E+00 -0.17533390814E+04  0.17533390814E+04  0.00000000000E+00 0. -1.
         21    1    1    2  503  504  0.11554655414E+03 -0.42038907610E+02 -0.13130635610E+04  0.13188078675E+04  0.00000000000E+00 0. -1.
         21    1    1    2  504  501 -0.15165739032E+03 -0.90833937060E+02 -0.24751361000E+03  0.30416073924E+03  0.00000000000E+00 0. -1.
         21    1    1    2  505  502 -0.79548586120E+01  0.70068021250E+02 -0.12332037538E+03  0.14205886935E+03  0.00000000000E+00 0. -1.
          1    1    1    2  501    0  0.44065694792E+02  0.62804823420E+02  0.22083700326E+02  0.79836840634E+02  0.00000000000E+00 0.  1.
<scales pt_clust_3="14000.00000" pt_clust_4="122.55095" pt_clust_5="70.51814" pt_clust_6="113.24293"></scales>
<clustering>
<clus scale="   70.518">  1  5  2 -1</clus>
<clus scale="  113.243">  1  6  2 -1</clus>
<clus scale="  122.551">  1  4  2 -1</clus>
<clus scale="  122.551">  2  3  1 -1</clus>
</clustering>
</event>
<event>
 6    0  0.2433432E+002  0.6015488E+02  0.7546771E-02  0.1397183E+00
          2   -1    0    0  505    0 -0.00000000000E+00  0.00000000000E+00  0.58084525407E+03  0.58084525407E+03  0.00000000000E+00 0. -1.
         21   -1    0    0  503  502  0.00000000000E+00 -0.00000000000E+00 -0.52597556388E+03  0.52597556388E+03  0.00000000000E+00 0. -1.
         21    1    1    2  503  501 -0.58405287044E+01  0.68007049565E+02 -0.38872417807E+02  0.78550209626E+02  0.00000000000E+00 0. -1.
         21    1    1    2  504  502  0.47952531609E+02 -0.23898292840E+02 -0.43741011532E+03  0.44067922877E+03  0.00000000000E+00 0. -1.
         21    1    1    2  505  504 -0.88510146014E+02 -0.65405464091E+01  0.48262516488E+02  0.10102522058E+03  0.00000000000E+00 0. -1.
          2    1    1    2  501    0  0.46398143110E+02 -0.37568210316E+02  0.48288970682E+03  0.48656615898E+03  0.00000000000E+00 0. -1.
<scales pt_clust_3="58.26507" pt_clust_4="53.57774" pt_clust_5="60.15488" pt_clust_6="14000.00000"></scales>
<clustering>
<clus scale="   53.578">  2  4  1 -1</clus>
<clus scale="   58.265">  2  3  1 -1</clus>
<clus scale="   60.155">  2  5  1 -1</clus>
<clus scale="   53.578">  2  3  1 -1</clus>
</clustering>
</event>
<event>
 6    0  0.2433432E+002  0.2004015E+03  0.7546771E-02  0.1149401E+00
         21   -1    0    0  503  502  0.00000000000E+00  0.00000000000E+00  0.54916409593E+03  0.54916409593E+03  0.00000000000E+00 0. -1.
          1   -1    0    0  505    0 -0.00000000000E+00 -0.00000000000E+00 -0.15145339034E+04  0.15145339034E+04  0.00000000000E+00 0. -1.
         21    1    1    2  503  504  0.52260796119E+01  0.34828481352E+02  0.69189815996E+02  0.77637398584E+02  0.00000000000E+00 0.  1.
         21    1    1    2  504  501  0.13313739156E+03 -0.12254118560E+03 -0.68585475821E+03  0.70932267450E+03  0.00000000000E+00 0.  1.
         21    1    1    2  505  502 -0.17375666853E+03  0.75858604911E+02  0.44419244062E+03  0.48296255766E+03  0.00000000000E+00 0. -1.
          1    1    1    2  501    0  0.35393197349E+02  0.11854099335E+02 -0.79289730592E+03  0.79377536862E+03  0.00000000000E+00 0. -1.
<scales pt_clust_3="35.21839" pt_clust_4="200.40149" pt_clust_5="14000.00000" pt_clust_6="37.34036"></scales>
<clustering>
<clus scale="   35.218">  1  3  2 -1</clus>
<clus scale="   37.340">  2  6  1 -1</clus>
<clus scale="  200.401">  2  4  1 -1</clus>
<clus scale="   35.218">  1  3  2 -1</clus>
</clustering>
</event>
<event>
 6    0  0.2433432E+002  0.3211996E+03  0.7546771E-02  0.1075099E+00
          4   -1    0    0  505    0 -0.00000000000E+00  0.00000000000E+00  0.15732061372E+04  0.15732061372E+04  0.00000000000E+00 0.  1.
         21   -1    0    0  501  502  0.00000000000E+00 -0.00000000000E+00 -0.99988371073E+03  0.99988371073E+03  0.00000000000E+00 0.  1.
         21    1    1    2  503  502 -0.10104304593E+03  0.73966069762E+02 -0.60794597327E+03  0.62070845251E+03  0.00000000000E+00 0.  1.
         21    1    1    2  504  503 -0.28503121752E+02  0.13088595522E+03 -0.28618591442E+03  0.31598408003E+03  0.00000000000E+00 0.  1.
         21    1    1    2  505  504 -0.42163096812E+02  0.56050954063E+02 -0.50637590875E+02  0.86507813485E+02  0.00000000000E+00 0. -1.
          4    1    1    2  501    0  0.17170926450E+03 -0.26090297905E+03  0.15180919050E+04  0.15498895019E+04  0.00000000000E+00 0.  1.
<scales pt_clust_3="125.22251" pt_clust_4="67.14545" pt_clust_5="67.14545" pt_clust_6="307.50393"></scales>
<clustering>
<clus scale="   67.145">  4  5 -1 -1</clus>
<clus scale="  125.223">  2  3  1 -1</clus>
<clus scale="  307.504">  1  6  2 -1</clus>
<clus scale="  125.223">  2  3  1 -1</clus>
</clustering>
</event>
<event>
 6    0  0.2433432E+002  0.1703423E+03  0.7546771E-02  0.1177491E+00
         21   -1    0    0  505  502  0.00000000000E+00  0.00000000000E+00  0.16973689335E+03  0.16973689335E+03  0.00000000000E+00 0.  1.
          2   -1    0    0  503    0 -0.00000000000E+00 -0.00000000000E+00 -0.13980718697E+04  0.13980718697E+04  0.00000000000E+00 0.  1.
         21    1    1    2  503  502  0.11352200927E+03 -0.59003672751E+02 -0.77554555628E+02  0.14961079201E+03  0.00000000000E+00 0.  1.
         21    1    1    2  504  501 -0.15818089918E+03  0.11713735728E+03 -0.10159357684E+04  0.10348274460E+04  0.00000000000E+00 0.  1.
         21    1    1    2  505  504  0.49408795202E+02 -0.16555345268E+02  0.11699645193E+03  0.12807606437E+03  0.00000000000E+00 0.  1.
          2    1    1    2  501    0 -0.47499052867E+01 -0.41578339261E+02 -0.25184110424E+03  0.25529446073E+03  0.00000000000E+00 0.  1.
<scales pt_clust_3="170.34227" pt_clust_4="14000.00000" pt_clust_5="52.15114" pt_clust_6="41.84877"></scales>
<clustering>
<clus scale="   41.849">  2  6  1 -1</clus>
<clus scale="   52.151">  1  5  2 -1</clus>
<clus scale="  170.342">  1  3  2 -1</clus>
<clus scale="   52.151">  1  3  2 -1</clus>
</clustering>
</event>
<event>
 6    0  0.2433432E+002  0.1369215E+03  0.7546771E-02  0.1217532E+00
         21   -1    0    0  505  502  0.00000000000E+00  0.00000000000E+00  0.72619458749E+03  0.72619458749E+03  0.00000000000E+00 0.  1.
          2   -1    0    0  504    0 -0.00000000000E+00 -0.00000000000E+00 -0.82640240292E+03  0.82640240292E+03  0.00000000000E+00 0. -1.
         21    1    1    2  503  501  0.87779060133E+02 -0.58692833690E+02 -0.62978471634E+01  0.10578126017E+03  0.00000000000E+00 0.  1.
         21    1    1    2  504  502  0.73121866704E+02  0.22860380605E+00  0.60329537825E+03  0.60771059976E+03  0.00000000000E+00 0.  1.
         21    1    1    2  505  503 -0.17193172702E+02  0.64241579285E+02  0.46804295900E+02  0.81321754846E+02  0.00000000000E+00 0. -1.
          2    1    1    2  501    0 -0.14370775413E+03 -0.57773494005E+01 -0.74400964242E+03  0.75778337563E+03  0.00000000000E+00 0. -1.
<scales pt_clust_3="136.92155" pt_clust_4="82.29716" pt_clust_5="66.50252" pt_clust_6="14000.00000"></scales>
<clustering>
<clus scale="   66.503">  1  5  2 -1</clus>
<clus scale="   82.297">  1  4  2 -1</clus>
<clus scale="  136.922">  1  3  2 -1</clus>
<clus scale="   66.503">  1  3  2 -1</clus>
</clustering>
</event>
<event>
 6    0  0.2433432E+002  0.1034731E+03  0.7546771E-02  0.1273157E+00
         21   -1    0    0  505  502  0.00000000000E+00  0.00000000000E+00  0.50615983517E+03  0.50615983517E+03  0.00000000000E+00 0. -1.
          2   -1    0    0  503    0 -0.00000000000E+00 -0.00000000000E+00 -0.61011928352E+03  0.61011928352E+03  0.00000000000E+00 0.  1.
         21    1    1    2  503  504 -0.24559409129E+02  0.80378248695E+02  0.19561488732E+02  0.86292985123E+02  0.00000000000E+00 0.  1.
         21    1    1    2  504  502 -0.38244373247E+02 -0.69504213690E+02  0.36147221831E+03  0.37007517131E+03  0.00000000000E+00 0. -1.
         21    1    1    2  505  501  0.92881196583E+01 -0.64278678470E+02  0.72487791492E+02  0.97326756794E+02  0.00000000000E+00 0. -1.
          2    1    1    2  501    0  0.53515662718E+02  0.53404643465E+02 -0.55748094689E+03  0.56258420547E+03  0.00000000000E+00 0.  1.
<scales pt_clust_3="103.47311" pt_clust_4="14000.00000" pt_clust_5="64.94627" pt_clust_6="75.36957"></scales>
<clustering>
<clus scale="   64.946">  1  5  2 -1</clus>
<clus scale="   75.370">  2  6  1 -1</clus>
<clus scale="  103.473">  2  3  1 -1</clus>
<clus scale="   64.946">  1  3  2 -1</clus>
</clustering>
</event>
<event>
 6    0  0.2433432E+002  0.9584299E+02  0.7546771E-02  0.1289289E+00
          1   -1    0    0  504    0 -0.00000000000E+00  0.00000000000E+00  0.15771430198E+04  0.15771430198E+04  0.00000000000E+00 0.  1.
         21   -1    0    0  503  502  0.00000000000E+00 -0.00000000000E+00 -0.26667623106E+02  0.26667623106E+02  0.00000000000E+00 0.  1.
         21    1    1    2  503  501  0.52906790819E+02 -0.30668248336E+02  0.21450422664E+03  0.22305096552E+03  0.00000000000E+00 0.  1.
         21    1    1    2  504  505 -0.12984886579E+03  0.48852922256E+02  0.24823284417E+03  0.28437102680E+03  0.00000000000E+00 0.  1.
         21    1    1    2  505  502  0.61757234912E+00  0.31616168592E+02  0.11125454561E+03  0.11566130482E+03  0.00000000000E+00 0. -1.
          1    1    1    2  501    0  0.76324502619E+02 -0.49800842513E+02  0.97648378023E+03  0.98072734573E+03  0.00000000000E+00 0.  1.
<scales pt_clust_3="58.67585" pt_clust_4="14000.00000" pt_clust_5="31.62220" pt_clust_6="95.84299"></scales>
<clustering>
<clus scale="   31.622">  2  5  1 -1</clus>
<clus scale="   58.676">  2  3  1 -1</clus>
<clus scale="   95.843">  1  6  2 -1</clus>
<clus scale="   31.622">  2  3  1 -1</clus>
</clustering>
</event>
<event>
 6    0  0.2433432E+002  0.9970598E+02  0.7546771E-02  0.1280915E+00
          1   -1    0    0  503    0 -0.00000000000E+00  0.00000000000E+00  0.48471003763E+03  0.48471003763E+03  0.00000000000E+00 0.  1.
         21   -1    0    0  504  502  0.00000000000E+00 -0.00000000000E+00 -0.70245270827E+02  0.70245270827E+02  0.00000000000E+00 0.  1.
         21    1    1    2  503  505 -0.26260278832E+01 -0.55704186451E+02  0.29401898731E+02  0.63042240280E+02  0.00000000000E+00 0.  1.
         21    1    1    2  504  501 -0.81198205563E+02  0.39045547336E+02  0.51326872607E+02  0.10369258028E+03  0.00000000000E+00 0. -1.
         21    1    1    2  505  502  0.36088249590E+02 -0.39630326683E+02  0.79584463648E+01  0.54187280980E+02  0.00000000000E+00 0.  1.
          1    1    1    2  501    0  0.47735983856E+02  0.56288965798E+02  0.32577754910E+03  0.33403320692E+03  0.00000000000E+00 0.  1.
<scales pt_clust_3="45.33759" pt_clust_4="88.33293" pt_clust_5="45.33759" pt_clust_6="73.80496"></scales>
<clustering>
<clus scale="   45.338">  3  5 -1 -1</clus>
<clus scale="   73.805">  1  6  2 -1</clus>
<clus scale="   88.333">  1  4  2 -1</clus>
<clus scale="   99.706">  2  3  1 -1</clus>
</clustering>
</event>
<event>
 6    0  0.2433432E+002  0.1627624E+03  0.7546771E-02  0.1185613E+00
         21   -1    0    0  504  502  0.00000000000E+00  0.00000000000E+00  0.37472182990E+03  0.37472182990E+03  0.00000000000E+00 0.  1.
          2   -1    0    0  503    0 -0.00000000000E+00 -0.00000000000E+00 -0.91889279763E+03  0.91889279763E+03  0.00000000000E+00 0. -1.
         21    1    1    2  503  505 -0.22210378954E+03 -0.15886579308E+02  0.28980858367E+03  0.36547433822E+03  0.00000000000E+00 0.  1.
         21    1    1    2  504  501  0.31923288733E+02  0.51949489543E+01 -0.12743205524E+02  0.34763100339E+02  0.00000000000E+00 0.  1.
         21    1    1    2  505  502  0.32178235462E+02 -0.22235901122E+02  0.14863225875E+02  0.41842438021E+02  0.00000000000E+00 0.  1.
          2    1    1    2  501    0  0.15800226534E+03  0.32927531476E+02 -0.83609957175E+03  0.85153475094E+03  0.00000000000E+00 0. -1.
<scales pt_clust_3="162.76240" pt_clust_4="32.34322" pt_clust_5="40.96798" pt_clust_6="14000.00000"></scales>
<clustering>
<clus scale="   32.343">  1  4  2 -1</clus>
<clus scale="   40.968">  1  5  2 -1</clus>
<clus scale="  162.762">  1  3  2 -1</clus>
<clus scale="   32.343">  1  3  2 -1</clus>
</clustering>
</event>
<event>
 6    0  0.2433432E+002  0.9516594E+02  0.7546771E-02  0.1290803E+00
         21   -1    0    0  505  502  0.00000000000E+00  0.00000000000E+00  0.22262132865E+03  0.22262132865E+03  0.00000000000E+00 0.  1.
          2   -1    0    0  503    0 -0.00000000000E+00 -0.00000000000E+00 -0.19336247180E+03  0.19336247180E+03  0.00000000000E+00 0.  1.
         21    1    1    2  503  504 -0.70637006567E+02  0.10143952692E+03 -0.12067633721E+02  0.12419819686E+03  0.00000000000E+00 0.  1.
         21    1    1    2  504  502  0.67255446825E+02 -0.26188523697E+02  0.13409367409E+03  0.15228344405E+03  0.00000000000E+00 0.  1.
         21    1    1    2  505  501  0.90471527521E+01 -0.32985043927E+02  0.33330297734E+01  0.34365290385E+02  0.00000000000E+00 0.  1.
          2    1    1    2  501    0 -0.56655930100E+01 -0.42265959299E+02 -0.96100213298E+02  0.10513686915E+03  0.00000000000E+00 0.  1.
<scales pt_clust_3="14000.00000" pt_clust_4="95.16594" pt_clust_5="34.20328" pt_clust_6="43.34326"></scales>
<clustering>
<clus scale="   34.203">  1  5  2 -1</clus>
<clus scale="   43.343">  2  6  1 -1</clus>
<clus scale="   95.166">  1  4  2 -1</clus>
<clus scale="   34.203">  1  3  2 -1</clus>
</clustering>
</event>
<event>
 6    0  0.2433432E+002  0.9486580E+02  0.7546771E-02  0.1291479E+00
         21   -1    0    0  504  502  0.00000000000E+00  0.00000000000E+00  0.24914198153E+04  0.24914198153E+04  0.00000000000E+00 0. -1.
          1   -1    0    0  505    0 -0.00000000000E+00 -0.00000000000E+00 -0.32423766044E+03  0.32423766044E+03  0.00000000000E+00 0. -1.
         21    1    1    2  503  501 -0.12536569695E+02 -0.63968690313E+02 -0.12077834912E+03  0.13724637896E+03  0.00000000000E+00 0. -1.
         21    1    1    2  504  503  0.11412967980E+02 -0.34070545212E+02  0.21750587482E+04  0.21753555148E+04  0.00000000000E+00 0. -1.
         21    1    1    2  505  502  0.21084593274E+02  0.12435009180E+03  0.29350536308E+03  0.31945720145E+03  0.00000000000E+00 0. -1.
          1    1    1    2  501    0 -0.19960991560E+02 -0.26310856275E+02 -0.18060360731E+03  0.18359838048E+03  0.00000000000E+00 0. -1.
<scales pt_clust_3="94.86580" pt_clust_4="35.95073" pt_clust_5="14000.00000" pt_clust_6="33.02578"></scales>
<clustering>
<clus scale="   33.026">  2  6  1 -1</clus>
<clus scale="   35.951">  1  4  2 -1</clus>
<clus scale="   94.866">  2  3  1 -1</clus>
<clus scale="   35.951">  1  3  2 -1</clus>
</clustering>
</event>
<event>
 6    0  0.2433432E+002  0.1222758E+03  0.7546771E-02  0.1239389E+00
          2   -1    0    0  503    0 -0.00000000000E+00  0.00000000000E+00  0.58659249087E+03  0.58659249087E+03  0.00000000000E+00 0. -1.
         21   -1    0    0  504  502  0.00000000000E+00 -0.00000000000E+00 -0.24220541817E+03  0.24220541817E+03  0.00000000000E+00 0. -1.
         21    1    1    2  503  502  0.10021817200E+03 -0.10865291997E+03 -0.45117870104E+02  0.15454695474E+03  0.00000000000E+00 0. -1.
         21    1    1    2  504  505 -0.40681075623E+02  0.43397669971E+02 -0.10160834770E+03  0.11773939016E+03  0.00000000000E+00 0. -1.
         21    1    1    2  505  501 -0.18854144475E+02  0.36423525941E+02 -0.18123116439E+02  0.44839707350E+02  0.00000000000E+00 0. -1.
          2    1    1    2  501    0 -0.40682951902E+02  0.28831724054E+02  0.50923640694E+03  0.51167185680E+03  0.00000000000E+00 0. -1.
<scales pt_clust_3="113.00838" pt_clust_4="38.77420" pt_clust_5="38.77420" pt_clust_6="49.86352"></scales>
<clustering>
<clus scale="   38.774">  4  5 -1 -1</clus>
<clus scale="   49.864">  1  6  2 -1</clus>
<clus scale="  113.008">  1  3  2 -1</clus>
<clus scale="  122.276">  2  3  1 -1</clus>
</clustering>
</event>
<event>
 6    0  0.2433432E+002  0.1277320E+03  0.7546771E-02  0.1230860E+00
         21   -1    0    0  503  502  0.00000000000E+00  0.00000000000E+00  0.61154513601E+02  0.61154513601E+02  0.00000000000E+00 0. -1.
          2   -1    0    0  505    0 -0.00000000000E+00 -0.00000000000E+00 -0.10616219339E+04  0.10616219339E+04  0.00000000000E+00 0. -1.
         21    1    1    2  503  504 -0.56209025199E+02  0.11308948692E+03 -0.80823214979E+02  0.14993691555E+03  0.00000000000E+00 0. -1.
         21    1    1    2  504  501 -0.16889979715E+02  0.31132136917E+02 -0.71352960219E+02  0.79660067134E+02  0.00000000000E+00 0. -1.
         21    1    1    2  505  502  0.42228358603E+02 -0.78749410215E+02 -0.75434757364E+02  0.11694061099E+03  0.00000000000E+00 0. -1.
          2    1    1    2  501    0  0.30870646311E+02 -0.65472213618E+02 -0.77285648775E+03  0.77623885384E+03  0.00000000000E+00 0. -1.
<scales pt_clust_3="30.94259" pt_clust_4="30.94259" pt_clust_5="113.58527" pt_clust_6="72.38513"></scales>
<clustering>
<clus scale="   30.943">  3  4 -1 -1</clus>
<clus scale="   72.385">  2  6  1 -1</clus>
<clus scale="  113.585">  1  5  2 -1</clus>
<clus scale="  113.585">  1  3  2 -1</clus>
</clustering>
</event>
<event>
 6    0  0.2433432E+002  0.1586152E+03  0.7546771E-02  0.1190269E+00
          2   -1    0    0  504    0 -0.00000000000E+00  0.00000000000E+00  0.10818982716E+04  0.10818982716E+04  0.00000000000E+00 0.  1.
         21   -1    0    0  503  502  0.00000000000E+00 -0.00000000000E+00 -0.45368975503E+03  0.45368975503E+03  0.00000000000E+00 0. -1.
         21    1    1    2  503  505  0.11646549149E+03 -0.63768029207E+02 -0.32548157786E+03  0.35152358354E+03  0.00000000000E+00 0. -1.
         21    1    1    2  504  502 -0.24775210881E+02  0.23823561441E+02 -0.13867890064E+02  0.37063344813E+02  0.00000000000E+00 0.  1.
         21    1    1    2  505  501  0.37095051034E+02 -0.38424529297E+02 -0.75845283016E+02  0.92763108070E+02  0.00000000000E+00 0. -1.
          2    1    1    2  501    0 -0.12878533164E+03  0.78368997064E+02  0.10434032676E+04  0.10542379903E+04  0.00000000000E+00 0.  1.
<scales pt_clust_3="30.43760" pt_clust_4="34.37111" pt_clust_5="30.43760" pt_clust_6="151.18042"></scales>
<clustering>
<clus scale="   30.438">  3  5 -1 -1</clus>
<clus scale="   34.371">  2  4  1 -1</clus>
<clus scale="  151.180">  1  6  2 -1</clus>
<clus scale="   34.371">  2  3  1 -1</clus>
</clustering>
</event>
<event>
 6    0  0.2433432E+002  0.1072949E+03  0.7546771E-02  0.1265663E+00
          2   -1    0    0  503    0 -0.00000000000E+00  0.00000000000E+00  0.17828825147E+04  0.17828825147E+04  0.00000000000E+00 0.  1.
         21   -1    0    0  501  502  0.00000000000E+00 -0.00000000000E+00 -0.14406638489E+03  0.14406638489E+03  0.00000000000E+00 0.  1.
         21    1    1    2  503  504  0.18006160659E+02 -0.39831602759E+02  0.71942641657E+03  0.72075318054E+03  0.00000000000E+00 0.  1.
         21    1    1    2  504  505 -0.43924209773E+02 -0.28127616983E+02  0.77421334914E+02  0.93351819164E+02  0.00000000000E+00 0.  1.
         21    1    1    2  505  502 -0.97923108043E+02 -0.41004350944E+02 -0.10636043555E+03  0.15027586012E+03  0.00000000000E+00 0.  1.
          2    1    1    2  501    0  0.12384115716E+03  0.10896357069E+03  0.94832881383E+03  0.96256803972E+03  0.00000000000E+00 0.  1.
<scales pt_clust_3="43.71245" pt_clust_4="52.78041" pt_clust_5="14000.00000" pt_clust_6="107.29492"></scales>
<clustering>
<clus scale="   43.712">  1  3  2 -1</clus>
<clus scale="   52.780">  1  4  2 -1</clus>
<clus scale="  107.295">  1  6  2 -1</clus>
<clus scale="  107.295">  2  3  1 -1</clus>
</clustering>
</event>
<event>
 6    0  0.2433432E+002  0.1016959E+03  0.7546771E-02  0.1276770E+00
          2   -1    0    0  503    0 -0.00000000000E+00  0.00000000000E+00  0.41574988117E+04  0.41574988117E+04  0.00000000000E+00 0.  1.
         21   -1    0    0  504  502  0.00000000000E+00 -0.00000000000E+00 -0.28986041571E+02  0.28986041571E+02  0.00000000000E+00 0.  1.
         21    1    1    2  503  505 -0.24482674782E+02 -0.78331262304E+02  0.30416498765E+03  0.31504210470E+03  0.00000000000E+00 0.  1.
         21    1    1    2  504  501  0.76973102808E+02  0.27233470595E+02  0.38702780035E+03  0.39554650639E+03  0.00000000000E+00 0.  1.
         21    1    1    2  505  502 -0.32960253824E+02  0.11493344451E+03  0.16968308586E+03  0.20757751474E+03  0.00000000000E+00 0.  1.
          2    1    1    2  501    0 -0.19530174202E+02 -0.63835652803E+02  0.32676368962E+04  0.32683187274E+04  0.00000000000E+00 0.  1.
<scales pt_clust_3="101.69594" pt_clust_4="68.38731" pt_clust_5="14000.00000" pt_clust_6="66.75641"></scales>
<clustering>
<clus scale="   66.756">  1  6  2 -1</clus>
<clus scale="   68.387">  1  4  2 -1</clus>
<clus scale="  101.696">  1  3  2 -1</clus>
<clus scale="  101.696">  2  3  1 -1</clus>
</clustering>
</event>
<event>
 6    0  0.2433432E+002  0.1593694E+03  0.7546771E-02  0.1189410E+00
         21   -1    0    0  503  502  0.00000000000E+00  0.00000000000E+00  0.58118215111E+02  0.58118215111E+02  0.00000000000E+00 0. -1.
          2   -1    0    0  505    0 -0.00000000000E+00 -0.00000000000E+00 -0.74367564707E+03  0.74367564707E+03  0.00000000000E+00 0.  1.
         21    1    1    2  503  504 -0.38332054679E+02  0.10436769491E+02 -0.37673598701E+02  0.54750092351E+02  0.00000000000E+00 0. -1.
         21    1    1    2  504  501 -0.60804981488E+02  0.75753321779E+02 -0.21094961402E+03  0.23224028761E+03  0.00000000000E+00 0.  1.
         21    1    1    2  505  502  0.13221533670E+03 -0.89977239852E+02 -0.13008326124E+03  0.20615153117E+03  0.00000000000E+00 0. -1.
          2    1    1    2  501    0 -0.33078300533E+02  0.37871485830E+01 -0.30685095800E+03  0.30865195105E+03  0.00000000000E+00 0.  1.
<scales pt_clust_3="36.00119" pt_clust_4="36.00119" pt_clust_5="148.67927" pt_clust_6="33.29439"></scales>
<clustering>
<clus scale="   33.294">  2  6  1 -1</clus>
<clus scale="   36.001">  3  4 -1 -1</clus>
<clus scale="  148.679">  1  5  2 -1</clus>
<clus scale="  148.679">  1  3  2 -1</clus>
</clustering>
</event>
<event>
 6    0  0.2433432E+002  0.1724572E+03  0.7546771E-02  0.1175309E+00
          2   -1    0    0  505    0 -0.00000000000E+00  0.00000000000E+00  0.22325917942E+02  0.22325917942E+02  0.00000000000E+00 0. -1.
         21   -1    0    0  503  502  0.00000000000E+00 -0.00000000000E+00 -0.24424291057E+04  0.24424291057E+04  0.00000000000E+00 0. -1.
         21    1    1    2  503  501  0.55823384069E+02  0.23035862304E+02 -0.97475533821E+03  0.97662422176E+03  0.00000000000E+00 0. -1.
         21    1    1    2  504  502 -0.25955811113E+02 -0.98024960876E+02 -0.48814563670E+03  0.49856670538E+03  0.00000000000E+00 0. -1.
         21    1    1    2  505  504 -0.88946601176E+02 -0.51865686621E+02 -0.53368846273E+03  0.54353005672E+03  0.00000000000E+00 0. -1.
          2    1    1    2  501    0  0.59079028220E+02  0.12685478519E+03 -0.42351375011E+03  0.44603403977E+03  0.00000000000E+00 0. -1.
<scales pt_clust_3="60.38958" pt_clust_4="74.19547" pt_clust_5="74.19547" pt_clust_6="153.59204"></scales>
<clustering>
<clus scale="   60.390">  2  3  1 -1</clus>
<clus scale="   74.195">  4  5 -1 -1</clus>
<clus scale="  153.592">  1  6  2 -1</clus>
<clus scale="   60.390">  2  3  1 -1</clus>
</clustering>
</event>
<event>
 6    0  0.2433432E+002  0.2652042E+03  0.7546771E-02  0.1104056E+00
         -1   -1    0    0    0  501 -0.00000000000E+00  0.00000000000E+00  0.16244785856E+04  0.16244785856E+04  0.00000000000E+00 0.  1.
         21   -1    0    0  504  502  0.00000000000E+00 -0.00000000000E+00 -0.67773228943E+02  0.67773228943E+02  0.00000000000E+00 0.  1.
         21    1    1    2  503  502 -0.14321779989E+03  0.22126621255E+03  0.36084149156E+03  0.44685194086E+03  0.00000000000E+00 0.  1.
         21    1    1    2  504  505  0.28813934324E+02 -0.11346112065E+03  0.29354408547E+03  0.31602499715E+03  0.00000000000E+00 0.  1.
         21    1    1    2  505  501  0.81213437117E+02 -0.12051589469E+03  0.39625590702E+03  0.42206450584E+03  0.00000000000E+00 0.  1.
         -1    1    1    2    0  503  0.33190428450E+02  0.12710802782E+02  0.50606387263E+03  0.50731037071E+03  0.00000000000E+00 0.  1.
<scales pt_clust_3="261.21339" pt_clust_4="40.52671" pt_clust_5="40.52671" pt_clust_6="35.54109"></scales>
<clustering>
<clus scale="   35.541">  1  6  2 -1</clus>
<clus scale="   40.527">  4  5 -1 -1</clus>
<clus scale="  261.213">  2  3  1 -1</clus>
<clus scale="  261.213">  2  3  1 -1</clus>
</clustering>
</event>
<event>
 6    0  0.2433432E+002  0.9658101E+02  0.7546771E-02  0.1287654E+00
          2   -1    0    0  504    0 -0.00000000000E+00  0.00000000000E+00  0.79436239502E+03  0.79436239502E+03  0.00000000000E+00 0.  1.
         21   -1    0    0  505  502  0.00000000000E+00 -0.00000000000E+00 -0.82135877623E+02  0.82135877623E+02  0.00000000000E+00 0. -1.
         21    1    1    2  503  502  0.27117924547E+02 -0.51735618612E+02  0.14241450857E+02  0.60122998822E+02  0.00000000000E+00 0. -1.
         21    1    1    2  504  503  0.81074492556E+02  0.89181722942E+02  0.10823886926E+03  0.16199415381E+03  0.00000000000E+00 0. -1.
         21    1    1    2  505  501 -0.66054735931E+02 -0.42559991124E+02  0.17424125216E+02  0.80487148807E+02  0.00000000000E+00 0. -1.
          2    1    1    2  501    0 -0.42137681171E+02  0.51138867939E+01  0.57232207206E+03  0.57389397120E+03  0.00000000000E+00 0.  1.
<scales pt_clust_3="54.67957" pt_clust_4="14000.00000" pt_clust_5="96.58101" pt_clust_6="42.44686"></scales>
<clustering>
<clus scale="   42.447">  1  6  2 -1</clus>
<clus scale="   54.680">  2  3  1 -1</clus>
<clus scale="   96.581">  2  5  1 -1</clus>
<clus scale="   54.680">  2  3  1 -1</clus>
</clustering>
</event>
<event>
 6    0  0.2433432E+002  0.1063965E+03  0.7546771E-02  0.1267392E+00
          2   -1    0    0  503    0 -0.00000000000E+00  0.00000000000E+00  0.36948065256E+03  0.36948065256E+03  0.00000000000E+00 0.  1.
         21   -1    0    0  504  502  0.00000000000E+00 -0.00000000000E+00 -0.11509952284E+03  0.11509952284E+03  0.00000000000E+00 0. -1.
         21    1    1    2  503  502 -0.52048607827E+01 -0.88717317637E+02  0.88676092094E+02  0.12554402548E+03  0.00000000000E+00 0. -1.
         21    1    1    2  504  505 -0.22616062113E+02  0.11170399195E+03 -0.38318235831E+02  0.12023957452E+03  0.00000000000E+00 0. -1.
         21    1    1    2  505  501  0.42023980893E+02  0.46876036397E+01  0.11560707599E+02  0.43836498014E+02  0.00000000000E+00 0. -1.
          2    1    1    2  501    0 -0.14203057997E+02 -0.27674277951E+02  0.19246256586E+03  0.19496007739E+03  0.00000000000E+00 0.  1.
<scales pt_clust_3="14000.00000" pt_clust_4="106.39652" pt_clust_5="39.78713" pt_clust_6="31.10615"></scales>
<clustering>
<clus scale="   31.106">  1  6  2 -1</clus>
<clus scale="   39.787">  1  5  2 -1</clus>
<clus scale="  106.397">  2  4  1 -1</clus>
<clus scale="  106.397">  2  3  1 -1</clus>
</clustering>
</event>
<event>
 6    0  0.2433432E+002  0.2620565E+03  0.7546771E-02  0.1105914E+00
         21   -1    0    0  503  502  0.00000000000E+00  0.00000000000E+00  0.34184985756E+03  0.34184985756E+03  0.00000000000E+00 0.  1.
          1   -1    0    0  505    0 -0.00000000000E+00 -0.00000000000E+00 -0.17575157400E+04  0.17575157400E+04  0.00000000000E+00 0. -1.
         21    1    1    2  503  501 -0.25522035264E+03 -0.36354062918E+02 -0.16647057657E+03  0.30687375117E+03  0.00000000000E+00 0.  1.
         21    1    1    2  504  502  0.91494785660E+02  0.28135154188E+02  0.11561658368E+03  0.15010022361E+03  0.00000000000E+00 0.  1.
         21    1    1    2  505  504  0.15377611106E+03 -0.36944693078E+02  0.93250196684E+02  0.18359630133E+03  0.00000000000E+00 0.  1.
          1    1    1    2  501    0  0.99494559219E+01  0.45163601808E+02 -0.14580620862E+04  0.14587953214E+04  0.00000000000E+00 0. -1.
<scales pt_clust_3="247.34796" pt_clust_4="67.80771" pt_clust_5="67.80771" pt_clust_6="46.24654"></scales>
<clustering>
<clus scale="   46.247">  2  6  1 -1</clus>
<clus scale="   67.808">  4  5 -1 -1</clus>
<clus scale="  247.348">  2  3  1 -1</clus>
<clus scale="  262.057">  1  3  2 -1</clus>
</clustering>
</event>
<event>
 6    0  0.2433432E+002  0.1224412E+03  0.7546771E-02  0.1239123E+00
         21   -1    0    0  501  502  0.00000000000E+00  0.00000000000E+00  0.22320294878E+02  0.22320294878E+02  0.00000000000E+00 0.  1.
          1   -1    0    0  504    0 -0.00000000000E+00 -0.00000000000E+00 -0.20832219271E+04  0.20832219271E+04  0.00000000000E+00 0.  1.
         21    1    1    2  503  502  0.76457288652E+02  0.78584444350E+02 -0.17497941505E+03  0.20649219737E+03  0.00000000000E+00 0.  1.
         21    1    1    2  504  505 -0.40808690142E+02 -0.57181487670E+02 -0.38358638810E+03  0.38996613809E+03  0.00000000000E+00 0.  1.
         21    1    1    2  505  503 -0.66271421109E+02 -0.19721224610E+02 -0.37439620794E+03  0.38072739391E+03  0.00000000000E+00 0.  1.
          1    1    1    2  501    0  0.30622822599E+02 -0.16817320711E+01 -0.11279396211E+04  0.11283564926E+04  0.00000000000E+00 0.  1.
<scales pt_clust_3="113.75907" pt_clust_4="42.90962" pt_clust_5="42.90962" pt_clust_6="30.66897"></scales>
<clustering>
<clus scale="   30.669">  2  6  1 -1</clus>
<clus scale="   42.910">  4  5 -1 -1</clus>
<clus scale="  113.759">  1  3  2 -1</clus>
<clus scale="  113.759">  1  3  2 -1</clus>
</clustering>
</event>
<event>
 6    0  0.2433432E+002  0.6404703E+02  0.7546771E-02  0.1381592E+00
         21   -1    0    0  504  502  0.00000000000E+00  0.00000000000E+00  0.36327140314E+03  0.36327140314E+03  0.00000000000E+00 0. -1.
          2   -1    0    0  503    0 -0.00000000000E+00 -0.00000000000E+00 -0.42543591383E+03  0.42543591383E+03  0.00000000000E+00 0. -1.
         21    1    1    2  503  505  0.55050115301E+02  0.62207958969E+02  0.89658730958E+02  0.12222533858E+03  0.00000000000E+00 0. -1.
         21    1    1    2  504  501 -0.36489370551E+02 -0.55403341240E+02 -0.46453931527E+02  0.80987481366E+02  0.00000000000E+00 0.  1.
         21    1    1    2  505  502  0.75072708031E+01  0.51227492068E+02  0.23428294435E+03  0.23993564361E+03  0.00000000000E+00 0. -1.
          2    1    1    2  501    0 -0.26068015553E+02 -0.58032109797E+02 -0.33965225447E+03  0.34555885341E+03  0.00000000000E+00 0. -1.
<scales pt_clust_3="64.04703" pt_clust_4="59.99464" pt_clust_5="51.77466" pt_clust_6="14000.00000"></scales>
<clustering>
<clus scale="   51.775">  1  5  2 -1</clus>
<clus scale="   59.995">  1  4  2 -1</clus>
<clus scale="   64.047">  1  3  2 -1</clus>
<clus scale="   51.775">  1  3  2 -1</clus>
</clustering>
</event>
<event>
 6    0  0.2433432E+002  0.1796613E+03  0.7546771E-02  0.1168131E+00
          3   -1    0    0  504    0 -0.00000000000E+00  0.00000000000E+00  0.52646478251E+02  0.52646478251E+02  0.00000000000E+00 0. -1.
         21   -1    0    0  505  502  0.00000000000E+00 -0.00000000000E+00 -0.12142887449E+04  0.12142887449E+04  0.00000000000E+00 0. -1.
         21    1    1    2  503  501  0.45208944801E+02  0.61227514050E+02 -0.18793015661E+03  0.20275699970E+03  0.00000000000E+00 0. -1.
         21    1    1    2  504  502 -0.12257130444E+03 -0.13955954858E+03 -0.59146065550E+03  0.61994056109E+03  0.00000000000E+00 0. -1.
         21    1    1    2  505  503  0.35950461210E+02  0.79832474222E+02 -0.39200723846E+03  0.40166570006E+03  0.00000000000E+00 0. -1.
          3    1    1    2  501    0  0.41411898424E+02 -0.15004396885E+01  0.97557839562E+01  0.42571962263E+02  0.00000000000E+00 0. -1.
<scales pt_clust_3="48.03773" pt_clust_4="172.52116" pt_clust_5="48.03773" pt_clust_6="41.43907"></scales>
<clustering>
<clus scale="   41.439">  1  6  2 -1</clus>
<clus scale="   48.038">  3  5 -1 -1</clus>
<clus scale="  172.521">  1  4  2 -1</clus>
<clus scale="  179.661">  2  3  1 -1</clus>
</clustering>
</event>
<event>
 6    0  0.2433432E+002  0.1265845E+03  0.7546771E-02  0.1232614E+00
          4   -1    0    0  502    0 -0.00000000000E+00  0.00000000000E+00  0.15182482955E+03  0.15182482955E+03  0.00000000000E+00 0. -1.
         21   -1    0    0  505  502  0.00000000000E+00 -0.00000000000E+00 -0.23447242249E+04  0.23447242249E+04  0.00000000000E+00 0. -1.
         21    1    1    2  503  504 -0.48847163102E+02 -0.66011619476E+02 -0.11268284385E+04  0.11298167591E+04  0.00000000000E+00 0. -1.
         21    1    1    2  504  501  0.97443186455E+02  0.35438652055E+02 -0.38857804363E+03  0.40217405266E+03  0.00000000000E+00 0. -1.
         21    1    1    2  505  503 -0.47208126230E+02 -0.13705257347E+01 -0.81855580594E+03  0.81991712566E+03  0.00000000000E+00 0. -1.
          4    1    1    2  501    0 -0.13878971220E+01  0.31943493156E+02  0.14106289277E+03  0.14464111701E+03  0.00000000000E+00 0. -1.
<scales pt_clust_3="43.87834" pt_clust_4="113.35014" pt_clust_5="43.87834" pt_clust_6="31.97363"></scales>
<clustering>
<clus scale="   31.974">  1  6  2 -1</clus>
<clus scale="   43.878">  3  5 -1 -1</clus>
<clus scale="  113.350">  1  4  2 -1</clus>
<clus scale="  126.585">  2  3  1 -1</clus>
</clustering>
</event>
<event>
 6    0  0.2433432E+002  0.1426792E+03  0.7546771E-02  0.1209769E+00
          2   -1    0    0  505    0 -0.00000000000E+00  0.00000000000E+00  0.18420495964E+04  0.18420495964E+04  0.00000000000E+00 0. -1.
         21   -1    0    0  504  502  0.00000000000E+00 -0.00000000000E+00 -0.12636386853E+03  0.12636386853E+03  0.00000000000E+00 0. -1.
         21    1    1    2  503  501  0.76231334179E+02  0.59100444225E+02  0.13854502380E+03  0.16881588325E+03  0.00000000000E+00 0. -1.
         21    1    1    2  504  503  0.91586647658E+02  0.37622869180E+01 -0.19622174627E+02  0.93740591897E+02  0.00000000000E+00 0. -1.
         21    1    1    2  505  502 -0.22623885100E+03 -0.58679920196E+02  0.19928197887E+03  0.30714924360E+03  0.00000000000E+00 0. -1.
          2    1    1    2  501    0  0.58420869166E+02 -0.41828109474E+01  0.13974808998E+04  0.13987077462E+04  0.00000000000E+00 0. -1.
<scales pt_clust_3="142.67922" pt_clust_4="96.52370" pt_clust_5="14000.00000" pt_clust_6="58.57042"></scales>
<clustering>
<clus scale="   58.570">  1  6  2 -1</clus>
<clus scale="   96.524">  2  4  1 -1</clus>
<clus scale="  142.679">  1  3  2 -1</clus>
<clus scale="   96.524">  2  3  1 -1</clus>
</clustering>
</event>
<event>
 6    0  0.2433432E+002  0.1156391E+03  0.7546771E-02  0.1250470E+00
         21   -1    0    0  501  502  0.00000000000E+00  0.00000000000E+00  0.57212026542E+03  0.57212026542E+03  0.00000000000E+00 0.  1.
         -1   -1    0    0    0  501 -0.00000000000E+00 -0.00000000000E+00 -0.32856805144E+02  0.32856805144E+02  0.00000000000E+00 0.  1.
         21    1    1    2  503  502  0.34772360872E+02 -0.24076356912E+02  0.17268044992E+03  0.17778449266E+03  0.00000000000E+00 0.  1.
         21    1    1    2  504  503  0.22010650276E+02 -0.61490264434E+02  0.13821914526E+03  0.15287267075E+03  0.00000000000E+00 0.  1.
         21    1    1    2  505  504 -0.86141751662E+02  0.73757346713E+02  0.20734275974E+03  0.23632936252E+03  0.00000000000E+00 0.  1.
         -1    1    1    2    0  505  0.29358740514E+02  0.11809274633E+02  0.21021105361E+02  0.37990544646E+02  0.00000000000E+00 0.  1.
<scales pt_clust_3="37.87197" pt_clust_4="37.87197" pt_clust_5="106.03188" pt_clust_6="31.64482"></scales>
<clustering>
<clus scale="   31.645">  2  6  1 -1</clus>
<clus scale="   37.872">  3  4 -1 -1</clus>
<clus scale="  106.032">  2  5  1 -1</clus>
<clus scale="  115.639">  1  3  2 -1</clus>
</clustering>
</event>
<event>
 6    0  0.2433432E+002  0.7371926E+02  0.7546771E-02  0.1347884E+00
          1   -1    0    0  503    0 -0.00000000000E+00  0.00000000000E+00  0.37672895817E+03  0.37672895817E+03  0.00000000000E+00 0.  1.
         21   -1    0    0  504  502  0.00000000000E+00 -0.00000000000E+00 -0.68712922818E+03  0.68712922818E+03  0.00000000000E+00 0.  1.
         21    1    1    2  503  505 -0.60617581469E+02 -0.36767653789E+02 -0.13001932958E+03  0.14809246305E+03  0.00000000000E+00 0.  1.
         21    1    1    2  504  501  0.70241372227E+02 -0.25115310251E+02 -0.47627494547E+03  0.48208137577E+03  0.00000000000E+00 0.  1.
         21    1    1    2  505  502 -0.52967436580E+02  0.50661413156E+02 -0.47528171221E+02  0.87355910964E+02  0.00000000000E+00 0.  1.
          1    1    1    2  501    0  0.43343645821E+02  0.11221550884E+02  0.34342217625E+03  0.34632843657E+03  0.00000000000E+00 0.  1.
<scales pt_clust_3="58.84606" pt_clust_4="73.71926" pt_clust_5="14000.00000" pt_clust_6="44.77270"></scales>
<clustering>
<clus scale="   44.773">  1  6  2 -1</clus>
<clus scale="   58.846">  1  3  2 -1</clus>
<clus scale="   73.719">  2  4  1 -1</clus>
<clus scale="   73.719">  2  3  1 -1</clus>
</clustering>
</event>
<event>
 6    0  0.2433432E+002  0.1174133E+03  0.7546771E-02  0.1247426E+00
         21   -1    0    0  503  502  0.00000000000E+00  0.00000000000E+00  0.42798093641E+03  0.42798093641E+03  0.00000000000E+00 0.  1.
          1   -1    0    0  502    0 -0.00000000000E+00 -0.00000000000E+00 -0.16085861191E+04  0.16085861191E+04  0.00000000000E+00 0. -1.
         21    1    1    2  503  505 -0.25541849034E+02  0.51527912363E+02  0.26091724805E+03  0.26718031764E+03  0.00000000000E+00 0.  1.
         21    1    1    2  504  501  0.58900331280E+02  0.77010455930E+01  0.34890929458E+02  0.68890725694E+02  0.00000000000E+00 0.  1.
         21    1    1    2  505  504  0.51829925011E+02  0.35667689320E+01  0.10415261365E+03  0.11639084972E+03  0.00000000000E+00 0.  1.
          1    1    1    2  501    0 -0.85188407256E+02 -0.62795726888E+02 -0.15805659738E+04  0.15841051624E+04  0.00000000000E+00 0. -1.
<scales pt_clust_3="57.51097" pt_clust_4="47.75930" pt_clust_5="47.75930" pt_clust_6="105.72545"></scales>
<clustering>
<clus scale="   47.759">  4  5 -1 -1</clus>
<clus scale="   57.511">  1  3  2 -1</clus>
<clus scale="  105.725">  2  6  1 -1</clus>
<clus scale="   57.511">  1  3  2 -1</clus>
</clustering>
</event>
<event>
 6    0  0.2433432E+002  0.1242751E+03  0.7546771E-02  0.1236207E+00
         21   -1    0    0  504  502  0.00000000000E+00  0.00000000000E+00  0.31736919426E+02  0.31736919426E+02  0.00000000000E+00 0.  1.
          1   -1    0    0  503    0 -0.00000000000E+00 -0.00000000000E+00 -0.17187588774E+04  0.17187588774E+04  0.00000000000E+00 0. -1.
         21    1    1    2  503  502  0.60869502939E+02 -0.73606313572E+02 -0.34751014802E+03  0.36039740394E+03  0.00000000000E+00 0. -1.
         21    1    1    2  504  505 -0.34909580583E+02  0.14366776193E+03 -0.21129775039E+03  0.25788726986E+03  0.00000000000E+00 0.  1.
         21    1    1    2  505  501 -0.38838913661E+02 -0.30506735837E+02 -0.44508548164E+03  0.44781715925E+03  0.00000000000E+00 0. -1.
          1    1    1    2  501    0  0.12878991305E+02 -0.39554712519E+02 -0.68312857794E+03  0.68439396381E+03  0.00000000000E+00 0. -1.
<scales pt_clust_3="124.27511" pt_clust_4="14000.00000" pt_clust_5="58.05676" pt_clust_6="41.59860"></scales>
<clustering>
<clus scale="   41.599">  2  6  1 -1</clus>
<clus scale="   58.057">  2  5  1 -1</clus>
<clus scale="  124.275">  2  3  1 -1</clus>
<clus scale="  124.275">  1  3  2 -1</clus>
</clustering>
</event>
<event>
 6    0  0.2433432E+002  0.1763844E+03  0.7546771E-02  0.1171349E+00
          1   -1    0    0  504    0 -0.00000000000E+00  0.00000000000E+00  0.16885919604E+04  0.16885919604E+04  0.00000000000E+00 0.  1.
         21   -1    0    0  505  502  0.00000000000E+00 -0.00000000000E+00 -0.47521671850E+02  0.47521671850E+02  0.00000000000E+00 0.  1.
         21    1    1    2  503  502 -0.35153711558E+02  0.23138418433E+02  0.16172440473E+02  0.45085670392E+02  0.00000000000E+00 0.  1.
         21    1    1    2  504  503 -0.13454481236E+03  0.23272116940E+02  0.20244174623E+03  0.24418550034E+03  0.00000000000E+00 0.  1.
         21    1    1    2  505  501  0.11984359314E+03 -0.75090305285E+02  0.42873872489E+03  0.45146199727E+03  0.00000000000E+00 0.  1.
          1    1    1    2  501    0  0.49854930773E+02  0.28679769911E+02  0.99371737696E+03  0.99538046424E+03  0.00000000000E+00 0.  1.
<scales pt_clust_3="38.99741" pt_clust_4="38.99741" pt_clust_5="161.79417" pt_clust_6="57.51559"></scales>
<clustering>
<clus scale="   38.997">  3  4 -1 -1</clus>
<clus scale="   57.516">  1  6  2 -1</clus>
<clus scale="  161.794">  1  5  2 -1</clus>
<clus scale="  176.384">  2  3  1 -1</clus>
</clustering>
</event>
<event>
 6    0  0.2433432E+002  0.1466404E+03  0.7546771E-02  0.1204663E+00
         -1   -1    0    0    0  501 -0.00000000000E+00  0.00000000000E+00  0.42410458337E+03  0.42410458337E+03  0.00000000000E+00 0. -1.
         21   -1    0    0  505  502  0.00000000000E+00 -0.00000000000E+00 -0.38145353940E+03  0.38145353940E+03  0.00000000000E+00 0.  1.
         21    1    1    2  503  504  0.91351477479E+01  0.10527368347E+03 -0.12319782396E+03  0.16230743417E+03  0.00000000000E+00 0.  1.
         21    1    1    2  504  501  0.38822416893E+02  0.22117033094E+02 -0.33932406499E+02  0.56104825257E+02  0.00000000000E+00 0.  1.
         21    1    1    2  505  503  0.37372941903E+02 -0.28546697825E+02 -0.17973887751E+03  0.18578943681E+03  0.00000000000E+00 0.  1.
         -1    1    1    2    0  502 -0.85330506544E+02 -0.98844018741E+02  0.37952015194E+03  0.40135642653E+03  0.00000000000E+00 0. -1.
<scales pt_clust_3="43.55106" pt_clust_4="43.55106" pt_clust_5="47.02819" pt_clust_6="130.45205"></scales>
<clustering>
<clus scale="   43.551">  3  4 -1 -1</clus>
<clus scale="   47.028">  2  5  1 -1</clus>
<clus scale="  130.452">  1  6  2 -1</clus>
<clus scale="   47.028">  2  3  1 -1</clus>
</clustering>
</event>
<event>
 6    0  0.2433432E+002  0.9092902E+02  0.7546771E-02  0.1300617E+00
          1   -1    0    0  504    0 -0.00000000000E+00  0.00000000000E+00  0.20964964213E+04  0.20964964213E+04  0.00000000000E+00 0. -1.
         21   -1    0    0  505  502  0.00000000000E+00 -0.00000000000E+00 -0.39184433281E+03  0.39184433281E+03  0.00000000000E+00 0. -1.
         21    1    1    2  503  501  0.61988487166E+02 -0.15757184228E+03 -0.61423847177E+02  0.18012314405E+03  0.00000000000E+00 0. -1.
         21    1    1    2  504  502  0.14349576011E+02  0.66039375849E+02 -0.21906074435E+03  0.22924816075E+03  0.00000000000E+00 0. -1.
         21    1    1    2  505  503 -0.93350638839E+01  0.30818420352E+02 -0.40261001823E+02  0.51554502408E+02  0.00000000000E+00 0. -1.
          1    1    1    2  501    0 -0.67002999293E+02  0.60714046081E+02  0.20253976818E+04  0.20274149468E+04  0.00000000000E+00 0. -1.
<scales pt_clust_3="90.92902" pt_clust_4="86.40823" pt_clust_5="32.20122" pt_clust_6="14000.00000"></scales>
<clustering>
<clus scale="   32.201">  2  5  1 -1</clus>
<clus scale="   86.408">  2  4  1 -1</clus>
<clus scale="   90.929">  2  3  1 -1</clus>
<clus scale="   32.201">  2  3  1 -1</clus>
</clustering>
</event>
<event>
 6    0  0.2433432E+002  0.9884491E+02  0.7546771E-02  0.1282744E+00
         -1   -1    0    0    0  501 -0.00000000000E+00  0.00000000000E+00  0.43509747762E+03  0.43509747762E+03  0.00000000000E+00 0.  1.
         21   -1    0    0  503  502  0.00000000000E+00 -0.00000000000E+00 -0.72205654595E+03  0.72205654595E+03  0.00000000000E+00 0.  1.
         21    1    1    2  503  504 -0.41718839439E+01 -0.57539703130E+02 -0.82607603195E+02  0.10075831558E+03  0.00000000000E+00 0. -1.
         21    1    1    2  504  501 -0.25753287920E+02  0.67595704670E+02 -0.11362896403E+03  0.13469948996E+03  0.00000000000E+00 0.  1.
         21    1    1    2  505  502 -0.69269622600E+02 -0.92781934655E+01 -0.49781253145E+03  0.50269442205E+03  0.00000000000E+00 0.  1.
         -1    1    1    2    0  505  0.99194794464E+02 -0.77780807437E+00  0.40709003034E+03  0.41900179598E+03  0.00000000000E+00 0.  1.
<scales pt_clust_3="57.69074" pt_clust_4="62.22268" pt_clust_5="98.84491" pt_clust_6="14000.00000"></scales>
<clustering>
<clus scale="   57.691">  2  3  1 -1</clus>
<clus scale="   62.223">  2  4  1 -1</clus>
<clus scale="   98.845">  2  5  1 -1</clus>
<clus scale="   57.691">  2  3  1 -1</clus>
</clustering>
</event>
<event>
 6    0  0.2433432E+002  0.8680936E+02  0.7546771E-02  0.1310768E+00
         21   -1    0    0  504  502  0.00000000000E+00  0.00000000000E+00  0.99249923518E+03  0.99249923518E+03  0.00000000000E+00 0. -1.
          1   -1    0    0  503    0 -0.00000000000E+00 -0.00000000000E+00 -0.20396204774E+03  0.20396204774E+03  0.00000000000E+00 0. -1.
         21    1    1    2  503  502 -0.72590815607E+02  0.12087277616E+03  0.65035434113E+03  0.66546256360E+03  0.00000000000E+00 0. -1.
         21    1    1    2  504  505  0.33993597473E+02 -0.37670157359E+02  0.28374416422E+03  0.28824530551E+03  0.00000000000E+00 0. -1.
         21    1    1    2  505  501  0.27748371592E+02 -0.49710818604E+02  0.29546628648E+02  0.64141569023E+02  0.00000000000E+00 0. -1.
          1    1    1    2  501    0  0.10848846543E+02 -0.33491800197E+02 -0.17510794655E+03  0.17861184478E+03  0.00000000000E+00 0. -1.
<scales pt_clust_3="14000.00000" pt_clust_4="53.42223" pt_clust_5="86.80936" pt_clust_6="35.20509"></scales>
<clustering>
<clus scale="   35.205">  2  6  1 -1</clus>
<clus scale="   53.422">  1  4  2 -1</clus>
<clus scale="   86.809">  2  5  1 -1</clus>
<clus scale="   53.422">  1  3  2 -1</clus>
</clustering>
</event>
<event>
 6    0  0.2433432E+002  0.8467343E+02  0.7546771E-02  0.1316289E+00
          2   -1    0    0  503    0 -0.00000000000E+00  0.00000000000E+00  0.41988164298E+03  0.41988164298E+03  0.00000000000E+00 0. -1.
         21   -1    0    0  504  502  0.00000000000E+00 -0.00000000000E+00 -0.13003686281E+03  0.13003686281E+03  0.00000000000E+00 0.  1.
         21    1    1    2  503  502 -0.97118742113E+02  0.35570223508E+02  0.21285146359E+02  0.10559520977E+03  0.00000000000E+00 0.  1.
         21    1    1    2  504  505 -0.59592360910E+02 -0.57044064450E+02 -0.19199454470E+02  0.84698841903E+02  0.00000000000E+00 0.  1.
         21    1    1    2  505  501  0.84277108874E+02  0.22840865889E+02  0.30708853186E+02  0.92560088044E+02  0.00000000000E+00 0. -1.
          2    1    1    2  501    0  0.72433994149E+02 -0.13670249467E+01  0.25705023510E+03  0.26706436608E+03  0.00000000000E+00 0. -1.
<scales pt_clust_3="14000.00000" pt_clust_4="72.61006" pt_clust_5="84.67343" pt_clust_6="72.44689"></scales>
<clustering>
<clus scale="   72.447">  1  6  2 -1</clus>
<clus scale="   72.610">  2  4  1 -1</clus>
<clus scale="   84.673">  2  5  1 -1</clus>
<clus scale="   72.610">  2  3  1 -1</clus>
</clustering>
</event>
<event>
 6    0  0.2433432E+002  0.7069516E+02  0.7546771E-02  0.1357745E+00
          2   -1    0    0  503    0 -0.00000000000E+00  0.00000000000E+00  0.24664388517E+04  0.24664388517E+04  0.00000000000E+00 0. -1.
         21   -1    0    0  505  502  0.00000000000E+00 -0.00000000000E+00 -0.37365999938E+02  0.37365999938E+02  0.00000000000E+00 0. -1.
         21    1    1    2  503  502  0.18292486366E+02  0.39919430729E+02  0.85775648403E+02  0.96362014644E+02  0.00000000000E+00 0.  1.
         21    1    1    2  504  501  0.62455824233E+02 -0.10814313242E+03  0.15402196198E+03  0.19828875874E+03  0.00000000000E+00 0. -1.
         21    1    1    2  505  504 -0.19826336387E+02  0.34265679717E+02  0.32413668986E+02  0.51165089252E+02  0.00000000000E+00 0. -1.
          2    1    1    2  501    0 -0.60921974211E+02  0.33958021970E+02  0.21568615724E+04  0.21579889890E+04  0.00000000000E+00 0. -1.
<scales pt_clust_3="48.62512" pt_clust_4="70.69516" pt_clust_5="39.58813" pt_clust_6="14000.00000"></scales>
<clustering>
<clus scale="   39.588">  2  5  1 -1</clus>
<clus scale="   48.625">  2  3  1 -1</clus>
<clus scale="   70.695">  2  4  1 -1</clus>
<clus scale="   39.588">  2  3  1 -1</clus>
</clustering>
</event>
<event>
 6    0  0.2433432E+002  0.1076541E+03  0.7546771E-02  0.1264977E+00
         21   -1    0    0  504  502  0.00000000000E+00  0.00000000000E+00  0.32153003367E+03  0.32153003367E+03  0.00000000000E+00 0. -1.
         -1   -1    0    0    0  501 -0.00000000000E+00 -0.00000000000E+00 -0.75353349240E+03  0.75353349240E+03  0.00000000000E+00 0. -1.
         21    1    1    2  503  501  0.15048109290E+02 -0.63149509750E+02  0.54589912608E+01  0.65146809288E+02  0.00000000000E+00 0.  1.
         21    1    1    2  504  503  0.83605777425E+02  0.83390899064E+02  0.25984339999E+03  0.28541646866E+03  0.00000000000E+00 0. -1.
         21    1    1    2  505  502 -0.57640767744E+02 -0.14684952651E+02 -0.55474581133E+02  0.81335939734E+02  0.00000000000E+00 0. -1.
         -1    1    1    2    0  505 -0.41013118971E+02 -0.55564366630E+01 -0.64183126885E+03  0.64316430839E+03  0.00000000000E+00 0. -1.
<scales pt_clust_3="64.76812" pt_clust_4="14000.00000" pt_clust_5="107.65411" pt_clust_6="41.38780"></scales>
<clustering>
<clus scale="   41.388">  2  6  1 -1</clus>
<clus scale="   64.768">  2  3  1 -1</clus>
<clus scale="  107.654">  2  5  1 -1</clus>
<clus scale="  107.654">  1  3  2 -1</clus>
</clustering>
</event>
<event>
 6    0  0.2433432E+002  0.7379005E+02  0.7546771E-02  0.1347659E+00
          2   -1    0    0  503    0 -0.00000000000E+00  0.00000000000E+00  0.16481194037E+03  0.16481194037E+03  0.00000000000E+00 0.  1.
         21   -1    0    0  504  502  0.00000000000E+00 -0.00000000000E+00 -0.14355038948E+03  0.14355038948E+03  0.00000000000E+00 0.  1.
         21    1    1    2  503  505 -0.12918770961E+02 -0.72057445735E+02  0.52973711496E+02  0.90362515672E+02  0.00000000000E+00 0.  1.
         21    1    1    2  504  501  0.37619189995E+02 -0.66703527718E+01 -0.14930349720E+02  0.41019658760E+02  0.00000000000E+00 0. -1.
         21    1    1    2  505  502 -0.73838087631E+02  0.15699456317E+02 -0.49878642942E+02  0.90478810422E+02  0.00000000000E+00 0.  1.
          2    1    1    2  501    0  0.49137668597E+02  0.63028342189E+02  0.33096832061E+02  0.86501345000E+02  0.00000000000E+00 0.  1.
<scales pt_clust_3="14000.00000" pt_clust_4="38.20598" pt_clust_5="52.30890" pt_clust_6="73.79005"></scales>
<clustering>
<clus scale="   38.206">  2  4  1 -1</clus>
<clus scale="   52.309">  2  5  1 -1</clus>
<clus scale="   73.790">  2  6  1 -1</clus>
<clus scale="   38.206">  2  3  1 -1</clus>
</clustering>
</event>
<event>
 6    0  0.2433432E+002  0.2614742E+03  0.7546771E-02  0.1106261E+00
         -2   -1    0    0    0  501 -0.00000000000E+00  0.00000000000E+00  0.14640871102E+04  0.14640871102E+04  0.00000000000E+00 0.  1.
         21   -1    0    0  504  502  0.00000000000E+00 -0.00000000000E+00 -0.23682471599E+03  0.23682471599E+03  0.00000000000E+00 0. -1.
         21    1    1    2  503  502  0.69201147050E+02 -0.14149249080E+02 -0.80550482431E+02  0.10713253578E+03  0.00000000000E+00 0. -1.
         21    1    1    2  504  501 -0.62617788629E+02 -0.96296446251E+01  0.12500450699E+03  0.14014222874E+03  0.00000000000E+00 0.  1.
         21    1    1    2  505  503  0.14733943407E+03 -0.10821076773E+03 -0.61531704951E+02  0.19288501704E+03  0.00000000000E+00 0. -1.
         -2    1    1    2    0  505 -0.15392279249E+03  0.13198966143E+03  0.12443400746E+04  0.12607520447E+04  0.00000000000E+00 0.  1.
<scales pt_clust_3="55.46271" pt_clust_4="63.35391" pt_clust_5="55.46271" pt_clust_6="245.77909"></scales>
<clustering>
<clus scale="   55.463">  3  5 -1 -1</clus>
<clus scale="   63.354">  1  4  2 -1</clus>
<clus scale="  245.779">  1  6  2 -1</clus>
<clus scale="  261.474">  2  3  1 -1</clus>
</clustering>
</event>
<event>
 6    0  0.2433432E+002  0.1941665E+03  0.7546771E-02  0.1154756E+00
         21   -1    0    0  505  502  0.00000000000E+00  0.00000000000E+00  0.78837980160E+03  0.78837980160E+03  0.00000000000E+00 0. -1.
         -4   -1    0    0    0  501 -0.00000000000E+00 -0.00000000000E+00 -0.14163552837E+03  0.14163552837E+03  0.00000000000E+00 0. -1.
         21    1    1    2  503  504 -0.20284249719E+02 -0.54335231998E+02  0.81111920277E+02  0.99714150620E+02  0.00000000000E+00 0.  1.
         21    1    1    2  504  501 -0.55184494786E+02 -0.12097648971E+03  0.84781003395E+02  0.15769736226E+03  0.00000000000E+00 0. -1.
         21    1    1    2  505  503  0.12175553954E+03 -0.19695312450E+02  0.45391904306E+03  0.47037731067E+03  0.00000000000E+00 0. -1.
         -4    1    1    2    0  502 -0.46286795040E+02  0.19500703416E+03  0.26932306496E+02  0.20222650642E+03  0.00000000000E+00 0. -1.
<scales pt_clust_3="31.74566" pt_clust_4="31.74566" pt_clust_5="123.33822" pt_clust_6="188.12263"></scales>
<clustering>
<clus scale="   31.746">  3  4 -1 -1</clus>
<clus scale="  123.338">  1  5  2 -1</clus>
<clus scale="  188.123">  2  6  1 -1</clus>
<clus scale="  123.338">  1  3  2 -1</clus>
</clustering>
</event>
<event>
 6    0  0.2433432E+002  0.1757387E+03  0.7546771E-02  0.1171992E+00
         21   -1    0    0  505  502  0.00000000000E+00  0.00000000000E+00  0.69040395169E+02  0.69040395169E+02  0.00000000000E+00 0. -1.
          2   -1    0    0  504    0 -0.00000000000E+00 -0.00000000000E+00 -0.11799845152E+04  0.11799845152E+04  0.00000000000E+00 0. -1.
         21    1    1    2  503  502 -0.62050387531E+02 -0.12451240015E+03 -0.11116848817E+03  0.17807869369E+03  0.00000000000E+00 0. -1.
         21    1    1    2  504  503  0.25636078072E+01 -0.57344726729E+02 -0.32839533692E+02  0.66131873871E+02  0.00000000000E+00 0. -1.
         21    1    1    2  505  501  0.64921827782E+02  0.14806321802E+02 -0.89238776457E+02  0.11134464563E+03  0.00000000000E+00 0. -1.
          2    1    1    2  501    0 -0.54350480576E+01  0.16705080508E+03 -0.87769732175E+03  0.89346969721E+03  0.00000000000E+00 0. -1.
<scales pt_clust_3="30.73773" pt_clust_4="30.73773" pt_clust_5="66.58882" pt_clust_6="169.09851"></scales>
<clustering>
<clus scale="   30.738">  3  4 -1 -1</clus>
<clus scale="   66.589">  1  5  2 -1</clus>
<clus scale="  169.099">  2  6  1 -1</clus>
<clus scale="   66.589">  1  3  2 -1</clus>
</clustering>
</event>
<event>
 6    0  0.2433432E+002  0.8373142E+02  0.7546771E-02  0.1318784E+00
          3   -1    0    0  504    0 -0.00000000000E+00  0.00000000000E+00  0.21302794946E+04  0.21302794946E+04  0.00000000000E+00 0.  1.
         21   -1    0    0  503  502  0.00000000000E+00 -0.00000000000E+00 -0.11867745329E+03  0.11867745329E+03  0.00000000000E+00 0. -1.
         21    1    1    2  503  501 -0.82614278766E+02  0.12204061814E+02 -0.96292369601E+02  0.12746089057E+03  0.00000000000E+00 0. -1.
         21    1    1    2  504  505  0.30975383064E+02  0.23373978867E+02  0.15440827434E+03  0.15920971210E+03  0.00000000000E+00 0. -1.
         21    1    1    2  505  502 -0.54911598705E+02 -0.44321354729E+02  0.51183425648E+03  0.51667588705E+03  0.00000000000E+00 0. -1.
          3    1    1    2  501    0  0.10655049441E+03  0.87433140479E+01  0.14416518801E+04  0.14456104582E+04  0.00000000000E+00 0.  1.
<scales pt_clust_3="83.73142" pt_clust_4="38.80486" pt_clust_5="60.46111" pt_clust_6="14000.00000"></scales>
<clustering>
<clus scale="   38.805">  1  4  2 -1</clus>
<clus scale="   60.461">  1  5  2 -1</clus>
<clus scale="   83.731">  2  3  1 -1</clus>
<clus scale="   83.731">  2  3  1 -1</clus>
</clustering>
</event>
<event>
 6    0  0.2433432E+002  0.8124624E+02  0.7546771E-02  0.1325552E+00
         21   -1    0    0  504  502  0.00000000000E+00  0.00000000000E+00  0.20207189445E+03  0.20207189445E+03  0.00000000000E+00 0.  1.
          2   -1    0    0  503    0 -0.00000000000E+00 -0.00000000000E+00 -0.97636451019E+03  0.97636451019E+03  0.00000000000E+00 0. -1.
         21    1    1    2  503  502  0.65076545740E+02 -0.29200260876E+01 -0.98711246050E+01  0.65885677190E+02  0.00000000000E+00 0.  1.
         21    1    1    2  504  505  0.35415910631E+02 -0.39454393136E+02  0.14912377843E+03  0.15826824431E+03  0.00000000000E+00 0.  1.
         21    1    1    2  505  501 -0.58564479609E+02 -0.31039774864E+02 -0.41614509137E+02  0.78262591742E+02  0.00000000000E+00 0.  1.
          2    1    1    2  501    0 -0.41927976762E+02  0.73414194088E+02 -0.87193076043E+03  0.87601989139E+03  0.00000000000E+00 0. -1.
<scales pt_clust_3="14000.00000" pt_clust_4="53.01826" pt_clust_5="64.44415" pt_clust_6="81.24624"></scales>
<clustering>
<clus scale="   53.018">  1  4  2 -1</clus>
<clus scale="   64.444">  1  5  2 -1</clus>
<clus scale="   81.246">  2  6  1 -1</clus>
<clus scale="   53.018">  1  3  2 -1</clus>
</clustering>
</event>
<event>
 6    0  0.2433432E+002  0.8709685E+02  0.7546771E-02  0.1310038E+00
          1   -1    0    0  502    0 -0.00000000000E+00  0.00000000000E+00  0.15030210147E+04  0.15030210147E+04  0.00000000000E+00 0.  1.
         21   -1    0    0  504  502  0.00000000000E+00 -0.00000000000E+00 -0.17789309351E+03  0.17789309351E+03  0.00000000000E+00 0. -1.
         21    1    1    2  503  501 -0.25447391693E+02  0.75896631306E+02  0.12257067574E+02  0.80982122059E+02  0.00000000000E+00 0. -1.
         21    1    1    2  504  505 -0.19179971925E+02 -0.44965179660E+02 -0.97806305700E+01  0.49853780592E+02  0.00000000000E+00 0. -1.
         21    1    1    2  505  503  0.91998298952E+01 -0.70053441730E+02 -0.10220217760E+03  0.12424736084E+03  0.00000000000E+00 0. -1.
          1    1    1    2  501    0  0.35427533722E+02  0.39121990084E+02  0.14248536618E+04  0.14258308447E+04  0.00000000000E+00 0.  1.
<scales pt_clust_3="14000.00000" pt_clust_4="48.88495" pt_clust_5="87.09685" pt_clust_6="52.62674"></scales>
<clustering>
<clus scale="   48.885">  2  4  1 -1</clus>
<clus scale="   52.627">  1  6  2 -1</clus>
<clus scale="   87.097">  2  5  1 -1</clus>
<clus scale="   48.885">  2  3  1 -1</clus>
</clustering>
</event>
<event>
 6    0  0.2433432E+002  0.1051086E+03  0.7546771E-02  0.1269906E+00
          2   -1    0    0  504    0 -0.00000000000E+00  0.00000000000E+00  0.12047250582E+04  0.12047250582E+04  0.00000000000E+00 0.  1.
         21   -1    0    0  503  502  0.00000000000E+00 -0.00000000000E+00 -0.29255730041E+02  0.29255730041E+02  0.00000000000E+00 0. -1.
         21    1    1    2  503  501  0.85689485316E+02 -0.60714280485E+02  0.15142125904E+03  0.18427509174E+03  0.00000000000E+00 0. -1.
         21    1    1    2  504  505 -0.38280589753E+02 -0.73505002222E+01  0.13163451064E+03  0.13728465973E+03  0.00000000000E+00 0. -1.
         21    1    1    2  505  502 -0.77131490115E+02  0.72574019257E+02  0.28141985833E+03  0.30068819681E+03  0.00000000000E+00 0. -1.
          2    1    1    2  501    0  0.29722594552E+02 -0.45092385500E+01  0.61099370015E+03  0.61173283995E+03  0.00000000000E+00 0.  1.
<scales pt_clust_3="14000.00000" pt_clust_4="32.63739" pt_clust_5="105.10859" pt_clust_6="30.06270"></scales>
<clustering>
<clus scale="   30.063">  1  6  2 -1</clus>
<clus scale="   32.637">  1  4  2 -1</clus>
<clus scale="  105.109">  1  5  2 -1</clus>
<clus scale="  105.109">  2  3  1 -1</clus>
</clustering>
</event>
<event>
 6    0  0.2433432E+002  0.7206455E+02  0.7546771E-02  0.1353210E+00
         21   -1    0    0  503  502  0.00000000000E+00  0.00000000000E+00  0.32069367217E+03  0.32069367217E+03  0.00000000000E+00 0.  1.
          2   -1    0    0  504    0 -0.00000000000E+00 -0.00000000000E+00 -0.79655510355E+03  0.79655510355E+03  0.00000000000E+00 0. -1.
         21    1    1    2  503  505 -0.41858529299E+02  0.35017154548E+02  0.20763166721E+03  0.21468406279E+03  0.00000000000E+00 0.  1.
         21    1    1    2  504  502  0.17072425628E+02 -0.35058363384E+02 -0.11900000662E+02  0.40769677160E+02  0.00000000000E+00 0.  1.
         21    1    1    2  505  501  0.66894280334E+02  0.58195951303E+02  0.72323532003E+02  0.11442161846E+03  0.00000000000E+00 0.  1.
          2    1    1    2  501    0 -0.42108176663E+02 -0.58154742467E+02 -0.74391662993E+03  0.74737341731E+03  0.00000000000E+00 0. -1.
<scales pt_clust_3="31.98248" pt_clust_4="38.99431" pt_clust_5="72.06455" pt_clust_6="14000.00000"></scales>
<clustering>
<clus scale="   38.994">  1  4  2 -1</clus>
<clus scale="   31.982">  1  3  2 -1</clus>
<clus scale="   72.065">  1  5  2 -1</clus>
<clus scale="   38.994">  1  3  2 -1</clus>
</clustering>
</event>
<event>
 6    0  0.2433432E+002  0.8176338E+02  0.7546771E-02  0.1324120E+00
          2   -1    0    0  504    0 -0.00000000000E+00  0.00000000000E+00  0.34241454162E+04  0.34241454162E+04  0.00000000000E+00 0.  1.
         21   -1    0    0  503  502  0.00000000000E+00 -0.00000000000E+00 -0.68895237289E+02  0.68895237289E+02  0.00000000000E+00 0.  1.
         21    1    1    2  503  501  0.28192296711E+02 -0.10419772584E+02 -0.29271938302E+02  0.41955019086E+02  0.00000000000E+00 0.  1.
         21    1    1    2  504  505  0.60323210428E+02  0.33738313436E+02  0.42941796924E+03  0.43494477329E+03  0.00000000000E+00 0.  1.
         21    1    1    2  505  502 -0.11639299639E+03  0.29539422365E+02  0.29539307114E+04  0.29563705037E+04  0.00000000000E+00 0.  1.
          2    1    1    2  501    0  0.27877489249E+02 -0.52857963217E+02  0.11734366106E+01  0.59770357500E+02  0.00000000000E+00 0.  1.
<scales pt_clust_3="30.05623" pt_clust_4="70.76316" pt_clust_5="81.76338" pt_clust_6="14000.00000"></scales>
<clustering>
<clus scale="   30.056">  2  3  1 -1</clus>
<clus scale="   70.763">  1  4  2 -1</clus>
<clus scale="   81.763">  1  5  2 -1</clus>
<clus scale="   30.056">  2  3  1 -1</clus>
</clustering>
</event>
<event>
 6    0  0.2433432E+002  0.1432658E+03  0.7546771E-02  0.1209001E+00
          2   -1    0    0  505    0 -0.00000000000E+00  0.00000000000E+00  0.15449356840E+03  0.15449356840E+03  0.00000000000E+00 0. -1.
         21   -1    0    0  503  502  0.00000000000E+00 -0.00000000000E+00 -0.32767202308E+03  0.32767202308E+03  0.00000000000E+00 0.  1.
         21    1    1    2  503  501 -0.12897773462E+03 -0.11147894984E+03 -0.16906355853E+03  0.24009435459E+03  0.00000000000E+00 0.  1.
         21    1    1    2  504  502  0.21924504945E+02  0.31314599474E+02 -0.51040001885E+02  0.63768094293E+02  0.00000000000E+00 0. -1.
         21    1    1    2  505  504  0.65577640285E+02  0.28106606433E+02 -0.29281187829E+02  0.77121956609E+02  0.00000000000E+00 0. -1.
          2    1    1    2  501    0  0.41475589387E+02  0.52057743930E+02  0.76206293566E+02  0.10118118598E+03  0.00000000000E+00 0. -1.
<scales pt_clust_3="135.32950" pt_clust_4="34.41842" pt_clust_5="34.41842" pt_clust_6="66.56000"></scales>
<clustering>
<clus scale="   34.418">  4  5 -1 -1</clus>
<clus scale="   66.560">  1  6  2 -1</clus>
<clus scale="  135.329">  1  3  2 -1</clus>
<clus scale="  143.266">  2  3  1 -1</clus>
</clustering>
</event>
<event>
 6    0  0.2433432E+002  0.1057392E+03  0.7546771E-02  0.1268670E+00
         21   -1    0    0  503  502  0.00000000000E+00  0.00000000000E+00  0.35615173498E+03  0.35615173498E+03  0.00000000000E+00 0.  1.
          2   -1    0    0  504    0 -0.00000000000E+00 -0.00000000000E+00 -0.29282818249E+03  0.29282818249E+03  0.00000000000E+00 0.  1.
         21    1    1    2  503  505 -0.48360142940E+02  0.12545424800E+02  0.39464940970E+02  0.63667673700E+02  0.00000000000E+00 0.  1.
         21    1    1    2  504  502  0.14376398257E+03  0.45957595341E+02  0.24609588314E+03  0.28869251281E+03  0.00000000000E+00 0.  1.
         21    1    1    2  505  501 -0.82767222022E+02 -0.99056987229E+00 -0.18866881202E+02  0.84896133459E+02  0.00000000000E+00 0. -1.
          2    1    1    2  501    0 -0.12636617608E+02 -0.57512450268E+02 -0.20337039042E+03  0.21172359750E+03  0.00000000000E+00 0.  1.
<scales pt_clust_3="49.96090" pt_clust_4="14000.00000" pt_clust_5="105.73919" pt_clust_6="58.86261"></scales>
<clustering>
<clus scale="   49.961">  1  3  2 -1</clus>
<clus scale="   58.863">  2  6  1 -1</clus>
<clus scale="  105.739">  2  5  1 -1</clus>
<clus scale="   49.961">  1  3  2 -1</clus>
</clustering>
</event>
<event>
 6    0  0.2433432E+002  0.1224431E+03  0.7546771E-02  0.1239120E+00
          2   -1    0    0  504    0 -0.00000000000E+00  0.00000000000E+00  0.21024625529E+04  0.21024625529E+04  0.00000000000E+00 0.  1.
         21   -1    0    0  505  502  0.00000000000E+00 -0.00000000000E+00 -0.68645972904E+03  0.68645972904E+03  0.00000000000E+00 0.  1.
         21    1    1    2  503  502 -0.12193917553E+03  0.43314618445E+02 -0.49768770202E+03  0.51423571194E+03  0.00000000000E+00 0.  1.
         21    1    1    2  504  503  0.49484973588E+02 -0.10259794806E+03 -0.28691120371E+02  0.11746608849E+03  0.00000000000E+00 0.  1.
         21    1    1    2  505  501  0.10912136080E+02  0.67445918628E+02 -0.96034825099E+02  0.11785887444E+03  0.00000000000E+00 0.  1.
          2    1    1    2  501    0  0.61542065867E+02 -0.81625890162E+01  0.20384164713E+04  0.20393616070E+04  0.00000000000E+00 0.  1.
<scales pt_clust_3="14000.00000" pt_clust_4="122.44309" pt_clust_5="69.44868" pt_clust_6="62.08103"></scales>
<clustering>
<clus scale="   62.081">  1  6  2 -1</clus>
<clus scale="   69.449">  1  5  2 -1</clus>
<clus scale="  122.443">  1  4  2 -1</clus>
<clus scale="  122.443">  2  3  1 -1</clus>
</clustering>
</event>
<event>
 6    0  0.2433432E+002  0.8475563E+02  0.7546771E-02  0.1316073E+00
          2   -1    0    0  504    0 -0.00000000000E+00  0.00000000000E+00  0.19621944022E+04  0.19621944022E+04  0.00000000000E+00 0.  1.
         21   -1    0    0  503  502  0.00000000000E+00 -0.00000000000E+00 -0.55778222706E+02  0.55778222706E+02  0.00000000000E+00 0.  1.
         21    1    1    2  503  501 -0.71730385928E+02  0.34382438294E+02  0.50971851805E+02  0.94475023180E+02  0.00000000000E+00 0.  1.
         21    1    1    2  504  505  0.83281294975E+02 -0.34922754762E+02  0.48907785235E+02  0.10270026460E+03  0.00000000000E+00 0.  1.
         21    1    1    2  505  502  0.24114494850E+02  0.36467510040E+02  0.63895171959E+02  0.77420805666E+02  0.00000000000E+00 0.  1.
          2    1    1    2  501    0 -0.35665403897E+02 -0.35927193573E+02  0.17426413705E+04  0.17433765315E+04  0.00000000000E+00 0.  1.
<scales pt_clust_3="84.75563" pt_clust_4="14000.00000" pt_clust_5="43.71943" pt_clust_6="50.30250"></scales>
<clustering>
<clus scale="   43.719">  2  5  1 -1</clus>
<clus scale="   50.302">  1  6  2 -1</clus>
<clus scale="   84.756">  2  3  1 -1</clus>
<clus scale="   43.719">  2  3  1 -1</clus>
</clustering>
</event>
<event>
 6    0  0.2433432E+002  0.1946185E+03  0.7546771E-02  0.1154360E+00
          2   -1    0    0  505    0 -0.00000000000E+00  0.00000000000E+00  0.53967227366E+03  0.53967227366E+03  0.00000000000E+00 0. -1.
         21   -1    0    0  501  502  0.00000000000E+00 -0.00000000000E+00 -0.31091991968E+03  0.31091991968E+03  0.00000000000E+00 0. -1.
         21    1    1    2  503  502 -0.10001347461E+01 -0.90265232309E+02 -0.20188712995E+03  0.22114978108E+03  0.00000000000E+00 0. -1.
         21    1    1    2  504  503  0.17556569621E+03  0.49200498490E+01  0.23734442531E+03  0.29526242024E+03  0.00000000000E+00 0. -1.
         21    1    1    2  505  504  0.23857014945E+02 -0.32283525812E+02  0.15856604822E+02  0.43160341952E+02  0.00000000000E+00 0. -1.
          2    1    1    2  501    0 -0.19842257641E+03  0.11762870827E+03  0.17743845379E+03  0.29101965006E+03  0.00000000000E+00 0. -1.
<scales pt_clust_3="90.87637" pt_clust_4="194.61853" pt_clust_5="40.14204" pt_clust_6="14000.00000"></scales>
<clustering>
<clus scale="   40.142">  1  5  2 -1</clus>
<clus scale="   90.876">  2  3  1 -1</clus>
<clus scale="  194.619">  1  4  2 -1</clus>
<clus scale="   90.876">  2  3  1 -1</clus>
</clustering>
</event>
<event>
 6    0  0.2433432E+002  0.1255970E+03  0.7546771E-02  0.1234139E+00
         21   -1    0    0  504  502  0.00000000000E+00  0.00000000000E+00  0.38384268724E+02  0.38384268724E+02  0.00000000000E+00 0.  1.
          2   -1    0    0  503    0 -0.00000000000E+00 -0.00000000000E+00 -0.33819197879E+04  0.33819197879E+04  0.00000000000E+00 0. -1.
         21    1    1    2  503  502  0.52439833531E+02  0.12855844022E+03 -0.14799720605E+03  0.20292949931E+03  0.00000000000E+00 0.  1.
         21    1    1    2  504  505 -0.27738536522E+02  0.16815038888E+02 -0.45500467094E+02  0.55879016159E+02  0.00000000000E+00 0.  1.
         21    1    1    2  505  501 -0.32816104151E+02 -0.86789239380E+02 -0.39229789225E+03  0.40312145195E+03  0.00000000000E+00 0.  1.
          2    1    1    2  501    0  0.81148071416E+01 -0.58584239732E+02 -0.27577399538E+04  0.27583740892E+04  0.00000000000E+00 0. -1.
<scales pt_clust_3="14000.00000" pt_clust_4="32.43720" pt_clust_5="125.59698" pt_clust_6="58.94863"></scales>
<clustering>
<clus scale="   32.437">  1  4  2 -1</clus>
<clus scale="   58.949">  2  6  1 -1</clus>
<clus scale="  125.597">  2  5  1 -1</clus>
<clus scale="   32.437">  1  3  2 -1</clus>
</clustering>
</event>
<event>
 6    0  0.2433432E+002  0.1098606E+03  0.7546771E-02  0.1260828E+00
          2   -1    0    0  505    0 -0.00000000000E+00  0.00000000000E+00  0.11047381473E+04  0.11047381473E+04  0.00000000000E+00 0.  1.
         21   -1    0    0  504  502  0.00000000000E+00 -0.00000000000E+00 -0.73806522912E+02  0.73806522912E+02  0.00000000000E+00 0.  1.
         21    1    1    2  503  501 -0.38510771241E+02 -0.74496328594E+02 -0.23787864528E+02  0.87170206919E+02  0.00000000000E+00 0.  1.
         21    1    1    2  504  503 -0.79163324042E+01 -0.30049129785E+02  0.44473948783E+02  0.54254498799E+02  0.00000000000E+00 0.  1.
         21    1    1    2  505  502 -0.27585168566E+02  0.21199954059E+02  0.19026310489E+02  0.39653247884E+02  0.00000000000E+00 0.  1.
          2    1    1    2  501    0  0.74012272211E+02  0.83345504320E+02  0.99121922964E+03  0.99746671661E+03  0.00000000000E+00 0.  1.
<scales pt_clust_3="109.86059" pt_clust_4="31.07440" pt_clust_5="33.26705" pt_clust_6="14000.00000"></scales>
<clustering>
<clus scale="   31.074">  2  4  1 -1</clus>
<clus scale="   33.267">  2  5  1 -1</clus>
<clus scale="  109.861">  2  3  1 -1</clus>
<clus scale="   31.074">  2  3  1 -1</clus>
</clustering>
</event>
<event>
 6    0  0.2433432E+002  0.9355158E+02  0.7546771E-02  0.1294472E+00
          1   -1    0    0  504    0 -0.00000000000E+00  0.00000000000E+00  0.17136606078E+04  0.17136606078E+04  0.00000000000E+00 0.  1.
         21   -1    0    0  505  502  0.00000000000E+00 -0.00000000000E+00 -0.31864088713E+02  0.31864088713E+02  0.00000000000E+00 0. -1.
         21    1    1    2  503  502 -0.49160071649E+02 -0.28747200067E+01  0.15023001182E+02  0.51484630951E+02  0.00000000000E+00 0. -1.
         21    1    1    2  504  503  0.52355226906E+02 -0.60634453469E+02  0.35384109202E+03  0.36279625843E+03  0.00000000000E+00 0.  1.
         21    1    1    2  505  501 -0.37349530610E+02 -0.40406217664E+02  0.10660981532E+03  0.11997209086E+03  0.00000000000E+00 0.  1.
          1    1    1    2  501    0  0.34154375353E+02  0.10391539114E+03  0.12063226105E+04  0.12112717162E+04  0.00000000000E+00 0.  1.
<scales pt_clust_3="49.24405" pt_clust_4="71.43568" pt_clust_5="14000.00000" pt_clust_6="93.55158"></scales>
<clustering>
<clus scale="   49.244">  2  3  1 -1</clus>
<clus scale="   71.436">  2  4  1 -1</clus>
<clus scale="   93.552">  1  6  2 -1</clus>
<clus scale="   49.244">  2  3  1 -1</clus>
</clustering>
</event>
<event>
 6    0  0.2433432E+002  0.1340445E+03  0.7546771E-02  0.1221575E+00
         21   -1    0    0  501  502  0.00000000000E+00  0.00000000000E+00  0.10270810773E+04  0.10270810773E+04  0.00000000000E+00 0.  1.
          2   -1    0    0  505    0 -0.00000000000E+00 -0.00000000000E+00 -0.47996097723E+03  0.47996097723E+03  0.00000000000E+00 0. -1.
         21    1    1    2  503  504 -0.82519492478E+01  0.92898128199E+02  0.77374601902E+03  0.77934655888E+03  0.00000000000E+00 0.  1.
         21    1    1    2  504  502 -0.30676077906E+02  0.25018340295E+02  0.22974092052E+03  0.23312620974E+03  0.00000000000E+00 0.  1.
         21    1    1    2  505  503  0.45667779195E+02 -0.43032308282E+02 -0.47113227973E+02  0.78466437811E+02  0.00000000000E+00 0.  1.
          2    1    1    2  501    0 -0.67397520407E+01 -0.74884160212E+02 -0.40925361147E+03  0.41610284812E+03  0.00000000000E+00 0. -1.
<scales pt_clust_3="33.82335" pt_clust_4="33.82335" pt_clust_5="62.74811" pt_clust_6="123.58216"></scales>
<clustering>
<clus scale="   33.823">  3  4 -1 -1</clus>
<clus scale="   62.748">  2  5  1 -1</clus>
<clus scale="  123.582">  2  6  1 -1</clus>
<clus scale="  134.045">  1  3  2 -1</clus>
</clustering>
</event>
<event>
 6    0  0.2433432E+002  0.1173357E+03  0.7546771E-02  0.1247558E+00
         21   -1    0    0  503  502  0.00000000000E+00  0.00000000000E+00  0.31016167594E+03  0.31016167594E+03  0.00000000000E+00 0.  1.
          1   -1    0    0  505    0 -0.00000000000E+00 -0.00000000000E+00 -0.15714161531E+04  0.15714161531E+04  0.00000000000E+00 0.  1.
         21    1    1    2  503  501  0.16163058409E+03 -0.43747047555E+02  0.20234916253E+03  0.26264697496E+03  0.00000000000E+00 0.  1.
         21    1    1    2  504  502 -0.20185914286E+02  0.33460232878E+02  0.37252286688E+02  0.53988806092E+02  0.00000000000E+00 0. -1.
         21    1    1    2  505  504 -0.70798531517E+02  0.37917291424E+01 -0.90787611424E+01  0.71478900234E+02  0.00000000000E+00 0.  1.
          1    1    1    2  501    0 -0.70646138285E+02  0.64950855352E+01 -0.14917771652E+04  0.14934631478E+04  0.00000000000E+00 0.  1.
<scales pt_clust_3="117.33574" pt_clust_4="39.07759" pt_clust_5="14000.00000" pt_clust_6="71.01797"></scales>
<clustering>
<clus scale="   39.078">  1  4  2 -1</clus>
<clus scale="   71.018">  2  6  1 -1</clus>
<clus scale="  117.336">  1  3  2 -1</clus>
<clus scale="   39.078">  1  3  2 -1</clus>
</clustering>
</event>
<event>
 6    0  0.2433432E+002  0.1638288E+03  0.7546771E-02  0.1184441E+00
         21   -1    0    0  503  502  0.00000000000E+00  0.00000000000E+00  0.94304299968E+03  0.94304299968E+03  0.00000000000E+00 0.  1.
          1   -1    0    0  505    0 -0.00000000000E+00 -0.00000000000E+00 -0.41482100786E+03  0.41482100786E+03  0.00000000000E+00 0.  1.
         21    1    1    2  503  504 -0.78361832800E+02  0.14414107994E+03  0.82817748559E+03  0.84427197952E+03  0.00000000000E+00 0.  1.
         21    1    1    2  504  501 -0.37250634899E+02  0.22735057919E+02  0.42531379492E+02  0.60937762516E+02  0.00000000000E+00 0.  1.
         21    1    1    2  505  502  0.87523100232E+02 -0.13482472909E+03 -0.67425170689E+02  0.17431051113E+03  0.00000000000E+00 0.  1.
          1    1    1    2  501    0  0.28089367466E+02 -0.32051408762E+02 -0.27506170258E+03  0.27834375436E+03  0.00000000000E+00 0.  1.
<scales pt_clust_3="14000.00000" pt_clust_4="40.93905" pt_clust_5="163.82878" pt_clust_6="42.61813"></scales>
<clustering>
<clus scale="   42.618">  2  6  1 -1</clus>
<clus scale="   40.939">  2  4  1 -1</clus>
<clus scale="  163.829">  2  5  1 -1</clus>
<clus scale="  163.829">  1  3  2 -1</clus>
</clustering>
</event>
<event>
 6    0  0.2433432E+002  0.1507617E+03  0.7546771E-02  0.1199540E+00
          2   -1    0    0  504    0 -0.00000000000E+00  0.00000000000E+00  0.14180374202E+04  0.14180374202E+04  0.00000000000E+00 0.  1.
         21   -1    0    0  503  502  0.00000000000E+00 -0.00000000000E+00 -0.15574062314E+03  0.15574062314E+03  0.00000000000E+00 0.  1.
         21    1    1    2  503  501 -0.74970233937E+02 -0.12124534222E+03 -0.58877645614E+02  0.15423211773E+03  0.00000000000E+00 0.  1.
         21    1    1    2  504  505  0.15851838549E+02  0.48997344756E+02  0.13957519431E+02  0.53355720660E+02  0.00000000000E+00 0. -1.
         21    1    1    2  505  502  0.84151119809E+02  0.49185279953E+02  0.51929252984E+02  0.11044116101E+03  0.00000000000E+00 0. -1.
          2    1    1    2  501    0 -0.25032724421E+02  0.23062717515E+02  0.12552876702E+04  0.12557490439E+04  0.00000000000E+00 0.  1.
<scales pt_clust_3="141.00055" pt_clust_4="40.77485" pt_clust_5="40.77485" pt_clust_6="34.03713"></scales>
<clustering>
<clus scale="   34.037">  1  6  2 -1</clus>
<clus scale="   40.775">  4  5 -1 -1</clus>
<clus scale="  141.001">  2  3  1 -1</clus>
<clus scale="  141.001">  2  3  1 -1</clus>
</clustering>
</event>
<event>
 6    0  0.2433432E+002  0.1183591E+03  0.7546771E-02  0.1245829E+00
          2   -1    0    0  505    0 -0.00000000000E+00  0.00000000000E+00  0.31738410713E+03  0.31738410713E+03  0.00000000000E+00 0.  1.
         21   -1    0    0  504  502  0.00000000000E+00 -0.00000000000E+00 -0.10134930881E+04  0.10134930881E+04  0.00000000000E+00 0.  1.
         21    1    1    2  503  502  0.92807716173E+02  0.80061360965E+01 -0.99020058012E+02  0.13594977854E+03  0.00000000000E+00 0.  1.
         21    1    1    2  504  501  0.35807827259E+02 -0.73376738446E+02 -0.83827379746E+03  0.84224064599E+03  0.00000000000E+00 0.  1.
         21    1    1    2  505  503 -0.68722909986E+02 -0.13513258688E+02 -0.20424408555E+02  0.72956171652E+02  0.00000000000E+00 0. -1.
          2    1    1    2  501    0 -0.59892633446E+02  0.78883861038E+02  0.26160928305E+03  0.27973059907E+03  0.00000000000E+00 0.  1.
<scales pt_clust_3="118.35908" pt_clust_4="81.52640" pt_clust_5="70.03889" pt_clust_6="14000.00000"></scales>
<clustering>
<clus scale="   70.039">  1  5  2 -1</clus>
<clus scale="   81.526">  2  4  1 -1</clus>
<clus scale="  118.359">  2  3  1 -1</clus>
<clus scale="   81.526">  2  3  1 -1</clus>
</clustering>
</event>
<event>
 6    0  0.2433432E+002  0.1312566E+03  0.7546771E-02  0.1225603E+00
          3   -1    0    0  502    0 -0.00000000000E+00  0.00000000000E+00  0.47604839835E+03  0.47604839835E+03  0.00000000000E+00 0. -1.
         21   -1    0    0  505  502  0.00000000000E+00 -0.00000000000E+00 -0.42696772927E+03  0.42696772927E+03  0.00000000000E+00 0.  1.
         21    1    1    2  503  504  0.36634600726E+02  0.70253263313E+02  0.35857565341E+02  0.86967694972E+02  0.00000000000E+00 0. -1.
         21    1    1    2  504  501  0.12687427398E+01 -0.50646274149E+02  0.98941699944E+02  0.11115806215E+03  0.00000000000E+00 0. -1.
         21    1    1    2  505  503  0.96995825801E+01  0.72023992850E+02 -0.38318293408E+03  0.39001371568E+03  0.00000000000E+00 0.  1.
          3    1    1    2  501    0 -0.47602926046E+02 -0.91630982015E+02  0.29746433788E+03  0.31487665481E+03  0.00000000000E+00 0. -1.
<scales pt_clust_3="123.49139" pt_clust_4="31.15373" pt_clust_5="72.67419" pt_clust_6="31.15373"></scales>
<clustering>
<clus scale="   31.154">  4  6 -1 -1</clus>
<clus scale="   72.674">  2  5  1 -1</clus>
<clus scale="  123.491">  2  3  1 -1</clus>
<clus scale="   72.674">  2  3  1 -1</clus>
</clustering>
</event>
<event>
 6    0  0.2433432E+002  0.1728556E+03  0.7546771E-02  0.1174902E+00
         21   -1    0    0  503  502  0.00000000000E+00  0.00000000000E+00  0.28558079748E+03  0.28558079748E+03  0.00000000000E+00 0.  1.
          1   -1    0    0  504    0 -0.00000000000E+00 -0.00000000000E+00 -0.18045083640E+04  0.18045083640E+04  0.00000000000E+00 0.  1.
         21    1    1    2  503  505 -0.21837023877E+01 -0.54268238171E+02  0.14024710368E+03  0.15039634410E+03  0.00000000000E+00 0.  1.
         21    1    1    2  504  502 -0.54304665023E+02  0.26275045378E+02 -0.11238085313E+03  0.12754932694E+03  0.00000000000E+00 0.  1.
         21    1    1    2  505  501  0.35007643503E+01 -0.10725538773E+03  0.10725883654E+03  0.15172485480E+03  0.00000000000E+00 0.  1.
          1    1    1    2  501    0  0.52987603061E+02  0.13524858052E+03 -0.16540526536E+04  0.16604186356E+04  0.00000000000E+00 0.  1.
<scales pt_clust_3="44.57807" pt_clust_4="60.32723" pt_clust_5="44.57807" pt_clust_6="161.09828"></scales>
<clustering>
<clus scale="   44.578">  3  5 -1 -1</clus>
<clus scale="   60.327">  2  4  1 -1</clus>
<clus scale="  161.098">  2  6  1 -1</clus>
<clus scale="  172.856">  1  3  2 -1</clus>
</clustering>
</event>
<event>
 6    0  0.2433432E+002  0.9851478E+02  0.7546771E-02  0.1283451E+00
         21   -1    0    0  504  502  0.00000000000E+00  0.00000000000E+00  0.38444981586E+03  0.38444981586E+03  0.00000000000E+00 0. -1.
          2   -1    0    0  503    0 -0.00000000000E+00 -0.00000000000E+00 -0.73211310361E+03  0.73211310361E+03  0.00000000000E+00 0. -1.
         21    1    1    2  503  502  0.29992459526E+02  0.77763567211E+02 -0.20412597099E+03  0.22048612665E+03  0.00000000000E+00 0. -1.
         21    1    1    2  504  505 -0.29243400518E+02  0.25679386151E+02  0.35716739313E+03  0.35928144130E+03  0.00000000000E+00 0. -1.
         21    1    1    2  505  501  0.22456064593E+02 -0.12414037053E+03 -0.21405873174E+03  0.24846779885E+03  0.00000000000E+00 0. -1.
          2    1    1    2  501    0 -0.23205123601E+02  0.20697417168E+02 -0.28664597814E+03  0.28832755266E+03  0.00000000000E+00 0. -1.
<scales pt_clust_3="98.51478" pt_clust_4="38.99188" pt_clust_5="14000.00000" pt_clust_6="31.09439"></scales>
<clustering>
<clus scale="   31.094">  2  6  1 -1</clus>
<clus scale="   38.992">  1  4  2 -1</clus>
<clus scale="   98.515">  2  3  1 -1</clus>
<clus scale="   38.992">  1  3  2 -1</clus>
</clustering>
</event>
<event>
 6    0  0.2433432E+002  0.7996981E+02  0.7546771E-02  0.1329137E+00
         -4   -1    0    0    0  501 -0.00000000000E+00  0.00000000000E+00  0.14468007453E+03  0.14468007453E+03  0.00000000000E+00 0. -1.
         21   -1    0    0  505  502  0.00000000000E+00 -0.00000000000E+00 -0.14769206372E+04  0.14769206372E+04  0.00000000000E+00 0. -1.
         21    1    1    2  503  502  0.56355096336E+02  0.55725709895E+01 -0.79521881331E+03  0.79723265831E+03  0.00000000000E+00 0. -1.
         21    1    1    2  504  503  0.61261421808E+01  0.98799062264E+02 -0.14390117140E+03  0.17466061792E+03  0.00000000000E+00 0. -1.
         21    1    1    2  505  501 -0.10018670474E+03 -0.56808270288E+02 -0.50740150823E+03  0.52030841424E+03  0.00000000000E+00 0. -1.
         -4    1    1    2    0  504  0.37705466220E+02 -0.47563362966E+02  0.11428093027E+03  0.12939902126E+03  0.00000000000E+00 0. -1.
<scales pt_clust_3="56.62994" pt_clust_4="14000.00000" pt_clust_5="79.96981" pt_clust_6="61.03833"></scales>
<clustering>
<clus scale="   56.630">  2  3  1 -1</clus>
<clus scale="   61.038">  1  6  2 -1</clus>
<clus scale="   79.970">  2  5  1 -1</clus>
<clus scale="   56.630">  2  3  1 -1</clus>
</clustering>
</event>
<event>
 6    0  0.2433432E+002  0.2766165E+03  0.7546771E-02  0.1097551E+00
         21   -1    0    0  503  502  0.00000000000E+00  0.00000000000E+00  0.10519295025E+04  0.10519295025E+04  0.00000000000E+00 0. -1.
          2   -1    0    0  502    0 -0.00000000000E+00 -0.00000000000E+00 -0.10997451291E+04  0.10997451291E+04  0.00000000000E+00 0. -1.
         21    1    1    2  503  504 -0.23255037149E+03  0.14340643992E+03  0.85510687253E+03  0.89769306878E+03  0.00000000000E+00 0. -1.
         21    1    1    2  504  505  0.81346091909E+02 -0.12968275985E+02  0.41457752661E+02  0.92217721217E+02  0.00000000000E+00 0.  1.
         21    1    1    2  505  501  0.11932535560E+03 -0.11503873657E+03  0.45001697039E+02  0.17174866560E+03  0.00000000000E+00 0. -1.
          2    1    1    2  501    0  0.31878923975E+02 -0.15399427365E+02 -0.98938194877E+03  0.99001517600E+03  0.00000000000E+00 0. -1.
<scales pt_clust_3="266.39917" pt_clust_4="51.98540" pt_clust_5="51.98540" pt_clust_6="35.40350"></scales>
<clustering>
<clus scale="   35.404">  2  6  1 -1</clus>
<clus scale="   51.985">  4  5 -1 -1</clus>
<clus scale="  266.399">  1  3  2 -1</clus>
<clus scale="  266.399">  1  3  2 -1</clus>
</clustering>
</event>
<event>
 6    0  0.2433432E+002  0.1047173E+03  0.7546771E-02  0.1270678E+00
          2   -1    0    0  503    0 -0.00000000000E+00  0.00000000000E+00  0.78984527524E+03  0.78984527524E+03  0.00000000000E+00 0.  1.
         21   -1    0    0  505  502  0.00000000000E+00 -0.00000000000E+00 -0.69450532959E+02  0.69450532959E+02  0.00000000000E+00 0.  1.
         21    1    1    2  503  504  0.74821498777E+02  0.10480552508E+03  0.34877298814E+03  0.37178629886E+03  0.00000000000E+00 0.  1.
         21    1    1    2  504  502 -0.10341158279E+03 -0.21232730101E+02  0.19430105822E+02  0.10734203881E+03  0.00000000000E+00 0.  1.
         21    1    1    2  505  501  0.53561866250E+02 -0.58693772116E+02  0.11154591493E+03  0.13695372773E+03  0.00000000000E+00 0.  1.
          2    1    1    2  501    0 -0.24971782233E+02 -0.24879022863E+02  0.24064573339E+03  0.24321374280E+03  0.00000000000E+00 0.  1.
<scales pt_clust_3="104.71731" pt_clust_4="14000.00000" pt_clust_5="80.20837" pt_clust_6="35.24990"></scales>
<clustering>
<clus scale="   35.250">  1  6  2 -1</clus>
<clus scale="   80.208">  1  5  2 -1</clus>
<clus scale="  104.717">  1  3  2 -1</clus>
<clus scale="  104.717">  2  3  1 -1</clus>
</clustering>
</event>
<event>
 6    0  0.2433432E+002  0.1443747E+03  0.7546771E-02  0.1207561E+00
         -3   -1    0    0    0  501 -0.00000000000E+00  0.00000000000E+00  0.13839780219E+04  0.13839780219E+04  0.00000000000E+00 0.  1.
         21   -1    0    0  505  502  0.00000000000E+00 -0.00000000000E+00 -0.29865419181E+02  0.29865419181E+02  0.00000000000E+00 0. -1.
         21    1    1    2  503  504 -0.88106802511E+02 -0.31410673814E+02  0.26683283918E+03  0.28275290121E+03  0.00000000000E+00 0. -1.
         21    1    1    2  504  501 -0.49115870041E+02 -0.19793149345E+02  0.70664195501E+02  0.88303827645E+02  0.00000000000E+00 0. -1.
         21    1    1    2  505  503  0.36331591253E+01  0.37766851253E+02  0.33709699208E+02  0.50753115367E+02  0.00000000000E+00 0. -1.
         -3    1    1    2    0  502  0.13358951343E+03  0.13436971906E+02  0.98290586884E+03  0.99203359687E+03  0.00000000000E+00 0.  1.
<scales pt_clust_3="36.29516" pt_clust_4="36.29516" pt_clust_5="37.94120" pt_clust_6="136.07760"></scales>
<clustering>
<clus scale="   36.295">  3  4 -1 -1</clus>
<clus scale="   37.941">  2  5  1 -1</clus>
<clus scale="  136.078">  1  6  2 -1</clus>
<clus scale="   37.941">  2  3  1 -1</clus>
</clustering>
</event>
<event>
 6    0  0.2433432E+002  0.1260913E+03  0.7546771E-02  0.1233374E+00
          2   -1    0    0  504    0 -0.00000000000E+00  0.00000000000E+00  0.17154658350E+04  0.17154658350E+04  0.00000000000E+00 0.  1.
         21   -1    0    0  505  502  0.00000000000E+00 -0.00000000000E+00 -0.31584344471E+03  0.31584344471E+03  0.00000000000E+00 0.  1.
         21    1    1    2  503  501  0.13518811544E+02  0.52865154450E+02 -0.56800266578E+02  0.78763907368E+02  0.00000000000E+00 0.  1.
         21    1    1    2  504  502  0.59773808407E+02 -0.90120253338E-01 -0.11377405210E+03  0.12852023663E+03  0.00000000000E+00 0.  1.
         21    1    1    2  505  503 -0.58765648231E+01  0.44088761233E+02 -0.12089654888E+03  0.12881897536E+03  0.00000000000E+00 0.  1.
          2    1    1    2  501    0 -0.67416055128E+02 -0.96863795429E+02  0.16910932578E+04  0.16952061603E+04  0.00000000000E+00 0.  1.
<scales pt_clust_3="40.93816" pt_clust_4="59.77388" pt_clust_5="40.93816" pt_clust_6="117.65618"></scales>
<clustering>
<clus scale="   40.938">  3  5 -1 -1</clus>
<clus scale="   59.774">  2  4  1 -1</clus>
<clus scale="  117.656">  1  6  2 -1</clus>
<clus scale="   59.774">  2  3  1 -1</clus>
</clustering>
</event>
<event>
 6    0  0.2433432E+002  0.1580809E+03  0.7546771E-02  0.1190881E+00
          2   -1    0    0  503    0 -0.00000000000E+00  0.00000000000E+00  0.52092890266E+03  0.52092890266E+03  0.00000000000E+00 0.  1.
         21   -1    0    0  504  502  0.00000000000E+00 -0.00000000000E+00 -0.51397546851E+03  0.51397546851E+03  0.00000000000E+00 0. -1.
         21    1    1    2  503  505 -0.33188584007E+02 -0.13690255731E+02  0.17159424724E+02  0.39791344125E+02  0.00000000000E+00 0. -1.
         21    1    1    2  504  501  0.52641926371E+02  0.32853546075E+01 -0.31455547313E+03  0.31894687903E+03  0.00000000000E+00 0. -1.
         21    1    1    2  505  502  0.91760848921E+02 -0.82586243707E+02 -0.15288206847E+03  0.19650309897E+03  0.00000000000E+00 0. -1.
          2    1    1    2  501    0 -0.11121419128E+03  0.92991144830E+02  0.45723155103E+03  0.47966304905E+03  0.00000000000E+00 0.  1.
<scales pt_clust_3="35.90133" pt_clust_4="52.59288" pt_clust_5="158.08094" pt_clust_6="14000.00000"></scales>
<clustering>
<clus scale="   35.901">  1  3  2 -1</clus>
<clus scale="   52.593">  2  4  1 -1</clus>
<clus scale="  158.081">  2  5  1 -1</clus>
<clus scale="   52.593">  2  3  1 -1</clus>
</clustering>
</event>
<event>
 6    0  0.2433432E+002  0.8606763E+02  0.7546771E-02  0.1312664E+00
         21   -1    0    0  503  502  0.00000000000E+00  0.00000000000E+00  0.10597922664E+03  0.10597922664E+03  0.00000000000E+00 0. -1.
          2   -1    0    0  504    0 -0.00000000000E+00 -0.00000000000E+00 -0.15644606584E+04  0.15644606584E+04  0.00000000000E+00 0. -1.
         21    1    1    2  503  505 -0.39385957601E+02 -0.10855276478E+02  0.30297749463E+01  0.40966696472E+02  0.00000000000E+00 0. -1.
         21    1    1    2  504  502  0.25677936135E+01  0.13478185046E+03 -0.20580859997E+02  0.13636829754E+03  0.00000000000E+00 0.  1.
         21    1    1    2  505  501  0.15867562131E+01 -0.46259164069E+02  0.32576785848E+01  0.46400867722E+02  0.00000000000E+00 0.  1.
          2    1    1    2  501    0  0.35231407775E+02 -0.77667409910E+02 -0.14441880252E+04  0.14467040233E+04  0.00000000000E+00 0. -1.
<scales pt_clust_3="40.85451" pt_clust_4="86.06763" pt_clust_5="50.48068" pt_clust_6="14000.00000"></scales>
<clustering>
<clus scale="   40.855">  1  3  2 -1</clus>
<clus scale="   50.481">  1  5  2 -1</clus>
<clus scale="   86.068">  1  4  2 -1</clus>
<clus scale="   40.855">  1  3  2 -1</clus>
</clustering>
</event>
<event>
 6    0  0.2433432E+002  0.1348133E+03  0.7546771E-02  0.1220484E+00
          2   -1    0    0  503    0 -0.00000000000E+00  0.00000000000E+00  0.21120823372E+04  0.21120823372E+04  0.00000000000E+00 0.  1.
         21   -1    0    0  505  502  0.00000000000E+00 -0.00000000000E+00 -0.11737806372E+03  0.11737806372E+03  0.00000000000E+00 0.  1.
         21    1    1    2  503  504  0.66305879307E+02  0.34796634539E+02  0.22447048093E+01  0.74915379633E+02  0.00000000000E+00 0.  1.
         21    1    1    2  504  502  0.86993243188E+02  0.43838257827E+02 -0.37814013196E+02  0.10449649182E+03  0.00000000000E+00 0.  1.
         21    1    1    2  505  501 -0.37794971742E+02 -0.20502878793E+02  0.51654936582E+02  0.67209079751E+02  0.00000000000E+00 0.  1.
          2    1    1    2  501    0 -0.11550415075E+03 -0.58132013573E+02  0.19786186453E+04  0.19828394497E+04  0.00000000000E+00 0.  1.
<scales pt_clust_3="30.86579" pt_clust_4="30.86579" pt_clust_5="42.99800" pt_clust_6="130.13548"></scales>
<clustering>
<clus scale="   30.866">  3  4 -1 -1</clus>
<clus scale="   42.998">  2  5  1 -1</clus>
<clus scale="  130.135">  1  6  2 -1</clus>
<clus scale="   42.998">  2  3  1 -1</clus>
</clustering>
</event>
<event>
 6    0  0.2433432E+002  0.7660408E+02  0.7546771E-02  0.1338974E+00
          2   -1    0    0  503    0 -0.00000000000E+00  0.00000000000E+00  0.13487173043E+04  0.13487173043E+04  0.00000000000E+00 0.  1.
         21   -1    0    0  505  502  0.00000000000E+00 -0.00000000000E+00 -0.30056231601E+03  0.30056231601E+03  0.00000000000E+00 0. -1.
         21    1    1    2  503  504 -0.30297733025E+02  0.39419977166E+02 -0.58844309256E+02  0.77035965354E+02  0.00000000000E+00 0. -1.
         21    1    1    2  504  502 -0.14634517729E+02 -0.33461697168E+02 -0.33729632556E+02  0.49714609512E+02  0.00000000000E+00 0.  1.
         21    1    1    2  505  501  0.85949869402E+02  0.58607230425E+02 -0.17553417507E+03  0.20404517668E+03  0.00000000000E+00 0. -1.
          2    1    1    2  501    0 -0.41017618648E+02 -0.64565510423E+02  0.13162631052E+04  0.13184838688E+04  0.00000000000E+00 0.  1.
<scales pt_clust_3="45.87042" pt_clust_4="36.52197" pt_clust_5="76.60408" pt_clust_6="14000.00000"></scales>
<clustering>
<clus scale="   36.522">  2  4  1 -1</clus>
<clus scale="   45.870">  2  3  1 -1</clus>
<clus scale="   76.604">  2  5  1 -1</clus>
<clus scale="   36.522">  2  3  1 -1</clus>
</clustering>
</event>
<event>
 6    0  0.2433432E+002  0.1391201E+03  0.7546771E-02  0.1214518E+00
          1   -1    0    0  504    0 -0.00000000000E+00  0.00000000000E+00  0.37293939809E+03  0.37293939809E+03  0.00000000000E+00 0. -1.
         21   -1    0    0  503  502  0.00000000000E+00 -0.00000000000E+00 -0.16784528402E+03  0.16784528402E+03  0.00000000000E+00 0. -1.
         21    1    1    2  503  505 -0.66423109715E+02 -0.48967202805E+02 -0.44989252819E+02  0.93988559537E+02  0.00000000000E+00 0. -1.
         21    1    1    2  504  502  0.19579377397E+02  0.60675826831E+02  0.31727948456E+02  0.71214961168E+02  0.00000000000E+00 0. -1.
         21    1    1    2  505  501 -0.21428486886E+02 -0.57006471434E+02 -0.59955249947E+02  0.85460808748E+02  0.00000000000E+00 0. -1.
          1    1    1    2  501    0  0.68272219204E+02  0.45297847408E+02  0.27831066838E+03  0.29012035266E+03  0.00000000000E+00 0. -1.
<scales pt_clust_3="40.66223" pt_clust_4="63.75663" pt_clust_5="40.66223" pt_clust_6="130.82049"></scales>
<clustering>
<clus scale="   40.662">  3  5 -1 -1</clus>
<clus scale="   63.757">  1  4  2 -1</clus>
<clus scale="  130.820">  1  6  2 -1</clus>
<clus scale="  139.120">  2  3  1 -1</clus>
</clustering>
</event>
<event>
 6    0  0.2433432E+002  0.1403751E+03  0.7546771E-02  0.1212825E+00
         21   -1    0    0  501  502  0.00000000000E+00  0.00000000000E+00  0.14572971147E+04  0.14572971147E+04  0.00000000000E+00 0.  1.
         -1   -1    0    0    0  501 -0.00000000000E+00 -0.00000000000E+00 -0.89544502295E+02  0.89544502295E+02  0.00000000000E+00 0.  1.
         21    1    1    2  503  505  0.18868333357E+02 -0.11443302652E+03  0.24501611792E+03  0.27107900988E+03  0.00000000000E+00 0.  1.
         21    1    1    2  504  502 -0.36393586709E+02  0.19273132906E+02  0.10825360561E+03  0.11582223419E+03  0.00000000000E+00 0.  1.
         21    1    1    2  505  504 -0.47897114611E+01  0.14063960381E+03  0.10732019616E+04  0.10823885115E+04  0.00000000000E+00 0.  1.
         -1    1    1    2    0  503  0.22314964813E+02 -0.45479710199E+02 -0.58719072759E+02  0.77551861358E+02  0.00000000000E+00 0.  1.
<scales pt_clust_3="140.37505" pt_clust_4="41.18187" pt_clust_5="14000.00000" pt_clust_6="50.42623"></scales>
<clustering>
<clus scale="   41.182">  1  4  2 -1</clus>
<clus scale="   50.426">  2  6  1 -1</clus>
<clus scale="  140.375">  2  3  1 -1</clus>
<clus scale="   41.182">  1  3  2 -1</clus>
</clustering>
</event>
<event>
 6    0  0.2433432E+002  0.8971939E+02  0.7546771E-02  0.1303533E+00
         21   -1    0    0  505  502  0.00000000000E+00  0.00000000000E+00  0.17057180185E+03  0.17057180185E+03  0.00000000000E+00 0.  1.
          2   -1    0    0  504    0 -0.00000000000E+00 -0.00000000000E+00 -0.19691065671E+03  0.19691065671E+03  0.00000000000E+00 0.  1.
         21    1    1    2  503  502 -0.72367900916E+00  0.11356491926E+03  0.22406753376E+02  0.11575654278E+03  0.00000000000E+00 0.  1.
         21    1    1    2  504  503  0.40851669963E+02  0.29116919757E+02 -0.33931005712E+02  0.60563744134E+02  0.00000000000E+00 0. -1.
         21    1    1    2  505  501 -0.66798915954E+01 -0.46709048921E+02  0.51468498629E+02  0.69823796474E+02  0.00000000000E+00 0.  1.
          2    1    1    2  501    0 -0.33448099359E+02 -0.95972790101E+02 -0.66283101161E+02  0.12133837517E+03  0.00000000000E+00 0.  1.
<scales pt_clust_3="14000.00000" pt_clust_4="46.40803" pt_clust_5="47.18428" pt_clust_6="89.71939"></scales>
<clustering>
<clus scale="   47.184">  1  5  2 -1</clus>
<clus scale="   46.408">  2  4  1 -1</clus>
<clus scale="   89.719">  2  6  1 -1</clus>
<clus scale="   47.184">  1  3  2 -1</clus>
</clustering>
</event>
<event>
 6    0  0.2433432E+002  0.1336193E+03  0.7546771E-02  0.1222182E+00
          1   -1    0    0  503    0 -0.00000000000E+00  0.00000000000E+00  0.30499464646E+04  0.30499464646E+04  0.00000000000E+00 0. -1.
         21   -1    0    0  505  502  0.00000000000E+00 -0.00000000000E+00 -0.38538579904E+03  0.38538579904E+03  0.00000000000E+00 0.  1.
         21    1    1    2  503  502 -0.12207065754E+03 -0.67810158510E+02  0.28533156466E+02  0.14252580134E+03  0.00000000000E+00 0. -1.
         21    1    1    2  504  501  0.10619646681E+02  0.81760004312E+02 -0.14304453534E+03  0.16510364712E+03  0.00000000000E+00 0.  1.
         21    1    1    2  505  504  0.87766823685E+01  0.51014099614E+02 -0.16919350596E+03  0.17693476474E+03  0.00000000000E+00 0.  1.
          1    1    1    2  501    0  0.10267432849E+03 -0.64963945416E+02  0.29482655504E+04  0.29507680504E+04  0.00000000000E+00 0. -1.
<scales pt_clust_3="127.91256" pt_clust_4="30.61135" pt_clust_5="30.61135" pt_clust_6="121.50034"></scales>
<clustering>
<clus scale="   30.611">  4  5 -1 -1</clus>
<clus scale="  121.500">  1  6  2 -1</clus>
<clus scale="  127.913">  1  3  2 -1</clus>
<clus scale="  133.619">  2  3  1 -1</clus>
</clustering>
</event>
<event>
 6    0  0.2433432E+002  0.6336852E+02  0.7546771E-02  0.1384216E+00
          2   -1    0    0  503    0 -0.00000000000E+00  0.00000000000E+00  0.27589787453E+03  0.27589787453E+03  0.00000000000E+00 0. -1.
         21   -1    0    0  504  502  0.00000000000E+00 -0.00000000000E+00 -0.33992338647E+03  0.33992338647E+03  0.00000000000E+00 0. -1.
         21    1    1    2  503  505  0.21703525948E+02 -0.63582887799E+02 -0.80484266166E+02  0.10484056352E+03  0.00000000000E+00 0. -1.
         21    1    1    2  504  501  0.54669557445E+02  0.63779376441E+02 -0.48956676430E+02  0.97228213691E+02  0.00000000000E+00 0.  1.
         21    1    1    2  505  502 -0.32945668917E+02 -0.46464217296E+02 -0.16510696885E+03  0.17465580938E+03  0.00000000000E+00 0. -1.
          2    1    1    2  501    0 -0.43427414476E+02  0.46267728654E+02  0.23052239950E+03  0.23909667441E+03  0.00000000000E+00 0. -1.
<scales pt_clust_3="63.36852" pt_clust_4="59.66507" pt_clust_5="56.95911" pt_clust_6="14000.00000"></scales>
<clustering>
<clus scale="   56.959">  2  5  1 -1</clus>
<clus scale="   59.665">  2  4  1 -1</clus>
<clus scale="   63.369">  2  3  1 -1</clus>
<clus scale="   56.959">  2  3  1 -1</clus>
</clustering>
</event>
<event>
 6    0  0.2433432E+002  0.1623240E+03  0.7546771E-02  0.1186098E+00
         -2   -1    0    0    0  501 -0.00000000000E+00  0.00000000000E+00  0.84172369944E+03  0.84172369944E+03  0.00000000000E+00 0. -1.
         21   -1    0    0  504  502  0.00000000000E+00 -0.00000000000E+00 -0.46901201244E+03  0.46901201244E+03  0.00000000000E+00 0.  1.
         21    1    1    2  503  502 -0.34799141532E+02 -0.16756045845E+02 -0.28809445879E+03  0.29067191558E+03  0.00000000000E+00 0.  1.
         21    1    1    2  504  501 -0.11997892523E+03 -0.42489613001E+02 -0.10612590980E+03  0.16571969842E+03  0.00000000000E+00 0.  1.
         21    1    1    2  505  503  0.21136060988E+03  0.75166359371E+01  0.23194622459E+03  0.31389306830E+03  0.00000000000E+00 0. -1.
         -2    1    1    2    0  505 -0.56582543117E+02  0.51729022909E+02  0.53498583100E+03  0.54045102958E+03  0.00000000000E+00 0. -1.
<scales pt_clust_3="38.62312" pt_clust_4="162.32403" pt_clust_5="14000.00000" pt_clust_6="76.88535"></scales>
<clustering>
<clus scale="   38.623">  2  3  1 -1</clus>
<clus scale="   76.885">  1  6  2 -1</clus>
<clus scale="  162.324">  2  4  1 -1</clus>
<clus scale="   38.623">  2  3  1 -1</clus>
</clustering>
</event>
<event>
 6    0  0.2433432E+002  0.9487412E+02  0.7546771E-02  0.1291460E+00
         21   -1    0    0  505  502  0.00000000000E+00  0.00000000000E+00  0.21100460771E+04  0.21100460771E+04  0.00000000000E+00 0. -1.
          1   -1    0    0  504    0 -0.00000000000E+00 -0.00000000000E+00 -0.23958113343E+03  0.23958113343E+03  0.00000000000E+00 0. -1.
         21    1    1    2  503  502  0.36692016544E+02  0.74705772697E+02 -0.10096862559E+03  0.13085075432E+03  0.00000000000E+00 0. -1.
         21    1    1    2  504  503  0.46025438618E+02 -0.11391954412E+02 -0.34233637105E+02  0.58481275077E+02  0.00000000000E+00 0. -1.
         21    1    1    2  505  501 -0.49583952468E+02 -0.81017648816E+02  0.20772675508E+04  0.20794381225E+04  0.00000000000E+00 0. -1.
          1    1    1    2  501    0 -0.33133502694E+02  0.17703830532E+02 -0.71600344390E+02  0.80857058647E+02  0.00000000000E+00 0. -1.
<scales pt_clust_3="14000.00000" pt_clust_4="37.17204" pt_clust_5="94.87412" pt_clust_6="37.56667"></scales>
<clustering>
<clus scale="   37.567">  2  6  1 -1</clus>
<clus scale="   37.172">  2  4  1 -1</clus>
<clus scale="   94.874">  1  5  2 -1</clus>
<clus scale="   94.874">  1  3  2 -1</clus>
</clustering>
</event>
<event>
 6    0  0.2433432E+002  0.9177258E+02  0.7546771E-02  0.1298615E+00
         21   -1    0    0  501  502  0.00000000000E+00  0.00000000000E+00  0.11235306819E+03  0.11235306819E+03  0.00000000000E+00 0.  1.
          1   -1    0    0  505    0 -0.00000000000E+00 -0.00000000000E+00 -0.10749446372E+04  0.10749446372E+04  0.00000000000E+00 0. -1.
         21    1    1    2  503  502 -0.91839837193E+02  0.10892502571E+02  0.79226795291E+02  0.12177884627E+03  0.00000000000E+00 0.  1.
         21    1    1    2  504  503  0.24962335419E+02 -0.59038144192E+02 -0.18353644084E+03  0.19440742212E+03  0.00000000000E+00 0. -1.
         21    1    1    2  505  504 -0.77683178650E-01  0.39807437646E+02 -0.74830090067E+02  0.84759545221E+02  0.00000000000E+00 0. -1.
          1    1    1    2  501    0  0.66955184953E+02  0.83382039745E+01 -0.78345183342E+03  0.78635189179E+03  0.00000000000E+00 0. -1.
<scales pt_clust_3="91.77258" pt_clust_4="57.20549" pt_clust_5="39.80751" pt_clust_6="14000.00000"></scales>
<clustering>
<clus scale="   39.808">  2  5  1 -1</clus>
<clus scale="   57.205">  2  4  1 -1</clus>
<clus scale="   91.773">  1  3  2 -1</clus>
<clus scale="   91.773">  1  3  2 -1</clus>
</clustering>
</event>
<event>
 6    0  0.2433432E+002  0.1255942E+03  0.7546771E-02  0.1234144E+00
         21   -1    0    0  503  502  0.00000000000E+00  0.00000000000E+00  0.12060893294E+02  0.12060893294E+02  0.00000000000E+00 0. -1.
          1   -1    0    0  505    0 -0.00000000000E+00 -0.00000000000E+00 -0.30946375497E+04  0.30946375497E+04  0.00000000000E+00 0. -1.
         21    1    1    2  503  501 -0.44131477040E+02  0.98051605837E+02 -0.43244942733E+03  0.44561666471E+03  0.00000000000E+00 0. -1.
         21    1    1    2  504  502  0.18818488584E+02 -0.48392966115E+02 -0.24400409296E+03  0.24946745692E+03  0.00000000000E+00 0. -1.
         21    1    1    2  505  504  0.48814225508E+02 -0.75222416794E+02 -0.78274237853E+03  0.78786221622E+03  0.00000000000E+00 0. -1.
          1    1    1    2  501    0 -0.23501237052E+02  0.25563777072E+02 -0.16233807576E+04  0.16237521052E+04  0.00000000000E+00 0. -1.
<scales pt_clust_3="117.40660" pt_clust_4="33.94152" pt_clust_5="33.94152" pt_clust_6="34.72484"></scales>
<clustering>
<clus scale="   33.942">  4  5 -1 -1</clus>
<clus scale="   34.725">  2  6  1 -1</clus>
<clus scale="  117.407">  1  3  2 -1</clus>
<clus scale="  117.407">  1  3  2 -1</clus>
</clustering>
</event>
<event>
 6    0  0.2433432E+002  0.8835562E+02  0.7546771E-02  0.1306883E+00
          2   -1    0    0  505    0 -0.00000000000E+00  0.00000000000E+00  0.76647865353E+02  0.76647865353E+02  0.00000000000E+00 0.  1.
         21   -1    0    0  504  502  0.00000000000E+00 -0.00000000000E+00 -0.47761243643E+03  0.47761243643E+03  0.00000000000E+00 0.  1.
         21    1    1    2  503  501 -0.88582803057E+02 -0.25713964511E+02 -0.12643036131E+03  0.15650162053E+03  0.00000000000E+00 0.  1.
         21    1    1    2  504  503 -0.27299883215E+01 -0.30890794822E+02 -0.46540568641E+02  0.55926009784E+02  0.00000000000E+00 0.  1.
         21    1    1    2  505  502  0.51024006170E+02 -0.29005550882E+02 -0.23943788928E+03  0.24652641645E+03  0.00000000000E+00 0.  1.
          2    1    1    2  501    0  0.40288785209E+02  0.85610310214E+02  0.11444248152E+02  0.95306255012E+02  0.00000000000E+00 0.  1.
<scales pt_clust_3="14000.00000" pt_clust_4="31.01119" pt_clust_5="67.96723" pt_clust_6="88.35562"></scales>
<clustering>
<clus scale="   31.011">  2  4  1 -1</clus>
<clus scale="   67.967">  2  5  1 -1</clus>
<clus scale="   88.356">  1  6  2 -1</clus>
<clus scale="   31.011">  2  3  1 -1</clus>
</clustering>
</event>
<event>
 6    0  0.2433432E+002  0.1305026E+03  0.7546771E-02  0.1226712E+00
         21   -1    0    0  505  502  0.00000000000E+00  0.00000000000E+00  0.15712457323E+02  0.15712457323E+02  0.00000000000E+00 0.  1.
          2   -1    0    0  504    0 -0.00000000000E+00 -0.00000000000E+00 -0.20186397974E+04  0.20186397974E+04  0.00000000000E+00 0.  1.
         21    1    1    2  503  501  0.25425681122E+02 -0.53039339497E+02 -0.26883123288E+03  0.27519060406E+03  0.00000000000E+00 0.  1.
         21    1    1    2  504  502 -0.41422465270E+01  0.14109094080E+03 -0.56684031560E+03  0.58415045594E+03  0.00000000000E+00 0.  1.
         21    1    1    2  505  503 -0.24385018905E+02 -0.49494633771E+02 -0.21489894409E+03  0.22186911477E+03  0.00000000000E+00 0.  1.
          2    1    1    2  501    0  0.31015843101E+01 -0.38556967534E+02 -0.95235684756E+03  0.95314208000E+03  0.00000000000E+00 0.  1.
<scales pt_clust_3="48.30478" pt_clust_4="120.29858" pt_clust_5="48.30478" pt_clust_6="38.68151"></scales>
<clustering>
<clus scale="   38.682">  2  6  1 -1</clus>
<clus scale="   48.305">  3  5 -1 -1</clus>
<clus scale="  120.299">  2  4  1 -1</clus>
<clus scale="  130.503">  1  3  2 -1</clus>
</clustering>
</event>
<event>
 6    0  0.2433432E+002  0.7915300E+02  0.7546771E-02  0.1331472E+00
         21   -1    0    0  504  502  0.00000000000E+00  0.00000000000E+00  0.29368342442E+02  0.29368342442E+02  0.00000000000E+00 0.  1.
          2   -1    0    0  503    0 -0.00000000000E+00 -0.00000000000E+00 -0.20466852083E+04  0.20466852083E+04  0.00000000000E+00 0. -1.
         21    1    1    2  503  505 -0.28415305068E+02  0.70666387277E+02 -0.32838470560E+03  0.33710188775E+03  0.00000000000E+00 0. -1.
         21    1    1    2  504  501 -0.69481484591E+02 -0.85462005739E+02 -0.56043387591E+03  0.57115458538E+03  0.00000000000E+00 0. -1.
         21    1    1    2  505  502  0.52709585206E+02  0.21476366468E+02 -0.23052707748E+02  0.61408159261E+02  0.00000000000E+00 0.  1.
          2    1    1    2  501    0  0.45187204453E+02 -0.66807480060E+01 -0.11054455766E+04  0.11063889183E+04  0.00000000000E+00 0. -1.
<scales pt_clust_3="14000.00000" pt_clust_4="79.15300" pt_clust_5="58.69150" pt_clust_6="45.67840"></scales>
<clustering>
<clus scale="   45.678">  2  6  1 -1</clus>
<clus scale="   58.692">  1  5  2 -1</clus>
<clus scale="   79.153">  1  4  2 -1</clus>
<clus scale="   58.692">  1  3  2 -1</clus>
</clustering>
</event>
<event>
 6    0  0.2433432E+002  0.6966945E+02  0.7546771E-02  0.1361221E+00
         21   -1    0    0  504  502  0.00000000000E+00  0.00000000000E+00  0.37749869523E+02  0.37749869523E+02  0.00000000000E+00 0.  1.
          1   -1    0    0  503    0 -0.00000000000E+00 -0.00000000000E+00 -0.17915744780E+04  0.17915744780E+04  0.00000000000E+00 0.  1.
         21    1    1    2  503  505 -0.80733714278E+02 -0.13380906057E+02 -0.44655692377E+03  0.45399346629E+03  0.00000000000E+00 0.  1.
         21    1    1    2  504  501  0.72913862602E+02 -0.70517615160E+01 -0.42644358021E+03  0.43268959521E+03  0.00000000000E+00 0.  1.
         21    1    1    2  505  502 -0.56660188728E+02  0.79076585158E+01  0.21283869239E+01  0.57248913359E+02  0.00000000000E+00 0.  1.
          1    1    1    2  501    0  0.64480040404E+02  0.12525009058E+02 -0.88295249145E+03  0.88539237270E+03  0.00000000000E+00 0.  1.
<scales pt_clust_3="69.66945" pt_clust_4="51.11888" pt_clust_5="57.20934" pt_clust_6="14000.00000"></scales>
<clustering>
<clus scale="   57.209">  1  5  2 -1</clus>
<clus scale="   51.119">  1  4  2 -1</clus>
<clus scale="   69.669">  1  3  2 -1</clus>
<clus scale="   57.209">  1  3  2 -1</clus>
</clustering>
</event>
<event>
 6    0  0.2433432E+002  0.9839801E+02  0.7546771E-02  0.1283701E+00
          2   -1    0    0  505    0 -0.00000000000E+00  0.00000000000E+00  0.17683980387E+04  0.17683980387E+04  0.00000000000E+00 0. -1.
         21   -1    0    0  503  502  0.00000000000E+00 -0.00000000000E+00 -0.55679489064E+02  0.55679489064E+02  0.00000000000E+00 0. -1.
         21    1    1    2  503  501 -0.80153486459E+02  0.31774673533E+01 -0.80573570111E+01  0.80620088640E+02  0.00000000000E+00 0. -1.
         21    1    1    2  504  502  0.62059936092E+01  0.59097253567E+02  0.13609659813E+03  0.14850348063E+03  0.00000000000E+00 0. -1.
         21    1    1    2  505  504 -0.28248670731E+02  0.26363640965E+02  0.20122925757E+03  0.20490544909E+03  0.00000000000E+00 0. -1.
          2    1    1    2  501    0  0.10219616358E+03 -0.88638361886E+02  0.13834500509E+04  0.13900485094E+04  0.00000000000E+00 0. -1.
<scales pt_clust_3="14000.00000" pt_clust_4="61.60142" pt_clust_5="38.63973" pt_clust_6="98.39801"></scales>
<clustering>
<clus scale="   38.640">  1  5  2 -1</clus>
<clus scale="   61.601">  2  4  1 -1</clus>
<clus scale="   98.398">  1  6  2 -1</clus>
<clus scale="   61.601">  2  3  1 -1</clus>
</clustering>
</event>
<event>
 6    0  0.2433432E+002  0.1917422E+03  0.7546771E-02  0.1156899E+00
         21   -1    0    0  503  502  0.00000000000E+00  0.00000000000E+00  0.90905588122E+03  0.90905588122E+03  0.00000000000E+00 0. -1.
          1   -1    0    0  502    0 -0.00000000000E+00 -0.00000000000E+00 -0.57456138694E+03  0.57456138694E+03  0.00000000000E+00 0.  1.
         21    1    1    2  503  504  0.56232271732E+01  0.43341042170E+02  0.77229137309E+03  0.77352700765E+03  0.00000000000E+00 0. -1.
         21    1    1    2  504  505 -0.46369857762E+02  0.70972473156E+02  0.23760204561E+02  0.88044323925E+02  0.00000000000E+00 0. -1.
         21    1    1    2  505  501 -0.16087041871E+03 -0.29955573162E+02 -0.79571956746E+02  0.18195692974E+03  0.00000000000E+00 0. -1.
          1    1    1    2  501    0  0.20161704930E+03 -0.84357942163E+02 -0.38198512663E+03  0.44008900684E+03  0.00000000000E+00 0.  1.
<scales pt_clust_3="43.70431" pt_clust_4="99.10198" pt_clust_5="14000.00000" pt_clust_6="191.74224"></scales>
<clustering>
<clus scale="   43.704">  1  3  2 -1</clus>
<clus scale="   99.102">  1  4  2 -1</clus>
<clus scale="  191.742">  2  6  1 -1</clus>
<clus scale="   43.704">  1  3  2 -1</clus>
</clustering>
</event>
<event>
 6    0  0.2433432E+002  0.7985134E+02  0.7546771E-02  0.1329474E+00
          2   -1    0    0  504    0 -0.00000000000E+00  0.00000000000E+00  0.65322100785E+03  0.65322100785E+03  0.00000000000E+00 0. -1.
         21   -1    0    0  503  502  0.00000000000E+00 -0.00000000000E+00 -0.19724241577E+03  0.19724241577E+03  0.00000000000E+00 0.  1.
         21    1    1    2  503  501 -0.26162915247E+02  0.11474807809E+03 -0.13925714454E+03  0.18232984359E+03  0.00000000000E+00 0.  1.
         21    1    1    2  504  505  0.33022641846E+02 -0.55396553537E+02  0.13737509288E+03  0.15176030167E+03  0.00000000000E+00 0. -1.
         21    1    1    2  505  502  0.17407937326E+02 -0.34014637448E+02 -0.15848489076E+02  0.41366731182E+02  0.00000000000E+00 0. -1.
          2    1    1    2  501    0 -0.24267663925E+02 -0.25336887100E+02  0.47370913281E+03  0.47500654719E+03  0.00000000000E+00 0. -1.
<scales pt_clust_3="79.85134" pt_clust_4="14000.00000" pt_clust_5="39.10218" pt_clust_6="35.08386"></scales>
<clustering>
<clus scale="   35.084">  1  6  2 -1</clus>
<clus scale="   39.102">  2  5  1 -1</clus>
<clus scale="   79.851">  2  3  1 -1</clus>
<clus scale="   39.102">  2  3  1 -1</clus>
</clustering>
</event>
<event>
 6    0  0.2433432E+002  0.1640272E+03  0.7546771E-02  0.1184224E+00
         -2   -1    0    0    0  501 -0.00000000000E+00  0.00000000000E+00  0.52146062790E+03  0.52146062790E+03  0.00000000000E+00 0. -1.
         21   -1    0    0  501  502  0.00000000000E+00 -0.00000000000E+00 -0.13605753361E+03  0.13605753361E+03  0.00000000000E+00 0. -1.
         21    1    1    2  503  505 -0.68896065552E+02 -0.11796827993E+03 -0.52346973342E+02  0.14629896971E+03  0.00000000000E+00 0. -1.
         21    1    1    2  504  503  0.33736823583E+02  0.17324330611E+02  0.54892991022E+02  0.66719908273E+02  0.00000000000E+00 0.  1.
         21    1    1    2  505  502 -0.40935460851E+02  0.53652230547E+01 -0.14505146894E+01  0.41311034438E+02  0.00000000000E+00 0.  1.
         -2    1    1    2    0  504  0.76094702820E+02  0.95278726269E+02  0.38430759130E+03  0.40318824909E+03  0.00000000000E+00 0. -1.
<scales pt_clust_3="154.04812" pt_clust_4="31.42010" pt_clust_5="41.28556" pt_clust_6="31.42010"></scales>
<clustering>
<clus scale="   31.420">  4  6 -1 -1</clus>
<clus scale="   41.286">  2  5  1 -1</clus>
<clus scale="  154.048">  2  3  1 -1</clus>
<clus scale="   41.286">  2  3  1 -1</clus>
</clustering>
</event>
<event>
 6    0  0.2433432E+002  0.1022220E+03  0.7546771E-02  0.1275692E+00
         21   -1    0    0  503  502  0.00000000000E+00  0.00000000000E+00  0.13421128027E+03  0.13421128027E+03  0.00000000000E+00 0.  1.
          2   -1    0    0  505    0 -0.00000000000E+00 -0.00000000000E+00 -0.11500388987E+04  0.11500388987E+04  0.00000000000E+00 0.  1.
         21    1    1    2  503  501 -0.74845600110E+02  0.26246469544E+02  0.70320626854E+02  0.10599873386E+03  0.00000000000E+00 0.  1.
         21    1    1    2  504  502 -0.74012883452E+01  0.34542071447E+02  0.11032894563E+02  0.37008898004E+02  0.00000000000E+00 0.  1.
         21    1    1    2  505  504 -0.19923113366E+02 -0.48492680692E+02 -0.15488580657E+02  0.54665955198E+02  0.00000000000E+00 0. -1.
          2    1    1    2  501    0  0.10217000182E+03 -0.12295860299E+02 -0.10816925592E+04  0.10865765919E+04  0.00000000000E+00 0.  1.
<scales pt_clust_3="102.22199" pt_clust_4="35.32611" pt_clust_5="47.37920" pt_clust_6="14000.00000"></scales>
<clustering>
<clus scale="   35.326">  1  4  2 -1</clus>
<clus scale="   47.379">  1  5  2 -1</clus>
<clus scale="  102.222">  1  3  2 -1</clus>
<clus scale="   35.326">  1  3  2 -1</clus>
</clustering>
</event>
<event>
 6    0  0.2433432E+002  0.9741229E+02  0.7546771E-02  0.1285834E+00
         21   -1    0    0  503  502  0.00000000000E+00  0.00000000000E+00  0.28482731551E+03  0.28482731551E+03  0.00000000000E+00 0.  1.
          1   -1    0    0  504    0 -0.00000000000E+00 -0.00000000000E+00 -0.13163809606E+03  0.13163809606E+03  0.00000000000E+00 0.  1.
         21    1    1    2  503  501  0.65886292570E+02  0.48901966299E+02  0.16644742842E+03  0.18557249873E+03  0.00000000000E+00 0.  1.
         21    1    1    2  504  505  0.44739685130E+02 -0.10164824671E+01  0.44928797652E+02  0.63413480590E+02  0.00000000000E+00 0.  1.
         21    1    1    2  505  502 -0.11184780578E+02 -0.31905691220E+02  0.20614451556E+02  0.39598334078E+02  0.00000000000E+00 0.  1.
          1    1    1    2  501    0 -0.99441197122E+02 -0.15979792612E+02 -0.78801458177E+02  0.12788109816E+03  0.00000000000E+00 0.  1.
<scales pt_clust_3="14000.00000" pt_clust_4="43.07349" pt_clust_5="33.80935" pt_clust_6="97.41229"></scales>
<clustering>
<clus scale="   33.809">  1  5  2 -1</clus>
<clus scale="   43.073">  1  4  2 -1</clus>
<clus scale="   97.412">  2  6  1 -1</clus>
<clus scale="   33.809">  1  3  2 -1</clus>
</clustering>
</event>
<event>
 6    0  0.2433432E+002  0.1406737E+03  0.7546771E-02  0.1212425E+00
         21   -1    0    0  503  502  0.00000000000E+00  0.00000000000E+00  0.16089963703E+03  0.16089963703E+03  0.00000000000E+00 0.  1.
          2   -1    0    0  505    0 -0.00000000000E+00 -0.00000000000E+00 -0.28207843131E+04  0.28207843131E+04  0.00000000000E+00 0. -1.
         21    1    1    2  503  504 -0.13857875920E+03 -0.76151344616E+01  0.10922767502E+03  0.17661468728E+03  0.00000000000E+00 0.  1.
         21    1    1    2  504  501  0.16967037713E+03 -0.36284163005E+02 -0.47099116254E+03  0.50193351408E+03  0.00000000000E+00 0.  1.
         21    1    1    2  505  502  0.16402456704E+02  0.25297686586E+02 -0.10055574841E+03  0.10497843622E+03  0.00000000000E+00 0. -1.
          2    1    1    2  501    0 -0.47494074630E+02  0.18601610881E+02 -0.21975654402E+04  0.21981573126E+04  0.00000000000E+00 0. -1.
<scales pt_clust_3="14000.00000" pt_clust_4="140.67369" pt_clust_5="30.14985" pt_clust_6="51.93517"></scales>
<clustering>
<clus scale="   30.150">  2  5  1 -1</clus>
<clus scale="   51.935">  2  6  1 -1</clus>
<clus scale="  140.674">  2  4  1 -1</clus>
<clus scale="  140.674">  1  3  2 -1</clus>
</clustering>
</event>
<event>
 6    0  0.2433432E+002  0.9673689E+02  0.7546771E-02  0.1287311E+00
         21   -1    0    0  505  502  0.00000000000E+00  0.00000000000E+00  0.37264100555E+02  0.37264100555E+02  0.00000000000E+00 0.  1.
          1   -1    0    0  504    0 -0.00000000000E+00 -0.00000000000E+00 -0.16318681863E+04  0.16318681863E+04  0.00000000000E+00 0. -1.
         21    1    1    2  503  501  0.91799571208E+02  0.82762164046E+02 -0.18386254100E+03  0.22154496396E+03  0.00000000000E+00 0.  1.
         21    1    1    2  504  502  0.30360152826E+01 -0.54903815220E+02 -0.10910250243E+03  0.12217611203E+03  0.00000000000E+00 0. -1.
         21    1    1    2  505  503 -0.20342384680E+02  0.29948105476E+02 -0.22127924278E+02  0.42430492206E+02  0.00000000000E+00 0. -1.
          1    1    1    2  501    0 -0.74493201811E+02 -0.57806454303E+02 -0.12795111180E+04  0.12829807187E+04  0.00000000000E+00 0. -1.
<scales pt_clust_3="96.73689" pt_clust_4="47.72003" pt_clust_5="36.20361" pt_clust_6="14000.00000"></scales>
<clustering>
<clus scale="   36.204">  1  5  2 -1</clus>
<clus scale="   47.720">  1  4  2 -1</clus>
<clus scale="   96.737">  1  3  2 -1</clus>
<clus scale="   36.204">  1  3  2 -1</clus>
</clustering>
</event>
<event>
 6    0  0.2433432E+002  0.1143542E+03  0.7546771E-02  0.1252713E+00
         21   -1    0    0  503  502  0.00000000000E+00  0.00000000000E+00  0.93943921431E+03  0.93943921431E+03  0.00000000000E+00 0.  1.
          1   -1    0    0  502    0 -0.00000000000E+00 -0.00000000000E+00 -0.12266262152E+03  0.12266262152E+03  0.00000000000E+00 0. -1.
         21    1    1    2  503  505  0.16786723874E+02 -0.10881860031E+03  0.55360489648E+03  0.56444810503E+03  0.00000000000E+00 0.  1.
         21    1    1    2  504  501 -0.56153995661E+02 -0.11642363696E+01  0.12902372715E+03  0.14071868690E+03  0.00000000000E+00 0. -1.
         21    1    1    2  505  504  0.60565651628E+02  0.13826476567E+03  0.21844674143E+03  0.26552650042E+03  0.00000000000E+00 0.  1.
          1    1    1    2  501    0 -0.21198379841E+02 -0.28281928990E+02 -0.84298772270E+02  0.91408543482E+02  0.00000000000E+00 0. -1.
<scales pt_clust_3="114.35420" pt_clust_4="60.00733" pt_clust_5="14000.00000" pt_clust_6="35.34457"></scales>
<clustering>
<clus scale="   35.345">  2  6  1 -1</clus>
<clus scale="   60.007">  2  4  1 -1</clus>
<clus scale="  114.354">  1  3  2 -1</clus>
<clus scale="  114.354">  1  3  2 -1</clus>
</clustering>
</event>
<event>
 6    0  0.2433432E+002  0.7728588E+02  0.7546771E-02  0.1336935E+00
         -4   -1    0    0    0  501 -0.00000000000E+00  0.00000000000E+00  0.93483442749E+02  0.93483442749E+02  0.00000000000E+00 0.  1.
         21   -1    0    0  504  502  0.00000000000E+00 -0.00000000000E+00 -0.53145631303E+03  0.53145631303E+03  0.00000000000E+00 0.  1.
         21    1    1    2  503  502 -0.30593834068E+02 -0.12764688427E+02 -0.18605907086E+03  0.18898914732E+03  0.00000000000E+00 0.  1.
         21    1    1    2  504  501 -0.71123942032E+02 -0.77487733978E+02 -0.18897825325E+03  0.21627700814E+03  0.00000000000E+00 0.  1.
         21    1    1    2  505  503  0.61848366312E+02  0.27139058132E+02 -0.11168145358E+03  0.13051626705E+03  0.00000000000E+00 0.  1.
         -4    1    1    2    0  505  0.39869409789E+02  0.63113364272E+02  0.48745907412E+02  0.89157333271E+02  0.00000000000E+00 0.  1.
<scales pt_clust_3="33.14996" pt_clust_4="77.28588" pt_clust_5="55.87093" pt_clust_6="14000.00000"></scales>
<clustering>
<clus scale="   33.150">  2  3  1 -1</clus>
<clus scale="   55.871">  2  5  1 -1</clus>
<clus scale="   77.286">  2  4  1 -1</clus>
<clus scale="   33.150">  2  3  1 -1</clus>
</clustering>
</event>
<event>
 6    0  0.2433432E+002  0.7622408E+02  0.7546771E-02  0.1340122E+00
         21   -1    0    0  504  502  0.00000000000E+00  0.00000000000E+00  0.57433561293E+02  0.57433561293E+02  0.00000000000E+00 0. -1.
          2   -1    0    0  505    0 -0.00000000000E+00 -0.00000000000E+00 -0.14311947072E+04  0.14311947072E+04  0.00000000000E+00 0. -1.
         21    1    1    2  503  501 -0.85578221202E+02  0.24851667237E+02 -0.35939824990E+02  0.96088023858E+02  0.00000000000E+00 0. -1.
         21    1    1    2  504  503  0.66868014815E+02  0.85625715915E+01 -0.34390388871E+02  0.75679243418E+02  0.00000000000E+00 0. -1.
         21    1    1    2  505  502  0.10238981488E+02  0.44024583987E+02 -0.87936373924E+02  0.98872678714E+02  0.00000000000E+00 0.  1.
          2    1    1    2  501    0  0.84712248989E+01 -0.77438822815E+02 -0.12154945581E+04  0.12179883225E+04  0.00000000000E+00 0. -1.
<scales pt_clust_3="76.22408" pt_clust_4="75.56848" pt_clust_5="45.19957" pt_clust_6="14000.00000"></scales>
<clustering>
<clus scale="   45.200">  1  5  2 -1</clus>
<clus scale="   75.568">  1  4  2 -1</clus>
<clus scale="   76.224">  1  3  2 -1</clus>
<clus scale="   45.200">  1  3  2 -1</clus>
</clustering>
</event>
<event>
 6    0  0.2433432E+002  0.8666942E+02  0.7546771E-02  0.1311124E+00
         21   -1    0    0  504  502  0.00000000000E+00  0.00000000000E+00  0.21302365375E+02  0.21302365375E+02  0.00000000000E+00 0. -1.
          2   -1    0    0  503    0 -0.00000000000E+00 -0.00000000000E+00 -0.29137617367E+04  0.29137617367E+04  0.00000000000E+00 0.  1.
         21    1    1    2  503  505  0.27743740692E+02  0.23516088581E+02 -0.34563579461E+03  0.34754398870E+03  0.00000000000E+00 0. -1.
         21    1    1    2  504  501 -0.54425736678E+02  0.23538144767E+02 -0.34425979893E+02  0.68566414254E+02  0.00000000000E+00 0. -1.
         21    1    1    2  505  502 -0.70839200350E+02 -0.19693351158E+02 -0.73378721603E+03  0.73746165921E+03  0.00000000000E+00 0. -1.
          2    1    1    2  501    0  0.97521196336E+02 -0.27360882190E+02 -0.17786103808E+04  0.17814920399E+04  0.00000000000E+00 0.  1.
<scales pt_clust_3="36.36924" pt_clust_4="58.97767" pt_clust_5="86.66942" pt_clust_6="14000.00000"></scales>
<clustering>
<clus scale="   36.369">  2  3  1 -1</clus>
<clus scale="   58.978">  1  4  2 -1</clus>
<clus scale="   86.669">  2  5  1 -1</clus>
<clus scale="   58.978">  1  3  2 -1</clus>
</clustering>
</event>
<event>
 6    0  0.2433432E+002  0.1449981E+03  0.7546771E-02  0.1206758E+00
         21   -1    0    0  504  502  0.00000000000E+00  0.00000000000E+00  0.10250248491E+04  0.10250248491E+04  0.00000000000E+00 0. -1.
          1   -1    0    0  503    0 -0.00000000000E+00 -0.00000000000E+00 -0.72996308220E+03  0.72996308220E+03  0.00000000000E+00 0. -1.
         21    1    1    2  503  505 -0.25342464965E+02 -0.12701791921E+03  0.65455423733E+02  0.14512134518E+03  0.00000000000E+00 0.  1.
         21    1    1    2  504  501  0.14486312519E+02  0.10153933958E+03  0.86651756812E+03  0.87256678060E+03  0.00000000000E+00 0. -1.
         21    1    1    2  505  502 -0.72756847968E+02 -0.31989534065E+02  0.12110094283E+02  0.80396166573E+02  0.00000000000E+00 0.  1.
          1    1    1    2  501    0  0.83613000414E+02  0.57468113692E+02 -0.64902131928E+03  0.65690363891E+03  0.00000000000E+00 0. -1.
<scales pt_clust_3="78.07943" pt_clust_4="105.30694" pt_clust_5="78.07943" pt_clust_6="101.45796"></scales>
<clustering>
<clus scale="   78.079">  3  5 -1 -1</clus>
<clus scale="  101.458">  2  6  1 -1</clus>
<clus scale="  105.307">  1  4  2 -1</clus>
<clus scale="  105.307">  1  3  2 -1</clus>
</clustering>
</event>
<event>
 6    0  0.2433432E+002  0.1096367E+03  0.7546771E-02  0.1261244E+00
          1   -1    0    0  502    0 -0.00000000000E+00  0.00000000000E+00  0.93084488729E+03  0.93084488729E+03  0.00000000000E+00 0. -1.
         21   -1    0    0  505  502  0.00000000000E+00 -0.00000000000E+00 -0.30912189744E+03  0.30912189744E+03  0.00000000000E+00 0.  1.
         21    1    1    2  503  501 -0.28016157207E+02 -0.42800400632E+02 -0.33082545152E+02  0.60919899480E+02  0.00000000000E+00 0. -1.
         21    1    1    2  504  503  0.99090588485E+02 -0.43656907570E+01  0.25334549379E+01  0.99219062564E+02  0.00000000000E+00 0.  1.
         21    1    1    2  505  504 -0.10208566845E+03  0.53114065824E+02 -0.19797715392E+03  0.22899244783E+03  0.00000000000E+00 0.  1.
          1    1    1    2  501    0  0.31011237172E+02 -0.59479744342E+01  0.85024923397E+03  0.85083537486E+03  0.00000000000E+00 0. -1.
<scales pt_clust_3="49.33360" pt_clust_4="109.63665" pt_clust_5="14000.00000" pt_clust_6="31.57650"></scales>
<clustering>
<clus scale="   31.576">  1  6  2 -1</clus>
<clus scale="   49.334">  1  3  2 -1</clus>
<clus scale="  109.637">  1  4  2 -1</clus>
<clus scale="  109.637">  2  3  1 -1</clus>
</clustering>
</event>
<event>
 6    0  0.2433432E+002  0.1340448E+03  0.7546771E-02  0.1221575E+00
          2   -1    0    0  505    0 -0.00000000000E+00  0.00000000000E+00  0.85613860193E+03  0.85613860193E+03  0.00000000000E+00 0.  1.
         21   -1    0    0  503  502  0.00000000000E+00 -0.00000000000E+00 -0.48165978059E+02  0.48165978059E+02  0.00000000000E+00 0.  1.
         21    1    1    2  503  501  0.58834374222E+02 -0.37110976504E+01  0.88511067951E+02  0.10634596836E+03  0.00000000000E+00 0.  1.
         21    1    1    2  504  502 -0.30912142598E+02  0.16840723110E+02  0.33571023894E+02  0.48643439025E+02  0.00000000000E+00 0.  1.
         21    1    1    2  505  504  0.38874403299E+02  0.11079115739E+03  0.12696544439E+03  0.17293387134E+03  0.00000000000E+00 0.  1.
          2    1    1    2  501    0 -0.66796634924E+02 -0.12392078285E+03  0.55892508764E+03  0.57638130127E+03  0.00000000000E+00 0.  1.
<scales pt_clust_3="52.04976" pt_clust_4="35.20185" pt_clust_5="134.04476" pt_clust_6="14000.00000"></scales>
<clustering>
<clus scale="   35.202">  2  4  1 -1</clus>
<clus scale="   52.050">  2  3  1 -1</clus>
<clus scale="  134.045">  2  5  1 -1</clus>
<clus scale="   35.202">  2  3  1 -1</clus>
</clustering>
</event>
<event>
 6    0  0.2433432E+002  0.1735347E+03  0.7546771E-02  0.1174211E+00
         -1   -1    0    0    0  501 -0.00000000000E+00  0.00000000000E+00  0.47466909119E+03  0.47466909119E+03  0.00000000000E+00 0. -1.
         21   -1    0    0  503  502  0.00000000000E+00 -0.00000000000E+00 -0.74076036837E+03  0.74076036837E+03  0.00000000000E+00 0. -1.
         21    1    1    2  503  501 -0.35822815657E+02 -0.21270750542E+03 -0.57487896515E+03  0.61401431706E+03  0.00000000000E+00 0. -1.
         21    1    1    2  504  505  0.23176402629E+02  0.48593752861E+02 -0.38632460586E+02  0.66264360458E+02  0.00000000000E+00 0. -1.
         21    1    1    2  505  502  0.51318467161E+02 -0.42738144152E+01 -0.67963300099E+02  0.85269342215E+02  0.00000000000E+00 0. -1.
         -1    1    1    2    0  504 -0.38672054134E+02  0.16838756697E+03  0.41538344865E+03  0.44988143982E+03  0.00000000000E+00 0. -1.
<scales pt_clust_3="173.53470" pt_clust_4="55.40838" pt_clust_5="51.49612" pt_clust_6="14000.00000"></scales>
<clustering>
<clus scale="   51.496">  2  5  1 -1</clus>
<clus scale="   55.408">  2  4  1 -1</clus>
<clus scale="  173.535">  2  3  1 -1</clus>
<clus scale="   51.496">  2  3  1 -1</clus>
</clustering>
</event>
<event>
 6    0  0.2433432E+002  0.1236082E+03  0.7546771E-02  0.1237261E+00
          1   -1    0    0  505    0 -0.00000000000E+00  0.00000000000E+00  0.27024582632E+03  0.27024582632E+03  0.00000000000E+00 0. -1.
         21   -1    0    0  504  502  0.00000000000E+00 -0.00000000000E+00 -0.37043025494E+03  0.37043025494E+03  0.00000000000E+00 0.  1.
         21    1    1    2  503  502  0.34007654791E+02 -0.84803930364E+01 -0.44501957765E+02  0.56646817169E+02  0.00000000000E+00 0.  1.
         21    1    1    2  504  501 -0.12205739431E+03 -0.83107952499E+02 -0.26815467173E+03  0.30612394099E+03  0.00000000000E+00 0.  1.
         21    1    1    2  505  503  0.62622623570E+02  0.17566091753E+02  0.16820717371E+02  0.67179588381E+02  0.00000000000E+00 0. -1.
          1    1    1    2  501    0  0.25427115946E+02  0.74022253782E+02  0.19565148350E+03  0.21072573473E+03  0.00000000000E+00 0. -1.
<scales pt_clust_3="35.04907" pt_clust_4="14000.00000" pt_clust_5="67.45084" pt_clust_6="123.60815"></scales>
<clustering>
<clus scale="   35.049">  2  3  1 -1</clus>
<clus scale="   67.451">  1  5  2 -1</clus>
<clus scale="  123.608">  1  6  2 -1</clus>
<clus scale="   35.049">  2  3  1 -1</clus>
</clustering>
</event>
<event>
 6    0  0.2433432E+002  0.1202141E+03  0.7546771E-02  0.1242744E+00
         21   -1    0    0  503  502  0.00000000000E+00  0.00000000000E+00  0.26137865995E+03  0.26137865995E+03  0.00000000000E+00 0. -1.
          2   -1    0    0  504    0 -0.00000000000E+00 -0.00000000000E+00 -0.24828259159E+04  0.24828259159E+04  0.00000000000E+00 0. -1.
         21    1    1    2  503  505 -0.79930483342E+02 -0.73737152677E+01  0.61754575308E+02  0.10127626284E+03  0.00000000000E+00 0. -1.
         21    1    1    2  504  502  0.53401839438E+02  0.79242225909E+01  0.84055907071E+02  0.99899676039E+02  0.00000000000E+00 0. -1.
         21    1    1    2  505  501 -0.64058141063E+02 -0.58439981441E+02  0.65017514002E+02  0.10837875250E+03  0.00000000000E+00 0. -1.
          2    1    1    2  501    0  0.90586784967E+02  0.57889474118E+02 -0.24322752524E+04  0.24346498845E+04  0.00000000000E+00 0. -1.
<scales pt_clust_3="51.09254" pt_clust_4="53.98657" pt_clust_5="51.09254" pt_clust_6="107.84963"></scales>
<clustering>
<clus scale="   51.093">  3  5 -1 -1</clus>
<clus scale="   53.987">  1  4  2 -1</clus>
<clus scale="  107.850">  2  6  1 -1</clus>
<clus scale="   53.987">  1  3  2 -1</clus>
</clustering>
</event>
<event>
 6    0  0.2433432E+002  0.6974042E+02  0.7546771E-02  0.1360978E+00
         21   -1    0    0  504  502  0.00000000000E+00  0.00000000000E+00  0.13089420760E+03  0.13089420760E+03  0.00000000000E+00 0. -1.
          2   -1    0    0  503    0 -0.00000000000E+00 -0.00000000000E+00 -0.16905480233E+04  0.16905480233E+04  0.00000000000E+00 0. -1.
         21    1    1    2  503  505  0.41480355019E+02  0.34261763430E+02 -0.10504823971E+03  0.11802381519E+03  0.00000000000E+00 0. -1.
         21    1    1    2  504  501  0.12467419431E+02  0.67830535715E+02  0.10757703509E+03  0.12778590142E+03  0.00000000000E+00 0. -1.
         21    1    1    2  505  502 -0.57172523339E+02  0.17055971977E+02 -0.95498555219E+03  0.95684743220E+03  0.00000000000E+00 0. -1.
          2    1    1    2  501    0  0.32247488887E+01 -0.11914827112E+03 -0.60719705892E+03  0.61878508213E+03  0.00000000000E+00 0. -1.
<scales pt_clust_3="53.80045" pt_clust_4="69.74042" pt_clust_5="49.56366" pt_clust_6="14000.00000"></scales>
<clustering>
<clus scale="   53.800">  2  3  1 -1</clus>
<clus scale="   49.564">  2  5  1 -1</clus>
<clus scale="   69.740">  1  4  2 -1</clus>
<clus scale="   69.740">  1  3  2 -1</clus>
</clustering>
</event>
<event>
 6    0  0.2433432E+002  0.1350723E+03  0.7546771E-02  0.1220118E+00
         21   -1    0    0  503  502  0.00000000000E+00  0.00000000000E+00  0.28040202506E+02  0.28040202506E+02  0.00000000000E+00 0. -1.
          2   -1    0    0  505    0 -0.00000000000E+00 -0.00000000000E+00 -0.12537108589E+04  0.12537108589E+04  0.00000000000E+00 0. -1.
         21    1    1    2  503  501 -0.17356963629E+02  0.26302651663E+02 -0.12249872184E+02  0.33810546275E+02  0.00000000000E+00 0. -1.
         21    1    1    2  504  502 -0.25689658488E+02 -0.87542738879E+02 -0.27151787602E+03  0.28643611274E+03  0.00000000000E+00 0. -1.
         21    1    1    2  505  504 -0.41836165244E+02 -0.29747046370E+02 -0.12424027619E+03  0.13442766724E+03  0.00000000000E+00 0. -1.
          2    1    1    2  501    0  0.84882787361E+02  0.90987133586E+02 -0.81766263197E+03  0.82707673513E+03  0.00000000000E+00 0. -1.
<scales pt_clust_3="31.51339" pt_clust_4="36.92640" pt_clust_5="36.92640" pt_clust_6="126.72548"></scales>
<clustering>
<clus scale="   31.513">  1  3  2 -1</clus>
<clus scale="   36.926">  4  5 -1 -1</clus>
<clus scale="  126.725">  2  6  1 -1</clus>
<clus scale="   31.513">  1  3  2 -1</clus>
</clustering>
</event>
<event>
 6    0  0.2433432E+002  0.2305606E+03  0.7546771E-02  0.1126246E+00
         21   -1    0    0  503  502  0.00000000000E+00  0.00000000000E+00  0.18743636098E+03  0.18743636098E+03  0.00000000000E+00 0.  1.
          2   -1    0    0  502    0 -0.00000000000E+00 -0.00000000000E+00 -0.71897670293E+03  0.71897670293E+03  0.00000000000E+00 0.  1.
         21    1    1    2  503  505 -0.59955954934E+01 -0.30006770221E+02  0.71816975458E+02  0.78064277287E+02  0.00000000000E+00 0.  1.
         21    1    1    2  504  501  0.46546035221E+02 -0.61207047026E+02 -0.12971662532E+02  0.77981408229E+02  0.00000000000E+00 0.  1.
         21    1    1    2  505  504  0.15054077494E+03  0.90790097124E+01 -0.31549434420E+02  0.15407894129E+03  0.00000000000E+00 0.  1.
          2    1    1    2  501    0 -0.19109121467E+03  0.82134807535E+02 -0.55883622046E+03  0.59628843711E+03  0.00000000000E+00 0.  1.
<scales pt_clust_3="30.59989" pt_clust_4="76.18305" pt_clust_5="76.18305" pt_clust_6="206.99960"></scales>
<clustering>
<clus scale="   30.600">  1  3  2 -1</clus>
<clus scale="   76.183">  4  5 -1 -1</clus>
<clus scale="  207.000">  2  6  1 -1</clus>
<clus scale="   30.600">  1  3  2 -1</clus>
</clustering>
</event>
<event>
 6    0  0.2433432E+002  0.7796914E+02  0.7546771E-02  0.1334916E+00
         21   -1    0    0  505  502  0.00000000000E+00  0.00000000000E+00  0.43855163436E+02  0.43855163436E+02  0.00000000000E+00 0.  1.
          1   -1    0    0  504    0 -0.00000000000E+00 -0.00000000000E+00 -0.23411890373E+04  0.23411890373E+04  0.00000000000E+00 0.  1.
         21    1    1    2  503  501 -0.60169882174E+02  0.19943349959E+02 -0.46362290316E+02  0.78534157484E+02  0.00000000000E+00 0.  1.
         21    1    1    2  504  502  0.10993237478E+03  0.18673896445E+02 -0.14544703660E+03  0.18327215252E+03  0.00000000000E+00 0.  1.
         21    1    1    2  505  503 -0.55788302732E+01 -0.31487043143E+02 -0.21052227039E+02  0.38285160264E+02  0.00000000000E+00 0.  1.
          1    1    1    2  501    0 -0.44183662335E+02 -0.71302032609E+01 -0.20844723199E+04  0.20849527304E+04  0.00000000000E+00 0.  1.
<scales pt_clust_3="14000.00000" pt_clust_4="77.96914" pt_clust_5="31.97745" pt_clust_6="44.82750"></scales>
<clustering>
<clus scale="   31.977">  1  5  2 -1</clus>
<clus scale="   44.827">  2  6  1 -1</clus>
<clus scale="   77.969">  2  4  1 -1</clus>
<clus scale="   31.977">  1  3  2 -1</clus>
</clustering>
</event>
<event>
 6    0  0.2433432E+002  0.6959523E+02  0.7546771E-02  0.1361475E+00
         21   -1    0    0  504  502  0.00000000000E+00  0.00000000000E+00  0.90259930250E+03  0.90259930250E+03  0.00000000000E+00 0. -1.
          2   -1    0    0  503    0 -0.00000000000E+00 -0.00000000000E+00 -0.27322986776E+03  0.27322986776E+03  0.00000000000E+00 0.  1.
         21    1    1    2  503  502 -0.30440784310E+02  0.37252516162E+01  0.11049741844E+03  0.11467431418E+03  0.00000000000E+00 0.  1.
         21    1    1    2  504  505  0.44464659001E+02 -0.30436707456E+02  0.11661684346E+03  0.12846395307E+03  0.00000000000E+00 0.  1.
         21    1    1    2  505  501 -0.55637575922E+02  0.82238438091E+02  0.65915164476E+03  0.66658802220E+03  0.00000000000E+00 0. -1.
          2    1    1    2  501    0  0.41613701231E+02 -0.55526982251E+02 -0.25689647193E+03  0.26610288081E+03  0.00000000000E+00 0.  1.
<scales pt_clust_3="30.66788" pt_clust_4="49.70969" pt_clust_5="69.59523" pt_clust_6="14000.00000"></scales>
<clustering>
<clus scale="   30.668">  1  3  2 -1</clus>
<clus scale="   49.710">  1  4  2 -1</clus>
<clus scale="   69.595">  1  5  2 -1</clus>
<clus scale="   30.668">  1  3  2 -1</clus>
</clustering>
</event>
<event>
 6    0  0.2433432E+002  0.1493000E+03  0.7546771E-02  0.1201336E+00
         21   -1    0    0  504  502  0.00000000000E+00  0.00000000000E+00  0.90845015461E+03  0.90845015461E+03  0.00000000000E+00 0. -1.
          1   -1    0    0  505    0 -0.00000000000E+00 -0.00000000000E+00 -0.17659135919E+03  0.17659135919E+03  0.00000000000E+00 0. -1.
         21    1    1    2  503  502  0.13530582583E+03 -0.48762934437E+02  0.83006881335E+03  0.84243677815E+03  0.00000000000E+00 0. -1.
         21    1    1    2  504  501 -0.38097793241E+02  0.74487398573E+01 -0.16526875069E+02  0.42190794907E+02  0.00000000000E+00 0. -1.
         21    1    1    2  505  503 -0.23332731531E+02  0.70423234625E+02  0.14601905704E+02  0.75611268909E+02  0.00000000000E+00 0.  1.
          1    1    1    2  501    0 -0.73875301062E+02 -0.29109040045E+02 -0.96285048566E+02  0.12480267183E+03  0.00000000000E+00 0. -1.
<scales pt_clust_3="141.90609" pt_clust_4="32.44443" pt_clust_5="74.18793" pt_clust_6="32.44443"></scales>
<clustering>
<clus scale="   32.444">  4  6 -1 -1</clus>
<clus scale="   74.188">  2  5  1 -1</clus>
<clus scale="  141.906">  1  3  2 -1</clus>
<clus scale="  141.906">  1  3  2 -1</clus>
</clustering>
</event>
<event>
 6    0  0.2433432E+002  0.2165409E+03  0.7546771E-02  0.1136488E+00
          2   -1    0    0  502    0 -0.00000000000E+00  0.00000000000E+00  0.17895983199E+04  0.17895983199E+04  0.00000000000E+00 0. -1.
         21   -1    0    0  505  502  0.00000000000E+00 -0.00000000000E+00 -0.29478677138E+02  0.29478677138E+02  0.00000000000E+00 0. -1.
         21    1    1    2  503  504 -0.70687771630E+02  0.27764324608E+02  0.26570932616E+03  0.27634953372E+03  0.00000000000E+00 0. -1.
         21    1    1    2  504  501  0.10393713330E+03 -0.29897074152E+02  0.49304000886E+03  0.50476253135E+03  0.00000000000E+00 0. -1.
         21    1    1    2  505  503 -0.13183593612E+03  0.35217613270E+02  0.30847543839E+03  0.33731008053E+03  0.00000000000E+00 0. -1.
          2    1    1    2  501    0  0.98586574448E+02 -0.33084863726E+02  0.69289486937E+03  0.70065485146E+03  0.00000000000E+00 0. -1.
<scales pt_clust_3="32.58138" pt_clust_4="39.30802" pt_clust_5="32.58138" pt_clust_6="215.84608"></scales>
<clustering>
<clus scale="   32.581">  3  5 -1 -1</clus>
<clus scale="   39.308">  4  6 -1 -1</clus>
<clus scale="  215.846">  1  4  2 -1</clus>
<clus scale="  216.541">  2  3  1 -1</clus>
</clustering>
</event>
<event>
 6    0  0.2433432E+002  0.1632784E+03  0.7546771E-02  0.1185044E+00
          2   -1    0    0  505    0 -0.00000000000E+00  0.00000000000E+00  0.26310039748E+04  0.26310039748E+04  0.00000000000E+00 0. -1.
         21   -1    0    0  501  502  0.00000000000E+00 -0.00000000000E+00 -0.14704395966E+02  0.14704395966E+02  0.00000000000E+00 0. -1.
         21    1    1    2  503  502 -0.30642771730E+02  0.44397343950E+02  0.17699180433E+03  0.18503027431E+03  0.00000000000E+00 0. -1.
         21    1    1    2  504  503 -0.25522872482E+02  0.96836310043E+02  0.59608154951E+03  0.60443519225E+03  0.00000000000E+00 0.  1.
         21    1    1    2  505  504 -0.50908235284E+02 -0.13326261878E+02  0.43456784244E+03  0.43774244409E+03  0.00000000000E+00 0.  1.
          2    1    1    2  501    0  0.10707387950E+03 -0.12790739211E+03  0.14086583825E+04  0.14185004601E+04  0.00000000000E+00 0. -1.
<scales pt_clust_3="36.78388" pt_clust_4="36.78388" pt_clust_5="52.62355" pt_clust_6="155.39647"></scales>
<clustering>
<clus scale="   36.784">  3  4 -1 -1</clus>
<clus scale="   52.624">  1  5  2 -1</clus>
<clus scale="  155.396">  1  6  2 -1</clus>
<clus scale="  163.278">  2  3  1 -1</clus>
</clustering>
</event>
<event>
 6    0  0.2433432E+002  0.7296124E+02  0.7546771E-02  0.1350303E+00
          3   -1    0    0  505    0 -0.00000000000E+00  0.00000000000E+00  0.21560501587E+02  0.21560501587E+02  0.00000000000E+00 0.  1.
         21   -1    0    0  503  502  0.00000000000E+00 -0.00000000000E+00 -0.21697090157E+04  0.21697090157E+04  0.00000000000E+00 0.  1.
         21    1    1    2  503  504  0.45522074060E+02  0.13080786187E+02 -0.55479845202E+03  0.55681656634E+03  0.00000000000E+00 0.  1.
         21    1    1    2  504  501 -0.24572999783E+02 -0.54464268453E+02 -0.30067679620E+03  0.30655623404E+03  0.00000000000E+00 0.  1.
         21    1    1    2  505  502 -0.92505089044E+02  0.35253812017E+02 -0.12257172073E+04  0.12297083780E+04  0.00000000000E+00 0.  1.
          3    1    1    2  501    0  0.71556014767E+02  0.61296702482E+01 -0.66956058621E+02  0.98188338884E+02  0.00000000000E+00 0.  1.
<scales pt_clust_3="47.36419" pt_clust_4="54.41185" pt_clust_5="14000.00000" pt_clust_6="72.96124"></scales>
<clustering>
<clus scale="   47.364">  2  3  1 -1</clus>
<clus scale="   54.412">  2  4  1 -1</clus>
<clus scale="   72.961">  1  6  2 -1</clus>
<clus scale="   47.364">  2  3  1 -1</clus>
</clustering>
</event>
<event>
 6    0  0.2433432E+002  0.1045015E+03  0.7546771E-02  0.1271105E+00
          2   -1    0    0  504    0 -0.00000000000E+00  0.00000000000E+00  0.26511679003E+04  0.26511679003E+04  0.00000000000E+00 0.  1.
         21   -1    0    0  503  502  0.00000000000E+00 -0.00000000000E+00 -0.21674776449E+03  0.21674776449E+03  0.00000000000E+00 0.  1.
         21    1    1    2  503  505 -0.20058154579E+02  0.62472660328E+02 -0.11746967246E+03  0.13455217130E+03  0.00000000000E+00 0.  1.
         21    1    1    2  504  502 -0.43156235594E+01 -0.73089200964E+02  0.13923608490E+02  0.74528670843E+02  0.00000000000E+00 0.  1.
         21    1    1    2  505  501 -0.59254584017E+02 -0.52808585987E+02 -0.32832596434E+02  0.85894306386E+02  0.00000000000E+00 0.  1.
          2    1    1    2  501    0  0.83628362155E+02  0.63425126622E+02  0.25707987963E+04  0.25729405163E+04  0.00000000000E+00 0.  1.
<scales pt_clust_3="65.61374" pt_clust_4="53.37459" pt_clust_5="104.50154" pt_clust_6="14000.00000"></scales>
<clustering>
<clus scale="   65.614">  2  3  1 -1</clus>
<clus scale="   53.375">  2  4  1 -1</clus>
<clus scale="  104.502">  2  5  1 -1</clus>
<clus scale="   65.614">  2  3  1 -1</clus>
</clustering>
</event>
<event>
 6    0  0.2433432E+002  0.1095342E+03  0.7546771E-02  0.1261435E+00
          2   -1    0    0  502    0 -0.00000000000E+00  0.00000000000E+00  0.63715863346E+03  0.63715863346E+03  0.00000000000E+00 0. -1.
         21   -1    0    0  505  502  0.00000000000E+00 -0.00000000000E+00 -0.35772211947E+03  0.35772211947E+03  0.00000000000E+00 0. -1.
         21    1    1    2  503  504  0.51687711362E+02 -0.52305924738E+02  0.22619401147E+03  0.23784713598E+03  0.00000000000E+00 0. -1.
         21    1    1    2  504  501 -0.50538160199E+01 -0.41066678925E+02  0.55487721823E+02  0.69216330786E+02  0.00000000000E+00 0.  1.
         21    1    1    2  505  503 -0.20408111572E+02  0.10952741031E+03 -0.33530812390E+03  0.35333310428E+03  0.00000000000E+00 0. -1.
          2    1    1    2  501    0 -0.26225783770E+02 -0.16154806645E+02  0.33306290459E+03  0.33448418188E+03  0.00000000000E+00 0. -1.
<scales pt_clust_3="109.53421" pt_clust_4="45.59894" pt_clust_5="14000.00000" pt_clust_6="30.80210"></scales>
<clustering>
<clus scale="   30.802">  1  6  2 -1</clus>
<clus scale="   45.599">  1  4  2 -1</clus>
<clus scale="  109.534">  1  3  2 -1</clus>
<clus scale="  109.534">  2  3  1 -1</clus>
</clustering>
</event>
<event>
 6    0  0.2433432E+002  0.6725535E+02  0.7546771E-02  0.1369683E+00
          2   -1    0    0  503    0 -0.00000000000E+00  0.00000000000E+00  0.77808501329E+02  0.77808501329E+02  0.00000000000E+00 0. -1.
         21   -1    0    0  504  502  0.00000000000E+00 -0.00000000000E+00 -0.43247347759E+03  0.43247347759E+03  0.00000000000E+00 0. -1.
         21    1    1    2  503  505  0.70847545952E+02  0.83757830406E+02 -0.20283028238E+03  0.23059677442E+03  0.00000000000E+00 0. -1.
         21    1    1    2  504  501  0.24405309141E+01 -0.54482960987E+02 -0.48621421097E+02  0.73064299206E+02  0.00000000000E+00 0. -1.
         21    1    1    2  505  502 -0.24515358389E+02 -0.38163440442E+02 -0.13852004002E+03  0.14575751257E+03  0.00000000000E+00 0.  1.
          2    1    1    2  501    0 -0.48772718477E+02  0.88885710222E+01  0.35306767230E+02  0.60863392731E+02  0.00000000000E+00 0. -1.
<scales pt_clust_3="67.25535" pt_clust_4="14000.00000" pt_clust_5="45.35913" pt_clust_6="50.37023"></scales>
<clustering>
<clus scale="   45.359">  2  5  1 -1</clus>
<clus scale="   50.370">  1  6  2 -1</clus>
<clus scale="   67.255">  2  3  1 -1</clus>
<clus scale="   45.359">  2  3  1 -1</clus>
</clustering>
</event>
<event>
 6    0  0.2433432E+002  0.1289009E+03  0.7546771E-02  0.1229096E+00
         21   -1    0    0  504  502  0.00000000000E+00  0.00000000000E+00  0.28778935870E+03  0.28778935870E+03  0.00000000000E+00 0.  1.
          1   -1    0    0  503    0 -0.00000000000E+00 -0.00000000000E+00 -0.25357079219E+04  0.25357079219E+04  0.00000000000E+00 0. -1.
         21    1    1    2  503  502  0.37595723751E+02  0.27747929670E+02  0.19722746347E+03  0.20268709478E+03  0.00000000000E+00 0.  1.
         21    1    1    2  504  505  0.19884530640E+02 -0.69165056820E+02  0.32329110180E+02  0.78894683019E+02  0.00000000000E+00 0.  1.
         21    1    1    2  505  501 -0.56505752646E+01 -0.67440438638E+02 -0.64861240811E+01  0.67986848508E+02  0.00000000000E+00 0.  1.
          1    1    1    2  501    0 -0.51829679127E+02  0.10885756579E+03 -0.24709890128E+04  0.24739286543E+04  0.00000000000E+00 0. -1.
<scales pt_clust_3="46.72672" pt_clust_4="43.82802" pt_clust_5="43.82802" pt_clust_6="120.71775"></scales>
<clustering>
<clus scale="   43.828">  4  5 -1 -1</clus>
<clus scale="   46.727">  1  3  2 -1</clus>
<clus scale="  120.718">  2  6  1 -1</clus>
<clus scale="   46.727">  1  3  2 -1</clus>
</clustering>
</event>
<event>
 6    0  0.2433432E+002  0.9384224E+02  0.7546771E-02  0.1293805E+00
         -1   -1    0    0    0  501 -0.00000000000E+00  0.00000000000E+00  0.13932309802E+04  0.13932309802E+04  0.00000000000E+00 0.  1.
         21   -1    0    0  504  502  0.00000000000E+00 -0.00000000000E+00 -0.12343070874E+03  0.12343070874E+03  0.00000000000E+00 0.  1.
         21    1    1    2  503  505  0.58288667476E+02  0.42567982796E+02  0.87547634043E+02  0.11346448846E+03  0.00000000000E+00 0. -1.
         21    1    1    2  504  501 -0.43387110758E+02  0.31660930913E+02 -0.32148906321E+02  0.62597189264E+02  0.00000000000E+00 0.  1.
         21    1    1    2  505  502 -0.52037867898E+02 -0.90802423105E+02 -0.19136464751E+02  0.10639184189E+03  0.00000000000E+00 0.  1.
         -1    1    1    2    0  503  0.37136311180E+02  0.16573509396E+02  0.12335380085E+04  0.12342081693E+04  0.00000000000E+00 0.  1.
<scales pt_clust_3="93.84224" pt_clust_4="51.88789" pt_clust_5="14000.00000" pt_clust_6="40.66678"></scales>
<clustering>
<clus scale="   40.667">  1  6  2 -1</clus>
<clus scale="   51.888">  2  4  1 -1</clus>
<clus scale="   93.842">  1  3  2 -1</clus>
<clus scale="   51.888">  2  3  1 -1</clus>
</clustering>
</event>
<event>
 6    0  0.2433432E+002  0.1655492E+03  0.7546771E-02  0.1182570E+00
         21   -1    0    0  503  502  0.00000000000E+00  0.00000000000E+00  0.29249357072E+03  0.29249357072E+03  0.00000000000E+00 0.  1.
          1   -1    0    0  505    0 -0.00000000000E+00 -0.00000000000E+00 -0.62906913396E+03  0.62906913396E+03  0.00000000000E+00 0.  1.
         21    1    1    2  503  501 -0.35249594097E+02  0.49566244130E+00  0.13565492457E+03  0.14016075815E+03  0.00000000000E+00 0.  1.
         21    1    1    2  504  502  0.67080337167E+02  0.40354760156E+02  0.61332645580E+02  0.99448336917E+02  0.00000000000E+00 0.  1.
         21    1    1    2  505  504  0.47794099602E+02  0.88365672304E+02  0.24675903099E+02  0.10344886753E+03  0.00000000000E+00 0.  1.
          1    1    1    2  501    0 -0.79624842672E+02 -0.12921609490E+03 -0.55823903650E+03  0.57850474209E+03  0.00000000000E+00 0.  1.
<scales pt_clust_3="35.25308" pt_clust_4="51.83124" pt_clust_5="51.83124" pt_clust_6="152.97651"></scales>
<clustering>
<clus scale="   35.253">  1  3  2 -1</clus>
<clus scale="   51.831">  4  5 -1 -1</clus>
<clus scale="  152.977">  2  6  1 -1</clus>
<clus scale="   35.253">  1  3  2 -1</clus>
</clustering>
</event>
<event>
 6    0  0.2433432E+002  0.1243416E+03  0.7546771E-02  0.1236102E+00
         -2   -1    0    0    0  501 -0.00000000000E+00  0.00000000000E+00  0.47887918267E+02  0.47887918267E+02  0.00000000000E+00 0. -1.
         21   -1    0    0  503  502  0.00000000000E+00 -0.00000000000E+00 -0.53598135694E+03  0.53598135694E+03  0.00000000000E+00 0.  1.
         21    1    1    2  503  504  0.82522270197E+01 -0.43284855189E+02 -0.11415829656E+03  0.12236745733E+03  0.00000000000E+00 0.  1.
         21    1    1    2  504  501 -0.38024643082E+02 -0.78154478508E+02 -0.98257106332E+02  0.13118100067E+03  0.00000000000E+00 0.  1.
         21    1    1    2  505  502 -0.11825524907E+02  0.10332162292E+03 -0.26359358120E+03  0.28336685913E+03  0.00000000000E+00 0.  1.
         -2    1    1    2    0  505  0.41597940969E+02  0.18117710781E+02 -0.12084454578E+02  0.46953958079E+02  0.00000000000E+00 0. -1.
<scales pt_clust_3="42.32022" pt_clust_4="42.32022" pt_clust_5="109.21646" pt_clust_6="45.37224"></scales>
<clustering>
<clus scale="   42.320">  3  4 -1 -1</clus>
<clus scale="   45.372">  1  6  2 -1</clus>
<clus scale="  109.216">  2  5  1 -1</clus>
<clus scale="  109.216">  2  3  1 -1</clus>
</clustering>
</event>
<event>
 6    0  0.2433432E+002  0.1451958E+03  0.7546771E-02  0.1206504E+00
         21   -1    0    0  505  502  0.00000000000E+00  0.00000000000E+00  0.17021623778E+04  0.17021623778E+04  0.00000000000E+00 0.  1.
          2   -1    0    0  503    0 -0.00000000000E+00 -0.00000000000E+00 -0.79304336771E+03  0.79304336771E+03  0.00000000000E+00 0.  1.
         21    1    1    2  503  504  0.44692009366E+02 -0.59973477864E+02  0.16501986252E+03  0.18117877573E+03  0.00000000000E+00 0. -1.
         21    1    1    2  504  502  0.30763713515E+02 -0.12354878050E+02  0.70182315772E+03  0.70260571716E+03  0.00000000000E+00 0.  1.
         21    1    1    2  505  501 -0.33706524943E+02  0.21098226848E+03  0.80612987047E+03  0.83396343775E+03  0.00000000000E+00 0.  1.
          2    1    1    2  501    0 -0.41749197939E+02 -0.13865391257E+03 -0.76385388061E+03  0.77745781488E+03  0.00000000000E+00 0.  1.
<scales pt_clust_3="79.74756" pt_clust_4="33.15191" pt_clust_5="14000.00000" pt_clust_6="145.19577"></scales>
<clustering>
<clus scale="   33.152">  1  4  2 -1</clus>
<clus scale="   79.748">  1  3  2 -1</clus>
<clus scale="  145.196">  2  6  1 -1</clus>
<clus scale="   33.152">  1  3  2 -1</clus>
</clustering>
</event>
<event>
 6    0  0.2433432E+002  0.2668216E+03  0.7546771E-02  0.1103113E+00
         21   -1    0    0  505  502  0.00000000000E+00  0.00000000000E+00  0.13496370459E+03  0.13496370459E+03  0.00000000000E+00 0.  1.
         -1   -1    0    0    0  501 -0.00000000000E+00 -0.00000000000E+00 -0.96775136867E+03  0.96775136867E+03  0.00000000000E+00 0.  1.
         21    1    1    2  503  504 -0.16667478688E+03  0.24504199638E+02 -0.38537304669E+02  0.17281800899E+03  0.00000000000E+00 0.  1.
         21    1    1    2  504  501 -0.38779453602E+02  0.35329728806E+02  0.52950862506E+01  0.52726404179E+02  0.00000000000E+00 0.  1.
         21    1    1    2  505  503 -0.36235148759E+02 -0.24249657995E+02 -0.26619333013E+01  0.43682007822E+02  0.00000000000E+00 0.  1.
         -1    1    1    2    0  502  0.24168938924E+03 -0.35584270450E+02 -0.79688351236E+03  0.83348865226E+03  0.00000000000E+00 0.  1.
<scales pt_clust_3="40.26522" pt_clust_4="40.26522" pt_clust_5="32.18470" pt_clust_6="244.29491"></scales>
<clustering>
<clus scale="   32.185">  3  5 -1 -1</clus>
<clus scale="   40.265">  3  4 -1 -1</clus>
<clus scale="  244.295">  2  6  1 -1</clus>
<clus scale="  266.822">  1  3  2 -1</clus>
</clustering>
</event>
<event>
 6    0  0.2433432E+002  0.9905469E+02  0.7546771E-02  0.1282296E+00
          2   -1    0    0  504    0 -0.00000000000E+00  0.00000000000E+00  0.20431204933E+03  0.20431204933E+03  0.00000000000E+00 0. -1.
         21   -1    0    0  503  502  0.00000000000E+00 -0.00000000000E+00 -0.58683935709E+03  0.58683935709E+03  0.00000000000E+00 0.  1.
         21    1    1    2  503  501 -0.25180196739E+01 -0.97871802812E+02 -0.45173660103E+03  0.46222417388E+03  0.00000000000E+00 0.  1.
         21    1    1    2  504  505 -0.19433468097E+02 -0.23360540877E+02  0.82066845593E+02  0.87511951743E+02  0.00000000000E+00 0. -1.
         21    1    1    2  505  502 -0.33227662787E+02  0.19881166885E+02  0.82876476715E+02  0.91475946367E+02  0.00000000000E+00 0. -1.
          2    1    1    2  501    0  0.55179150557E+02  0.10135117680E+03 -0.95734029035E+02  0.14993933444E+03  0.00000000000E+00 0. -1.
<scales pt_clust_3="99.05469" pt_clust_4="30.38708" pt_clust_5="47.48701" pt_clust_6="14000.00000"></scales>
<clustering>
<clus scale="   30.387">  1  4  2 -1</clus>
<clus scale="   47.487">  1  5  2 -1</clus>
<clus scale="   99.055">  2  3  1 -1</clus>
<clus scale="   99.055">  2  3  1 -1</clus>
</clustering>
</event>
<event>
 6    0  0.2433432E+002  0.1895094E+03  0.7546771E-02  0.1158905E+00
          2   -1    0    0  502    0 -0.00000000000E+00  0.00000000000E+00  0.36228314865E+04  0.36228314865E+04  0.00000000000E+00 0. -1.
         21   -1    0    0  504  502  0.00000000000E+00 -0.00000000000E+00 -0.93573149240E+02  0.93573149240E+02  0.00000000000E+00 0. -1.
         21    1    1    2  503  505 -0.11025491861E+03 -0.46031085924E+02  0.11970208256E+03  0.16912597825E+03  0.00000000000E+00 0. -1.
         21    1    1    2  504  503  0.53095155017E+02  0.39943994918E+01 -0.88281383532E+01  0.53972092236E+02  0.00000000000E+00 0. -1.
         21    1    1    2  505  501 -0.13251907916E+03  0.78349505489E+02  0.13650905003E+03  0.20575391149E+03  0.00000000000E+00 0. -1.
          2    1    1    2  501    0  0.18967884275E+03 -0.36312819057E+02  0.32818753430E+04  0.32875526538E+04  0.00000000000E+00 0. -1.
<scales pt_clust_3="99.61500" pt_clust_4="53.24519" pt_clust_5="14000.00000" pt_clust_6="189.50937"></scales>
<clustering>
<clus scale="   53.245">  2  4  1 -1</clus>
<clus scale="   99.615">  2  3  1 -1</clus>
<clus scale="  189.509">  1  6  2 -1</clus>
<clus scale="   53.245">  2  3  1 -1</clus>
</clustering>
</event>
<event>
 6    0  0.2433432E+002  0.1316970E+03  0.7546771E-02  0.1224959E+00
         21   -1    0    0  504  502  0.00000000000E+00  0.00000000000E+00  0.13865953085E+04  0.13865953085E+04  0.00000000000E+00 0.  1.
          1   -1    0    0  505    0 -0.00000000000E+00 -0.00000000000E+00 -0.91811364247E+02  0.91811364247E+02  0.00000000000E+00 0.  1.
         21    1    1    2  503  502 -0.10696019330E+03 -0.74991029377E+01  0.11070912386E+04  0.11122714282E+04  0.00000000000E+00 0.  1.
         21    1    1    2  504  501 -0.16478981558E+02 -0.41564801890E+02  0.13076834835E+03  0.13820112343E+03  0.00000000000E+00 0.  1.
         21    1    1    2  505  503  0.14638048251E+03  0.26388790400E+02  0.96178706367E+02  0.17712695299E+03  0.00000000000E+00 0. -1.
          1    1    1    2  501    0 -0.22941307654E+02  0.22675114428E+02 -0.39254349043E+02  0.50807168096E+02  0.00000000000E+00 0.  1.
<scales pt_clust_3="131.69700" pt_clust_4="43.77299" pt_clust_5="14000.00000" pt_clust_6="32.25623"></scales>
<clustering>
<clus scale="   32.256">  2  6  1 -1</clus>
<clus scale="   43.773">  1  4  2 -1</clus>
<clus scale="  131.697">  1  3  2 -1</clus>
<clus scale="   43.773">  1  3  2 -1</clus>
</clustering>
</event>
<event>
 6    0  0.2433432E+002  0.1265431E+03  0.7546771E-02  0.1232677E+00
          2   -1    0    0  505    0 -0.00000000000E+00  0.00000000000E+00  0.37098322646E+03  0.37098322646E+03  0.00000000000E+00 0. -1.
         21   -1    0    0  504  502  0.00000000000E+00 -0.00000000000E+00 -0.19033541149E+04  0.19033541149E+04  0.00000000000E+00 0.  1.
         21    1    1    2  503  502 -0.13796919414E+03 -0.14106340853E+03 -0.25927228485E+02  0.19901408225E+03  0.00000000000E+00 0. -1.
         21    1    1    2  504  501  0.63386859853E+02  0.10759587328E+03 -0.17641081724E+04  0.17685226631E+04  0.00000000000E+00 0.  1.
         21    1    1    2  505  503 -0.37931597897E+02  0.78593514906E+01  0.22365014235E+02  0.44729960726E+02  0.00000000000E+00 0.  1.
          2    1    1    2  501    0  0.11251393219E+03  0.25608183758E+02  0.23529949822E+03  0.26207063527E+03  0.00000000000E+00 0. -1.
<scales pt_clust_3="14000.00000" pt_clust_4="126.54312" pt_clust_5="38.73726" pt_clust_6="90.20086"></scales>
<clustering>
<clus scale="   38.737">  1  5  2 -1</clus>
<clus scale="   90.201">  1  6  2 -1</clus>
<clus scale="  126.543">  2  4  1 -1</clus>
<clus scale="  126.543">  2  3  1 -1</clus>
</clustering>
</event>
<event>
 6    0  0.2433432E+002  0.1260415E+03  0.7546771E-02  0.1233451E+00
         21   -1    0    0  501  502  0.00000000000E+00  0.00000000000E+00  0.76178229607E+02  0.76178229607E+02  0.00000000000E+00 0.  1.
          2   -1    0    0  505    0 -0.00000000000E+00 -0.00000000000E+00 -0.13253734052E+04  0.13253734052E+04  0.00000000000E+00 0. -1.
         21    1    1    2  503  504  0.33057552083E+02 -0.57934627601E+02 -0.34613741213E+03  0.35250578847E+03  0.00000000000E+00 0. -1.
         21    1    1    2  504  502 -0.41929917691E+02  0.10697771010E+03  0.21060176452E+02  0.11681557896E+03  0.00000000000E+00 0.  1.
         21    1    1    2  505  503 -0.10641733314E+02 -0.80762680207E+02 -0.51281216534E+03  0.51924192235E+03  0.00000000000E+00 0. -1.
          2    1    1    2  501    0  0.19514098922E+02  0.31719597710E+02 -0.41130577454E+03  0.41298834500E+03  0.00000000000E+00 0. -1.
<scales pt_clust_3="48.43136" pt_clust_4="116.08689" pt_clust_5="48.43136" pt_clust_6="37.24155"></scales>
<clustering>
<clus scale="   37.242">  2  6  1 -1</clus>
<clus scale="   48.431">  3  5 -1 -1</clus>
<clus scale="  116.087">  1  4  2 -1</clus>
<clus scale="  116.087">  1  3  2 -1</clus>
</clustering>
</event>
<event>
 6    0  0.2433432E+002  0.3226703E+03  0.7546771E-02  0.1074427E+00
         21   -1    0    0  503  502  0.00000000000E+00  0.00000000000E+00  0.19232943706E+03  0.19232943706E+03  0.00000000000E+00 0.  1.
          2   -1    0    0  504    0 -0.00000000000E+00 -0.00000000000E+00 -0.18620836477E+04  0.18620836477E+04  0.00000000000E+00 0.  1.
         21    1    1    2  503  501  0.43893538989E+02  0.14171182479E+03  0.80099983554E+02  0.16859683098E+03  0.00000000000E+00 0.  1.
         21    1    1    2  504  505  0.32505752673E+02 -0.12954030111E+03 -0.17059779212E+03  0.21665853374E+03  0.00000000000E+00 0.  1.
         21    1    1    2  505  502 -0.24210444491E+01 -0.26725073734E+03 -0.65299743466E+03  0.70557385704E+03  0.00000000000E+00 0.  1.
          2    1    1    2  501    0 -0.73978247213E+02  0.25507921366E+03 -0.92625896742E+03  0.96358386300E+03  0.00000000000E+00 0.  1.
<scales pt_clust_3="148.35391" pt_clust_4="83.20922" pt_clust_5="83.20922" pt_clust_6="300.43447"></scales>
<clustering>
<clus scale="   83.209">  4  5 -1 -1</clus>
<clus scale="  148.354">  1  3  2 -1</clus>
<clus scale="  300.434">  2  6  1 -1</clus>
<clus scale="  148.354">  1  3  2 -1</clus>
</clustering>
</event>
<event>
 6    0  0.2433432E+002  0.1345090E+03  0.7546771E-02  0.1220915E+00
         -1   -1    0    0    0  501 -0.00000000000E+00  0.00000000000E+00  0.50730794555E+03  0.50730794555E+03  0.00000000000E+00 0.  1.
         21   -1    0    0  505  502  0.00000000000E+00 -0.00000000000E+00 -0.22543541840E+03  0.22543541840E+03  0.00000000000E+00 0. -1.
         21    1    1    2  503  504  0.77802829539E+02  0.10333771817E+03 -0.17353422517E+01  0.12936373407E+03  0.00000000000E+00 0. -1.
         21    1    1    2  504  502  0.89755684495E+02 -0.94159160050E+02 -0.92865363742E+02  0.15983118001E+03  0.00000000000E+00 0. -1.
         21    1    1    2  505  501 -0.13259907650E+03 -0.43538569740E+02  0.12505062578E+03  0.18739205200E+03  0.00000000000E+00 0. -1.
         -1    1    1    2    0  503 -0.34959437529E+02  0.34360011622E+02  0.25142260736E+03  0.25615639786E+03  0.00000000000E+00 0.  1.
<scales pt_clust_3="134.50897" pt_clust_4="123.61436" pt_clust_5="14000.00000" pt_clust_6="49.01809"></scales>
<clustering>
<clus scale="   49.018">  1  6  2 -1</clus>
<clus scale="  123.614">  2  4  1 -1</clus>
<clus scale="  134.509">  2  3  1 -1</clus>
<clus scale="  123.614">  2  3  1 -1</clus>
</clustering>
</event>
<event>
 6    0  0.2433432E+002  0.1510799E+03  0.7546771E-02  0.1199152E+00
          2   -1    0    0  505    0 -0.00000000000E+00  0.00000000000E+00  0.42145878104E+04  0.42145878104E+04  0.00000000000E+00 0. -1.
         21   -1    0    0  501  502  0.00000000000E+00 -0.00000000000E+00 -0.43822371111E+02  0.43822371111E+02  0.00000000000E+00 0. -1.
         21    1    1    2  503  502  0.39786959832E+02  0.20972065139E+02 -0.91079005282E+01  0.45888817167E+02  0.00000000000E+00 0. -1.
         21    1    1    2  504  503  0.12429498225E+03 -0.33612429748E+02  0.38705191289E+03  0.40790712340E+03  0.00000000000E+00 0. -1.
         21    1    1    2  505  504 -0.22549566711E+02 -0.91482868323E+02  0.22219163163E+04  0.22239131536E+04  0.00000000000E+00 0. -1.
          2    1    1    2  501    0 -0.14153237537E+03  0.10412323293E+03  0.15709051106E+04  0.15807010873E+04  0.00000000000E+00 0. -1.
<scales pt_clust_3="44.97588" pt_clust_4="14000.00000" pt_clust_5="92.41605" pt_clust_6="151.07985"></scales>
<clustering>
<clus scale="   44.976">  2  3  1 -1</clus>
<clus scale="   92.416">  1  5  2 -1</clus>
<clus scale="  151.080">  1  6  2 -1</clus>
<clus scale="   44.976">  2  3  1 -1</clus>
</clustering>
</event>
<event>
 6    0  0.2433432E+002  0.7622243E+02  0.7546771E-02  0.1340127E+00
          2   -1    0    0  503    0 -0.00000000000E+00  0.00000000000E+00  0.35245432687E+02  0.35245432687E+02  0.00000000000E+00 0.  1.
         21   -1    0    0  504  502  0.00000000000E+00 -0.00000000000E+00 -0.18036125423E+04  0.18036125423E+04  0.00000000000E+00 0.  1.
         21    1    1    2  503  505 -0.37310579242E+02  0.12392760657E+02 -0.25902727956E+02  0.47080900115E+02  0.00000000000E+00 0. -1.
         21    1    1    2  504  501 -0.14786326356E+02  0.88806948320E+02 -0.45337918824E+03  0.46223154138E+03  0.00000000000E+00 0.  1.
         21    1    1    2  505  502 -0.30054550776E+02 -0.37928980430E+02 -0.11725839283E+04  0.11735821030E+04  0.00000000000E+00 0.  1.
          2    1    1    2  501    0  0.82151456374E+02 -0.63270728547E+02 -0.11650126510E+03  0.15596343047E+03  0.00000000000E+00 0.  1.
<scales pt_clust_3="39.31488" pt_clust_4="14000.00000" pt_clust_5="48.67118" pt_clust_6="76.22243"></scales>
<clustering>
<clus scale="   39.315">  1  3  2 -1</clus>
<clus scale="   48.671">  2  5  1 -1</clus>
<clus scale="   76.222">  1  6  2 -1</clus>
<clus scale="   48.671">  2  3  1 -1</clus>
</clustering>
</event>
<event>
 6    0  0.2433432E+002  0.1285454E+03  0.7546771E-02  0.1229630E+00
          2   -1    0    0  503    0 -0.00000000000E+00  0.00000000000E+00  0.46061112326E+02  0.46061112326E+02  0.00000000000E+00 0.  1.
         21   -1    0    0  504  502  0.00000000000E+00 -0.00000000000E+00 -0.17620821918E+04  0.17620821918E+04  0.00000000000E+00 0. -1.
         21    1    1    2  503  502  0.44098821082E+02 -0.86016925656E+02 -0.52784046681E+03  0.53661827766E+03  0.00000000000E+00 0. -1.
         21    1    1    2  504  505 -0.63599857912E+02 -0.35879455955E+02 -0.11154558315E+04  0.11178434547E+04  0.00000000000E+00 0. -1.
         21    1    1    2  505  501  0.15687398111E+01  0.47169902387E+02 -0.59104365339E+02  0.75635881948E+02  0.00000000000E+00 0.  1.
          2    1    1    2  501    0  0.17932297019E+02  0.74726479224E+02 -0.13620415895E+02  0.78045689841E+02  0.00000000000E+00 0.  1.
<scales pt_clust_3="115.90433" pt_clust_4="73.02244" pt_clust_5="43.56357" pt_clust_6="43.56357"></scales>
<clustering>
<clus scale="   43.564">  5  6 -1 -1</clus>
<clus scale="   73.022">  2  4  1 -1</clus>
<clus scale="  115.904">  2  3  1 -1</clus>
<clus scale="   73.022">  2  3  1 -1</clus>
</clustering>
</event>
<event>
 6    0  0.2433432E+002  0.1454938E+03  0.7546771E-02  0.1206122E+00
         21   -1    0    0  501  502  0.00000000000E+00  0.00000000000E+00  0.39197641860E+03  0.39197641860E+03  0.00000000000E+00 0. -1.
          2   -1    0    0  504    0 -0.00000000000E+00 -0.00000000000E+00 -0.41287598282E+03  0.41287598282E+03  0.00000000000E+00 0.  1.
         21    1    1    2  503  502 -0.73739852476E+02 -0.49913193811E+02  0.25939120386E+03  0.27424931978E+03  0.00000000000E+00 0. -1.
         21    1    1    2  504  505  0.38458934146E+01  0.13324461448E+03 -0.99434320669E+01  0.13367045308E+03  0.00000000000E+00 0.  1.
         21    1    1    2  505  503  0.86528467536E+02  0.65552327823E+02 -0.28147521738E+02  0.11214529128E+03  0.00000000000E+00 0.  1.
          2    1    1    2  501    0 -0.16634508475E+02 -0.14888374850E+03 -0.24219981428E+03  0.28478733728E+03  0.00000000000E+00 0.  1.
<scales pt_clust_3="89.04433" pt_clust_4="145.49377" pt_clust_5="78.73318" pt_clust_6="14000.00000"></scales>
<clustering>
<clus scale="   89.044">  1  3  2 -1</clus>
<clus scale="   78.733">  1  5  2 -1</clus>
<clus scale="  145.494">  1  4  2 -1</clus>
<clus scale="   89.044">  1  3  2 -1</clus>
</clustering>
</event>
<event>
 6    0  0.2433432E+002  0.2164026E+03  0.7546771E-02  0.1136594E+00
         -2   -1    0    0    0  501 -0.00000000000E+00  0.00000000000E+00  0.30248244232E+04  0.30248244232E+04  0.00000000000E+00 0.  1.
         21   -1    0    0  503  502  0.00000000000E+00 -0.00000000000E+00 -0.34551474078E+02  0.34551474078E+02  0.00000000000E+00 0.  1.
         21    1    1    2  503  501 -0.39455328322E+01  0.37381250777E+02  0.10465828460E+03  0.11120378445E+03  0.00000000000E+00 0.  1.
         21    1    1    2  504  505 -0.70571640679E+02  0.25378413744E+02  0.24299777285E+03  0.25430756568E+03  0.00000000000E+00 0.  1.
         21    1    1    2  505  502 -0.10958373468E+03  0.52415514378E+01  0.11609451366E+03  0.15973103916E+03  0.00000000000E+00 0.  1.
         -2    1    1    2    0  504  0.18410090819E+03 -0.68001215959E+02  0.25265223780E+04  0.25341335080E+04  0.00000000000E+00 0.  1.
<scales pt_clust_3="37.58890" pt_clust_4="78.05762" pt_clust_5="78.05762" pt_clust_6="194.27540"></scales>
<clustering>
<clus scale="   37.589">  2  3  1 -1</clus>
<clus scale="   78.058">  4  5 -1 -1</clus>
<clus scale="  194.275">  1  6  2 -1</clus>
<clus scale="   37.589">  2  3  1 -1</clus>
</clustering>
</event>
<event>
 6    0  0.2433432E+002  0.1018766E+03  0.7546771E-02  0.1276398E+00
          2   -1    0    0  504    0 -0.00000000000E+00  0.00000000000E+00  0.83500503506E+03  0.83500503506E+03  0.00000000000E+00 0. -1.
         21   -1    0    0  505  502  0.00000000000E+00 -0.00000000000E+00 -0.10604098790E+03  0.10604098790E+03  0.00000000000E+00 0. -1.
         21    1    1    2  503  502  0.35979465934E+02  0.57717759490E+01 -0.51339025674E+02  0.62956579669E+02  0.00000000000E+00 0. -1.
         21    1    1    2  504  503 -0.26121506137E+02 -0.37083629908E+02  0.62117778445E+02  0.76916494258E+02  0.00000000000E+00 0. -1.
         21    1    1    2  505  501 -0.80949625557E+02 -0.43632073235E+02  0.18372238997E+02  0.93777070003E+02  0.00000000000E+00 0. -1.
          2    1    1    2  501    0  0.71091665759E+02  0.74943927194E+02  0.69981305539E+03  0.70739587903E+03  0.00000000000E+00 0. -1.
<scales pt_clust_3="36.43948" pt_clust_4="41.69762" pt_clust_5="101.87663" pt_clust_6="14000.00000"></scales>
<clustering>
<clus scale="   36.439">  2  3  1 -1</clus>
<clus scale="   41.698">  2  4  1 -1</clus>
<clus scale="  101.877">  2  5  1 -1</clus>
<clus scale="   36.439">  2  3  1 -1</clus>
</clustering>
</event>
<event>
 6    0  0.2433432E+002  0.1200385E+03  0.7546771E-02  0.1243034E+00
         21   -1    0    0  503  502  0.00000000000E+00  0.00000000000E+00  0.52721632075E+02  0.52721632075E+02  0.00000000000E+00 0. -1.
          2   -1    0    0  504    0 -0.00000000000E+00 -0.00000000000E+00 -0.28129180636E+04  0.28129180636E+04  0.00000000000E+00 0.  1.
         21    1    1    2  503  505  0.22129946159E+02  0.54009354601E+02 -0.23269781766E+02  0.62834923767E+02  0.00000000000E+00 0. -1.
         21    1    1    2  504  502  0.88640330409E+01 -0.40716335825E+02 -0.62798437975E+02  0.75366006242E+02  0.00000000000E+00 0. -1.
         21    1    1    2  505  501  0.90139435815E+02 -0.24058618229E+02 -0.60966569714E+02  0.11144890140E+03  0.00000000000E+00 0. -1.
          2    1    1    2  501    0 -0.12113341501E+03  0.10765599453E+02 -0.26131616421E+04  0.26159898643E+04  0.00000000000E+00 0.  1.
<scales pt_clust_3="44.89301" pt_clust_4="41.67003" pt_clust_5="14000.00000" pt_clust_6="120.03846"></scales>
<clustering>
<clus scale="   41.670">  1  4  2 -1</clus>
<clus scale="   44.893">  1  3  2 -1</clus>
<clus scale="  120.038">  2  6  1 -1</clus>
<clus scale="   41.670">  1  3  2 -1</clus>
</clustering>
</event>
<event>
 6    0  0.2433432E+002  0.1851542E+03  0.7546771E-02  0.1162906E+00
         21   -1    0    0  505  502  0.00000000000E+00  0.00000000000E+00  0.10634769034E+04  0.10634769034E+04  0.00000000000E+00 0.  1.
          1   -1    0    0  504    0 -0.00000000000E+00 -0.00000000000E+00 -0.13007156415E+04  0.13007156415E+04  0.00000000000E+00 0. -1.
         21    1    1    2  503  502 -0.36629595171E+02 -0.23169529649E+02  0.98485411131E+03  0.98580737211E+03  0.00000000000E+00 0.  1.
         21    1    1    2  504  503  0.12867621662E+02  0.37716995917E+02 -0.97211927318E+01  0.41020105514E+02  0.00000000000E+00 0.  1.
         21    1    1    2  505  501  0.20415827883E+03 -0.34715668319E+02 -0.14054709886E+03  0.25027837989E+03  0.00000000000E+00 0.  1.
          1    1    1    2  501    0 -0.18039630532E+03  0.20168202051E+02 -0.10718245578E+04  0.10870866875E+04  0.00000000000E+00 0. -1.
<scales pt_clust_3="43.33069" pt_clust_4="39.85157" pt_clust_5="14000.00000" pt_clust_6="185.15424"></scales>
<clustering>
<clus scale="   39.852">  2  4  1 -1</clus>
<clus scale="   43.331">  1  3  2 -1</clus>
<clus scale="  185.154">  2  6  1 -1</clus>
<clus scale="   43.331">  1  3  2 -1</clus>
</clustering>
</event>
<event>
 6    0  0.2433432E+002  0.1674478E+03  0.7546771E-02  0.1180536E+00
         21   -1    0    0  505  502  0.00000000000E+00  0.00000000000E+00  0.23409171449E+03  0.23409171449E+03  0.00000000000E+00 0.  1.
          2   -1    0    0  504    0 -0.00000000000E+00 -0.00000000000E+00 -0.31097897119E+04  0.31097897119E+04  0.00000000000E+00 0.  1.
         21    1    1    2  503  502  0.62829669184E+02  0.37061634867E+02  0.98558957581E+02  0.12261729172E+03  0.00000000000E+00 0.  1.
         21    1    1    2  504  503  0.76037913666E+02  0.75281112477E+02  0.78409111612E+02  0.13265368067E+03  0.00000000000E+00 0.  1.
         21    1    1    2  505  501 -0.30441854811E+02  0.72166753844E+01  0.39301484769E+00  0.31288039066E+02  0.00000000000E+00 0. -1.
          2    1    1    2  501    0 -0.10842572804E+03 -0.11955942273E+03 -0.30530590815E+04  0.30573224150E+04  0.00000000000E+00 0.  1.
<scales pt_clust_3="34.85362" pt_clust_4="34.85362" pt_clust_5="31.28557" pt_clust_6="161.54971"></scales>
<clustering>
<clus scale="   31.286">  1  5  2 -1</clus>
<clus scale="   34.854">  3  4 -1 -1</clus>
<clus scale="  161.550">  2  6  1 -1</clus>
<clus scale="   31.286">  1  3  2 -1</clus>
</clustering>
</event>
<event>
 6    0  0.2433432E+002  0.7568974E+02  0.7546771E-02  0.1341748E+00
         21   -1    0    0  503  502  0.00000000000E+00  0.00000000000E+00  0.13443927329E+04  0.13443927329E+04  0.00000000000E+00 0. -1.
          2   -1    0    0  504    0 -0.00000000000E+00 -0.00000000000E+00 -0.14849598037E+03  0.14849598037E+03  0.00000000000E+00 0.  1.
         21    1    1    2  503  501 -0.53671427437E+02 -0.58649346937E+02  0.17038084924E+03  0.18801596157E+03  0.00000000000E+00 0.  1.
         21    1    1    2  504  505  0.59177150344E+02 -0.29247643971E+02  0.64666064648E+03  0.65002103928E+03  0.00000000000E+00 0. -1.
         21    1    1    2  505  502  0.32490100647E+02  0.22047873669E+02  0.50556341004E+03  0.50708586743E+03  0.00000000000E+00 0. -1.
          2    1    1    2  501    0 -0.37995823553E+02  0.65849117239E+02 -0.12670815324E+03  0.14776584499E+03  0.00000000000E+00 0.  1.
<scales pt_clust_3="71.35926" pt_clust_4="14000.00000" pt_clust_5="39.26468" pt_clust_6="75.68974"></scales>
<clustering>
<clus scale="   39.265">  1  5  2 -1</clus>
<clus scale="   71.359">  1  3  2 -1</clus>
<clus scale="   75.690">  2  6  1 -1</clus>
<clus scale="   39.265">  1  3  2 -1</clus>
</clustering>
</event>
<event>
 6    0  0.2433432E+002  0.2255468E+03  0.7546771E-02  0.1129814E+00
         21   -1    0    0  504  502  0.00000000000E+00  0.00000000000E+00  0.10120409153E+04  0.10120409153E+04  0.00000000000E+00 0. -1.
          2   -1    0    0  505    0 -0.00000000000E+00 -0.00000000000E+00 -0.17575248777E+04  0.17575248777E+04  0.00000000000E+00 0.  1.
         21    1    1    2  503  502  0.16154545372E+03  0.18832729978E+03  0.81716805205E+03  0.85400686809E+03  0.00000000000E+00 0. -1.
         21    1    1    2  504  501  0.29929141942E+02 -0.49455124904E+02  0.10124135057E+03  0.11658204829E+03  0.00000000000E+00 0. -1.
         21    1    1    2  505  503 -0.15368526301E+03 -0.80956228791E+02 -0.46114905478E+02  0.17972104928E+03  0.00000000000E+00 0.  1.
          2    1    1    2  501    0 -0.37789332650E+02 -0.57915946086E+02 -0.16177784595E+04  0.16192558273E+04  0.00000000000E+00 0.  1.
<scales pt_clust_3="225.54683" pt_clust_4="57.80625" pt_clust_5="14000.00000" pt_clust_6="69.17462"></scales>
<clustering>
<clus scale="   57.806">  1  4  2 -1</clus>
<clus scale="   69.175">  2  6  1 -1</clus>
<clus scale="  225.547">  1  3  2 -1</clus>
<clus scale="   57.806">  1  3  2 -1</clus>
</clustering>
</event>
<event>
 6    0  0.2433432E+002  0.1391218E+03  0.7546771E-02  0.1214516E+00
         21   -1    0    0  504  502  0.00000000000E+00  0.00000000000E+00  0.13854404476E+03  0.13854404476E+03  0.00000000000E+00 0.  1.
         -2   -1    0    0    0  501 -0.00000000000E+00 -0.00000000000E+00 -0.43075395106E+03  0.43075395106E+03  0.00000000000E+00 0.  1.
         21    1    1    2  503  502  0.20487178780E+02 -0.29674654432E+02  0.85237191107E+02  0.92551004088E+02  0.00000000000E+00 0.  1.
         21    1    1    2  504  505 -0.68569467321E+02  0.73473550026E+02 -0.69626054971E+02  0.12226169446E+03  0.00000000000E+00 0.  1.
         21    1    1    2  505  501 -0.18890512205E+02  0.53632857836E+02 -0.85501099672E+02  0.10268287557E+03  0.00000000000E+00 0.  1.
         -2    1    1    2    0  503  0.66972800746E+02 -0.97431753431E+02 -0.22231994277E+03  0.25180242169E+03  0.00000000000E+00 0.  1.
<scales pt_clust_3="36.05981" pt_clust_4="41.24626" pt_clust_5="41.24626" pt_clust_6="128.93613"></scales>
<clustering>
<clus scale="   36.060">  1  3  2 -1</clus>
<clus scale="   41.246">  4  5 -1 -1</clus>
<clus scale="  128.936">  2  6  1 -1</clus>
<clus scale="   36.060">  1  3  2 -1</clus>
</clustering>
</event>
<event>
 6    0  0.2433432E+002  0.8572359E+02  0.7546771E-02  0.1313551E+00
          1   -1    0    0  505    0 -0.00000000000E+00  0.00000000000E+00  0.12596362467E+04  0.12596362467E+04  0.00000000000E+00 0.  1.
         21   -1    0    0  504  502  0.00000000000E+00 -0.00000000000E+00 -0.92249191290E+03  0.92249191290E+03  0.00000000000E+00 0. -1.
         21    1    1    2  503  501  0.39262057500E+02  0.23843847539E+02 -0.13134321579E+03  0.13914409279E+03  0.00000000000E+00 0. -1.
         21    1    1    2  504  503  0.28789052758E+02  0.79871582414E+02 -0.37089143845E+03  0.38048487270E+03  0.00000000000E+00 0. -1.
         21    1    1    2  505  502 -0.59651617983E+02 -0.33857780618E+02 -0.40770372060E+03  0.41343317311E+03  0.00000000000E+00 0. -1.
          1    1    1    2  501    0 -0.83994922753E+01 -0.69857649334E+02  0.12470827086E+04  0.12490660210E+04  0.00000000000E+00 0.  1.
<scales pt_clust_3="35.93519" pt_clust_4="35.93519" pt_clust_5="68.59056" pt_clust_6="70.43980"></scales>
<clustering>
<clus scale="   35.935">  3  4 -1 -1</clus>
<clus scale="   68.591">  2  5  1 -1</clus>
<clus scale="   70.440">  1  6  2 -1</clus>
<clus scale="   68.591">  2  3  1 -1</clus>
</clustering>
</event>
<event>
 6    0  0.2433432E+002  0.9875236E+02  0.7546771E-02  0.1282942E+00
          2   -1    0    0  502    0 -0.00000000000E+00  0.00000000000E+00  0.10059243837E+04  0.10059243837E+04  0.00000000000E+00 0. -1.
         21   -1    0    0  505  502  0.00000000000E+00 -0.00000000000E+00 -0.53496446696E+02  0.53496446696E+02  0.00000000000E+00 0.  1.
         21    1    1    2  503  504  0.84650598820E+02  0.59158181681E+02  0.15222863483E+03  0.18395372136E+03  0.00000000000E+00 0.  1.
         21    1    1    2  504  501 -0.25977249667E+02 -0.93024063602E+02  0.17545780419E+03  0.20028413557E+03  0.00000000000E+00 0.  1.
         21    1    1    2  505  503 -0.11027716672E+03  0.37889636823E+02  0.11831351480E+03  0.16611672362E+03  0.00000000000E+00 0.  1.
          2    1    1    2  501    0  0.51603817571E+02 -0.40237549022E+01  0.50642798321E+03  0.50906624989E+03  0.00000000000E+00 0. -1.
<scales pt_clust_3="14000.00000" pt_clust_4="94.76581" pt_clust_5="98.75236" pt_clust_6="51.76045"></scales>
<clustering>
<clus scale="   51.760">  1  6  2 -1</clus>
<clus scale="   94.766">  1  4  2 -1</clus>
<clus scale="   98.752">  2  5  1 -1</clus>
<clus scale="   98.752">  2  3  1 -1</clus>
</clustering>
</event>
<event>
 6    0  0.2433432E+002  0.1142256E+03  0.7546771E-02  0.1252939E+00
         -2   -1    0    0    0  501 -0.00000000000E+00  0.00000000000E+00  0.35019706212E+04  0.35019706212E+04  0.00000000000E+00 0. -1.
         21   -1    0    0  505  502  0.00000000000E+00 -0.00000000000E+00 -0.18912715571E+02  0.18912715571E+02  0.00000000000E+00 0. -1.
         21    1    1    2  503  501 -0.70865007154E+02  0.43650311656E+02  0.18237417190E+03  0.20046829555E+03  0.00000000000E+00 0. -1.
         21    1    1    2  504  503  0.29605922779E+02  0.79903155348E+02  0.27832665021E+03  0.29107859611E+03  0.00000000000E+00 0.  1.
         21    1    1    2  505  504 -0.32215609724E+02 -0.29667729906E+02  0.21324948560E+03  0.21770016724E+03  0.00000000000E+00 0. -1.
         -2    1    1    2    0  502  0.73474694098E+02 -0.93885737098E+02  0.28091075979E+04  0.28116362778E+04  0.00000000000E+00 0. -1.
<scales pt_clust_3="114.22555" pt_clust_4="70.71561" pt_clust_5="43.79520" pt_clust_6="14000.00000"></scales>
<clustering>
<clus scale="   43.795">  2  5  1 -1</clus>
<clus scale="   70.716">  2  4  1 -1</clus>
<clus scale="  114.226">  2  3  1 -1</clus>
<clus scale="   43.795">  2  3  1 -1</clus>
</clustering>
</event>
<event>
 6    0  0.2433432E+002  0.1216170E+03  0.7546771E-02  0.1240453E+00
         -3   -1    0    0    0  501 -0.00000000000E+00  0.00000000000E+00  0.37344080618E+02  0.37344080618E+02  0.00000000000E+00 0.  1.
         21   -1    0    0  505  502  0.00000000000E+00 -0.00000000000E+00 -0.30302224480E+04  0.30302224480E+04  0.00000000000E+00 0. -1.
         21    1    1    2  503  501  0.28204519239E+02 -0.28444005255E+02 -0.36545909726E+03  0.36764780444E+03  0.00000000000E+00 0. -1.
         21    1    1    2  504  502  0.12289266224E+01 -0.79389631051E+02 -0.20006120276E+04  0.20021869815E+04  0.00000000000E+00 0. -1.
         21    1    1    2  505  503 -0.26061337925E+02 -0.16049340086E+02 -0.55226374785E+03  0.55311122013E+03  0.00000000000E+00 0. -1.
         -3    1    1    2    0  504 -0.33721079363E+01  0.12388297639E+03 -0.74543494676E+02  0.14462052258E+03  0.00000000000E+00 0.  1.
<scales pt_clust_3="39.27647" pt_clust_4="14000.00000" pt_clust_5="30.60677" pt_clust_6="121.61703"></scales>
<clustering>
<clus scale="   30.607">  2  5  1 -1</clus>
<clus scale="   39.276">  2  3  1 -1</clus>
<clus scale="  121.617">  1  6  2 -1</clus>
<clus scale="   30.607">  2  3  1 -1</clus>
</clustering>
</event>
<event>
 6    0  0.2433432E+002  0.6616610E+02  0.7546771E-02  0.1373638E+00
         21   -1    0    0  505  502  0.00000000000E+00  0.00000000000E+00  0.42502087522E+02  0.42502087522E+02  0.00000000000E+00 0. -1.
          1   -1    0    0  504    0 -0.00000000000E+00 -0.00000000000E+00 -0.84681911907E+03  0.84681911907E+03  0.00000000000E+00 0. -1.
         21    1    1    2  503  502 -0.55329741583E+02 -0.33722595515E+00 -0.26969179918E+02  0.61553478296E+02  0.00000000000E+00 0. -1.
         21    1    1    2  504  503 -0.37000010560E+02  0.62865597915E+02 -0.11912880035E+03  0.13968806412E+03  0.00000000000E+00 0. -1.
         21    1    1    2  505  501  0.33499545624E+02 -0.60848535276E+02 -0.76259573681E+02  0.10315176383E+03  0.00000000000E+00 0.  1.
          1    1    1    2  501    0  0.58830206519E+02 -0.16798366840E+01 -0.58195947760E+03  0.58492790036E+03  0.00000000000E+00 0. -1.
<scales pt_clust_3="55.33077" pt_clust_4="14000.00000" pt_clust_5="66.16610" pt_clust_6="55.59871"></scales>
<clustering>
<clus scale="   55.331">  1  3  2 -1</clus>
<clus scale="   55.599">  2  6  1 -1</clus>
<clus scale="   66.166">  1  5  2 -1</clus>
<clus scale="   55.331">  1  3  2 -1</clus>
</clustering>
</event>
<event>
 6    0  0.2433432E+002  0.6327380E+02  0.7546771E-02  0.1384585E+00
          2   -1    0    0  504    0 -0.00000000000E+00  0.00000000000E+00  0.69083424437E+02  0.69083424437E+02  0.00000000000E+00 0.  1.
         21   -1    0    0  505  502  0.00000000000E+00 -0.00000000000E+00 -0.68508546385E+03  0.68508546385E+03  0.00000000000E+00 0.  1.
         21    1    1    2  503  501  0.33759963600E+02  0.81038536987E+02 -0.82469839063E+02  0.12045021368E+03  0.00000000000E+00 0.  1.
         21    1    1    2  504  502  0.30595284000E+02 -0.47074005519E+02 -0.49427136018E+03  0.49744970690E+03  0.00000000000E+00 0.  1.
         21    1    1    2  505  503 -0.69423311174E+02  0.53722651742E+01 -0.59637134776E+02  0.91679033654E+02  0.00000000000E+00 0.  1.
          2    1    1    2  501    0  0.50680635732E+01 -0.39336796643E+02  0.20376294600E+02  0.44589934067E+02  0.00000000000E+00 0.  1.
<scales pt_clust_3="63.27380" pt_clust_4="57.69981" pt_clust_5="14000.00000" pt_clust_6="39.66193"></scales>
<clustering>
<clus scale="   39.662">  1  6  2 -1</clus>
<clus scale="   57.700">  2  4  1 -1</clus>
<clus scale="   63.274">  1  3  2 -1</clus>
<clus scale="   57.700">  2  3  1 -1</clus>
</clustering>
</event>
<event>
 6    0  0.2433432E+002  0.2692112E+03  0.7546771E-02  0.1101732E+00
          2   -1    0    0  504    0 -0.00000000000E+00  0.00000000000E+00  0.11132365324E+04  0.11132365324E+04  0.00000000000E+00 0.  1.
         21   -1    0    0  505  502  0.00000000000E+00 -0.00000000000E+00 -0.96593887482E+03  0.96593887482E+03  0.00000000000E+00 0.  1.
         21    1    1    2  503  501 -0.40294297593E+02 -0.57350485404E+02  0.10823452358E+02  0.70921475701E+02  0.00000000000E+00 0. -1.
         21    1    1    2  504  502 -0.36736660236E+02 -0.13932510875E+03 -0.29186545050E+03  0.32549425391E+03  0.00000000000E+00 0.  1.
         21    1    1    2  505  503 -0.26069466530E+02 -0.60027477092E+02 -0.60729703853E+03  0.61081307132E+03  0.00000000000E+00 0.  1.
          2    1    1    2  501    0  0.10310042436E+03  0.25670307124E+03  0.10356366942E+04  0.10719466063E+04  0.00000000000E+00 0.  1.
<scales pt_clust_3="75.49627" pt_clust_4="269.21122" pt_clust_5="65.44398" pt_clust_6="14000.00000"></scales>
<clustering>
<clus scale="   65.444">  2  5  1 -1</clus>
<clus scale="   75.496">  2  3  1 -1</clus>
<clus scale="  269.211">  2  4  1 -1</clus>
<clus scale="   65.444">  2  3  1 -1</clus>
</clustering>
</event>
<event>
 6    0  0.2433432E+002  0.1197960E+03  0.7546771E-02  0.1243434E+00
          1   -1    0    0  503    0 -0.00000000000E+00  0.00000000000E+00  0.14632303017E+04  0.14632303017E+04  0.00000000000E+00 0.  1.
         21   -1    0    0  504  502  0.00000000000E+00 -0.00000000000E+00 -0.56193989466E+02  0.56193989466E+02  0.00000000000E+00 0.  1.
         21    1    1    2  503  502 -0.55540119952E+02 -0.17021298372E+02  0.49646137259E+02  0.76414451953E+02  0.00000000000E+00 0.  1.
         21    1    1    2  504  505  0.99946789953E+01  0.28948959612E+02  0.29437240657E+02  0.42479253859E+02  0.00000000000E+00 0.  1.
         21    1    1    2  505  501 -0.60172274520E+02  0.51700158696E+02  0.13710080014E+02  0.80508231406E+02  0.00000000000E+00 0.  1.
          1    1    1    2  501    0  0.10571771548E+03 -0.63627819937E+02  0.13142428543E+04  0.13200223539E+04  0.00000000000E+00 0.  1.
<scales pt_clust_3="53.64555" pt_clust_4="30.62574" pt_clust_5="119.79596" pt_clust_6="14000.00000"></scales>
<clustering>
<clus scale="   30.626">  2  4  1 -1</clus>
<clus scale="   53.646">  2  3  1 -1</clus>
<clus scale="  119.796">  2  5  1 -1</clus>
<clus scale="   30.626">  2  3  1 -1</clus>
</clustering>
</event>
<event>
 6    0  0.2433432E+002  0.1619420E+03  0.7546771E-02  0.1186522E+00
         21   -1    0    0  505  502  0.00000000000E+00  0.00000000000E+00  0.41796215172E+03  0.41796215172E+03  0.00000000000E+00 0. -1.
          1   -1    0    0  503    0 -0.00000000000E+00 -0.00000000000E+00 -0.22932039192E+03  0.22932039192E+03  0.00000000000E+00 0. -1.
         21    1    1    2  503  504 -0.11510019315E+03  0.76419688116E+01 -0.11465600829E+02  0.11592201755E+03  0.00000000000E+00 0. -1.
         21    1    1    2  504  502 -0.48882184023E+02 -0.15360477845E+02  0.63940559941E+02  0.81937826430E+02  0.00000000000E+00 0.  1.
         21    1    1    2  505  501  0.22031396577E+03 -0.87954783613E+01  0.24262951390E+03  0.32784857018E+03  0.00000000000E+00 0. -1.
          1    1    1    2  501    0 -0.56331588597E+02  0.16513987394E+02 -0.10646271321E+03  0.12157412948E+03  0.00000000000E+00 0. -1.
<scales pt_clust_3="161.94198" pt_clust_4="51.23878" pt_clust_5="14000.00000" pt_clust_6="59.63818"></scales>
<clustering>
<clus scale="   51.239">  1  4  2 -1</clus>
<clus scale="   59.638">  2  6  1 -1</clus>
<clus scale="  161.942">  2  3  1 -1</clus>
<clus scale="   51.239">  1  3  2 -1</clus>
</clustering>
</event>
<event>
 6    0  0.2433432E+002  0.1602656E+03  0.7546771E-02  0.1188397E+00
         21   -1    0    0  501  502  0.00000000000E+00  0.00000000000E+00  0.21162793357E+02  0.21162793357E+02  0.00000000000E+00 0. -1.
          2   -1    0    0  503    0 -0.00000000000E+00 -0.00000000000E+00 -0.30570575093E+04  0.30570575093E+04  0.00000000000E+00 0.  1.
         21    1    1    2  503  505  0.69428947037E+02  0.27284140599E+02 -0.38863430298E+03  0.39572897856E+03  0.00000000000E+00 0. -1.
         21    1    1    2  504  502  0.29914009416E+02  0.27044353637E+02 -0.31495506835E+02  0.51168466596E+02  0.00000000000E+00 0. -1.
         21    1    1    2  505  504  0.49432043147E+02 -0.16939111257E+02 -0.12043662726E+03  0.13128382066E+03  0.00000000000E+00 0. -1.
          2    1    1    2  501    0 -0.14877499960E+03 -0.37389382978E+02 -0.24953282788E+04  0.25000390368E+04  0.00000000000E+00 0.  1.
<scales pt_clust_3="56.69731" pt_clust_4="40.32673" pt_clust_5="56.69731" pt_clust_6="146.05045"></scales>
<clustering>
<clus scale="   40.327">  1  4  2 -1</clus>
<clus scale="   56.697">  3  5 -1 -1</clus>
<clus scale="  146.050">  2  6  1 -1</clus>
<clus scale="   40.327">  1  3  2 -1</clus>
</clustering>
</event>
<event>
 6    0  0.2433432E+002  0.1744735E+03  0.7546771E-02  0.1173261E+00
          1   -1    0    0  502    0 -0.00000000000E+00  0.00000000000E+00  0.63630439442E+03  0.63630439442E+03  0.00000000000E+00 0.  1.
         21   -1    0    0  505  502  0.00000000000E+00 -0.00000000000E+00 -0.31281807931E+03  0.31281807931E+03  0.00000000000E+00 0.  1.
         21    1    1    2  503  504 -0.24832101981E+02 -0.40242975842E+02 -0.34608653467E+02  0.58599396654E+02  0.00000000000E+00 0.  1.
         21    1    1    2  504  501  0.10014639765E+03  0.64444839872E+02  0.29489742759E+02  0.12268693197E+03  0.00000000000E+00 0.  1.
         21    1    1    2  505  503 -0.12969630086E+03 -0.63425120996E+02 -0.19350993173E+03  0.24143315868E+03  0.00000000000E+00 0.  1.
          1    1    1    2  501    0  0.54382005194E+02  0.39223256965E+02  0.52211515755E+03  0.52640298643E+03  0.00000000000E+00 0.  1.
<scales pt_clust_3="33.15112" pt_clust_4="164.57720" pt_clust_5="33.15112" pt_clust_6="67.05122"></scales>
<clustering>
<clus scale="   33.151">  3  5 -1 -1</clus>
<clus scale="   67.051">  1  6  2 -1</clus>
<clus scale="  164.577">  1  4  2 -1</clus>
<clus scale="  174.473">  2  3  1 -1</clus>
</clustering>
</event>
<event>
 6    0  0.2433432E+002  0.1111490E+03  0.7546771E-02  0.1258457E+00
          2   -1    0    0  505    0 -0.00000000000E+00  0.00000000000E+00  0.22480490225E+04  0.22480490225E+04  0.00000000000E+00 0. -1.
         21   -1    0    0  503  502  0.00000000000E+00 -0.00000000000E+00 -0.23979451828E+02  0.23979451828E+02  0.00000000000E+00 0. -1.
         21    1    1    2  503  501  0.12365151092E+03 -0.11576844327E+02  0.60793600561E+03  0.62049166504E+03  0.00000000000E+00 0. -1.
         21    1    1    2  504  502 -0.88729220279E+02 -0.34839790028E+02  0.37225736730E+03  0.38426843874E+03  0.00000000000E+00 0.  1.
         21    1    1    2  505  504 -0.45228541801E+02  0.12707087562E+03  0.46521699083E+03  0.48437534721E+03  0.00000000000E+00 0. -1.
          2    1    1    2  501    0  0.10306251159E+02 -0.80654241268E+02  0.77865920689E+03  0.78289302329E+03  0.00000000000E+00 0. -1.
<scales pt_clust_3="111.14899" pt_clust_4="102.48612" pt_clust_5="14000.00000" pt_clust_6="81.31006"></scales>
<clustering>
<clus scale="   81.310">  1  6  2 -1</clus>
<clus scale="  102.486">  2  4  1 -1</clus>
<clus scale="  111.149">  2  3  1 -1</clus>
<clus scale="  102.486">  2  3  1 -1</clus>
</clustering>
</event>
<event>
 6    0  0.2433432E+002  0.1850978E+03  0.7546771E-02  0.1162959E+00
         -3   -1    0    0    0  501 -0.00000000000E+00  0.00000000000E+00  0.33772454676E+03  0.33772454676E+03  0.00000000000E+00 0. -1.
         21   -1    0    0  504  502  0.00000000000E+00 -0.00000000000E+00 -0.50861146137E+03  0.50861146137E+03  0.00000000000E+00 0. -1.
         21    1    1    2  503  501  0.14979124071E+03  0.99885986147E+02 -0.18486571406E+03  0.25805030180E+03  0.00000000000E+00 0. -1.
         21    1    1    2  504  503  0.18864820477E+02  0.43056458898E+02 -0.23121608064E+03  0.23594621431E+03  0.00000000000E+00 0. -1.
         21    1    1    2  505  502 -0.11553041709E+03 -0.78564776873E+02  0.65705907395E+02  0.15439225274E+03  0.00000000000E+00 0.  1.
         -3    1    1    2    0  505 -0.53125644100E+02 -0.64377668172E+02  0.17948897269E+03  0.19794723928E+03  0.00000000000E+00 0. -1.
<scales pt_clust_3="185.09784" pt_clust_4="47.00787" pt_clust_5="14000.00000" pt_clust_6="81.95129"></scales>
<clustering>
<clus scale="   47.008">  2  4  1 -1</clus>
<clus scale="   81.951">  1  6  2 -1</clus>
<clus scale="  185.098">  2  3  1 -1</clus>
<clus scale="   47.008">  2  3  1 -1</clus>
</clustering>
</event>
<event>
 6    0  0.2433432E+002  0.1096345E+03  0.7546771E-02  0.1261248E+00
          2   -1    0    0  503    0 -0.00000000000E+00  0.00000000000E+00  0.67330879572E+03  0.67330879572E+03  0.00000000000E+00 0. -1.
         21   -1    0    0  504  502  0.00000000000E+00 -0.00000000000E+00 -0.15991897139E+03  0.15991897139E+03  0.00000000000E+00 0.  1.
         21    1    1    2  503  505  0.31262471971E+02  0.27379462871E+02  0.39460604215E+02  0.57307210941E+02  0.00000000000E+00 0. -1.
         21    1    1    2  504  501 -0.97953298374E+02  0.10433846648E+02 -0.64875166706E+02  0.11795126567E+03  0.00000000000E+00 0.  1.
         21    1    1    2  505  502  0.23943078812E+02  0.78278797477E+02 -0.21121331168E+02  0.84539646248E+02  0.00000000000E+00 0.  1.
          2    1    1    2  501    0  0.42747747592E+02 -0.11609210700E+03  0.55992571799E+03  0.57342964425E+03  0.00000000000E+00 0. -1.
<scales pt_clust_3="41.55691" pt_clust_4="14000.00000" pt_clust_5="83.65851" pt_clust_6="109.63453"></scales>
<clustering>
<clus scale="   41.557">  1  3  2 -1</clus>
<clus scale="   83.659">  2  5  1 -1</clus>
<clus scale="  109.635">  1  6  2 -1</clus>
<clus scale="   83.659">  2  3  1 -1</clus>
</clustering>
</event>
<event>
 6    0  0.2433432E+002  0.1130351E+03  0.7546771E-02  0.1255050E+00
         -1   -1    0    0    0  501 -0.00000000000E+00  0.00000000000E+00  0.17281743864E+02  0.17281743864E+02  0.00000000000E+00 0.  1.
         21   -1    0    0  501  502  0.00000000000E+00 -0.00000000000E+00 -0.34762077729E+04  0.34762077729E+04  0.00000000000E+00 0. -1.
         21    1    1    2  503  505  0.31918458951E+02  0.54082205422E+02 -0.35991597379E+03  0.36535350163E+03  0.00000000000E+00 0. -1.
         21    1    1    2  504  503  0.45263927833E+02  0.38128422639E+02 -0.54876790423E+03  0.55195000905E+03  0.00000000000E+00 0. -1.
         21    1    1    2  505  502 -0.44323895899E+02 -0.94912780032E+02 -0.25392832008E+04  0.25414429400E+04  0.00000000000E+00 0. -1.
         -1    1    1    2    0  504 -0.32858490886E+02  0.27021519713E+01 -0.10958950207E+02  0.34743066045E+02  0.00000000000E+00 0.  1.
<scales pt_clust_3="34.24329" pt_clust_4="34.24329" pt_clust_5="107.22648" pt_clust_6="32.96941"></scales>
<clustering>
<clus scale="   32.969">  1  6  2 -1</clus>
<clus scale="   34.243">  3  4 -1 -1</clus>
<clus scale="  107.226">  2  5  1 -1</clus>
<clus scale="  107.226">  2  3  1 -1</clus>
</clustering>
</event>
<event>
 6    0  0.2433432E+002  0.1387322E+03  0.7546771E-02  0.1215045E+00
         21   -1    0    0  503  502  0.00000000000E+00  0.00000000000E+00  0.58025434437E+02  0.58025434437E+02  0.00000000000E+00 0.  1.
          1   -1    0    0  505    0 -0.00000000000E+00 -0.00000000000E+00 -0.18304886980E+04  0.18304886980E+04  0.00000000000E+00 0.  1.
         21    1    1    2  503  501  0.33985723051E+02 -0.92502055550E+02 -0.15923792328E+03  0.18726552235E+03  0.00000000000E+00 0. -1.
         21    1    1    2  504  502 -0.54079201393E+02  0.50460290659E+02 -0.34994333554E+02  0.81825450427E+02  0.00000000000E+00 0.  1.
         21    1    1    2  505  504 -0.98954156407E+02  0.50976505857E+02 -0.15303563134E+03  0.18923644913E+03  0.00000000000E+00 0.  1.
          1    1    1    2  501    0  0.11904763475E+03 -0.89347409665E+01 -0.14251953754E+04  0.14301867105E+04  0.00000000000E+00 0.  1.
<scales pt_clust_3="98.54775" pt_clust_4="54.13669" pt_clust_5="54.13669" pt_clust_6="121.80301"></scales>
<clustering>
<clus scale="   54.137">  4  5 -1 -1</clus>
<clus scale="   98.548">  1  3  2 -1</clus>
<clus scale="  121.803">  2  6  1 -1</clus>
<clus scale="   98.548">  1  3  2 -1</clus>
</clustering>
</event>
<event>
 6    0  0.2433432E+002  0.9200730E+02  0.7546771E-02  0.1298062E+00
          2   -1    0    0  503    0 -0.00000000000E+00  0.00000000000E+00  0.21982916718E+04  0.21982916718E+04  0.00000000000E+00 0.  1.
         21   -1    0    0  504  502  0.00000000000E+00 -0.00000000000E+00 -0.46172330425E+02  0.46172330425E+02  0.00000000000E+00 0.  1.
         21    1    1    2  503  505  0.57299508999E+02 -0.47045326583E+02  0.50088287056E+02  0.89472526426E+02  0.00000000000E+00 0.  1.
         21    1    1    2  504  501  0.38630940119E+02 -0.86843906666E+01  0.94471804175E+02  0.10243383211E+03  0.00000000000E+00 0.  1.
         21    1    1    2  505  502 -0.24654753213E+01  0.68541094567E+02  0.33650457018E+02  0.76395768669E+02  0.00000000000E+00 0.  1.
          2    1    1    2  501    0 -0.93464973797E+02 -0.12811377318E+02  0.19739087931E+04  0.19761618750E+04  0.00000000000E+00 0.  1.
<scales pt_clust_3="14000.00000" pt_clust_4="39.59505" pt_clust_5="66.38309" pt_clust_6="92.00730"></scales>
<clustering>
<clus scale="   39.595">  2  4  1 -1</clus>
<clus scale="   66.383">  2  5  1 -1</clus>
<clus scale="   92.007">  1  6  2 -1</clus>
<clus scale="   39.595">  2  3  1 -1</clus>
</clustering>
</event>
<event>
 6    0  0.2433432E+002  0.1259683E+03  0.7546771E-02  0.1233564E+00
          2   -1    0    0  505    0 -0.00000000000E+00  0.00000000000E+00  0.29594542196E+04  0.29594542196E+04  0.00000000000E+00 0.  1.
         21   -1    0    0  504  502  0.00000000000E+00 -0.00000000000E+00 -0.93883809347E+03  0.93883809347E+03  0.00000000000E+00 0.  1.
         21    1    1    2  503  501 -0.86806575384E+02  0.66388094391E+02 -0.28105839555E+03  0.30155693047E+03  0.00000000000E+00 0.  1.
         21    1    1    2  504  503  0.17482831922E+02 -0.82023769618E+02 -0.59798545314E+03  0.60383785105E+03  0.00000000000E+00 0.  1.
         21    1    1    2  505  502 -0.55940906481E+02  0.37340960941E+00 -0.27973067886E+02  0.62546118822E+02  0.00000000000E+00 0.  1.
          2    1    1    2  501    0  0.12526464994E+03  0.15262265617E+02  0.29276330427E+04  0.29303514128E+04  0.00000000000E+00 0.  1.
<scales pt_clust_3="14000.00000" pt_clust_4="84.21540" pt_clust_5="55.94215" pt_clust_6="125.96835"></scales>
<clustering>
<clus scale="   55.942">  2  5  1 -1</clus>
<clus scale="   84.215">  2  4  1 -1</clus>
<clus scale="  125.968">  1  6  2 -1</clus>
<clus scale="   55.942">  2  3  1 -1</clus>
</clustering>
</event>
<event>
 6    0  0.2433432E+002  0.8353431E+02  0.7546771E-02  0.1319311E+00
          3   -1    0    0  505    0 -0.00000000000E+00  0.00000000000E+00  0.87326894981E+03  0.87326894981E+03  0.00000000000E+00 0.  1.
         21   -1    0    0  504  502  0.00000000000E+00 -0.00000000000E+00 -0.34768013635E+03  0.34768013635E+03  0.00000000000E+00 0. -1.
         21    1    1    2  503  502  0.36532966169E+02  0.20369688667E+02 -0.54307989918E+02  0.68548811824E+02  0.00000000000E+00 0. -1.
         21    1    1    2  504  501 -0.49110821626E+02 -0.87470956937E+02 -0.24034816141E+03  0.26044246927E+03  0.00000000000E+00 0. -1.
         21    1    1    2  505  503 -0.42244691556E+02  0.42342971998E+01 -0.20457053991E+02  0.47127850528E+02  0.00000000000E+00 0. -1.
          3    1    1    2  501    0  0.54822547012E+02  0.62866971070E+02  0.84070201878E+03  0.84482995454E+03  0.00000000000E+00 0.  1.
<scales pt_clust_3="41.82800" pt_clust_4="83.53431" pt_clust_5="38.50852" pt_clust_6="14000.00000"></scales>
<clustering>
<clus scale="   41.828">  2  3  1 -1</clus>
<clus scale="   38.509">  2  5  1 -1</clus>
<clus scale="   83.534">  2  4  1 -1</clus>
<clus scale="   41.828">  2  3  1 -1</clus>
</clustering>
</event>
<event>
 6    0  0.2433432E+002  0.1741382E+03  0.7546771E-02  0.1173600E+00
         -2   -1    0    0    0  501 -0.00000000000E+00  0.00000000000E+00  0.13790568001E+04  0.13790568001E+04  0.00000000000E+00 0.  1.
         21   -1    0    0  503  502  0.00000000000E+00 -0.00000000000E+00 -0.27151747442E+03  0.27151747442E+03  0.00000000000E+00 0.  1.
         21    1    1    2  503  505  0.11848649848E+03 -0.82784924322E+01 -0.11512227304E+03  0.16541076601E+03  0.00000000000E+00 0.  1.
         21    1    1    2  504  502 -0.22589167226E+02 -0.30062940240E+02  0.95057032468E+01  0.38786714814E+02  0.00000000000E+00 0.  1.
         21    1    1    2  505  501  0.69816014637E+02  0.32711408366E+02 -0.98048084474E+02  0.12473066586E+03  0.00000000000E+00 0.  1.
         -2    1    1    2    0  504 -0.16571334590E+03  0.56300243063E+01  0.13112039800E+04  0.13216461279E+04  0.00000000000E+00 0.  1.
<scales pt_clust_3="39.45216" pt_clust_4="37.60387" pt_clust_5="39.45216" pt_clust_6="166.24825"></scales>
<clustering>
<clus scale="   37.604">  2  4  1 -1</clus>
<clus scale="   39.452">  3  5 -1 -1</clus>
<clus scale="  166.248">  1  6  2 -1</clus>
<clus scale="   37.604">  2  3  1 -1</clus>
</clustering>
</event>
<event>
 6    0  0.2433432E+002  0.1396522E+03  0.7546771E-02  0.1213798E+00
         21   -1    0    0  504  502  0.00000000000E+00  0.00000000000E+00  0.15812998460E+02  0.15812998460E+02  0.00000000000E+00 0.  1.
          4   -1    0    0  505    0 -0.00000000000E+00 -0.00000000000E+00 -0.18772263528E+04  0.18772263528E+04  0.00000000000E+00 0. -1.
         21    1    1    2  503  502 -0.14721765751E+02 -0.93089744052E+02 -0.24187213904E+03  0.25958536645E+03  0.00000000000E+00 0.  1.
         21    1    1    2  504  501  0.36565557863E+02  0.10939582389E+03 -0.76656722039E+03  0.77519661356E+03  0.00000000000E+00 0. -1.
         21    1    1    2  505  503  0.90260596640E+01 -0.43952552778E+02 -0.26051202796E+03  0.26434790213E+03  0.00000000000E+00 0.  1.
          4    1    1    2  501    0 -0.30869851777E+02  0.27646472936E+02 -0.59246196696E+03  0.59390946912E+03  0.00000000000E+00 0. -1.
<scales pt_clust_3="39.65615" pt_clust_4="127.27747" pt_clust_5="39.65615" pt_clust_6="41.44002"></scales>
<clustering>
<clus scale="   39.656">  3  5 -1 -1</clus>
<clus scale="   41.440">  2  6  1 -1</clus>
<clus scale="  127.277">  2  4  1 -1</clus>
<clus scale="  139.652">  1  3  2 -1</clus>
</clustering>
</event>
<event>
 6    0  0.2433432E+002  0.9725715E+02  0.7546771E-02  0.1286172E+00
         21   -1    0    0  505  502  0.00000000000E+00  0.00000000000E+00  0.10823174957E+04  0.10823174957E+04  0.00000000000E+00 0.  1.
          1   -1    0    0  503    0 -0.00000000000E+00 -0.00000000000E+00 -0.11632661083E+04  0.11632661083E+04  0.00000000000E+00 0. -1.
         21    1    1    2  503  504  0.48382885602E+02 -0.16232876084E+03  0.43873686750E+02  0.17497551430E+03  0.00000000000E+00 0. -1.
         21    1    1    2  504  502 -0.50447168457E+02 -0.25727573521E+01  0.54434877123E+03  0.54668740668E+03  0.00000000000E+00 0.  1.
         21    1    1    2  505  501 -0.95654373267E+01  0.77922465097E+02  0.42199303043E+03  0.42923364953E+03  0.00000000000E+00 0.  1.
          1    1    1    2  501    0  0.11629720181E+02  0.86979053094E+02 -0.10911641010E+04  0.10946870336E+04  0.00000000000E+00 0. -1.
<scales pt_clust_3="97.25715" pt_clust_4="50.51273" pt_clust_5="14000.00000" pt_clust_6="87.72294"></scales>
<clustering>
<clus scale="   50.513">  1  4  2 -1</clus>
<clus scale="   87.723">  2  6  1 -1</clus>
<clus scale="   97.257">  2  3  1 -1</clus>
<clus scale="   50.513">  1  3  2 -1</clus>
</clustering>
</event>
<event>
 6    0  0.2433432E+002  0.1070463E+03  0.7546771E-02  0.1266139E+00
         21   -1    0    0  504  502  0.00000000000E+00  0.00000000000E+00  0.13346107427E+03  0.13346107427E+03  0.00000000000E+00 0. -1.
          1   -1    0    0  503    0 -0.00000000000E+00 -0.00000000000E+00 -0.34801727606E+04  0.34801727606E+04  0.00000000000E+00 0.  1.
         21    1    1    2  503  502  0.16283340128E+02 -0.68353520955E+02  0.92412084361E+02  0.11609196496E+03  0.00000000000E+00 0. -1.
         21    1    1    2  504  505 -0.46653009411E+02 -0.16024001212E+02 -0.47139894396E+02  0.68230796167E+02  0.00000000000E+00 0. -1.
         21    1    1    2  505  501 -0.40204883809E+02  0.16403567616E+02 -0.82998175073E+01  0.44208558937E+02  0.00000000000E+00 0. -1.
          1    1    1    2  501    0  0.70574553091E+02  0.67973954551E+02 -0.33836840588E+04  0.33851025148E+04  0.00000000000E+00 0.  1.
<scales pt_clust_3="70.26629" pt_clust_4="42.21630" pt_clust_5="42.21630" pt_clust_6="97.13038"></scales>
<clustering>
<clus scale="   42.216">  4  5 -1 -1</clus>
<clus scale="   70.266">  1  3  2 -1</clus>
<clus scale="   97.130">  2  6  1 -1</clus>
<clus scale="   70.266">  1  3  2 -1</clus>
</clustering>
</event>
<event>
 6    0  0.2433432E+002  0.3288115E+03  0.7546771E-02  0.1071664E+00
         21   -1    0    0  503  502  0.00000000000E+00  0.00000000000E+00  0.19747047563E+03  0.19747047563E+03  0.00000000000E+00 0. -1.
          2   -1    0    0  505    0 -0.00000000000E+00 -0.00000000000E+00 -0.26000019191E+04  0.26000019191E+04  0.00000000000E+00 0.  1.
         21    1    1    2  503  501  0.49062418986E+02  0.41354357287E+02 -0.44181525433E+02  0.77905782924E+02  0.00000000000E+00 0.  1.
         21    1    1    2  504  502 -0.29912130693E+03 -0.42048028066E+02 -0.98791076803E+01  0.30222374111E+03  0.00000000000E+00 0. -1.
         21    1    1    2  505  504 -0.60157011837E+02  0.30747444356E+02 -0.23431762985E+02  0.71507474604E+02  0.00000000000E+00 0.  1.
          2    1    1    2  501    0  0.31021589978E+03 -0.30053773577E+02 -0.23250390474E+04  0.23458353961E+04  0.00000000000E+00 0.  1.
<scales pt_clust_3="64.16622" pt_clust_4="45.74653" pt_clust_5="45.74653" pt_clust_6="314.26134"></scales>
<clustering>
<clus scale="   45.747">  4  5 -1 -1</clus>
<clus scale="   64.166">  1  3  2 -1</clus>
<clus scale="  314.261">  2  6  1 -1</clus>
<clus scale="   64.166">  1  3  2 -1</clus>
</clustering>
</event>
<event>
 6    0  0.2433432E+002  0.1353002E+03  0.7546771E-02  0.1219797E+00
          2   -1    0    0  504    0 -0.00000000000E+00  0.00000000000E+00  0.19007382077E+04  0.19007382077E+04  0.00000000000E+00 0.  1.
         21   -1    0    0  505  502  0.00000000000E+00 -0.00000000000E+00 -0.24499038340E+02  0.24499038340E+02  0.00000000000E+00 0. -1.
         21    1    1    2  503  501  0.23145012532E+02  0.38631987221E+02  0.83786726464E+02  0.95122750030E+02  0.00000000000E+00 0. -1.
         21    1    1    2  504  502  0.51732238576E+01 -0.41519001189E+02  0.74853377615E+02  0.85753238103E+02  0.00000000000E+00 0. -1.
         21    1    1    2  505  503  0.93847590519E+02  0.10600526191E+02  0.19313312481E+03  0.21498870970E+03  0.00000000000E+00 0. -1.
          2    1    1    2  501    0 -0.12216582691E+03 -0.77135122241E+01  0.15244659405E+04  0.15293725482E+04  0.00000000000E+00 0.  1.
<scales pt_clust_3="40.10695" pt_clust_4="41.84005" pt_clust_5="40.10695" pt_clust_6="122.19954"></scales>
<clustering>
<clus scale="   40.107">  3  5 -1 -1</clus>
<clus scale="   41.840">  2  4  1 -1</clus>
<clus scale="  122.200">  1  6  2 -1</clus>
<clus scale="   41.840">  2  3  1 -1</clus>
</clustering>
</event>
<event>
 6    0  0.2433432E+002  0.1393386E+03  0.7546771E-02  0.1214222E+00
          2   -1    0    0  505    0 -0.00000000000E+00  0.00000000000E+00  0.47927711493E+03  0.47927711493E+03  0.00000000000E+00 0.  1.
         21   -1    0    0  504  502  0.00000000000E+00 -0.00000000000E+00 -0.94273659618E+03  0.94273659618E+03  0.00000000000E+00 0.  1.
         21    1    1    2  503  501  0.70503647828E+02  0.45766537688E+02 -0.58021230149E+02  0.10213620062E+03  0.00000000000E+00 0.  1.
         21    1    1    2  504  503  0.47115320696E+00 -0.19482564741E+03 -0.45250817190E+03  0.49266712952E+03  0.00000000000E+00 0.  1.
         21    1    1    2  505  502 -0.21874527723E+02  0.11408493413E+03 -0.37925412329E+03  0.39664537964E+03  0.00000000000E+00 0.  1.
          2    1    1    2  501    0 -0.49100273312E+02  0.34974175595E+02  0.42632404409E+03  0.43056500133E+03  0.00000000000E+00 0.  1.
<scales pt_clust_3="78.32266" pt_clust_4="14000.00000" pt_clust_5="139.33856" pt_clust_6="60.28291"></scales>
<clustering>
<clus scale="   60.283">  1  6  2 -1</clus>
<clus scale="   78.323">  1  3  2 -1</clus>
<clus scale="  139.339">  2  5  1 -1</clus>
<clus scale="  139.339">  2  3  1 -1</clus>
</clustering>
</event>
<event>
 6    0  0.2433432E+002  0.1254493E+03  0.7546771E-02  0.1234369E+00
         21   -1    0    0  505  502  0.00000000000E+00  0.00000000000E+00  0.60247626396E+02  0.60247626396E+02  0.00000000000E+00 0. -1.
          2   -1    0    0  503    0 -0.00000000000E+00 -0.00000000000E+00 -0.97548238997E+03  0.97548238997E+03  0.00000000000E+00 0. -1.
         21    1    1    2  503  504 -0.13261217502E+02 -0.82514104917E+02 -0.49894302067E+02  0.97333852172E+02  0.00000000000E+00 0. -1.
         21    1    1    2  504  502 -0.35363486675E+02 -0.38098524531E+02 -0.99523307763E+02  0.11228073098E+03  0.00000000000E+00 0.  1.
         21    1    1    2  505  501 -0.29561637341E+02  0.69955167993E+01  0.14529799728E+02  0.33674066248E+02  0.00000000000E+00 0. -1.
          2    1    1    2  501    0  0.78186341517E+02  0.11361711265E+03 -0.78034695347E+03  0.79244136697E+03  0.00000000000E+00 0. -1.
<scales pt_clust_3="125.44934" pt_clust_4="54.82441" pt_clust_5="30.37808" pt_clust_6="14000.00000"></scales>
<clustering>
<clus scale="   30.378">  1  5  2 -1</clus>
<clus scale="   54.824">  1  4  2 -1</clus>
<clus scale="  125.449">  1  3  2 -1</clus>
<clus scale="   30.378">  1  3  2 -1</clus>
</clustering>
</event>
<event>
 6    0  0.2433432E+002  0.1482303E+03  0.7546771E-02  0.1202665E+00
         21   -1    0    0  505  502  0.00000000000E+00  0.00000000000E+00  0.60771758438E+03  0.60771758438E+03  0.00000000000E+00 0. -1.
          1   -1    0    0  503    0 -0.00000000000E+00 -0.00000000000E+00 -0.81781907378E+03  0.81781907378E+03  0.00000000000E+00 0.  1.
         21    1    1    2  503  504 -0.44334854896E+02  0.43755337245E+02  0.19500184219E+03  0.20470912866E+03  0.00000000000E+00 0.  1.
         21    1    1    2  504  502 -0.61505776385E+02  0.29949509871E+02  0.37011037028E+03  0.37637962200E+03  0.00000000000E+00 0. -1.
         21    1    1    2  505  501  0.23664702789E+02  0.42955730229E+02  0.68083344976E+01  0.49513294540E+02  0.00000000000E+00 0.  1.
          1    1    1    2  501    0  0.82175928492E+02 -0.11666057735E+03 -0.78202203636E+03  0.79493461296E+03  0.00000000000E+00 0.  1.
<scales pt_clust_3="39.08459" pt_clust_4="39.08459" pt_clust_5="49.04297" pt_clust_6="142.45894"></scales>
<clustering>
<clus scale="   39.085">  3  4 -1 -1</clus>
<clus scale="   49.043">  1  5  2 -1</clus>
<clus scale="  142.459">  2  6  1 -1</clus>
<clus scale="   49.043">  1  3  2 -1</clus>
</clustering>
</event>
<event>
 6    0  0.2433432E+002  0.2007359E+03  0.7546771E-02  0.1149120E+00
          1   -1    0    0  505    0 -0.00000000000E+00  0.00000000000E+00  0.74692236605E+03  0.74692236605E+03  0.00000000000E+00 0. -1.
         21   -1    0    0  503  502  0.00000000000E+00 -0.00000000000E+00 -0.51668980179E+03  0.51668980179E+03  0.00000000000E+00 0.  1.
         21    1    1    2  503  504  0.17595051179E+03  0.10288424888E+03 -0.42054468222E+03  0.46733454934E+03  0.00000000000E+00 0.  1.
         21    1    1    2  504  501 -0.61044873057E+02  0.68717014487E+02 -0.57041422855E+01  0.92092572153E+02  0.00000000000E+00 0.  1.
         21    1    1    2  505  502 -0.97929858563E+02 -0.14317673767E+03  0.30287150471E+03  0.34902862887E+03  0.00000000000E+00 0. -1.
          1    1    1    2  501    0 -0.16975780170E+02 -0.28424525701E+02  0.35360988405E+03  0.35515641748E+03  0.00000000000E+00 0. -1.
<scales pt_clust_3="14000.00000" pt_clust_4="90.88441" pt_clust_5="200.73593" pt_clust_6="33.10787"></scales>
<clustering>
<clus scale="   33.108">  1  6  2 -1</clus>
<clus scale="   90.884">  1  4  2 -1</clus>
<clus scale="  200.736">  1  5  2 -1</clus>
<clus scale="  200.736">  2  3  1 -1</clus>
</clustering>
</event>
<event>
 6    0  0.2433432E+002  0.1267322E+03  0.7546771E-02  0.1232387E+00
         21   -1    0    0  504  502  0.00000000000E+00  0.00000000000E+00  0.30176584720E+02  0.30176584720E+02  0.00000000000E+00 0.  1.
          2   -1    0    0  503    0 -0.00000000000E+00 -0.00000000000E+00 -0.12329115343E+04  0.12329115343E+04  0.00000000000E+00 0. -1.
         21    1    1    2  503  502  0.35136990176E+02 -0.20447722571E+02 -0.11864768024E+03  0.12541925475E+03  0.00000000000E+00 0. -1.
         21    1    1    2  504  505 -0.18442350831E+02 -0.31594911893E+02 -0.98706985758E+02  0.10526836087E+03  0.00000000000E+00 0.  1.
         21    1    1    2  505  501  0.45079112820E+02 -0.72384650205E+02 -0.81667950219E+02  0.11807335894E+03  0.00000000000E+00 0.  1.
          2    1    1    2  501    0 -0.61773752165E+02  0.12442728467E+03 -0.90371233335E+03  0.91432714445E+03  0.00000000000E+00 0. -1.
<scales pt_clust_3="40.90760" pt_clust_4="36.58359" pt_clust_5="14000.00000" pt_clust_6="126.73221"></scales>
<clustering>
<clus scale="   36.584">  1  4  2 -1</clus>
<clus scale="   40.908">  1  3  2 -1</clus>
<clus scale="  126.732">  2  6  1 -1</clus>
<clus scale="   36.584">  1  3  2 -1</clus>
</clustering>
</event>
<event>
 6    0  0.2433432E+002  0.8378737E+02  0.7546771E-02  0.1318634E+00
          2   -1    0    0  503    0 -0.00000000000E+00  0.00000000000E+00  0.15437887010E+04  0.15437887010E+04  0.00000000000E+00 0.  1.
         21   -1    0    0  504  502  0.00000000000E+00 -0.00000000000E+00 -0.61435145903E+02  0.61435145903E+02  0.00000000000E+00 0.  1.
         21    1    1    2  503  502 -0.72133547029E+01  0.50355771545E+02  0.33542117491E+03  0.33925668865E+03  0.00000000000E+00 0.  1.
         21    1    1    2  504  505  0.22638062660E+02  0.34852641742E+02 -0.36197232703E+02  0.55112867579E+02  0.00000000000E+00 0.  1.
         21    1    1    2  505  501  0.11094081703E+02 -0.12411473639E+03  0.27973998578E+03  0.30623847910E+03  0.00000000000E+00 0.  1.
          2    1    1    2  501    0 -0.26518789660E+02  0.38906323102E+02  0.90338962713E+03  0.90461581160E+03  0.00000000000E+00 0.  1.
<scales pt_clust_3="14000.00000" pt_clust_4="41.55946" pt_clust_5="83.78737" pt_clust_6="47.73126"></scales>
<clustering>
<clus scale="   41.559">  2  4  1 -1</clus>
<clus scale="   47.731">  1  6  2 -1</clus>
<clus scale="   83.787">  2  5  1 -1</clus>
<clus scale="   41.559">  2  3  1 -1</clus>
</clustering>
</event>
<event>
 6    0  0.2433432E+002  0.1186375E+03  0.7546771E-02  0.1245362E+00
          2   -1    0    0  504    0 -0.00000000000E+00  0.00000000000E+00  0.12644420620E+04  0.12644420620E+04  0.00000000000E+00 0. -1.
         21   -1    0    0  503  502  0.00000000000E+00 -0.00000000000E+00 -0.59558651653E+02  0.59558651653E+02  0.00000000000E+00 0.  1.
         21    1    1    2  503  501 -0.11203898764E+02  0.64675522070E+02  0.21405550751E+02  0.69040916169E+02  0.00000000000E+00 0.  1.
         21    1    1    2  504  505  0.60791301945E+02 -0.65454639594E+02  0.12069409513E+03  0.15015644121E+03  0.00000000000E+00 0. -1.
         21    1    1    2  505  502  0.16993845579E+02 -0.76533932263E+02  0.65064096968E+02  0.10188017614E+03  0.00000000000E+00 0. -1.
          2    1    1    2  501    0 -0.66581248759E+02  0.77313049786E+02  0.99771966749E+03  0.10029231801E+04  0.00000000000E+00 0. -1.
<scales pt_clust_3="65.63879" pt_clust_4="49.61633" pt_clust_5="49.61633" pt_clust_6="106.15928"></scales>
<clustering>
<clus scale="   49.616">  4  5 -1 -1</clus>
<clus scale="   65.639">  2  3  1 -1</clus>
<clus scale="  106.159">  1  6  2 -1</clus>
<clus scale="   65.639">  2  3  1 -1</clus>
</clustering>
</event>
<event>
 6    0  0.2433432E+002  0.1447037E+03  0.7546771E-02  0.1207136E+00
          3   -1    0    0  505    0 -0.00000000000E+00  0.00000000000E+00  0.15628912472E+03  0.15628912472E+03  0.00000000000E+00 0.  1.
         21   -1    0    0  504  502  0.00000000000E+00 -0.00000000000E+00 -0.71612471849E+03  0.71612471849E+03  0.00000000000E+00 0. -1.
         21    1    1    2  503  502  0.58232477614E+02  0.70463330245E+01 -0.32340411552E+03  0.32868053516E+03  0.00000000000E+00 0. -1.
         21    1    1    2  504  501 -0.31611475004E+02  0.27591122247E+02 -0.72897610501E+02  0.84110742451E+02  0.00000000000E+00 0. -1.
         21    1    1    2  505  503  0.12146902677E+03 -0.36219227275E+02 -0.25555550319E+03  0.28526333817E+03  0.00000000000E+00 0. -1.
          3    1    1    2  501    0 -0.14809002938E+03  0.15817720031E+01  0.92021635439E+02  0.17435922744E+03  0.00000000000E+00 0.  1.
<scales pt_clust_3="47.08779" pt_clust_4="41.95897" pt_clust_5="144.70371" pt_clust_6="14000.00000"></scales>
<clustering>
<clus scale="   41.959">  2  4  1 -1</clus>
<clus scale="   47.088">  2  3  1 -1</clus>
<clus scale="  144.704">  2  5  1 -1</clus>
<clus scale="   41.959">  2  3  1 -1</clus>
</clustering>
</event>
<event>
 6    0  0.2433432E+002  0.1998870E+03  0.7546771E-02  0.1149834E+00
          2   -1    0    0  505    0 -0.00000000000E+00  0.00000000000E+00  0.24262293893E+04  0.24262293893E+04  0.00000000000E+00 0. -1.
         21   -1    0    0  501  502  0.00000000000E+00 -0.00000000000E+00 -0.48807052604E+03  0.48807052604E+03  0.00000000000E+00 0. -1.
         21    1    1    2  503  502 -0.38243954858E+02  0.26993935939E+02 -0.17678214328E+03  0.18287481741E+03  0.00000000000E+00 0. -1.
         21    1    1    2  504  503  0.53881295215E+02  0.38525154159E+02 -0.43058740205E+02  0.79002763149E+02  0.00000000000E+00 0.  1.
         21    1    1    2  505  504  0.15179173783E+03  0.91388881364E+01 -0.21995976405E+03  0.26740708433E+03  0.00000000000E+00 0. -1.
          2    1    1    2  501    0 -0.16742907818E+03 -0.74657978235E+02  0.23779595107E+04  0.23850152504E+04  0.00000000000E+00 0. -1.
<scales pt_clust_3="46.81103" pt_clust_4="56.39319" pt_clust_5="56.39319" pt_clust_6="183.59476"></scales>
<clustering>
<clus scale="   46.811">  2  3  1 -1</clus>
<clus scale="   56.393">  4  5 -1 -1</clus>
<clus scale="  183.595">  1  6  2 -1</clus>
<clus scale="   46.811">  2  3  1 -1</clus>
</clustering>
</event>
<event>
 6    0  0.2433432E+002  0.9810416E+02  0.7546771E-02  0.1284334E+00
         -1   -1    0    0    0  501 -0.00000000000E+00  0.00000000000E+00  0.64775933143E+03  0.64775933143E+03  0.00000000000E+00 0.  1.
         21   -1    0    0  505  502  0.00000000000E+00 -0.00000000000E+00 -0.44665279815E+03  0.44665279815E+03  0.00000000000E+00 0.  1.
         21    1    1    2  503  501 -0.11322713587E+03 -0.43208310963E+02  0.21081295030E+03  0.24316546311E+03  0.00000000000E+00 0.  1.
         21    1    1    2  504  502  0.78134925460E+02  0.21846928320E+02 -0.40579055404E+03  0.41382161446E+03  0.00000000000E+00 0.  1.
         21    1    1    2  505  503  0.18520483971E+02 -0.38011548956E+02  0.62445166483E+01  0.42742018772E+02  0.00000000000E+00 0. -1.
         -1    1    1    2    0  504  0.16571726434E+02  0.59372931599E+02  0.38983962036E+03  0.39468303324E+03  0.00000000000E+00 0.  1.
<scales pt_clust_3="14000.00000" pt_clust_4="98.10416" pt_clust_5="42.28340" pt_clust_6="61.46364"></scales>
<clustering>
<clus scale="   42.283">  2  5  1 -1</clus>
<clus scale="   61.464">  1  6  2 -1</clus>
<clus scale="   98.104">  2  4  1 -1</clus>
<clus scale="   42.283">  2  3  1 -1</clus>
</clustering>
</event>
<event>
 6    0  0.2433432E+002  0.1316114E+03  0.7546771E-02  0.1225084E+00
         21   -1    0    0  501  502  0.00000000000E+00  0.00000000000E+00  0.37973981491E+03  0.37973981491E+03  0.00000000000E+00 0. -1.
          1   -1    0    0  505    0 -0.00000000000E+00 -0.00000000000E+00 -0.17089260549E+04  0.17089260549E+04  0.00000000000E+00 0. -1.
         21    1    1    2  503  502 -0.17295024808E+02  0.13125343480E+03  0.35715332586E+03  0.38090035469E+03  0.00000000000E+00 0. -1.
         21    1    1    2  504  503 -0.74127908125E+01 -0.59329398450E+02 -0.28844182898E+03  0.29457361676E+03  0.00000000000E+00 0. -1.
         21    1    1    2  505  504  0.17135445947E+02 -0.30178284091E+02 -0.33830421791E+02  0.48464933478E+02  0.00000000000E+00 0. -1.
          1    1    1    2  501    0  0.75723696733E+01 -0.41745752255E+02 -0.13640673151E+04  0.13647269649E+04  0.00000000000E+00 0. -1.
<scales pt_clust_3="131.61145" pt_clust_4="64.75507" pt_clust_5="34.70378" pt_clust_6="14000.00000"></scales>
<clustering>
<clus scale="   34.704">  2  5  1 -1</clus>
<clus scale="   64.755">  2  4  1 -1</clus>
<clus scale="  131.611">  1  3  2 -1</clus>
<clus scale="  131.611">  1  3  2 -1</clus>
</clustering>
</event>
<event>
 6    0  0.2433432E+002  0.1149593E+03  0.7546771E-02  0.1251652E+00
         21   -1    0    0  505  502  0.00000000000E+00  0.00000000000E+00  0.10294233041E+03  0.10294233041E+03  0.00000000000E+00 0.  1.
          1   -1    0    0  503    0 -0.00000000000E+00 -0.00000000000E+00 -0.76014495564E+03  0.76014495564E+03  0.00000000000E+00 0. -1.
         21    1    1    2  503  504 -0.74098320456E+02  0.36560624371E+02 -0.17813032218E+02  0.84525407219E+02  0.00000000000E+00 0.  1.
         21    1    1    2  504  502  0.34126089610E+02  0.17082758080E+02 -0.50173305005E+01  0.38491352549E+02  0.00000000000E+00 0.  1.
         21    1    1    2  505  501 -0.80045316583E+01  0.60322902696E+02  0.27478234455E+02  0.66768094817E+02  0.00000000000E+00 0.  1.
          1    1    1    2  501    0  0.47976762504E+02 -0.11396628515E+03 -0.66185049696E+03  0.67330243147E+03  0.00000000000E+00 0. -1.
<scales pt_clust_3="114.95927" pt_clust_4="38.16295" pt_clust_5="70.47042" pt_clust_6="14000.00000"></scales>
<clustering>
<clus scale="   38.163">  1  4  2 -1</clus>
<clus scale="   70.470">  1  5  2 -1</clus>
<clus scale="  114.959">  1  3  2 -1</clus>
<clus scale="   38.163">  1  3  2 -1</clus>
</clustering>
</event>
<event>
 6    0  0.2433432E+002  0.6988183E+02  0.7546771E-02  0.1360495E+00
         21   -1    0    0  504  502  0.00000000000E+00  0.00000000000E+00  0.24957367057E+03  0.24957367057E+03  0.00000000000E+00 0.  1.
          2   -1    0    0  503    0 -0.00000000000E+00 -0.00000000000E+00 -0.37336727932E+03  0.37336727932E+03  0.00000000000E+00 0.  1.
         21    1    1    2  503  505 -0.11336922202E+03  0.65845036621E+02 -0.17093533728E+03  0.21542293025E+03  0.00000000000E+00 0.  1.
         21    1    1    2  504  501  0.18470955963E+02 -0.37325778798E+02 -0.13662746902E+02  0.43829905658E+02  0.00000000000E+00 0.  1.
         21    1    1    2  505  502  0.61695110025E+02 -0.28941952820E+02  0.20483814137E+03  0.21587632430E+03  0.00000000000E+00 0.  1.
          2    1    1    2  501    0  0.33203156027E+02  0.42269499757E+00 -0.14403366595E+03  0.14781178968E+03  0.00000000000E+00 0.  1.
<scales pt_clust_3="69.88183" pt_clust_4="43.62386" pt_clust_5="14000.00000" pt_clust_6="33.20585"></scales>
<clustering>
<clus scale="   33.206">  2  6  1 -1</clus>
<clus scale="   43.624">  2  4  1 -1</clus>
<clus scale="   69.882">  2  3  1 -1</clus>
<clus scale="   69.882">  1  3  2 -1</clus>
</clustering>
</event>
<event>
 6    0  0.2433432E+002  0.1052909E+03  0.7546771E-02  0.1269548E+00
         21   -1    0    0  505  502  0.00000000000E+00  0.00000000000E+00  0.62463092712E+02  0.62463092712E+02  0.00000000000E+00 0. -1.
          2   -1    0    0  504    0 -0.00000000000E+00 -0.00000000000E+00 -0.28150507180E+04  0.28150507180E+04  0.00000000000E+00 0.  1.
         21    1    1    2  503  502 -0.74050631307E+02  0.55247804997E+02  0.35675295655E+01  0.92458332351E+02  0.00000000000E+00 0. -1.
         21    1    1    2  504  503 -0.42946252451E+01 -0.55711732335E+02 -0.22966375288E+03  0.23636344961E+03  0.00000000000E+00 0.  1.
         21    1    1    2  505  501 -0.28359052855E+02 -0.22717451316E+02 -0.23397580953E+02  0.43217649954E+02  0.00000000000E+00 0. -1.
          2    1    1    2  501    0  0.10670430941E+03  0.23181378654E+02 -0.25030938210E+04  0.25054743787E+04  0.00000000000E+00 0.  1.
<scales pt_clust_3="105.29091" pt_clust_4="57.48461" pt_clust_5="36.33619" pt_clust_6="14000.00000"></scales>
<clustering>
<clus scale="   36.336">  1  5  2 -1</clus>
<clus scale="   57.485">  2  4  1 -1</clus>
<clus scale="  105.291">  1  3  2 -1</clus>
<clus scale="   36.336">  1  3  2 -1</clus>
</clustering>
</event>
<event>
 6    0  0.2433432E+002  0.1183249E+03  0.7546771E-02  0.1245886E+00
          1   -1    0    0  502    0 -0.00000000000E+00  0.00000000000E+00  0.29433260500E+03  0.29433260500E+03  0.00000000000E+00 0. -1.
         21   -1    0    0  503  502  0.00000000000E+00 -0.00000000000E+00 -0.86294627611E+03  0.86294627611E+03  0.00000000000E+00 0. -1.
         21    1    1    2  503  504 -0.40777433561E+02 -0.15034163429E+02 -0.72443041812E+03  0.72573290945E+03  0.00000000000E+00 0. -1.
         21    1    1    2  504  505  0.44905468254E+02  0.51609436562E+02  0.10579089215E+02  0.69223927583E+02  0.00000000000E+00 0. -1.
         21    1    1    2  505  501  0.51204342049E+02  0.73890257718E+02 -0.70140691733E+02  0.11402355663E+03  0.00000000000E+00 0. -1.
          1    1    1    2  501    0 -0.55332376742E+02 -0.11046553085E+03  0.21537834953E+03  0.24829848745E+03  0.00000000000E+00 0. -1.
<scales pt_clust_3="43.46062" pt_clust_4="60.46900" pt_clust_5="118.32492" pt_clust_6="14000.00000"></scales>
<clustering>
<clus scale="   43.461">  2  3  1 -1</clus>
<clus scale="   60.469">  2  4  1 -1</clus>
<clus scale="  118.325">  2  5  1 -1</clus>
<clus scale="   43.461">  2  3  1 -1</clus>
</clustering>
</event>
<event>
 6    0  0.2433432E+002  0.1207438E+03  0.7546771E-02  0.1241875E+00
         21   -1    0    0  503  502  0.00000000000E+00  0.00000000000E+00  0.10792480511E+04  0.10792480511E+04  0.00000000000E+00 0. -1.
          2   -1    0    0  504    0 -0.00000000000E+00 -0.00000000000E+00 -0.18480630408E+04  0.18480630408E+04  0.00000000000E+00 0.  1.
         21    1    1    2  503  505  0.67874009409E+02 -0.24781246258E+02  0.13636002818E+03  0.15432125130E+03  0.00000000000E+00 0.  1.
         21    1    1    2  504  502  0.91092594645E+02  0.36476442672E+02  0.84822001941E+03  0.85387680200E+03  0.00000000000E+00 0. -1.
         21    1    1    2  505  501 -0.51971569973E+02 -0.67942318783E+02  0.58217548736E+02  0.10347214962E+03  0.00000000000E+00 0. -1.
          2    1    1    2  501    0 -0.10699503408E+03  0.56247122369E+02 -0.18116125860E+04  0.18156408890E+04  0.00000000000E+00 0.  1.
<scales pt_clust_3="72.25643" pt_clust_4="120.74379" pt_clust_5="83.88743" pt_clust_6="14000.00000"></scales>
<clustering>
<clus scale="   72.256">  1  3  2 -1</clus>
<clus scale="   83.887">  1  5  2 -1</clus>
<clus scale="  120.744">  1  4  2 -1</clus>
<clus scale="   72.256">  1  3  2 -1</clus>
</clustering>
</event>
<event>
 6    0  0.2433432E+002  0.6933354E+02  0.7546771E-02  0.1362374E+00
         21   -1    0    0  505  502  0.00000000000E+00  0.00000000000E+00  0.36328497073E+03  0.36328497073E+03  0.00000000000E+00 0. -1.
          1   -1    0    0  503    0 -0.00000000000E+00 -0.00000000000E+00 -0.10212179422E+04  0.10212179422E+04  0.00000000000E+00 0.  1.
         21    1    1    2  503  502  0.22777154308E+02  0.56948952176E+02  0.17231279110E+02  0.63709488243E+02  0.00000000000E+00 0. -1.
         21    1    1    2  504  501  0.20970939265E+02 -0.73931848624E+02  0.22352740093E+03  0.23636877438E+03  0.00000000000E+00 0. -1.
         21    1    1    2  505  504 -0.34600675867E+02 -0.51708466866E+02  0.81082742214E+02  0.10220265848E+03  0.00000000000E+00 0. -1.
          1    1    1    2  501    0 -0.91474177061E+01  0.68691363313E+02 -0.97977439375E+03  0.98222199186E+03  0.00000000000E+00 0.  1.
<scales pt_clust_3="61.33500" pt_clust_4="14000.00000" pt_clust_5="45.32931" pt_clust_6="69.33354"></scales>
<clustering>
<clus scale="   61.335">  1  3  2 -1</clus>
<clus scale="   45.329">  1  5  2 -1</clus>
<clus scale="   69.334">  2  6  1 -1</clus>
<clus scale="   61.335">  1  3  2 -1</clus>
</clustering>
</event>
<event>
 6    0  0.2433432E+002  0.2093309E+03  0.7546771E-02  0.1142097E+00
          1   -1    0    0  504    0 -0.00000000000E+00  0.00000000000E+00  0.13384079570E+04  0.13384079570E+04  0.00000000000E+00 0. -1.
         21   -1    0    0  505  502  0.00000000000E+00 -0.00000000000E+00 -0.19550996066E+03  0.19550996066E+03  0.00000000000E+00 0.  1.
         21    1    1    2  503  501  0.99589007181E+02  0.14990108571E+03  0.14355274479E+03  0.23020794162E+03  0.00000000000E+00 0.  1.
         21    1    1    2  504  502 -0.33369113274E+02 -0.24760381475E+03  0.81773883754E+03  0.85505435688E+03  0.00000000000E+00 0. -1.
         21    1    1    2  505  503 -0.63192020792E+01  0.45926063940E+02 -0.12430275613E+03  0.13266616315E+03  0.00000000000E+00 0.  1.
          1    1    1    2  501    0 -0.59900691828E+02  0.51776665099E+02  0.30590917011E+03  0.31598945597E+03  0.00000000000E+00 0. -1.
<scales pt_clust_3="209.33092" pt_clust_4="14000.00000" pt_clust_5="46.35877" pt_clust_6="81.82677"></scales>
<clustering>
<clus scale="   46.359">  2  5  1 -1</clus>
<clus scale="   81.827">  1  6  2 -1</clus>
<clus scale="  209.331">  2  3  1 -1</clus>
<clus scale="   46.359">  2  3  1 -1</clus>
</clustering>
</event>
<event>
 6    0  0.2433432E+002  0.5602826E+02  0.7546771E-02  0.1415298E+00
         21   -1    0    0  504  502  0.00000000000E+00  0.00000000000E+00  0.52869771717E+02  0.52869771717E+02  0.00000000000E+00 0. -1.
          1   -1    0    0  503    0 -0.00000000000E+00 -0.00000000000E+00 -0.14643505247E+04  0.14643505247E+04  0.00000000000E+00 0.  1.
         21    1    1    2  503  502  0.19318009610E+02  0.48828993178E+02  0.17715810107E+02  0.55419364827E+02  0.00000000000E+00 0. -1.
         21    1    1    2  504  505 -0.29099472934E+02 -0.11982282740E+03 -0.34430591657E+03  0.36571963780E+03  0.00000000000E+00 0. -1.
         21    1    1    2  505  501  0.21327594975E+02  0.42834666807E+02 -0.10143619080E+03  0.11215603324E+03  0.00000000000E+00 0. -1.
          1    1    1    2  501    0 -0.11546131651E+02  0.28159167418E+02 -0.98345445573E+03  0.98392526056E+03  0.00000000000E+00 0.  1.
<scales pt_clust_3="14000.00000" pt_clust_4="56.02826" pt_clust_5="52.55445" pt_clust_6="30.43439"></scales>
<clustering>
<clus scale="   30.434">  2  6  1 -1</clus>
<clus scale="   52.554">  2  5  1 -1</clus>
<clus scale="   56.028">  2  4  1 -1</clus>
<clus scale="   56.028">  1  3  2 -1</clus>
</clustering>
</event>
<event>
 6    0  0.2433432E+002  0.9314181E+02  0.7546771E-02  0.1295417E+00
         21   -1    0    0  504  502  0.00000000000E+00  0.00000000000E+00  0.41103154258E+02  0.41103154258E+02  0.00000000000E+00 0. -1.
          1   -1    0    0  505    0 -0.00000000000E+00 -0.00000000000E+00 -0.25408962901E+04  0.25408962901E+04  0.00000000000E+00 0. -1.
         21    1    1    2  503  502 -0.73385592600E+01 -0.32337146789E+02  0.24528872178E+02  0.41245740201E+02  0.00000000000E+00 0. -1.
         21    1    1    2  504  501  0.28091022613E+02 -0.95958309666E+02 -0.90186382292E+03  0.90738936397E+03  0.00000000000E+00 0. -1.
         21    1    1    2  505  503  0.50649009341E+02  0.95347967555E+02 -0.82395470081E+03  0.83099813842E+03  0.00000000000E+00 0. -1.
          1    1    1    2  501    0 -0.71401472694E+02  0.32947488901E+02 -0.79850348432E+03  0.80236620180E+03  0.00000000000E+00 0. -1.
<scales pt_clust_3="33.15940" pt_clust_4="14000.00000" pt_clust_5="93.14181" pt_clust_6="77.39449"></scales>
<clustering>
<clus scale="   33.159">  1  3  2 -1</clus>
<clus scale="   77.394">  2  6  1 -1</clus>
<clus scale="   93.142">  1  5  2 -1</clus>
<clus scale="   33.159">  1  3  2 -1</clus>
</clustering>
</event>
<event>
 6    0  0.2433432E+002  0.1593533E+03  0.7546771E-02  0.1189429E+00
         21   -1    0    0  504  502  0.00000000000E+00  0.00000000000E+00  0.32332187606E+04  0.32332187606E+04  0.00000000000E+00 0. -1.
          1   -1    0    0  503    0 -0.00000000000E+00 -0.00000000000E+00 -0.30339550140E+03  0.30339550140E+03  0.00000000000E+00 0. -1.
         21    1    1    2  503  505 -0.22688192558E+03  0.56285904918E+02  0.22378382239E+04  0.22500140950E+04  0.00000000000E+00 0. -1.
         21    1    1    2  504  501  0.70584557651E+02  0.41621322886E+01  0.13602076080E+03  0.15330084962E+03  0.00000000000E+00 0. -1.
         21    1    1    2  505  502  0.51715774815E+02  0.59358329745E+02  0.82070113623E+03  0.82446848799E+03  0.00000000000E+00 0. -1.
          1    1    1    2  501    0  0.10458159311E+03 -0.11980636695E+03 -0.26473686178E+03  0.30883082936E+03  0.00000000000E+00 0. -1.
<scales pt_clust_3="159.35330" pt_clust_4="70.70716" pt_clust_5="92.89011" pt_clust_6="14000.00000"></scales>
<clustering>
<clus scale="   70.707">  1  4  2 -1</clus>
<clus scale="   92.890">  1  5  2 -1</clus>
<clus scale="  159.353">  1  3  2 -1</clus>
<clus scale="   70.707">  1  3  2 -1</clus>
</clustering>
</event>
<event>
 6    0  0.2433432E+002  0.1089190E+03  0.7546771E-02  0.1262585E+00
          2   -1    0    0  504    0 -0.00000000000E+00  0.00000000000E+00  0.27973722591E+04  0.27973722591E+04  0.00000000000E+00 0.  1.
         21   -1    0    0  503  502  0.00000000000E+00 -0.00000000000E+00 -0.82239912232E+02  0.82239912232E+02  0.00000000000E+00 0.  1.
         21    1    1    2  503  505  0.61002218198E+02  0.61437746512E+02 -0.52584740662E+01  0.86738220359E+02  0.00000000000E+00 0.  1.
         21    1    1    2  504  502 -0.54492444804E+02  0.59171473144E+02  0.13025162391E+02  0.81488309775E+02  0.00000000000E+00 0.  1.
         21    1    1    2  505  501  0.26161714524E+01 -0.68111094058E+02  0.69950438477E+03  0.70281743704E+03  0.00000000000E+00 0.  1.
          2    1    1    2  501    0 -0.91259448465E+01 -0.52498125598E+02  0.20078612738E+04  0.20085682042E+04  0.00000000000E+00 0.  1.
<scales pt_clust_3="14000.00000" pt_clust_4="78.53912" pt_clust_5="108.91896" pt_clust_6="53.28542"></scales>
<clustering>
<clus scale="   53.285">  1  6  2 -1</clus>
<clus scale="   78.539">  2  4  1 -1</clus>
<clus scale="  108.919">  1  5  2 -1</clus>
<clus scale="   78.539">  2  3  1 -1</clus>
</clustering>
</event>
<event>
 6    0  0.2433432E+002  0.1406843E+03  0.7546771E-02  0.1212411E+00
         -1   -1    0    0    0  501 -0.00000000000E+00  0.00000000000E+00  0.18883300947E+03  0.18883300947E+03  0.00000000000E+00 0.  1.
         21   -1    0    0  504  502  0.00000000000E+00 -0.00000000000E+00 -0.34155759939E+03  0.34155759939E+03  0.00000000000E+00 0.  1.
         21    1    1    2  503  505  0.11667126329E+03 -0.10775607791E+02 -0.59084776834E+02  0.13122236187E+03  0.00000000000E+00 0.  1.
         21    1    1    2  504  503  0.44622011673E+02  0.13843414871E+02 -0.18052310990E+03  0.18647079468E+03  0.00000000000E+00 0.  1.
         21    1    1    2  505  501 -0.15300560112E+02  0.32301274629E+02 -0.57710435459E+01  0.36204756953E+02  0.00000000000E+00 0.  1.
         -1    1    1    2    0  502 -0.14599271485E+03 -0.35369081709E+02  0.92654340354E+02  0.17649269536E+03  0.00000000000E+00 0.  1.
<scales pt_clust_3="140.68430" pt_clust_4="46.63763" pt_clust_5="35.74184" pt_clust_6="14000.00000"></scales>
<clustering>
<clus scale="   35.742">  1  5  2 -1</clus>
<clus scale="   46.638">  2  4  1 -1</clus>
<clus scale="  140.684">  2  3  1 -1</clus>
<clus scale="   46.638">  2  3  1 -1</clus>
</clustering>
</event>
<event>
 6    0  0.2433432E+002  0.9662806E+02  0.7546771E-02  0.1287551E+00
         21   -1    0    0  504  502  0.00000000000E+00  0.00000000000E+00  0.11171730422E+04  0.11171730422E+04  0.00000000000E+00 0. -1.
          2   -1    0    0  503    0 -0.00000000000E+00 -0.00000000000E+00 -0.86860396457E+02  0.86860396457E+02  0.00000000000E+00 0. -1.
         21    1    1    2  503  505  0.76172547102E+02  0.42873029743E+02  0.16697121842E+03  0.18846681775E+03  0.00000000000E+00 0. -1.
         21    1    1    2  504  501 -0.91986027851E+02 -0.56648797365E+02  0.63018786951E+03  0.63938037696E+03  0.00000000000E+00 0. -1.
         21    1    1    2  505  502 -0.13032847968E+02  0.52831992943E+02  0.29363047552E+03  0.29863009017E+03  0.00000000000E+00 0. -1.
          2    1    1    2  501    0  0.28846328718E+02 -0.39056225322E+02 -0.60476917692E+02  0.77556153788E+02  0.00000000000E+00 0. -1.
<scales pt_clust_3="14000.00000" pt_clust_4="96.62806" pt_clust_5="48.20648" pt_clust_6="48.55409"></scales>
<clustering>
<clus scale="   48.554">  2  6  1 -1</clus>
<clus scale="   48.206">  1  5  2 -1</clus>
<clus scale="   96.628">  1  4  2 -1</clus>
<clus scale="   48.206">  1  3  2 -1</clus>
</clustering>
</event>
<event>
 6    0  0.2433432E+002  0.8226913E+02  0.7546771E-02  0.1322733E+00
         -4   -1    0    0    0  501 -0.00000000000E+00  0.00000000000E+00  0.82403339969E+03  0.82403339969E+03  0.00000000000E+00 0.  1.
         21   -1    0    0  503  502  0.00000000000E+00 -0.00000000000E+00 -0.26962991942E+03  0.26962991942E+03  0.00000000000E+00 0. -1.
         21    1    1    2  503  504  0.62581768039E+02  0.24924481161E+02  0.10111119650E+03  0.12149560284E+03  0.00000000000E+00 0. -1.
         21    1    1    2  504  501  0.33011446642E+02 -0.21826703710E+02  0.16702894603E+03  0.17165322431E+03  0.00000000000E+00 0.  1.
         21    1    1    2  505  502 -0.14027708325E+02  0.54381806100E+02 -0.24939549991E+03  0.25564090598E+03  0.00000000000E+00 0. -1.
         -4    1    1    2    0  505 -0.81565506356E+02 -0.57479583551E+02  0.53565883765E+03  0.54487358599E+03  0.00000000000E+00 0.  1.
<scales pt_clust_3="82.26913" pt_clust_4="39.57475" pt_clust_5="56.02189" pt_clust_6="14000.00000"></scales>
<clustering>
<clus scale="   39.575">  1  4  2 -1</clus>
<clus scale="   56.022">  2  5  1 -1</clus>
<clus scale="   82.269">  2  3  1 -1</clus>
<clus scale="   56.022">  2  3  1 -1</clus>
</clustering>
</event>
<event>
 6    0  0.2433432E+002  0.1767239E+03  0.7546771E-02  0.1171012E+00
          2   -1    0    0  505    0 -0.00000000000E+00  0.00000000000E+00  0.20873801235E+04  0.20873801235E+04  0.00000000000E+00 0.  1.
         21   -1    0    0  504  502  0.00000000000E+00 -0.00000000000E+00 -0.39272114289E+03  0.39272114289E+03  0.00000000000E+00 0. -1.
         21    1    1    2  503  502 -0.21307907522E+03 -0.44519336249E+02  0.16712026127E+04  0.16853198024E+04  0.00000000000E+00 0.  1.
         21    1    1    2  504  501  0.17305640079E+03 -0.34204856795E+02 -0.32494605805E+03  0.36974103197E+03  0.00000000000E+00 0. -1.
         21    1    1    2  505  503 -0.84104557809E+02  0.14037281180E+02  0.21660545767E+03  0.23278433409E+03  0.00000000000E+00 0.  1.
          2    1    1    2  501    0  0.12412723224E+03  0.64686911864E+02  0.13179696832E+03  0.19225609797E+03  0.00000000000E+00 0.  1.
<scales pt_clust_3="176.72394" pt_clust_4="14000.00000" pt_clust_5="85.26794" pt_clust_6="134.12215"></scales>
<clustering>
<clus scale="   85.268">  1  5  2 -1</clus>
<clus scale="  134.122">  1  6  2 -1</clus>
<clus scale="  176.724">  1  3  2 -1</clus>
<clus scale="  176.724">  2  3  1 -1</clus>
</clustering>
</event>
<event>
 6    0  0.2433432E+002  0.1283757E+03  0.7546771E-02  0.1229886E+00
         21   -1    0    0  504  502  0.00000000000E+00  0.00000000000E+00  0.71381996632E+03  0.71381996632E+03  0.00000000000E+00 0. -1.
         -2   -1    0    0    0  501 -0.00000000000E+00 -0.00000000000E+00 -0.15037037383E+03  0.15037037383E+03  0.00000000000E+00 0. -1.
         21    1    1    2  503  502 -0.25338507274E+02  0.26537397791E+02  0.26389930277E+03  0.26643782658E+03  0.00000000000E+00 0. -1.
         21    1    1    2  504  501  0.73366923164E+02  0.29759821693E+01  0.18959522540E+03  0.20331726779E+03  0.00000000000E+00 0. -1.
         21    1    1    2  505  503 -0.24030785998E+02  0.10168001100E+03  0.20538979885E+03  0.23043713412E+03  0.00000000000E+00 0. -1.
         -2    1    1    2    0  505 -0.23997629893E+02 -0.13119339096E+03 -0.95434734522E+02  0.16399811165E+03  0.00000000000E+00 0. -1.
<scales pt_clust_3="36.69160" pt_clust_4="63.95943" pt_clust_5="128.37566" pt_clust_6="14000.00000"></scales>
<clustering>
<clus scale="   36.692">  1  3  2 -1</clus>
<clus scale="   63.959">  1  4  2 -1</clus>
<clus scale="  128.376">  1  5  2 -1</clus>
<clus scale="   36.692">  1  3  2 -1</clus>
</clustering>
</event>
<event>
 6    0  0.2433432E+002  0.1321110E+03  0.7546771E-02  0.1224357E+00
          1   -1    0    0  503    0 -0.00000000000E+00  0.00000000000E+00  0.28009892677E+03  0.28009892677E+03  0.00000000000E+00 0. -1.
         21   -1    0    0  504  502  0.00000000000E+00 -0.00000000000E+00 -0.48408312285E+03  0.48408312285E+03  0.00000000000E+00 0. -1.
         21    1    1    2  503  505  0.93002772677E+02  0.32583495139E+02  0.18144057610E+01  0.98562122285E+02  0.00000000000E+00 0. -1.
         21    1    1    2  504  501 -0.49904516506E+02  0.21970706898E+02 -0.46302137350E+02  0.71533633016E+02  0.00000000000E+00 0.  1.
         21    1    1    2  505  502 -0.83147163975E+02  0.39596585916E+02 -0.35859769769E+03  0.37023458682E+03  0.00000000000E+00 0. -1.
          1    1    1    2  501    0  0.40048907804E+02 -0.94150787953E+02  0.19910123320E+03  0.22385170750E+03  0.00000000000E+00 0. -1.
<scales pt_clust_3="94.10875" pt_clust_4="54.52681" pt_clust_5="132.11102" pt_clust_6="14000.00000"></scales>
<clustering>
<clus scale="   54.527">  2  4  1 -1</clus>
<clus scale="   94.109">  1  3  2 -1</clus>
<clus scale="  132.111">  2  5  1 -1</clus>
<clus scale="   54.527">  2  3  1 -1</clus>
</clustering>
</event>
<event>
 6    0  0.2433432E+002  0.7914532E+02  0.7546771E-02  0.1331495E+00
         -1   -1    0    0    0  501 -0.00000000000E+00  0.00000000000E+00  0.42077098452E+03  0.42077098452E+03  0.00000000000E+00 0.  1.
         21   -1    0    0  504  502  0.00000000000E+00 -0.00000000000E+00 -0.73460380992E+02  0.73460380992E+02  0.00000000000E+00 0.  1.
         21    1    1    2  503  501  0.49752188783E+02  0.52718563884E+02  0.11344904528E+03  0.13462991176E+03  0.00000000000E+00 0.  1.
         21    1    1    2  504  503  0.63246326228E+02  0.55340246913E+01  0.17069544870E+02  0.65742623714E+02  0.00000000000E+00 0.  1.
         21    1    1    2  505  502 -0.10924017421E+03 -0.23493325016E+02  0.48218353876E+02  0.12169782920E+03  0.00000000000E+00 0.  1.
         -1    1    1    2    0  505 -0.37583407994E+01 -0.34759263560E+02  0.16857365950E+03  0.17216100083E+03  0.00000000000E+00 0.  1.
<scales pt_clust_3="59.61348" pt_clust_4="79.14532" pt_clust_5="14000.00000" pt_clust_6="34.96186"></scales>
<clustering>
<clus scale="   34.962">  1  6  2 -1</clus>
<clus scale="   59.613">  1  3  2 -1</clus>
<clus scale="   79.145">  2  4  1 -1</clus>
<clus scale="   79.145">  2  3  1 -1</clus>
</clustering>
</event>
<event>
 6    0  0.2433432E+002  0.1309748E+03  0.7546771E-02  0.1226016E+00
         -4   -1    0    0    0  501 -0.00000000000E+00  0.00000000000E+00  0.65287194949E+03  0.65287194949E+03  0.00000000000E+00 0. -1.
         21   -1    0    0  505  502  0.00000000000E+00 -0.00000000000E+00 -0.10606362091E+04  0.10606362091E+04  0.00000000000E+00 0.  1.
         21    1    1    2  503  504 -0.20480338629E+03 -0.86622182298E+02 -0.21898615780E+03  0.31209416337E+03  0.00000000000E+00 0.  1.
         21    1    1    2  504  502  0.42656525785E+02  0.18843316208E+02 -0.56828622250E+03  0.57019635253E+03  0.00000000000E+00 0.  1.
         21    1    1    2  505  501  0.33597032816E+02  0.81387264960E+02 -0.20999532073E+03  0.22770744880E+03  0.00000000000E+00 0.  1.
         -4    1    1    2    0  503  0.12854982769E+03 -0.13608398869E+02  0.58950344140E+03  0.60351019390E+03  0.00000000000E+00 0. -1.
<scales pt_clust_3="130.97478" pt_clust_4="46.63314" pt_clust_5="104.05082" pt_clust_6="14000.00000"></scales>
<clustering>
<clus scale="   46.633">  2  4  1 -1</clus>
<clus scale="  104.051">  2  5  1 -1</clus>
<clus scale="  130.975">  2  3  1 -1</clus>
<clus scale="   46.633">  2  3  1 -1</clus>
</clustering>
</event>
<event>
 6    0  0.2433432E+002  0.1507104E+03  0.7546771E-02  0.1199603E+00
          1   -1    0    0  503    0 -0.00000000000E+00  0.00000000000E+00  0.24983265300E+03  0.24983265300E+03  0.00000000000E+00 0. -1.
         21   -1    0    0  504  502  0.00000000000E+00 -0.00000000000E+00 -0.90626941702E+02  0.90626941702E+02  0.00000000000E+00 0. -1.
         21    1    1    2  503  505 -0.58147466742E+02  0.16240486486E+02  0.47218867457E+02  0.76645304708E+02  0.00000000000E+00 0. -1.
         21    1    1    2  504  501  0.85563932515E+02 -0.98955959309E+01  0.25467639215E+02  0.89820432049E+02  0.00000000000E+00 0.  1.
         21    1    1    2  505  502 -0.86060807296E+02 -0.14901881420E+02  0.30698525545E+02  0.92579307045E+02  0.00000000000E+00 0. -1.
          1    1    1    2  501    0  0.58644341524E+02  0.85569908647E+01  0.55820679083E+02  0.81414550903E+02  0.00000000000E+00 0. -1.
<scales pt_clust_3="34.95872" pt_clust_4="36.30686" pt_clust_5="150.21934" pt_clust_6="36.30686"></scales>
<clustering>
<clus scale="   34.959">  3  5 -1 -1</clus>
<clus scale="   36.307">  4  6 -1 -1</clus>
<clus scale="  150.219">  2  3  1 -1</clus>
<clus scale="  150.219">  2  3  1 -1</clus>
</clustering>
</event>
<event>
 6    0  0.2433432E+002  0.2204249E+03  0.7546771E-02  0.1133567E+00
          2   -1    0    0  505    0 -0.00000000000E+00  0.00000000000E+00  0.25393788820E+04  0.25393788820E+04  0.00000000000E+00 0.  1.
         21   -1    0    0  503  502  0.00000000000E+00 -0.00000000000E+00 -0.10915084752E+03  0.10915084752E+03  0.00000000000E+00 0.  1.
         21    1    1    2  503  504  0.20475283422E+02  0.10171278859E+03  0.91488834746E+02  0.13832908399E+03  0.00000000000E+00 0.  1.
         21    1    1    2  504  501 -0.14316486531E+03 -0.12156618068E+03  0.34135578418E+03  0.38961299560E+03  0.00000000000E+00 0. -1.
         21    1    1    2  505  502  0.27695976401E+03 -0.51624362547E+01  0.27228059463E+03  0.38841998383E+03  0.00000000000E+00 0.  1.
          2    1    1    2  501    0 -0.15427018212E+03  0.25015828352E+02  0.17251028209E+04  0.17321676661E+04  0.00000000000E+00 0.  1.
<scales pt_clust_3="103.75321" pt_clust_4="14000.00000" pt_clust_5="220.42485" pt_clust_6="156.18173"></scales>
<clustering>
<clus scale="  103.753">  2  3  1 -1</clus>
<clus scale="  156.182">  1  6  2 -1</clus>
<clus scale="  220.425">  1  5  2 -1</clus>
<clus scale="  103.753">  2  3  1 -1</clus>
</clustering>
</event>
<event>
 6    0  0.2433432E+002  0.1467276E+03  0.7546771E-02  0.1204553E+00
          1   -1    0    0  504    0 -0.00000000000E+00  0.00000000000E+00  0.12879107556E+04  0.12879107556E+04  0.00000000000E+00 0.  1.
         21   -1    0    0  505  502  0.00000000000E+00 -0.00000000000E+00 -0.56715347853E+02  0.56715347853E+02  0.00000000000E+00 0.  1.
         21    1    1    2  503  501  0.46971998927E+02  0.56449948530E+02  0.10274172734E+02  0.74152032998E+02  0.00000000000E+00 0.  1.
         21    1    1    2  504  502  0.22428578942E+02  0.32891258619E+02  0.68124635073E+02  0.78904004656E+02  0.00000000000E+00 0.  1.
         21    1    1    2  505  503  0.41516309960E+02 -0.29503455130E+01  0.13681875806E+02  0.43812124542E+02  0.00000000000E+00 0. -1.
          1    1    1    2  501    0 -0.11091688783E+03 -0.86390861636E+02  0.11391147241E+04  0.11477579412E+04  0.00000000000E+00 0.  1.
<scales pt_clust_3="38.74912" pt_clust_4="39.81050" pt_clust_5="38.74912" pt_clust_6="137.40355"></scales>
<clustering>
<clus scale="   38.749">  3  5 -1 -1</clus>
<clus scale="   39.811">  2  4  1 -1</clus>
<clus scale="  137.404">  1  6  2 -1</clus>
<clus scale="   39.811">  2  3  1 -1</clus>
</clustering>
</event>
<event>
 6    0  0.3378849E+002  0.1052336E+03  0.7546771E-02  0.1269660E+00
          1   -1    0    0  505    0 -0.00000000000E+00  0.00000000000E+00  0.25194863607E+04  0.25194863607E+04  0.00000000000E+00 0.  1.
         21   -1    0    0  503  502  0.00000000000E+00 -0.00000000000E+00 -0.42085225902E+03  0.42085225902E+03  0.00000000000E+00 0.  1.
         21    1    1    2  503  504  0.33430058779E+02 -0.68127555762E+01 -0.17842054071E+02  0.38500926768E+02  0.00000000000E+00 0. -1.
         21    1    1    2  504  501 -0.83471456795E+02  0.29029045845E+01  0.20455725031E+02  0.85990392725E+02  0.00000000000E+00 0. -1.
         21    1    1    2  505  502 -0.13119327897E+02  0.88186860436E+02 -0.35324288227E+03  0.36432070074E+03  0.00000000000E+00 0.  1.
          1    1    1    2  501    0  0.63160725913E+02 -0.84277009444E+02  0.24492633130E+04  0.24515265994E+04  0.00000000000E+00 0.  1.
<scales pt_clust_3="34.11719" pt_clust_4="80.71564" pt_clust_5="14000.00000" pt_clust_6="105.23361"></scales>
<clustering>
<clus scale="   34.117">  2  3  1 -1</clus>
<clus scale="   80.716">  2  4  1 -1</clus>
<clus scale="  105.234">  1  6  2 -1</clus>
<clus scale="   34.117">  2  3  1 -1</clus>
</clustering>
</event>
<event>
 6    0  0.2433432E+002  0.1194351E+03  0.7546771E-02  0.1244032E+00
         21   -1    0    0  504  502  0.00000000000E+00  0.00000000000E+00  0.41132875575E+02  0.41132875575E+02  0.00000000000E+00 0. -1.
          1   -1    0    0  505    0 -0.00000000000E+00 -0.00000000000E+00 -0.11226505447E+04  0.11226505447E+04  0.00000000000E+00 0.  1.
         21    1    1    2  503  502  0.20559968205E+02  0.59911882882E+02 -0.21389245326E+03  0.22307426468E+03  0.00000000000E+00 0.  1.
         21    1    1    2  504  501  0.57124266455E+01 -0.11269890184E+03 -0.57488535887E+02  0.12664361829E+03  0.00000000000E+00 0. -1.
         21    1    1    2  505  503  0.46461404487E+01  0.42698897760E+02 -0.32281242868E+03  0.32565725326E+03  0.00000000000E+00 0. -1.
          1    1    1    2  501    0 -0.30918535299E+02  0.10088121203E+02 -0.48732425126E+03  0.48840828400E+03  0.00000000000E+00 0.  1.
<scales pt_clust_3="38.04348" pt_clust_4="111.24255" pt_clust_5="38.04348" pt_clust_6="32.52270"></scales>
<clustering>
<clus scale="   32.523">  2  6  1 -1</clus>
<clus scale="   38.043">  3  5 -1 -1</clus>
<clus scale="  111.243">  1  4  2 -1</clus>
<clus scale="  111.243">  1  3  2 -1</clus>
</clustering>
</event>
<event>
 6    0  0.2433432E+002  0.1304524E+03  0.7546771E-02  0.1226786E+00
         21   -1    0    0  503  502  0.00000000000E+00  0.00000000000E+00  0.14734571027E+03  0.14734571027E+03  0.00000000000E+00 0.  1.
          2   -1    0    0  504    0 -0.00000000000E+00 -0.00000000000E+00 -0.12389322605E+04  0.12389322605E+04  0.00000000000E+00 0. -1.
         21    1    1    2  503  501 -0.11874520366E+03 -0.36209548192E+02  0.35054700000E+02  0.12899762310E+03  0.00000000000E+00 0.  1.
         21    1    1    2  504  505  0.35984938627E+02  0.29014346461E+01 -0.17214109086E+02  0.39995745806E+02  0.00000000000E+00 0.  1.
         21    1    1    2  505  502  0.61398824662E+02  0.56804035810E+02  0.21137083684E+02  0.86274506436E+02  0.00000000000E+00 0.  1.
          2    1    1    2  501    0  0.21361440370E+02 -0.23495922264E+02 -0.11305642248E+04  0.11310100954E+04  0.00000000000E+00 0. -1.
<scales pt_clust_3="118.90071" pt_clust_4="37.82058" pt_clust_5="37.82058" pt_clust_6="31.75483"></scales>
<clustering>
<clus scale="   31.755">  2  6  1 -1</clus>
<clus scale="   37.821">  4  5 -1 -1</clus>
<clus scale="  118.901">  1  3  2 -1</clus>
<clus scale="  118.901">  1  3  2 -1</clus>
</clustering>
</event>
<event>
 6    0  0.2433432E+002  0.2253730E+03  0.7546771E-02  0.1129940E+00
          1   -1    0    0  505    0 -0.00000000000E+00  0.00000000000E+00  0.37734630717E+03  0.37734630717E+03  0.00000000000E+00 0. -1.
         21   -1    0    0  503  502  0.00000000000E+00 -0.00000000000E+00 -0.72975993345E+03  0.72975993345E+03  0.00000000000E+00 0. -1.
         21    1    1    2  503  504 -0.19813410536E+01 -0.10987388351E+03 -0.29460542478E+03  0.31443370096E+03  0.00000000000E+00 0. -1.
         21    1    1    2  504  501  0.44322979170E+02 -0.86618664572E+02 -0.14486623236E+03  0.17450944047E+03  0.00000000000E+00 0.  1.
         21    1    1    2  505  502  0.12974141086E+02  0.24562030581E+03 -0.20294016590E+03  0.31887673778E+03  0.00000000000E+00 0. -1.
          1    1    1    2  501    0 -0.55315779202E+02 -0.49127757719E+02  0.28999819676E+03  0.29928636142E+03  0.00000000000E+00 0. -1.
<scales pt_clust_3="69.96087" pt_clust_4="69.96087" pt_clust_5="212.75585" pt_clust_6="73.98224"></scales>
<clustering>
<clus scale="   69.961">  3  4 -1 -1</clus>
<clus scale="   73.982">  1  6  2 -1</clus>
<clus scale="  212.756">  1  5  2 -1</clus>
<clus scale="  225.373">  2  3  1 -1</clus>
</clustering>
</event>
<event>
 6    0  0.2433432E+002  0.1376956E+03  0.7546771E-02  0.1216464E+00
          2   -1    0    0  505    0 -0.00000000000E+00  0.00000000000E+00  0.15866100074E+04  0.15866100074E+04  0.00000000000E+00 0.  1.
         21   -1    0    0  503  502  0.00000000000E+00 -0.00000000000E+00 -0.77864023453E+02  0.77864023453E+02  0.00000000000E+00 0.  1.
         21    1    1    2  503  504 -0.43072141729E+02  0.64930646823E+01 -0.17117829635E+02  0.46801595844E+02  0.00000000000E+00 0.  1.
         21    1    1    2  504  501  0.39304417839E+02 -0.10941487619E+03  0.10990078830E+03  0.15998323557E+03  0.00000000000E+00 0.  1.
         21    1    1    2  505  502 -0.40340601552E+02 -0.34273861513E+02  0.23717486404E+02  0.58005007352E+02  0.00000000000E+00 0.  1.
          2    1    1    2  501    0  0.44108325443E+02  0.13719567302E+03  0.13922455389E+04  0.13996841921E+04  0.00000000000E+00 0.  1.
<scales pt_clust_3="43.55880" pt_clust_4="137.69563" pt_clust_5="64.79444" pt_clust_6="14000.00000"></scales>
<clustering>
<clus scale="   43.559">  2  3  1 -1</clus>
<clus scale="   64.794">  2  5  1 -1</clus>
<clus scale="  137.696">  2  4  1 -1</clus>
<clus scale="   43.559">  2  3  1 -1</clus>
</clustering>
</event>
<event>
 6    0  0.2433432E+002  0.8911360E+02  0.7546771E-02  0.1305013E+00
          2   -1    0    0  505    0 -0.00000000000E+00  0.00000000000E+00  0.58467315916E+03  0.58467315916E+03  0.00000000000E+00 0. -1.
         21   -1    0    0  504  502  0.00000000000E+00 -0.00000000000E+00 -0.18259401759E+03  0.18259401759E+03  0.00000000000E+00 0. -1.
         21    1    1    2  503  501 -0.10391733064E+03 -0.32973455710E+02 -0.11501228441E+03  0.15847361280E+03  0.00000000000E+00 0. -1.
         21    1    1    2  504  503 -0.26770204794E+02  0.14916269857E+02  0.88756522454E+01  0.31904798604E+02  0.00000000000E+00 0.  1.
         21    1    1    2  505  502  0.50214529364E+02 -0.18976632560E+02 -0.69799801793E+01  0.54132537959E+02  0.00000000000E+00 0. -1.
          2    1    1    2  501    0  0.80473006071E+02  0.37033818413E+02  0.51519575391E+03  0.52275622738E+03  0.00000000000E+00 0. -1.
<scales pt_clust_3="14000.00000" pt_clust_4="30.64537" pt_clust_5="48.27283" pt_clust_6="89.11360"></scales>
<clustering>
<clus scale="   30.645">  2  4  1 -1</clus>
<clus scale="   48.273">  2  5  1 -1</clus>
<clus scale="   89.114">  1  6  2 -1</clus>
<clus scale="   30.645">  2  3  1 -1</clus>
</clustering>
</event>
<event>
 6    0  0.2433432E+002  0.1307565E+03  0.7546771E-02  0.1226338E+00
          1   -1    0    0  504    0 -0.00000000000E+00  0.00000000000E+00  0.13690234993E+04  0.13690234993E+04  0.00000000000E+00 0. -1.
         21   -1    0    0  503  502  0.00000000000E+00 -0.00000000000E+00 -0.13556120895E+03  0.13556120895E+03  0.00000000000E+00 0. -1.
         21    1    1    2  503  505  0.53650323104E+01 -0.71489724349E+02  0.28656023088E+02  0.77205776458E+02  0.00000000000E+00 0. -1.
         21    1    1    2  504  502 -0.72988721633E+02  0.11746290380E+03 -0.41062150410E+02  0.14426013812E+03  0.00000000000E+00 0. -1.
         21    1    1    2  505  501  0.29603583436E+02 -0.25133931231E+02  0.24143435416E+01  0.38909069715E+02  0.00000000000E+00 0.  1.
          1    1    1    2  501    0  0.38020105887E+02 -0.20839248223E+02  0.12434540741E+04  0.12442097239E+04  0.00000000000E+00 0. -1.
<scales pt_clust_3="32.57022" pt_clust_4="123.04022" pt_clust_5="32.57022" pt_clust_6="43.35669"></scales>
<clustering>
<clus scale="   32.570">  3  5 -1 -1</clus>
<clus scale="   43.357">  1  6  2 -1</clus>
<clus scale="  123.040">  2  4  1 -1</clus>
<clus scale="  123.040">  2  3  1 -1</clus>
</clustering>
</event>
<event>
 6    0  0.2433432E+002  0.1727753E+03  0.7546771E-02  0.1174984E+00
         21   -1    0    0  503  502  0.00000000000E+00  0.00000000000E+00  0.31000935456E+04  0.31000935456E+04  0.00000000000E+00 0.  1.
          1   -1    0    0  504    0 -0.00000000000E+00 -0.00000000000E+00 -0.30936556706E+02  0.30936556706E+02  0.00000000000E+00 0. -1.
         21    1    1    2  503  501 -0.13206689075E+03 -0.61028013214E+02  0.16500335651E+04  0.16564349815E+04  0.00000000000E+00 0. -1.
         21    1    1    2  504  505  0.57675543767E+02  0.92704861266E+00  0.30008077964E+03  0.30557454423E+03  0.00000000000E+00 0.  1.
         21    1    1    2  505  502  0.14582557433E+03  0.83887169151E+02  0.10601980323E+04  0.10734626324E+04  0.00000000000E+00 0.  1.
          1    1    1    2  501    0 -0.71434227344E+02 -0.23786204550E+02  0.58844611811E+02  0.95557944214E+02  0.00000000000E+00 0. -1.
<scales pt_clust_3="164.53680" pt_clust_4="30.86796" pt_clust_5="30.86796" pt_clust_6="75.29032"></scales>
<clustering>
<clus scale="   30.868">  4  5 -1 -1</clus>
<clus scale="   75.290">  2  6  1 -1</clus>
<clus scale="  164.537">  1  3  2 -1</clus>
<clus scale="  164.537">  1  3  2 -1</clus>
</clustering>
</event>
<event>
 6    0  0.2433432E+002  0.1205251E+03  0.7546771E-02  0.1242233E+00
         21   -1    0    0  504  502  0.00000000000E+00  0.00000000000E+00  0.53728505810E+02  0.53728505810E+02  0.00000000000E+00 0. -1.
          1   -1    0    0  505    0 -0.00000000000E+00 -0.00000000000E+00 -0.35690152026E+04  0.35690152026E+04  0.00000000000E+00 0.  1.
         21    1    1    2  503  502 -0.48853917769E+02  0.35527308135E+02 -0.32943053496E+02  0.68805084684E+02  0.00000000000E+00 0. -1.
         21    1    1    2  504  501  0.93001829801E+02  0.57920762057E+02 -0.24015622731E+03  0.26396812031E+03  0.00000000000E+00 0.  1.
         21    1    1    2  505  503 -0.75492322849E+02  0.76554376372E+01 -0.39519808503E+02  0.85554145421E+02  0.00000000000E+00 0. -1.
          1    1    1    2  501    0  0.31344410816E+02 -0.10110350783E+03 -0.32026676075E+04  0.32044163580E+04  0.00000000000E+00 0.  1.
<scales pt_clust_3="31.53470" pt_clust_4="115.22639" pt_clust_5="31.53470" pt_clust_6="105.85080"></scales>
<clustering>
<clus scale="   31.535">  3  5 -1 -1</clus>
<clus scale="  105.851">  2  6  1 -1</clus>
<clus scale="  115.226">  2  4  1 -1</clus>
<clus scale="  120.525">  1  3  2 -1</clus>
</clustering>
</event>
<event>
 6    0  0.2433432E+002  0.1205355E+03  0.7546771E-02  0.1242216E+00
         21   -1    0    0  504  502  0.00000000000E+00  0.00000000000E+00  0.36392629906E+03  0.36392629906E+03  0.00000000000E+00 0.  1.
          2   -1    0    0  503    0 -0.00000000000E+00 -0.00000000000E+00 -0.70993093846E+03  0.70993093846E+03  0.00000000000E+00 0.  1.
         21    1    1    2  503  502  0.95072184930E+01  0.48566595918E+02 -0.39171999353E+02  0.63115346595E+02  0.00000000000E+00 0. -1.
         21    1    1    2  504  505  0.88760418452E+02 -0.86211301568E+02  0.33316155268E+03  0.35539755287E+03  0.00000000000E+00 0.  1.
         21    1    1    2  505  501 -0.62973567475E+02  0.33197607998E+02 -0.17407010111E+03  0.18806422168E+03  0.00000000000E+00 0. -1.
          2    1    1    2  501    0 -0.35294069471E+02  0.44470976525E+01 -0.46592409161E+03  0.46728011638E+03  0.00000000000E+00 0.  1.
<scales pt_clust_3="49.54536" pt_clust_4="120.53552" pt_clust_5="14000.00000" pt_clust_6="35.57314"></scales>
<clustering>
<clus scale="   35.573">  2  6  1 -1</clus>
<clus scale="   49.545">  2  3  1 -1</clus>
<clus scale="  120.536">  1  4  2 -1</clus>
<clus scale="  120.536">  1  3  2 -1</clus>
</clustering>
</event>
<event>
 6    0  0.2433432E+002  0.1187546E+03  0.7546771E-02  0.1245166E+00
          1   -1    0    0  503    0 -0.00000000000E+00  0.00000000000E+00  0.55007752418E+03  0.55007752418E+03  0.00000000000E+00 0. -1.
         21   -1    0    0  505  502  0.00000000000E+00 -0.00000000000E+00 -0.13565141074E+03  0.13565141074E+03  0.00000000000E+00 0. -1.
         21    1    1    2  503  504  0.70060343849E+02  0.50075928792E+02  0.14122672247E+03  0.16541172136E+03  0.00000000000E+00 0. -1.
         21    1    1    2  504  502 -0.12195064061E+02  0.33404709539E+02 -0.34387388685E+02  0.49468037231E+02  0.00000000000E+00 0. -1.
         21    1    1    2  505  501 -0.53095748359E+02 -0.14554892941E+03 -0.21224666566E+01  0.15494564922E+03  0.00000000000E+00 0. -1.
          1    1    1    2  501    0 -0.47695314286E+01  0.62068291083E+02  0.30970924632E+03  0.31590352711E+03  0.00000000000E+00 0. -1.
<scales pt_clust_3="118.75464" pt_clust_4="35.56113" pt_clust_5="14000.00000" pt_clust_6="63.38357"></scales>
<clustering>
<clus scale="   35.561">  2  4  1 -1</clus>
<clus scale="   63.384">  1  6  2 -1</clus>
<clus scale="  118.755">  1  3  2 -1</clus>
<clus scale="   35.561">  2  3  1 -1</clus>
</clustering>
</event>
<event>
 6    0  0.2433432E+002  0.9665571E+02  0.7546771E-02  0.1287490E+00
          1   -1    0    0  503    0 -0.00000000000E+00  0.00000000000E+00  0.12387849965E+04  0.12387849965E+04  0.00000000000E+00 0.  1.
         21   -1    0    0  505  502  0.00000000000E+00 -0.00000000000E+00 -0.55565815779E+02  0.55565815779E+02  0.00000000000E+00 0. -1.
         21    1    1    2  503  502  0.16902839549E+02  0.10310685253E+03  0.78350057538E+02  0.13059655639E+03  0.00000000000E+00 0. -1.
         21    1    1    2  504  501 -0.20806978825E+02 -0.34368274698E+02  0.33408958612E+02  0.52251958711E+02  0.00000000000E+00 0. -1.
         21    1    1    2  505  504 -0.56103554859E+02 -0.11651537682E+02  0.26269840467E+02  0.63035479822E+02  0.00000000000E+00 0. -1.
          1    1    1    2  501    0  0.60007694135E+02 -0.57087040151E+02  0.10451903241E+04  0.10484668174E+04  0.00000000000E+00 0.  1.
<scales pt_clust_3="87.43995" pt_clust_4="34.48980" pt_clust_5="34.48980" pt_clust_6="82.82423"></scales>
<clustering>
<clus scale="   34.490">  4  5 -1 -1</clus>
<clus scale="   82.824">  1  6  2 -1</clus>
<clus scale="   87.440">  1  3  2 -1</clus>
<clus scale="   96.656">  2  3  1 -1</clus>
</clustering>
</event>
<event>
 6    0  0.2433432E+002  0.1104418E+03  0.7546771E-02  0.1259754E+00
         21   -1    0    0  503  502  0.00000000000E+00  0.00000000000E+00  0.27089236525E+03  0.27089236525E+03  0.00000000000E+00 0.  1.
          1   -1    0    0  504    0 -0.00000000000E+00 -0.00000000000E+00 -0.95251784004E+03  0.95251784004E+03  0.00000000000E+00 0. -1.
         21    1    1    2  503  505  0.37614511690E+02  0.98630653690E+02  0.49617798154E+02  0.11663954403E+03  0.00000000000E+00 0.  1.
         21    1    1    2  504  502  0.56661530612E+02 -0.11821659188E+03  0.13202851761E+03  0.18605703725E+03  0.00000000000E+00 0.  1.
         21    1    1    2  505  501 -0.77086388154E+02 -0.68579006265E+01 -0.24252808239E+02  0.81102039106E+02  0.00000000000E+00 0.  1.
          1    1    1    2  501    0 -0.17189654147E+02  0.26443838819E+02 -0.83901898232E+03  0.83961158491E+03  0.00000000000E+00 0. -1.
<scales pt_clust_3="110.44182" pt_clust_4="14000.00000" pt_clust_5="85.25958" pt_clust_6="31.53983"></scales>
<clustering>
<clus scale="   31.540">  2  6  1 -1</clus>
<clus scale="   85.260">  2  5  1 -1</clus>
<clus scale="  110.442">  2  3  1 -1</clus>
<clus scale="  110.442">  1  3  2 -1</clus>
</clustering>
</event>
<event>
 6    0  0.2433432E+002  0.1861476E+03  0.7546771E-02  0.1161983E+00
         21   -1    0    0  505  502  0.00000000000E+00  0.00000000000E+00  0.24576571061E+03  0.24576571061E+03  0.00000000000E+00 0. -1.
          2   -1    0    0  504    0 -0.00000000000E+00 -0.00000000000E+00 -0.86702824635E+03  0.86702824635E+03  0.00000000000E+00 0. -1.
         21    1    1    2  503  501 -0.62663777995E+02  0.17455519845E+03  0.13637485258E+02  0.18596302692E+03  0.00000000000E+00 0. -1.
         21    1    1    2  504  502  0.29362968412E+02 -0.34682285930E+02  0.58568704985E+01  0.45818640348E+02  0.00000000000E+00 0. -1.
         21    1    1    2  505  503 -0.10751667993E+02  0.41178609848E+02  0.10448959137E+03  0.11282442545E+03  0.00000000000E+00 0. -1.
          2    1    1    2  501    0  0.44052477576E+02 -0.18105152236E+03 -0.74524648287E+03  0.76818786424E+03  0.00000000000E+00 0. -1.
<scales pt_clust_3="186.14764" pt_clust_4="38.36812" pt_clust_5="42.55909" pt_clust_6="14000.00000"></scales>
<clustering>
<clus scale="   42.559">  1  5  2 -1</clus>
<clus scale="   38.368">  1  4  2 -1</clus>
<clus scale="  186.148">  1  3  2 -1</clus>
<clus scale="   42.559">  1  3  2 -1</clus>
</clustering>
</event>
<event>
 6    0  0.4117059E+002  0.9887932E+02  0.7546771E-02  0.1282670E+00
          2   -1    0    0  504    0 -0.00000000000E+00  0.00000000000E+00  0.18557223112E+04  0.18557223112E+04  0.00000000000E+00 0. -1.
         21   -1    0    0  503  502  0.00000000000E+00 -0.00000000000E+00 -0.71849022978E+03  0.71849022978E+03  0.00000000000E+00 0.  1.
         21    1    1    2  503  501  0.92851947983E+02  0.27433467388E+02 -0.30684368845E+03  0.32175631854E+03  0.00000000000E+00 0.  1.
         21    1    1    2  504  505 -0.45256153366E+02 -0.23287300721E+02  0.59405551872E+02  0.78226832900E+02  0.00000000000E+00 0.  1.
         21    1    1    2  505  502 -0.36205526840E+02  0.54927427894E+02 -0.39152607355E+03  0.39701451961E+03  0.00000000000E+00 0.  1.
          2    1    1    2  501    0 -0.11390267777E+02 -0.59073594561E+02  0.17761962916E+04  0.17772148699E+04  0.00000000000E+00 0. -1.
<scales pt_clust_3="98.87932" pt_clust_4="50.89615" pt_clust_5="65.79493" pt_clust_6="14000.00000"></scales>
<clustering>
<clus scale="   50.896">  1  4  2 -1</clus>
<clus scale="   65.795">  2  5  1 -1</clus>
<clus scale="   98.879">  2  3  1 -1</clus>
<clus scale="   65.795">  2  3  1 -1</clus>
</clustering>
</event>
<event>
 6    0  0.2433432E+002  0.1104210E+03  0.7546771E-02  0.1259792E+00
          2   -1    0    0  505    0 -0.00000000000E+00  0.00000000000E+00  0.50287135933E+03  0.50287135933E+03  0.00000000000E+00 0.  1.
         21   -1    0    0  503  502  0.00000000000E+00 -0.00000000000E+00 -0.75927863429E+02  0.75927863429E+02  0.00000000000E+00 0. -1.
         21    1    1    2  503  504 -0.45345086542E+02  0.32443209638E+02  0.58507065980E+02  0.80819647949E+02  0.00000000000E+00 0.  1.
         21    1    1    2  504  501 -0.74153862481E+02  0.22813546437E+02  0.15215074605E+03  0.17078964473E+03  0.00000000000E+00 0.  1.
         21    1    1    2  505  502  0.89123192846E+02 -0.39506305543E+02 -0.10305325888E+02  0.98030053669E+02  0.00000000000E+00 0. -1.
          2    1    1    2  501    0  0.30375756176E+02 -0.15750450532E+02  0.22659100976E+03  0.22915987641E+03  0.00000000000E+00 0.  1.
<scales pt_clust_3="33.87989" pt_clust_4="33.87989" pt_clust_5="102.93482" pt_clust_6="34.21642"></scales>
<clustering>
<clus scale="   33.880">  3  4 -1 -1</clus>
<clus scale="   34.216">  1  6  2 -1</clus>
<clus scale="  102.935">  2  5  1 -1</clus>
<clus scale="  102.935">  2  3  1 -1</clus>
</clustering>
</event>
<event>
 6    0  0.2433432E+002  0.9772152E+02  0.7546771E-02  0.1285162E+00
          3   -1    0    0  505    0 -0.00000000000E+00  0.00000000000E+00  0.92514801475E+03  0.92514801475E+03  0.00000000000E+00 0.  1.
         21   -1    0    0  504  502  0.00000000000E+00 -0.00000000000E+00 -0.50857170327E+03  0.50857170327E+03  0.00000000000E+00 0. -1.
         21    1    1    2  503  501  0.28450680539E+02 -0.56102359696E+02 -0.10639036281E+03  0.12359540965E+03  0.00000000000E+00 0. -1.
         21    1    1    2  504  503  0.32488314150E+02 -0.65572463882E+01 -0.88478015050E+01  0.34304105118E+02  0.00000000000E+00 0.  1.
         21    1    1    2  505  502  0.36757104245E+02  0.52699884435E+02 -0.36653257605E+03  0.37212160894E+03  0.00000000000E+00 0. -1.
          3    1    1    2  501    0 -0.97696098933E+02  0.99597216486E+01  0.89834705185E+03  0.90369859431E+03  0.00000000000E+00 0.  1.
<scales pt_clust_3="68.03239" pt_clust_4="33.14345" pt_clust_5="97.72152" pt_clust_6="14000.00000"></scales>
<clustering>
<clus scale="   33.143">  2  4  1 -1</clus>
<clus scale="   68.032">  2  3  1 -1</clus>
<clus scale="   97.722">  2  5  1 -1</clus>
<clus scale="   33.143">  2  3  1 -1</clus>
</clustering>
</event>
<event>
 6    0  0.2433432E+002  0.8574597E+02  0.7546771E-02  0.1313493E+00
          2   -1    0    0  505    0 -0.00000000000E+00  0.00000000000E+00  0.89961240009E+03  0.89961240009E+03  0.00000000000E+00 0.  1.
         21   -1    0    0  503  502  0.00000000000E+00 -0.00000000000E+00 -0.15627475246E+03  0.15627475246E+03  0.00000000000E+00 0.  1.
         21    1    1    2  503  501 -0.40286575139E+02 -0.86206649892E+02  0.45368164506E+02  0.10541757431E+03  0.00000000000E+00 0. -1.
         21    1    1    2  504  502  0.71436031746E+02 -0.15022504875E+00 -0.10029130999E+03  0.12313194572E+03  0.00000000000E+00 0.  1.
         21    1    1    2  505  504 -0.62075694570E+02  0.60197416965E+01  0.68980751332E+02  0.92994479410E+02  0.00000000000E+00 0.  1.
          2    1    1    2  501    0  0.30926237963E+02  0.80337133244E+02  0.72928004178E+03  0.73434315311E+03  0.00000000000E+00 0.  1.
<scales pt_clust_3="85.74597" pt_clust_4="70.57007" pt_clust_5="62.36689" pt_clust_6="14000.00000"></scales>
<clustering>
<clus scale="   62.367">  1  5  2 -1</clus>
<clus scale="   70.570">  2  4  1 -1</clus>
<clus scale="   85.746">  2  3  1 -1</clus>
<clus scale="   70.570">  2  3  1 -1</clus>
</clustering>
</event>
<event>
 6    0  0.2433432E+002  0.1108822E+03  0.7546771E-02  0.1258945E+00
         21   -1    0    0  503  502  0.00000000000E+00  0.00000000000E+00  0.37285996892E+02  0.37285996892E+02  0.00000000000E+00 0.  1.
          2   -1    0    0  505    0 -0.00000000000E+00 -0.00000000000E+00 -0.87153732392E+03  0.87153732392E+03  0.00000000000E+00 0.  1.
         21    1    1    2  503  504 -0.45072160874E+02 -0.91621675761E+01 -0.35500703490E+02  0.58101161338E+02  0.00000000000E+00 0.  1.
         21    1    1    2  504  501 -0.37613338272E+02  0.53560565759E+02 -0.29377143981E+03  0.30097368036E+03  0.00000000000E+00 0.  1.
         21    1    1    2  505  502  0.86181930349E+02 -0.79930669886E+02 -0.13901954060E+03  0.18205128337E+03  0.00000000000E+00 0.  1.
          2    1    1    2  501    0 -0.34964312031E+01  0.35532271703E+02 -0.36595964313E+03  0.36769719575E+03  0.00000000000E+00 0.  1.
<scales pt_clust_3="45.99397" pt_clust_4="35.01992" pt_clust_5="100.23355" pt_clust_6="35.01992"></scales>
<clustering>
<clus scale="   35.020">  4  6 -1 -1</clus>
<clus scale="   45.994">  1  3  2 -1</clus>
<clus scale="  100.234">  1  5  2 -1</clus>
<clus scale="   45.994">  1  3  2 -1</clus>
</clustering>
</event>
<event>
 6    0  0.2433432E+002  0.1546775E+03  0.7546771E-02  0.1194840E+00
         21   -1    0    0  503  502  0.00000000000E+00  0.00000000000E+00  0.21286906964E+03  0.21286906964E+03  0.00000000000E+00 0. -1.
          2   -1    0    0  505    0 -0.00000000000E+00 -0.00000000000E+00 -0.13574408871E+04  0.13574408871E+04  0.00000000000E+00 0. -1.
         21    1    1    2  503  501  0.35327686635E+01 -0.15319283935E+03 -0.96553499336E+01  0.15353746209E+03  0.00000000000E+00 0.  1.
         21    1    1    2  504  502  0.39690637335E+02  0.34795062128E+02  0.40353073704E+02  0.66441053558E+02  0.00000000000E+00 0. -1.
         21    1    1    2  505  504 -0.15960732476E+02  0.15654965172E+03  0.15969891803E+02  0.15816945306E+03  0.00000000000E+00 0. -1.
          2    1    1    2  501    0 -0.27262673522E+02 -0.38151874499E+02 -0.11912394331E+04  0.11921619881E+04  0.00000000000E+00 0. -1.
<scales pt_clust_3="14000.00000" pt_clust_4="49.19745" pt_clust_5="154.67748" pt_clust_6="46.89157"></scales>
<clustering>
<clus scale="   46.892">  2  6  1 -1</clus>
<clus scale="   49.197">  1  4  2 -1</clus>
<clus scale="  154.677">  2  5  1 -1</clus>
<clus scale="   49.197">  1  3  2 -1</clus>
</clustering>
</event>
<event>
 6    0  0.2433432E+002  0.1689347E+03  0.7546771E-02  0.1178963E+00
          2   -1    0    0  503    0 -0.00000000000E+00  0.00000000000E+00  0.20574021951E+04  0.20574021951E+04  0.00000000000E+00 0. -1.
         21   -1    0    0  504  502  0.00000000000E+00 -0.00000000000E+00 -0.72881585631E+03  0.72881585631E+03  0.00000000000E+00 0. -1.
         21    1    1    2  503  505  0.27355525661E+02  0.13185927298E+02  0.85312197339E+02  0.90555863850E+02  0.00000000000E+00 0. -1.
         21    1    1    2  504  501 -0.27747155960E+02  0.17114371376E+03  0.35058167801E+01  0.17341385808E+03  0.00000000000E+00 0. -1.
         21    1    1    2  505  502  0.77522095529E+02 -0.97729744333E+01 -0.63399509473E+03  0.63879180213E+03  0.00000000000E+00 0. -1.
          2    1    1    2  501    0 -0.77130465230E+02 -0.17455666663E+03  0.18737634194E+04  0.18834565273E+04  0.00000000000E+00 0. -1.
<scales pt_clust_3="30.36764" pt_clust_4="168.93474" pt_clust_5="78.16674" pt_clust_6="14000.00000"></scales>
<clustering>
<clus scale="   30.368">  1  3  2 -1</clus>
<clus scale="   78.167">  2  5  1 -1</clus>
<clus scale="  168.935">  2  4  1 -1</clus>
<clus scale="   78.167">  2  3  1 -1</clus>
</clustering>
</event>
<event>
 6    0  0.2433432E+002  0.1194539E+03  0.7546771E-02  0.1244001E+00
          2   -1    0    0  503    0 -0.00000000000E+00  0.00000000000E+00  0.96361261431E+03  0.96361261431E+03  0.00000000000E+00 0.  1.
         21   -1    0    0  504  502  0.00000000000E+00 -0.00000000000E+00 -0.50040403445E+02  0.50040403445E+02  0.00000000000E+00 0.  1.
         21    1    1    2  503  502  0.32908927140E+02  0.24256039456E+02  0.14769582102E+02  0.43468304442E+02  0.00000000000E+00 0.  1.
         21    1    1    2  504  505 -0.35800081327E+02  0.11424318412E+02  0.35804457822E+02  0.51904913777E+02  0.00000000000E+00 0.  1.
         21    1    1    2  505  501 -0.54991575437E+02 -0.13407923445E+03  0.20860076215E+03  0.25399919774E+03  0.00000000000E+00 0.  1.
          2    1    1    2  501    0  0.57882729623E+02  0.98398876581E+02  0.65439740878E+03  0.66428060180E+03  0.00000000000E+00 0.  1.
<scales pt_clust_3="34.93483" pt_clust_4="37.57873" pt_clust_5="14000.00000" pt_clust_6="119.45385"></scales>
<clustering>
<clus scale="   37.579">  2  4  1 -1</clus>
<clus scale="   34.935">  2  3  1 -1</clus>
<clus scale="  119.454">  1  6  2 -1</clus>
<clus scale="   37.579">  2  3  1 -1</clus>
</clustering>
</event>
<event>
 6    0  0.2433432E+002  0.1599675E+03  0.7546771E-02  0.1188733E+00
         21   -1    0    0  503  502  0.00000000000E+00  0.00000000000E+00  0.12549022212E+03  0.12549022212E+03  0.00000000000E+00 0. -1.
          1   -1    0    0  504    0 -0.00000000000E+00 -0.00000000000E+00 -0.99422068544E+03  0.99422068544E+03  0.00000000000E+00 0.  1.
         21    1    1    2  503  501  0.29405669674E+02 -0.13570858351E+02 -0.30327063591E+02  0.44368822290E+02  0.00000000000E+00 0. -1.
         21    1    1    2  504  505  0.12269397951E+03  0.52737802542E+02  0.43655726522E+02  0.14050235188E+03  0.00000000000E+00 0. -1.
         21    1    1    2  505  502 -0.15364206974E+02  0.48196456607E+02 -0.15049924852E+02  0.52777433847E+02  0.00000000000E+00 0. -1.
          1    1    1    2  501    0 -0.13673544221E+03 -0.87363400798E+02 -0.86700920141E+03  0.88206229954E+03  0.00000000000E+00 0.  1.
<scales pt_clust_3="32.38613" pt_clust_4="14000.00000" pt_clust_5="47.25864" pt_clust_6="159.96749"></scales>
<clustering>
<clus scale="   32.386">  1  3  2 -1</clus>
<clus scale="   47.259">  1  5  2 -1</clus>
<clus scale="  159.967">  2  6  1 -1</clus>
<clus scale="   32.386">  1  3  2 -1</clus>
</clustering>
</event>
<event>
 6    0  0.2433432E+002  0.1172440E+03  0.7546771E-02  0.1247714E+00
         21   -1    0    0  501  502  0.00000000000E+00  0.00000000000E+00  0.41284940592E+03  0.41284940592E+03  0.00000000000E+00 0. -1.
          2   -1    0    0  504    0 -0.00000000000E+00 -0.00000000000E+00 -0.38028015086E+03  0.38028015086E+03  0.00000000000E+00 0. -1.
         21    1    1    2  503  505  0.35021695575E+02  0.44093528953E+02  0.91416993292E+02  0.10736770985E+03  0.00000000000E+00 0. -1.
         21    1    1    2  504  503 -0.32401048832E+02  0.33969186374E+02  0.25469118403E+03  0.25898133680E+03  0.00000000000E+00 0. -1.
         21    1    1    2  505  502 -0.12447089500E+02  0.41940245723E+02  0.36271085280E+02  0.56828741634E+02  0.00000000000E+00 0. -1.
          2    1    1    2  501    0  0.98264427583E+01 -0.12000296105E+03 -0.34981000754E+03  0.36995176849E+03  0.00000000000E+00 0. -1.
<scales pt_clust_3="63.86461" pt_clust_4="117.24404" pt_clust_5="43.74831" pt_clust_6="14000.00000"></scales>
<clustering>
<clus scale="   43.748">  1  5  2 -1</clus>
<clus scale="   63.865">  1  3  2 -1</clus>
<clus scale="  117.244">  1  4  2 -1</clus>
<clus scale="   43.748">  1  3  2 -1</clus>
</clustering>
</event>
<event>
 6    0  0.2433432E+002  0.1271819E+03  0.7546771E-02  0.1231698E+00
          1   -1    0    0  504    0 -0.00000000000E+00  0.00000000000E+00  0.18775341105E+04  0.18775341105E+04  0.00000000000E+00 0. -1.
         21   -1    0    0  503  502  0.00000000000E+00 -0.00000000000E+00 -0.69190978733E+02  0.69190978733E+02  0.00000000000E+00 0. -1.
         21    1    1    2  503  501  0.36268014428E+02 -0.59712984994E+02  0.51993483214E+03  0.52460770021E+03  0.00000000000E+00 0. -1.
         21    1    1    2  504  505  0.19188666522E+02  0.10861121119E+03  0.81141212339E+03  0.81887375956E+03  0.00000000000E+00 0.  1.
         21    1    1    2  505  502 -0.55657145598E+02  0.28703358876E+02 -0.43977515261E+02  0.76522039409E+02  0.00000000000E+00 0. -1.
          1    1    1    2  501    0  0.20046464812E+00 -0.77601585068E+02  0.52097369147E+03  0.52672159002E+03  0.00000000000E+00 0. -1.
<scales pt_clust_3="38.16023" pt_clust_4="120.65550" pt_clust_5="62.62268" pt_clust_6="38.16023"></scales>
<clustering>
<clus scale="   38.160">  3  6 -1 -1</clus>
<clus scale="   62.623">  2  5  1 -1</clus>
<clus scale="  120.656">  1  4  2 -1</clus>
<clus scale="   62.623">  2  3  1 -1</clus>
</clustering>
</event>
<event>
 6    0  0.2433432E+002  0.1430353E+03  0.7546771E-02  0.1209302E+00
         -2   -1    0    0    0  501 -0.00000000000E+00  0.00000000000E+00  0.34882744828E+03  0.34882744828E+03  0.00000000000E+00 0. -1.
         21   -1    0    0  503  502  0.00000000000E+00 -0.00000000000E+00 -0.84283464443E+02  0.84283464443E+02  0.00000000000E+00 0. -1.
         21    1    1    2  503  504  0.24620847248E+02  0.10547906943E+03  0.10027806457E+03  0.14760660704E+03  0.00000000000E+00 0. -1.
         21    1    1    2  504  501 -0.24794721034E+02  0.30334119489E+02  0.65703666626E+02  0.76497769931E+02  0.00000000000E+00 0. -1.
         21    1    1    2  505  502 -0.52788779611E+02 -0.23299604951E+02  0.16500325653E+02  0.60014894737E+02  0.00000000000E+00 0. -1.
         -2    1    1    2    0  505  0.52962653397E+02 -0.11251358397E+03  0.82061926984E+02  0.14899164102E+03  0.00000000000E+00 0. -1.
<scales pt_clust_3="39.10439" pt_clust_4="39.10439" pt_clust_5="57.70205" pt_clust_6="127.40297"></scales>
<clustering>
<clus scale="   39.104">  3  4 -1 -1</clus>
<clus scale="   57.702">  2  5  1 -1</clus>
<clus scale="  127.403">  2  6  1 -1</clus>
<clus scale="   57.702">  2  3  1 -1</clus>
</clustering>
</event>
<event>
 6    0  0.2433432E+002  0.1475257E+03  0.7546771E-02  0.1203547E+00
          2   -1    0    0  504    0 -0.00000000000E+00  0.00000000000E+00  0.17383144360E+04  0.17383144360E+04  0.00000000000E+00 0. -1.
         21   -1    0    0  505  502  0.00000000000E+00 -0.00000000000E+00 -0.94331447972E+02  0.94331447972E+02  0.00000000000E+00 0. -1.
         21    1    1    2  503  502  0.75373182715E+02 -0.34376060716E+02 -0.37702680260E+02  0.91018252684E+02  0.00000000000E+00 0. -1.
         21    1    1    2  504  503  0.36570705521E+01 -0.12853388558E+03  0.19645787828E+03  0.23479785315E+03  0.00000000000E+00 0.  1.
         21    1    1    2  505  501 -0.37427289756E+02  0.16481778512E+02  0.55072842884E+02  0.68596421661E+02  0.00000000000E+00 0. -1.
          2    1    1    2  501    0 -0.41602963511E+02  0.14642816778E+03  0.14301549471E+04  0.14382333565E+04  0.00000000000E+00 0. -1.
<scales pt_clust_3="52.78947" pt_clust_4="14000.00000" pt_clust_5="40.89561" pt_clust_6="147.52566"></scales>
<clustering>
<clus scale="   40.896">  2  5  1 -1</clus>
<clus scale="   52.789">  2  3  1 -1</clus>
<clus scale="  147.526">  1  6  2 -1</clus>
<clus scale="   40.896">  2  3  1 -1</clus>
</clustering>
</event>
<event>
 6    0  0.2433432E+002  0.8310823E+02  0.7546771E-02  0.1320455E+00
         21   -1    0    0  504  502  0.00000000000E+00  0.00000000000E+00  0.64294786718E+03  0.64294786718E+03  0.00000000000E+00 0.  1.
          2   -1    0    0  505    0 -0.00000000000E+00 -0.00000000000E+00 -0.22460468555E+03  0.22460468555E+03  0.00000000000E+00 0.  1.
         21    1    1    2  503  502 -0.48817839350E+02  0.22710010990E+02  0.32065365013E+03  0.32514256777E+03  0.00000000000E+00 0.  1.
         21    1    1    2  504  501  0.11368281465E+03  0.81420061148E+01  0.47759317609E+02  0.12357599697E+03  0.00000000000E+00 0.  1.
         21    1    1    2  505  503 -0.27221578996E+02 -0.67025145315E+02  0.22489639092E+03  0.23624515046E+03  0.00000000000E+00 0.  1.
          2    1    1    2  501    0 -0.37643396300E+02  0.36173128210E+02 -0.17496617702E+03  0.18258883753E+03  0.00000000000E+00 0.  1.
<scales pt_clust_3="56.26666" pt_clust_4="14000.00000" pt_clust_5="83.10823" pt_clust_6="52.20652"></scales>
<clustering>
<clus scale="   52.207">  2  6  1 -1</clus>
<clus scale="   56.267">  1  3  2 -1</clus>
<clus scale="   83.108">  1  5  2 -1</clus>
<clus scale="   56.267">  1  3  2 -1</clus>
</clustering>
</event>
<event>
 6    0  0.2433432E+002  0.8554568E+02  0.7546771E-02  0.1314012E+00
         21   -1    0    0  501  502  0.00000000000E+00  0.00000000000E+00  0.61006279740E+03  0.61006279740E+03  0.00000000000E+00 0.  1.
         -3   -1    0    0    0  501 -0.00000000000E+00 -0.00000000000E+00 -0.32199101577E+02  0.32199101577E+02  0.00000000000E+00 0.  1.
         21    1    1    2  503  505 -0.74368944754E+02 -0.67814010968E+02  0.13695370739E+03  0.16995822426E+03  0.00000000000E+00 0.  1.
         21    1    1    2  504  502  0.44193175133E+01 -0.32710442297E+02  0.69910061975E+02  0.77310543704E+02  0.00000000000E+00 0.  1.
         21    1    1    2  505  504  0.15766335969E+02  0.54506229005E+02  0.23239337869E+03  0.23921995905E+03  0.00000000000E+00 0.  1.
         -3    1    1    2    0  503  0.54183291272E+02  0.46018224260E+02  0.13860654777E+03  0.15577317196E+03  0.00000000000E+00 0.  1.
<scales pt_clust_3="14000.00000" pt_clust_4="33.00763" pt_clust_5="43.86168" pt_clust_6="85.54568"></scales>
<clustering>
<clus scale="   33.008">  1  4  2 -1</clus>
<clus scale="   43.862">  1  5  2 -1</clus>
<clus scale="   85.546">  2  6  1 -1</clus>
<clus scale="   33.008">  1  3  2 -1</clus>
</clustering>
</event>
<event>
 6    0  0.2433432E+002  0.1118850E+03  0.7546771E-02  0.1257118E+00
         21   -1    0    0  505  502  0.00000000000E+00  0.00000000000E+00  0.18035541098E+04  0.18035541098E+04  0.00000000000E+00 0. -1.
         -1   -1    0    0    0  501 -0.00000000000E+00 -0.00000000000E+00 -0.20868196905E+03  0.20868196905E+03  0.00000000000E+00 0. -1.
         21    1    1    2  503  502 -0.14547097826E+03 -0.77920569960E+01  0.14142871301E+03  0.20303842624E+03  0.00000000000E+00 0. -1.
         21    1    1    2  504  501  0.62742832107E+02 -0.78960422337E+02 -0.58713713998E+02  0.11669923516E+03  0.00000000000E+00 0.  1.
         21    1    1    2  505  504  0.42126430318E+02  0.59995592166E+02  0.15948685972E+04  0.15965525201E+04  0.00000000000E+00 0. -1.
         -1    1    1    2    0  503  0.40601715830E+02  0.26756887167E+02 -0.82711455484E+02  0.95945897293E+02  0.00000000000E+00 0. -1.
<scales pt_clust_3="14000.00000" pt_clust_4="111.88500" pt_clust_5="73.62748" pt_clust_6="48.62541"></scales>
<clustering>
<clus scale="   48.625">  2  6  1 -1</clus>
<clus scale="   73.627">  1  5  2 -1</clus>
<clus scale="  111.885">  2  4  1 -1</clus>
<clus scale="   73.627">  1  3  2 -1</clus>
</clustering>
</event>
<event>
 6    0  0.2433432E+002  0.8791325E+02  0.7546771E-02  0.1307985E+00
         -2   -1    0    0    0  501 -0.00000000000E+00  0.00000000000E+00  0.90330448235E+03  0.90330448235E+03  0.00000000000E+00 0. -1.
         21   -1    0    0  501  502  0.00000000000E+00 -0.00000000000E+00 -0.75754414544E+02  0.75754414544E+02  0.00000000000E+00 0. -1.
         21    1    1    2  503  502  0.29633506582E+02  0.23013620360E+02  0.11747063616E+02  0.39316217240E+02  0.00000000000E+00 0. -1.
         21    1    1    2  504  505 -0.57308927173E+02 -0.74261955391E+02  0.13833223423E+02  0.94818295822E+02  0.00000000000E+00 0. -1.
         21    1    1    2  505  503 -0.58977380944E+02  0.31685007063E+02  0.40407869563E+02  0.78198894226E+02  0.00000000000E+00 0. -1.
         -2    1    1    2    0  504  0.86652801535E+02  0.19563327967E+02  0.76156191120E+03  0.76672548960E+03  0.00000000000E+00 0. -1.
<scales pt_clust_3="37.52028" pt_clust_4="14000.00000" pt_clust_5="63.18253" pt_clust_6="87.91325"></scales>
<clustering>
<clus scale="   37.520">  2  3  1 -1</clus>
<clus scale="   63.183">  2  5  1 -1</clus>
<clus scale="   87.913">  1  6  2 -1</clus>
<clus scale="   37.520">  2  3  1 -1</clus>
</clustering>
</event>
<event>
 6    0  0.2433432E+002  0.1231087E+03  0.7546771E-02  0.1238055E+00
          2   -1    0    0  504    0 -0.00000000000E+00  0.00000000000E+00  0.72242832356E+03  0.72242832356E+03  0.00000000000E+00 0. -1.
         21   -1    0    0  503  502  0.00000000000E+00 -0.00000000000E+00 -0.35678515295E+03  0.35678515295E+03  0.00000000000E+00 0.  1.
         21    1    1    2  503  505 -0.37447619782E+02  0.36263361246E+02 -0.23996197107E+02  0.57386174918E+02  0.00000000000E+00 0.  1.
         21    1    1    2  504  502 -0.27618379457E+02  0.72665024637E+02 -0.25445311022E+03  0.26606271064E+03  0.00000000000E+00 0.  1.
         21    1    1    2  505  501  0.14740777720E+03 -0.86502850377E+02  0.86272615848E+02  0.19145432915E+03  0.00000000000E+00 0. -1.
          2    1    1    2  501    0 -0.82341777965E+02 -0.22425535506E+02  0.55781986209E+03  0.56431026181E+03  0.00000000000E+00 0. -1.
<scales pt_clust_3="52.12826" pt_clust_4="123.10867" pt_clust_5="14000.00000" pt_clust_6="85.61528"></scales>
<clustering>
<clus scale="   52.128">  2  3  1 -1</clus>
<clus scale="   85.615">  1  6  2 -1</clus>
<clus scale="  123.109">  2  4  1 -1</clus>
<clus scale="   52.128">  2  3  1 -1</clus>
</clustering>
</event>
<event>
 6    0  0.2433432E+002  0.1062454E+03  0.7546771E-02  0.1267685E+00
          2   -1    0    0  503    0 -0.00000000000E+00  0.00000000000E+00  0.84946462292E+03  0.84946462292E+03  0.00000000000E+00 0. -1.
         21   -1    0    0  504  502  0.00000000000E+00 -0.00000000000E+00 -0.25578251493E+04  0.25578251493E+04  0.00000000000E+00 0.  1.
         21    1    1    2  503  502 -0.14976661256E+02  0.98982073513E+02 -0.37027125538E+03  0.38356557956E+03  0.00000000000E+00 0.  1.
         21    1    1    2  504  505  0.30450626057E+02 -0.15713466147E+02 -0.78994764077E+03  0.79069047598E+03  0.00000000000E+00 0.  1.
         21    1    1    2  505  501 -0.78206905372E+02 -0.16878753941E+03 -0.13809881355E+04  0.13934610808E+04  0.00000000000E+00 0.  1.
          2    1    1    2  501    0  0.62732940571E+02  0.85518932049E+02  0.83284650524E+03  0.83957263585E+03  0.00000000000E+00 0. -1.
<scales pt_clust_3="96.00671" pt_clust_4="34.26593" pt_clust_5="106.24543" pt_clust_6="14000.00000"></scales>
<clustering>
<clus scale="   34.266">  2  4  1 -1</clus>
<clus scale="   96.007">  2  3  1 -1</clus>
<clus scale="  106.245">  2  5  1 -1</clus>
<clus scale="   34.266">  2  3  1 -1</clus>
</clustering>
</event>
<event>
 6    0  0.2433432E+002  0.1289256E+03  0.7546771E-02  0.1229059E+00
         21   -1    0    0  501  502  0.00000000000E+00  0.00000000000E+00  0.55517328597E+02  0.55517328597E+02  0.00000000000E+00 0. -1.
          2   -1    0    0  503    0 -0.00000000000E+00 -0.00000000000E+00 -0.15470533665E+04  0.15470533665E+04  0.00000000000E+00 0.  1.
         21    1    1    2  503  504  0.89070080506E+02 -0.42172406964E+01 -0.10743607060E+03  0.13962010466E+03  0.00000000000E+00 0. -1.
         21    1    1    2  504  505  0.78062358440E+02  0.49036843176E+02 -0.68203339671E+02  0.11467362093E+03  0.00000000000E+00 0. -1.
         21    1    1    2  505  502 -0.57764782575E+02 -0.40429215528E+02 -0.76422385620E+02  0.10397919310E+03  0.00000000000E+00 0.  1.
          2    1    1    2  501    0 -0.10936765637E+03 -0.43903869510E+01 -0.12394742420E+04  0.12442977764E+04  0.00000000000E+00 0.  1.
<scales pt_clust_3="61.21501" pt_clust_4="61.21501" pt_clust_5="70.50739" pt_clust_6="112.90598"></scales>
<clustering>
<clus scale="   61.215">  3  4 -1 -1</clus>
<clus scale="   70.507">  1  5  2 -1</clus>
<clus scale="  112.906">  2  6  1 -1</clus>
<clus scale="   70.507">  1  3  2 -1</clus>
</clustering>
</event>
<event>
 6    0  0.2433432E+002  0.1856794E+03  0.7546771E-02  0.1162417E+00
         21   -1    0    0  504  502  0.00000000000E+00  0.00000000000E+00  0.11072218188E+03  0.11072218188E+03  0.00000000000E+00 0.  1.
          2   -1    0    0  505    0 -0.00000000000E+00 -0.00000000000E+00 -0.21917191531E+04  0.21917191531E+04  0.00000000000E+00 0. -1.
         21    1    1    2  503  501  0.29537430423E+02 -0.65019381952E+02 -0.48471119274E+02  0.86310076058E+02  0.00000000000E+00 0.  1.
         21    1    1    2  504  503  0.56930882897E+02 -0.67523284895E+02  0.24450532863E+02  0.91642500990E+02  0.00000000000E+00 0.  1.
         21    1    1    2  505  502 -0.10225748772E+03  0.17075484556E+03 -0.26194737820E+03  0.32898364704E+03  0.00000000000E+00 0.  1.
          2    1    1    2  501    0  0.15789174403E+02 -0.38212178714E+02 -0.17950290066E+04  0.17955051109E+04  0.00000000000E+00 0. -1.
<scales pt_clust_3="71.92669" pt_clust_4="71.92669" pt_clust_5="168.61502" pt_clust_6="41.34572"></scales>
<clustering>
<clus scale="   41.346">  2  6  1 -1</clus>
<clus scale="   71.927">  3  4 -1 -1</clus>
<clus scale="  168.615">  2  5  1 -1</clus>
<clus scale="  185.679">  1  3  2 -1</clus>
</clustering>
</event>
<event>
 6    0  0.2433432E+002  0.8773293E+02  0.7546771E-02  0.1308436E+00
          1   -1    0    0  505    0 -0.00000000000E+00  0.00000000000E+00  0.10433090033E+04  0.10433090033E+04  0.00000000000E+00 0. -1.
         21   -1    0    0  503  502  0.00000000000E+00 -0.00000000000E+00 -0.10505890898E+03  0.10505890898E+03  0.00000000000E+00 0. -1.
         21    1    1    2  503  501 -0.53679831528E+02 -0.85638127975E+02 -0.10636284985E+02  0.10162944374E+03  0.00000000000E+00 0. -1.
         21    1    1    2  504  502  0.18679935159E+02  0.58249137069E+02  0.16905939682E+02  0.63464263514E+02  0.00000000000E+00 0. -1.
         21    1    1    2  505  504 -0.54869114669E+02  0.37737339637E+02  0.23981767748E+02  0.70780306101E+02  0.00000000000E+00 0. -1.
          1    1    1    2  501    0  0.89869011038E+02 -0.10348348730E+02  0.90799867188E+03  0.91249389894E+03  0.00000000000E+00 0. -1.
<scales pt_clust_3="61.26905" pt_clust_4="61.17109" pt_clust_5="87.73293" pt_clust_6="14000.00000"></scales>
<clustering>
<clus scale="   61.171">  2  4  1 -1</clus>
<clus scale="   61.269">  2  3  1 -1</clus>
<clus scale="   87.733">  2  5  1 -1</clus>
<clus scale="   61.171">  2  3  1 -1</clus>
</clustering>
</event>
<event>
 6    0  0.2433432E+002  0.1098595E+03  0.7546771E-02  0.1260830E+00
          2   -1    0    0  504    0 -0.00000000000E+00  0.00000000000E+00  0.76240196915E+03  0.76240196915E+03  0.00000000000E+00 0. -1.
         21   -1    0    0  503  502  0.00000000000E+00 -0.00000000000E+00 -0.47486046142E+03  0.47486046142E+03  0.00000000000E+00 0. -1.
         21    1    1    2  503  505 -0.22464893617E+02 -0.26223757481E+02 -0.23344517580E+03  0.23598518386E+03  0.00000000000E+00 0. -1.
         21    1    1    2  504  502  0.12737473603E+03  0.38677431500E+02 -0.17280958857E+03  0.21813624410E+03  0.00000000000E+00 0. -1.
         21    1    1    2  505  501 -0.10635504399E+03  0.22488711341E+02  0.22596002198E+02  0.11103025190E+03  0.00000000000E+00 0. -1.
          2    1    1    2  501    0  0.14452015824E+01 -0.34942385360E+02  0.67120026990E+03  0.67211075071E+03  0.00000000000E+00 0. -1.
<scales pt_clust_3="34.53052" pt_clust_4="14000.00000" pt_clust_5="109.85950" pt_clust_6="35.02020"></scales>
<clustering>
<clus scale="   34.531">  2  3  1 -1</clus>
<clus scale="   35.020">  1  6  2 -1</clus>
<clus scale="  109.859">  1  5  2 -1</clus>
<clus scale="   34.531">  2  3  1 -1</clus>
</clustering>
</event>
<event>
 6    0  0.2433432E+002  0.1197879E+03  0.7546771E-02  0.1243447E+00
          2   -1    0    0  503    0 -0.00000000000E+00  0.00000000000E+00  0.21197500335E+04  0.21197500335E+04  0.00000000000E+00 0. -1.
         21   -1    0    0  501  502  0.00000000000E+00 -0.00000000000E+00 -0.51077512713E+02  0.51077512713E+02  0.00000000000E+00 0.  1.
         21    1    1    2  503  505 -0.11137445786E+03 -0.37661448900E+02  0.77481455254E+03  0.78368376621E+03  0.00000000000E+00 0. -1.
         21    1    1    2  504  502  0.30223400206E+02  0.89452147602E+01 -0.18472056496E+02  0.36533377318E+02  0.00000000000E+00 0.  1.
         21    1    1    2  505  504  0.99523662890E+02 -0.45833612650E+02  0.15005182385E+03  0.18579889495E+03  0.00000000000E+00 0.  1.
          2    1    1    2  501    0 -0.18372605239E+02  0.74549846791E+02  0.11622782009E+04  0.11648115077E+04  0.00000000000E+00 0. -1.
<scales pt_clust_3="119.78787" pt_clust_4="31.51937" pt_clust_5="14000.00000" pt_clust_6="76.87711"></scales>
<clustering>
<clus scale="   31.519">  2  4  1 -1</clus>
<clus scale="   76.877">  1  6  2 -1</clus>
<clus scale="  119.788">  1  3  2 -1</clus>
<clus scale="   31.519">  2  3  1 -1</clus>
</clustering>
</event>
<event>
 6    0  0.2433432E+002  0.1236150E+03  0.7546771E-02  0.1237250E+00
         21   -1    0    0  505  502  0.00000000000E+00  0.00000000000E+00  0.27850756829E+02  0.27850756829E+02  0.00000000000E+00 0. -1.
          2   -1    0    0  504    0 -0.00000000000E+00 -0.00000000000E+00 -0.24969651174E+04  0.24969651174E+04  0.00000000000E+00 0. -1.
         21    1    1    2  503  501 -0.19529108871E+01 -0.40311603918E+02 -0.14817458240E+03  0.15357260869E+03  0.00000000000E+00 0. -1.
         21    1    1    2  504  502 -0.48634240601E+02  0.12846173633E+03 -0.24302595643E+03  0.27915823928E+03  0.00000000000E+00 0. -1.
         21    1    1    2  505  503  0.31054581414E+02 -0.50659430233E+02 -0.12186703412E+03  0.13558148437E+03  0.00000000000E+00 0. -1.
          2    1    1    2  501    0  0.19532570073E+02 -0.37490702181E+02 -0.19560467877E+04  0.19565035419E+04  0.00000000000E+00 0. -1.
<scales pt_clust_3="32.60292" pt_clust_4="117.11402" pt_clust_5="32.60292" pt_clust_6="42.27380"></scales>
<clustering>
<clus scale="   32.603">  3  5 -1 -1</clus>
<clus scale="   42.274">  2  6  1 -1</clus>
<clus scale="  117.114">  1  4  2 -1</clus>
<clus scale="  117.114">  1  3  2 -1</clus>
</clustering>
</event>
<event>
 6    0  0.2433432E+002  0.1492951E+03  0.7546771E-02  0.1201342E+00
         21   -1    0    0  505  502  0.00000000000E+00  0.00000000000E+00  0.10313322483E+03  0.10313322483E+03  0.00000000000E+00 0. -1.
          2   -1    0    0  504    0 -0.00000000000E+00 -0.00000000000E+00 -0.44314817606E+04  0.44314817606E+04  0.00000000000E+00 0. -1.
         21    1    1    2  503  502 -0.80587212451E+02 -0.13255060773E+02 -0.25646987691E+03  0.26915941969E+03  0.00000000000E+00 0. -1.
         21    1    1    2  504  503 -0.87563815842E+02  0.13694664397E+01 -0.51014618649E+03  0.51760837403E+03  0.00000000000E+00 0. -1.
         21    1    1    2  505  501  0.32500634226E+02  0.16275113835E+02  0.88197995664E+02  0.95394218874E+02  0.00000000000E+00 0. -1.
          2    1    1    2  501    0  0.13565039407E+03 -0.43895195022E+01 -0.36499304681E+04  0.36524529729E+04  0.00000000000E+00 0. -1.
<scales pt_clust_3="48.37420" pt_clust_4="48.37420" pt_clust_5="36.34791" pt_clust_6="139.28996"></scales>
<clustering>
<clus scale="   36.348">  1  5  2 -1</clus>
<clus scale="   48.374">  3  4 -1 -1</clus>
<clus scale="  139.290">  2  6  1 -1</clus>
<clus scale="   36.348">  1  3  2 -1</clus>
</clustering>
</event>
<event>
 6    0  0.2433432E+002  0.9315270E+02  0.7546771E-02  0.1295392E+00
         -2   -1    0    0    0  501 -0.00000000000E+00  0.00000000000E+00  0.21246744797E+04  0.21246744797E+04  0.00000000000E+00 0.  1.
         21   -1    0    0  504  502  0.00000000000E+00 -0.00000000000E+00 -0.31662117698E+02  0.31662117698E+02  0.00000000000E+00 0.  1.
         21    1    1    2  503  502  0.79288684928E+02  0.98839261914E+01  0.11549698644E+03  0.14044195040E+03  0.00000000000E+00 0.  1.
         21    1    1    2  504  505 -0.11466707885E+02 -0.31722157448E+02  0.13392838448E+03  0.13811079911E+03  0.00000000000E+00 0. -1.
         21    1    1    2  505  501 -0.11283368207E+03  0.10964658029E+02  0.17472682682E+03  0.20828136630E+03  0.00000000000E+00 0.  1.
         -2    1    1    2    0  503  0.45011705026E+02  0.10873573228E+02  0.16688601642E+04  0.16695024816E+04  0.00000000000E+00 0.  1.
<scales pt_clust_3="14000.00000" pt_clust_4="33.73100" pt_clust_5="93.15270" pt_clust_6="46.10552"></scales>
<clustering>
<clus scale="   33.731">  2  4  1 -1</clus>
<clus scale="   46.106">  1  6  2 -1</clus>
<clus scale="   93.153">  1  5  2 -1</clus>
<clus scale="   33.731">  2  3  1 -1</clus>
</clustering>
</event>
<event>
 6    0  0.2433432E+002  0.1906769E+03  0.7546771E-02  0.1157852E+00
          2   -1    0    0  504    0 -0.00000000000E+00  0.00000000000E+00  0.12215451920E+04  0.12215451920E+04  0.00000000000E+00 0.  1.
         21   -1    0    0  505  502  0.00000000000E+00 -0.00000000000E+00 -0.21467288527E+03  0.21467288527E+03  0.00000000000E+00 0. -1.
         21    1    1    2  503  501  0.22333693040E+02 -0.10890097009E+03 -0.23734352526E+02  0.11367292827E+03  0.00000000000E+00 0. -1.
         21    1    1    2  504  502  0.41344715480E+02  0.14938130894E+03  0.56718136830E+02  0.16504880492E+03  0.00000000000E+00 0. -1.
         21    1    1    2  505  503 -0.20437027548E+02 -0.86855207267E+02 -0.68930415902E+02  0.11275150270E+03  0.00000000000E+00 0. -1.
          2    1    1    2  501    0 -0.43241380972E+02  0.46374868418E+02  0.10428189383E+04  0.10447448413E+04  0.00000000000E+00 0.  1.
<scales pt_clust_3="59.13748" pt_clust_4="178.88684" pt_clust_5="59.13748" pt_clust_6="63.40698"></scales>
<clustering>
<clus scale="   59.137">  3  5 -1 -1</clus>
<clus scale="   63.407">  1  6  2 -1</clus>
<clus scale="  178.887">  1  4  2 -1</clus>
<clus scale="  190.677">  2  3  1 -1</clus>
</clustering>
</event>
<event>
 6    0  0.2433432E+002  0.1774354E+03  0.7546771E-02  0.1170308E+00
         21   -1    0    0  505  502  0.00000000000E+00  0.00000000000E+00  0.10477644339E+03  0.10477644339E+03  0.00000000000E+00 0.  1.
          2   -1    0    0  503    0 -0.00000000000E+00 -0.00000000000E+00 -0.94217265141E+03  0.94217265141E+03  0.00000000000E+00 0. -1.
         21    1    1    2  503  504 -0.11546773689E+02  0.15427542481E+03 -0.41152752713E+03  0.43964660839E+03  0.00000000000E+00 0. -1.
         21    1    1    2  504  502 -0.36745551664E+02  0.21870554815E+02 -0.38836193872E+02  0.57765099234E+02  0.00000000000E+00 0.  1.
         21    1    1    2  505  501  0.41869108715E+02  0.45375631871E+02  0.36360068779E+02  0.71652109766E+02  0.00000000000E+00 0.  1.
          2    1    1    2  501    0  0.64232166383E+01 -0.22152161149E+03 -0.42339255579E+03  0.47788527742E+03  0.00000000000E+00 0. -1.
<scales pt_clust_3="14000.00000" pt_clust_4="42.76163" pt_clust_5="61.48309" pt_clust_6="177.43542"></scales>
<clustering>
<clus scale="   42.762">  1  4  2 -1</clus>
<clus scale="   61.483">  1  5  2 -1</clus>
<clus scale="  177.435">  1  6  2 -1</clus>
<clus scale="   42.762">  1  3  2 -1</clus>
</clustering>
</event>
<event>
 6    0  0.2433432E+002  0.2706048E+03  0.7546771E-02  0.1100934E+00
         21   -1    0    0  503  502  0.00000000000E+00  0.00000000000E+00  0.20395370237E+03  0.20395370237E+03  0.00000000000E+00 0. -1.
         -2   -1    0    0    0  501 -0.00000000000E+00 -0.00000000000E+00 -0.93074683430E+03  0.93074683430E+03  0.00000000000E+00 0.  1.
         21    1    1    2  503  504  0.21465490853E+03 -0.17305209495E+03  0.15479457317E+02  0.27615823530E+03  0.00000000000E+00 0. -1.
         21    1    1    2  504  505 -0.81393207005E+02  0.38162369698E+02 -0.92930121258E+02  0.12929511996E+03  0.00000000000E+00 0. -1.
         21    1    1    2  505  501 -0.10612762872E+03  0.11750307349E+03 -0.11935739071E+03  0.19828321304E+03  0.00000000000E+00 0. -1.
         -2    1    1    2    0  502 -0.27134072810E+02  0.17386651767E+02 -0.52998507729E+03  0.53096396838E+03  0.00000000000E+00 0.  1.
<scales pt_clust_3="265.29453" pt_clust_4="40.57830" pt_clust_5="40.57830" pt_clust_6="32.22660"></scales>
<clustering>
<clus scale="   32.227">  2  6  1 -1</clus>
<clus scale="   40.578">  4  5 -1 -1</clus>
<clus scale="  265.295">  1  3  2 -1</clus>
<clus scale="  265.295">  1  3  2 -1</clus>
</clustering>
</event>
<event>
 6    0  0.2433432E+002  0.1666522E+03  0.7546771E-02  0.1181385E+00
          2   -1    0    0  505    0 -0.00000000000E+00  0.00000000000E+00  0.29604891278E+04  0.29604891278E+04  0.00000000000E+00 0.  1.
         21   -1    0    0  501  502  0.00000000000E+00 -0.00000000000E+00 -0.39809556757E+03  0.39809556757E+03  0.00000000000E+00 0. -1.
         21    1    1    2  503  502  0.37263877327E+02  0.14942507699E+03 -0.34527077248E+03  0.37805866808E+03  0.00000000000E+00 0. -1.
         21    1    1    2  504  503 -0.18827532092E+02 -0.74633423821E+02  0.11503558171E+03  0.13841173713E+03  0.00000000000E+00 0. -1.
         21    1    1    2  505  504 -0.89205301501E+02 -0.84635883490E+02  0.13153638544E+03  0.18006287592E+03  0.00000000000E+00 0. -1.
          2    1    1    2  501    0  0.70768956266E+02  0.98442303256E+01  0.26610923656E+04  0.26620514142E+04  0.00000000000E+00 0.  1.
<scales pt_clust_3="155.50697" pt_clust_4="47.40795" pt_clust_5="47.40795" pt_clust_6="71.45036"></scales>
<clustering>
<clus scale="   47.408">  4  5 -1 -1</clus>
<clus scale="   71.450">  1  6  2 -1</clus>
<clus scale="  155.507">  2  3  1 -1</clus>
<clus scale="  155.507">  2  3  1 -1</clus>
</clustering>
</event>
<event>
 6    0  0.2433432E+002  0.9466633E+02  0.7546771E-02  0.1291929E+00
          2   -1    0    0  503    0 -0.00000000000E+00  0.00000000000E+00  0.10993401343E+04  0.10993401343E+04  0.00000000000E+00 0.  1.
         21   -1    0    0  505  502  0.00000000000E+00 -0.00000000000E+00 -0.49833178924E+03  0.49833178924E+03  0.00000000000E+00 0. -1.
         21    1    1    2  503  502  0.46358252008E+02 -0.10064457466E+03 -0.34811041302E+03  0.36532078724E+03  0.00000000000E+00 0. -1.
         21    1    1    2  504  501 -0.78803845150E+02  0.71402571135E+02  0.46699318293E+02  0.11614301315E+03  0.00000000000E+00 0. -1.
         21    1    1    2  505  504 -0.33007380386E+02  0.72568203488E+01 -0.10300918261E+03  0.10841143991E+03  0.00000000000E+00 0. -1.
          2    1    1    2  501    0  0.65452973528E+02  0.21985183178E+02  0.10054286224E+04  0.10077966832E+04  0.00000000000E+00 0.  1.
<scales pt_clust_3="94.66633" pt_clust_4="14000.00000" pt_clust_5="33.79569" pt_clust_6="68.95928"></scales>
<clustering>
<clus scale="   33.796">  2  5  1 -1</clus>
<clus scale="   68.959">  1  6  2 -1</clus>
<clus scale="   94.666">  2  3  1 -1</clus>
<clus scale="   33.796">  2  3  1 -1</clus>
</clustering>
</event>
<event>
 6    0  0.2433432E+002  0.1009204E+03  0.7546771E-02  0.1278372E+00
         -1   -1    0    0    0  501 -0.00000000000E+00  0.00000000000E+00  0.39570828731E+03  0.39570828731E+03  0.00000000000E+00 0. -1.
         21   -1    0    0  505  502  0.00000000000E+00 -0.00000000000E+00 -0.72937918820E+03  0.72937918820E+03  0.00000000000E+00 0. -1.
         21    1    1    2  503  501 -0.20063686489E+01 -0.65164140900E+02 -0.26590269969E+01  0.65249223743E+02  0.00000000000E+00 0.  1.
         21    1    1    2  504  502  0.40844129475E+02  0.98795847564E+02 -0.47214287666E+03  0.48409478244E+03  0.00000000000E+00 0. -1.
         21    1    1    2  505  503  0.38001139601E+02 -0.33175204103E+02 -0.21016891888E+03  0.21613804672E+03  0.00000000000E+00 0.  1.
         -1    1    1    2    0  504 -0.76838900428E+02 -0.45650255988E+00  0.35129992165E+03  0.35960542260E+03  0.00000000000E+00 0. -1.
<scales pt_clust_3="67.34801" pt_clust_4="14000.00000" pt_clust_5="50.44483" pt_clust_6="100.92036"></scales>
<clustering>
<clus scale="   50.445">  2  5  1 -1</clus>
<clus scale="   67.348">  1  3  2 -1</clus>
<clus scale="  100.920">  1  6  2 -1</clus>
<clus scale="   50.445">  2  3  1 -1</clus>
</clustering>
</event>
<event>
 6    0  0.2433432E+002  0.7021118E+02  0.7546771E-02  0.1359376E+00
         -1   -1    0    0    0  501 -0.00000000000E+00  0.00000000000E+00  0.42791510075E+02  0.42791510075E+02  0.00000000000E+00 0. -1.
         21   -1    0    0  504  502  0.00000000000E+00 -0.00000000000E+00 -0.13458018349E+04  0.13458018349E+04  0.00000000000E+00 0.  1.
         21    1    1    2  503  502  0.87793473759E+02 -0.57002530862E+02 -0.17782871236E+03  0.20634929973E+03  0.00000000000E+00 0.  1.
         21    1    1    2  504  505 -0.15599928245E+02  0.67831313833E+02 -0.10816700747E+04  0.10839070972E+04  0.00000000000E+00 0.  1.
         21    1    1    2  505  501 -0.21352707990E+02 -0.24211604237E+02 -0.29967538478E+02  0.44047625142E+02  0.00000000000E+00 0. -1.
         -1    1    1    2    0  503 -0.50840837525E+02  0.13382821267E+02 -0.13543999318E+02  0.54289322917E+02  0.00000000000E+00 0. -1.
<scales pt_clust_3="14000.00000" pt_clust_4="70.21118" pt_clust_5="32.28219" pt_clust_6="63.00985"></scales>
<clustering>
<clus scale="   32.282">  1  5  2 -1</clus>
<clus scale="   63.010">  1  6  2 -1</clus>
<clus scale="   70.211">  2  4  1 -1</clus>
<clus scale="   70.211">  2  3  1 -1</clus>
</clustering>
</event>
<event>
 6    0  0.2433432E+002  0.9499881E+02  0.7546771E-02  0.1291179E+00
         21   -1    0    0  504  502  0.00000000000E+00  0.00000000000E+00  0.15938828801E+03  0.15938828801E+03  0.00000000000E+00 0. -1.
          2   -1    0    0  505    0 -0.00000000000E+00 -0.00000000000E+00 -0.17649205725E+04  0.17649205725E+04  0.00000000000E+00 0. -1.
         21    1    1    2  503  502  0.56797164636E+02  0.28943145288E+02 -0.18302927055E+02  0.66322098192E+02  0.00000000000E+00 0.  1.
         21    1    1    2  504  501 -0.77309370119E+02 -0.89346153475E+00  0.62111843882E+02  0.99173676609E+02  0.00000000000E+00 0. -1.
         21    1    1    2  505  503  0.69941899227E+02  0.41015717604E+02  0.23028607146E+02  0.84288048413E+02  0.00000000000E+00 0. -1.
          2    1    1    2  501    0 -0.49429693745E+02 -0.69065401357E+02 -0.16723698085E+04  0.16745250373E+04  0.00000000000E+00 0. -1.
<scales pt_clust_3="36.60241" pt_clust_4="77.31453" pt_clust_5="36.60241" pt_clust_6="85.56122"></scales>
<clustering>
<clus scale="   36.602">  3  5 -1 -1</clus>
<clus scale="   77.315">  1  4  2 -1</clus>
<clus scale="   85.561">  2  6  1 -1</clus>
<clus scale="   77.315">  1  3  2 -1</clus>
</clustering>
</event>
<event>
 6    0  0.2433432E+002  0.9959615E+02  0.7546771E-02  0.1281147E+00
          1   -1    0    0  504    0 -0.00000000000E+00  0.00000000000E+00  0.49913539743E+03  0.49913539743E+03  0.00000000000E+00 0. -1.
         21   -1    0    0  505  502  0.00000000000E+00 -0.00000000000E+00 -0.18222828562E+04  0.18222828562E+04  0.00000000000E+00 0. -1.
         21    1    1    2  503  502 -0.27260416865E+02  0.32952268389E+02 -0.14298750239E+04  0.14305144412E+04  0.00000000000E+00 0. -1.
         21    1    1    2  504  503 -0.67946165487E+02  0.15865381886E+02 -0.24903367761E+03  0.25862359585E+03  0.00000000000E+00 0. -1.
         21    1    1    2  505  501 -0.24728210048E+01 -0.71831895981E+02 -0.12335498703E+03  0.14276690425E+03  0.00000000000E+00 0.  1.
          1    1    1    2  501    0  0.97679403356E+02  0.23014245706E+02  0.47911622979E+03  0.48951331237E+03  0.00000000000E+00 0. -1.
<scales pt_clust_3="42.76660" pt_clust_4="99.59615" pt_clust_5="61.77185" pt_clust_6="14000.00000"></scales>
<clustering>
<clus scale="   42.767">  2  3  1 -1</clus>
<clus scale="   61.772">  2  5  1 -1</clus>
<clus scale="   99.596">  2  4  1 -1</clus>
<clus scale="   42.767">  2  3  1 -1</clus>
</clustering>
</event>
<event>
 6    0  0.2433432E+002  0.7750360E+02  0.7546771E-02  0.1336289E+00
          2   -1    0    0  505    0 -0.00000000000E+00  0.00000000000E+00  0.31974808698E+04  0.31974808698E+04  0.00000000000E+00 0.  1.
         21   -1    0    0  503  502  0.00000000000E+00 -0.00000000000E+00 -0.41304832303E+02  0.41304832303E+02  0.00000000000E+00 0. -1.
         21    1    1    2  503  501 -0.92493229745E+02 -0.16010765804E+02  0.40144878109E+03  0.41227717134E+03  0.00000000000E+00 0.  1.
         21    1    1    2  504  502  0.23975618875E+02  0.19909803729E+02 -0.51161425172E+01  0.31581727299E+02  0.00000000000E+00 0.  1.
         21    1    1    2  505  504  0.50190772711E+02 -0.53891216326E+02  0.61188256992E+02  0.95746434169E+02  0.00000000000E+00 0. -1.
          2    1    1    2  501    0  0.18326838159E+02  0.49992178401E+02  0.26986551419E+04  0.26991803693E+04  0.00000000000E+00 0.  1.
<scales pt_clust_3="14000.00000" pt_clust_4="31.16457" pt_clust_5="77.50360" pt_clust_6="53.55413"></scales>
<clustering>
<clus scale="   31.165">  2  4  1 -1</clus>
<clus scale="   53.554">  1  6  2 -1</clus>
<clus scale="   77.504">  2  5  1 -1</clus>
<clus scale="   31.165">  2  3  1 -1</clus>
</clustering>
</event>
<event>
 6    0  0.2433432E+002  0.9286297E+02  0.7546771E-02  0.1296063E+00
          2   -1    0    0  504    0 -0.00000000000E+00  0.00000000000E+00  0.86985381859E+03  0.86985381859E+03  0.00000000000E+00 0.  1.
         21   -1    0    0  505  502  0.00000000000E+00 -0.00000000000E+00 -0.78262522035E+02  0.78262522035E+02  0.00000000000E+00 0. -1.
         21    1    1    2  503  502  0.37066586454E+01 -0.42805877772E+02  0.21710423245E+02  0.48139640293E+02  0.00000000000E+00 0.  1.
         21    1    1    2  504  503 -0.19278963756E+01  0.10043965995E+03 -0.87167534393E+01  0.10083562795E+03  0.00000000000E+00 0. -1.
         21    1    1    2  505  501  0.23395459612E+02  0.31557853254E+02  0.45092798109E+02  0.59804732871E+02  0.00000000000E+00 0. -1.
          2    1    1    2  501    0 -0.25174221882E+02 -0.89191635428E+02  0.73350482864E+03  0.73933633951E+03  0.00000000000E+00 0.  1.
<scales pt_clust_3="37.79544" pt_clust_4="92.86297" pt_clust_5="39.28417" pt_clust_6="14000.00000"></scales>
<clustering>
<clus scale="   39.284">  2  5  1 -1</clus>
<clus scale="   37.795">  2  3  1 -1</clus>
<clus scale="   92.863">  2  4  1 -1</clus>
<clus scale="   39.284">  2  3  1 -1</clus>
</clustering>
</event>
<event>
 6    0  0.2433432E+002  0.1097781E+03  0.7546771E-02  0.1260981E+00
          2   -1    0    0  504    0 -0.00000000000E+00  0.00000000000E+00  0.16387615673E+04  0.16387615673E+04  0.00000000000E+00 0. -1.
         21   -1    0    0  505  502  0.00000000000E+00 -0.00000000000E+00 -0.24512370799E+03  0.24512370799E+03  0.00000000000E+00 0.  1.
         21    1    1    2  503  502  0.34661121349E+02  0.21760318334E+02 -0.15814365188E+03  0.16335335753E+03  0.00000000000E+00 0.  1.
         21    1    1    2  504  503 -0.10767965532E+03  0.33102561743E+02 -0.20096925709E+02  0.11443152619E+03  0.00000000000E+00 0.  1.
         21    1    1    2  505  501 -0.36726246377E+02 -0.51201595582E+02  0.50462914006E+02  0.80727481400E+02  0.00000000000E+00 0. -1.
          2    1    1    2  501    0  0.10974478034E+03 -0.36612844941E+01  0.15214155228E+04  0.15253729101E+04  0.00000000000E+00 0. -1.
<scales pt_clust_3="40.92560" pt_clust_4="14000.00000" pt_clust_5="56.28544" pt_clust_6="109.77814"></scales>
<clustering>
<clus scale="   40.926">  2  3  1 -1</clus>
<clus scale="   56.285">  2  5  1 -1</clus>
<clus scale="  109.778">  1  6  2 -1</clus>
<clus scale="   40.926">  2  3  1 -1</clus>
</clustering>
</event>
<event>
 6    0  0.2433432E+002  0.1278834E+03  0.7546771E-02  0.1230631E+00
         -4   -1    0    0    0  501 -0.00000000000E+00  0.00000000000E+00  0.85029367198E+03  0.85029367198E+03  0.00000000000E+00 0. -1.
         21   -1    0    0  503  502  0.00000000000E+00 -0.00000000000E+00 -0.42814192491E+03  0.42814192491E+03  0.00000000000E+00 0. -1.
         21    1    1    2  503  505 -0.34612853185E+02  0.25931738177E+02 -0.48671301651E+01  0.43522334571E+02  0.00000000000E+00 0. -1.
         21    1    1    2  504  502 -0.82151281787E+02  0.33097354097E+02 -0.38869979751E+03  0.39866251458E+03  0.00000000000E+00 0. -1.
         21    1    1    2  505  501  0.61151030315E+02  0.34729208543E+02  0.23139219893E+03  0.24184275089E+03  0.00000000000E+00 0. -1.
         -4    1    1    2    0  504  0.55613104656E+02 -0.93758300817E+02  0.58432647581E+03  0.59440799685E+03  0.00000000000E+00 0. -1.
<scales pt_clust_3="43.24933" pt_clust_4="127.88341" pt_clust_5="70.10292" pt_clust_6="14000.00000"></scales>
<clustering>
<clus scale="   43.249">  2  3  1 -1</clus>
<clus scale="   70.103">  1  5  2 -1</clus>
<clus scale="  127.883">  2  4  1 -1</clus>
<clus scale="   43.249">  2  3  1 -1</clus>
</clustering>
</event>
<event>
 6    0  0.2433432E+002  0.1230632E+03  0.7546771E-02  0.1238128E+00
         21   -1    0    0  505  502  0.00000000000E+00  0.00000000000E+00  0.56329969783E+02  0.56329969783E+02  0.00000000000E+00 0. -1.
          1   -1    0    0  503    0 -0.00000000000E+00 -0.00000000000E+00 -0.87254668151E+03  0.87254668151E+03  0.00000000000E+00 0.  1.
         21    1    1    2  503  502  0.77603641120E+01 -0.50843487200E+02 -0.83098284971E+02  0.97727214260E+02  0.00000000000E+00 0.  1.
         21    1    1    2  504  501 -0.66226949863E+02 -0.49041545224E+02 -0.56338621667E+02  0.99825459365E+02  0.00000000000E+00 0. -1.
         21    1    1    2  505  504 -0.41695394983E+02  0.81487695656E+01 -0.14900381225E+01  0.42510335471E+02  0.00000000000E+00 0. -1.
          1    1    1    2  501    0  0.10016198073E+03  0.91736262859E+02 -0.67528976696E+03  0.68881364219E+03  0.00000000000E+00 0.  1.
<scales pt_clust_3="49.18527" pt_clust_4="123.06321" pt_clust_5="42.48421" pt_clust_6="14000.00000"></scales>
<clustering>
<clus scale="   42.484">  1  5  2 -1</clus>
<clus scale="   49.185">  1  3  2 -1</clus>
<clus scale="  123.063">  1  4  2 -1</clus>
<clus scale="   42.484">  1  3  2 -1</clus>
</clustering>
</event>
<event>
 6    0  0.2433432E+002  0.1277937E+03  0.7546771E-02  0.1230767E+00
         21   -1    0    0  503  502  0.00000000000E+00  0.00000000000E+00  0.66786149707E+03  0.66786149707E+03  0.00000000000E+00 0. -1.
         -2   -1    0    0    0  501 -0.00000000000E+00 -0.00000000000E+00 -0.32692254788E+03  0.32692254788E+03  0.00000000000E+00 0. -1.
         21    1    1    2  503  501  0.45456536070E+02  0.11565760788E+03  0.20358867178E+03  0.23851902694E+03  0.00000000000E+00 0. -1.
         21    1    1    2  504  502 -0.70198987121E+02  0.13801941033E+02  0.42339921067E+03  0.42940107471E+03  0.00000000000E+00 0. -1.
         21    1    1    2  505  504  0.55173215355E+02 -0.10654390068E+03 -0.21235511585E+03  0.24390650195E+03  0.00000000000E+00 0. -1.
         -2    1    1    2    0  505 -0.30430764305E+02 -0.22915648241E+02 -0.73693817412E+02  0.82957441349E+02  0.00000000000E+00 0. -1.
<scales pt_clust_3="14000.00000" pt_clust_4="71.85083" pt_clust_5="127.79367" pt_clust_6="38.09407"></scales>
<clustering>
<clus scale="   38.094">  2  6  1 -1</clus>
<clus scale="   71.851">  1  4  2 -1</clus>
<clus scale="  127.794">  2  5  1 -1</clus>
<clus scale="   71.851">  1  3  2 -1</clus>
</clustering>
</event>
<event>
 6    0  0.2433432E+002  0.8206465E+02  0.7546771E-02  0.1323292E+00
         -2   -1    0    0    0  501 -0.00000000000E+00  0.00000000000E+00  0.13176796570E+02  0.13176796570E+02  0.00000000000E+00 0. -1.
         21   -1    0    0  501  502  0.00000000000E+00 -0.00000000000E+00 -0.23329416085E+04  0.23329416085E+04  0.00000000000E+00 0. -1.
         21    1    1    2  503  505 -0.58184922934E+02 -0.69507838271E+02 -0.85875589469E+03  0.86352678679E+03  0.00000000000E+00 0. -1.
         21    1    1    2  504  503  0.95435518071E+01  0.63981605230E+02 -0.21286714142E+03  0.22247953858E+03  0.00000000000E+00 0. -1.
         21    1    1    2  505  502  0.92551940002E+02 -0.59036098642E+01 -0.11260348677E+04  0.11298474399E+04  0.00000000000E+00 0.  1.
         -2    1    1    2    0  504 -0.43910568875E+02  0.11429842905E+02 -0.12210690806E+03  0.13026463973E+03  0.00000000000E+00 0. -1.
<scales pt_clust_3="82.06465" pt_clust_4="71.33841" pt_clust_5="14000.00000" pt_clust_6="45.37377"></scales>
<clustering>
<clus scale="   45.374">  1  6  2 -1</clus>
<clus scale="   71.338">  1  4  2 -1</clus>
<clus scale="   82.065">  1  3  2 -1</clus>
<clus scale="   82.065">  2  3  1 -1</clus>
</clustering>
</event>
<event>
 6    0  0.2433432E+002  0.7854385E+02  0.7546771E-02  0.1333235E+00
          1   -1    0    0  503    0 -0.00000000000E+00  0.00000000000E+00  0.14839747403E+04  0.14839747403E+04  0.00000000000E+00 0.  1.
         21   -1    0    0  505  502  0.00000000000E+00 -0.00000000000E+00 -0.96454503812E+02  0.96454503812E+02  0.00000000000E+00 0. -1.
         21    1    1    2  503  502  0.13828676696E+01  0.36905202107E+02  0.18647648336E+00  0.36931572388E+02  0.00000000000E+00 0. -1.
         21    1    1    2  504  501 -0.12747178606E+03  0.61626359231E+01  0.34082949822E+02  0.13209345855E+03  0.00000000000E+00 0. -1.
         21    1    1    2  505  504  0.56651288909E+02 -0.82747608012E+01  0.13439315512E+01  0.57268196701E+02  0.00000000000E+00 0. -1.
          1    1    1    2  501    0  0.69437629485E+02 -0.34793077229E+02  0.13519068787E+04  0.13541360165E+04  0.00000000000E+00 0.  1.
<scales pt_clust_3="36.93110" pt_clust_4="14000.00000" pt_clust_5="57.35976" pt_clust_6="78.54385"></scales>
<clustering>
<clus scale="   36.931">  2  3  1 -1</clus>
<clus scale="   57.360">  2  5  1 -1</clus>
<clus scale="   78.544">  1  6  2 -1</clus>
<clus scale="   36.931">  2  3  1 -1</clus>
</clustering>
</event>
<event>
 6    0  0.2433432E+002  0.1425168E+03  0.7546771E-02  0.1209982E+00
         21   -1    0    0  501  502  0.00000000000E+00  0.00000000000E+00  0.26850108919E+02  0.26850108919E+02  0.00000000000E+00 0.  1.
          2   -1    0    0  504    0 -0.00000000000E+00 -0.00000000000E+00 -0.24751984672E+04  0.24751984672E+04  0.00000000000E+00 0.  1.
         21    1    1    2  503  505  0.56142033922E+02 -0.66357166660E+02 -0.12247767275E+03  0.15018649028E+03  0.00000000000E+00 0.  1.
         21    1    1    2  504  503 -0.89253480610E+02  0.55111306371E+02 -0.64575189401E+03  0.65421628573E+03  0.00000000000E+00 0.  1.
         21    1    1    2  505  502  0.64061782498E+02 -0.13144329019E+02 -0.11704535018E+03  0.13407572249E+03  0.00000000000E+00 0.  1.
          2    1    1    2  501    0 -0.30950335811E+02  0.24390189308E+02 -0.15630734414E+04  0.15635700776E+04  0.00000000000E+00 0.  1.
<scales pt_clust_3="44.60138" pt_clust_4="132.84105" pt_clust_5="44.60138" pt_clust_6="39.40564"></scales>
<clustering>
<clus scale="   39.406">  2  6  1 -1</clus>
<clus scale="   44.601">  3  5 -1 -1</clus>
<clus scale="  132.841">  2  4  1 -1</clus>
<clus scale="  142.517">  1  3  2 -1</clus>
</clustering>
</event>
<event>
 6    0  0.2433432E+002  0.7149096E+02  0.7546771E-02  0.1355095E+00
          2   -1    0    0  505    0 -0.00000000000E+00  0.00000000000E+00  0.15327407300E+04  0.15327407300E+04  0.00000000000E+00 0. -1.
         21   -1    0    0  501  502  0.00000000000E+00 -0.00000000000E+00 -0.44413383866E+02  0.44413383866E+02  0.00000000000E+00 0.  1.
         21    1    1    2  503  502  0.25226640221E+02  0.37441541466E+02  0.21721493510E+02  0.50100655529E+02  0.00000000000E+00 0.  1.
         21    1    1    2  504  503 -0.90190542173E+02 -0.38178050119E+02  0.70352648422E+02  0.12058769650E+03  0.00000000000E+00 0.  1.
         21    1    1    2  505  504 -0.33000859498E+02  0.30815166790E+02  0.16854435165E+03  0.17448733393E+03  0.00000000000E+00 0.  1.
          2    1    1    2  501    0  0.97964761450E+02 -0.30078658137E+02  0.12277088525E+04  0.12319784279E+04  0.00000000000E+00 0. -1.
<scales pt_clust_3="45.14701" pt_clust_4="14000.00000" pt_clust_5="46.05979" pt_clust_6="71.49096"></scales>
<clustering>
<clus scale="   45.147">  2  3  1 -1</clus>
<clus scale="   46.060">  1  5  2 -1</clus>
<clus scale="   71.491">  1  6  2 -1</clus>
<clus scale="   45.147">  2  3  1 -1</clus>
</clustering>
</event>
<event>
 6    0  0.2433432E+002  0.1244236E+03  0.7546771E-02  0.1235973E+00
          1   -1    0    0  504    0 -0.00000000000E+00  0.00000000000E+00  0.14501670801E+04  0.14501670801E+04  0.00000000000E+00 0. -1.
         21   -1    0    0  503  502  0.00000000000E+00 -0.00000000000E+00 -0.95929190094E+02  0.95929190094E+02  0.00000000000E+00 0.  1.
         21    1    1    2  503  501  0.73883475101E+02  0.61359566801E+02  0.11156562757E+03  0.14720955671E+03  0.00000000000E+00 0. -1.
         21    1    1    2  504  505 -0.87062602194E+02 -0.25199099563E+02 -0.16147061435E+02  0.92063124608E+02  0.00000000000E+00 0.  1.
         21    1    1    2  505  502 -0.18590744313E+02 -0.37036232409E+02 -0.57655042575E+01  0.41839446991E+02  0.00000000000E+00 0. -1.
          1    1    1    2  501    0  0.31769871407E+02  0.87576517119E+00  0.12645848282E+04  0.12649841419E+04  0.00000000000E+00 0. -1.
<scales pt_clust_3="114.31260" pt_clust_4="33.86228" pt_clust_5="33.86228" pt_clust_6="31.78194"></scales>
<clustering>
<clus scale="   31.782">  1  6  2 -1</clus>
<clus scale="   33.862">  4  5 -1 -1</clus>
<clus scale="  114.313">  1  3  2 -1</clus>
<clus scale="  124.424">  2  3  1 -1</clus>
</clustering>
</event>
<event>
 6    0  0.2433432E+002  0.1217884E+03  0.7546771E-02  0.1240176E+00
          2   -1    0    0  504    0 -0.00000000000E+00  0.00000000000E+00  0.15250364792E+04  0.15250364792E+04  0.00000000000E+00 0.  1.
         21   -1    0    0  501  502  0.00000000000E+00 -0.00000000000E+00 -0.15710147873E+04  0.15710147873E+04  0.00000000000E+00 0.  1.
         21    1    1    2  503  505 -0.10516956387E+03  0.14491039150E+03  0.24101953515E+03  0.30025002091E+03  0.00000000000E+00 0.  1.
         21    1    1    2  504  503  0.70622280474E+01  0.36114269245E+02  0.12673944034E+03  0.13197348691E+03  0.00000000000E+00 0.  1.
         21    1    1    2  505  502  0.50757819339E+02 -0.53904144669E+02 -0.15337971760E+04  0.15355832085E+04  0.00000000000E+00 0.  1.
          2    1    1    2  501    0  0.47349516483E+02 -0.12712051608E+03  0.11200598924E+04  0.11282445502E+04  0.00000000000E+00 0.  1.
<scales pt_clust_3="121.78839" pt_clust_4="36.79831" pt_clust_5="74.02689" pt_clust_6="14000.00000"></scales>
<clustering>
<clus scale="   36.798">  1  4  2 -1</clus>
<clus scale="   74.027">  2  5  1 -1</clus>
<clus scale="  121.788">  2  3  1 -1</clus>
<clus scale="   74.027">  2  3  1 -1</clus>
</clustering>
</event>
<event>
 6    0  0.2433432E+002  0.9545371E+02  0.7546771E-02  0.1290157E+00
         21   -1    0    0  505  502  0.00000000000E+00  0.00000000000E+00  0.15997792298E+03  0.15997792298E+03  0.00000000000E+00 0.  1.
          1   -1    0    0  504    0 -0.00000000000E+00 -0.00000000000E+00 -0.19986148334E+04  0.19986148334E+04  0.00000000000E+00 0.  1.
         21    1    1    2  503  501  0.71300478146E+01  0.86490614514E+02  0.50451386243E+02  0.10038329719E+03  0.00000000000E+00 0.  1.
         21    1    1    2  504  502 -0.72913052538E+00 -0.10793456395E+03 -0.95421483309E+02  0.14406825189E+03  0.00000000000E+00 0. -1.
         21    1    1    2  505  503 -0.45578888910E+02  0.40030660640E+01  0.51263530561E+02  0.68712511363E+02  0.00000000000E+00 0.  1.
          1    1    1    2  501    0  0.39177971621E+02  0.17440883375E+02 -0.18449303439E+04  0.18454286960E+04  0.00000000000E+00 0.  1.
<scales pt_clust_3="95.45371" pt_clust_4="14000.00000" pt_clust_5="43.63798" pt_clust_6="42.88470"></scales>
<clustering>
<clus scale="   42.885">  2  6  1 -1</clus>
<clus scale="   43.638">  1  5  2 -1</clus>
<clus scale="   95.454">  1  3  2 -1</clus>
<clus scale="   43.638">  1  3  2 -1</clus>
</clustering>
</event>
<event>
 6    0  0.2433432E+002  0.9822065E+02  0.7546771E-02  0.1284083E+00
          2   -1    0    0  502    0 -0.00000000000E+00  0.00000000000E+00  0.10117073484E+04  0.10117073484E+04  0.00000000000E+00 0. -1.
         21   -1    0    0  504  502  0.00000000000E+00 -0.00000000000E+00 -0.20205850180E+02  0.20205850180E+02  0.00000000000E+00 0. -1.
         21    1    1    2  503  505 -0.54742104316E+02  0.45516303037E+02  0.20457865195E+03  0.21661222648E+03  0.00000000000E+00 0. -1.
         21    1    1    2  504  503  0.40222893303E+02 -0.33997496893E+02  0.87102934068E+02  0.10178719008E+03  0.00000000000E+00 0. -1.
         21    1    1    2  505  501 -0.54490380648E+02  0.25494860353E+02  0.27032813294E+03  0.27694130957E+03  0.00000000000E+00 0. -1.
          2    1    1    2  501    0  0.69009591661E+02 -0.37013666497E+02  0.42949177924E+03  0.43657247243E+03  0.00000000000E+00 0. -1.
<scales pt_clust_3="30.27002" pt_clust_4="52.66603" pt_clust_5="30.27002" pt_clust_6="92.53636"></scales>
<clustering>
<clus scale="   30.270">  3  5 -1 -1</clus>
<clus scale="   52.666">  2  4  1 -1</clus>
<clus scale="   92.536">  1  6  2 -1</clus>
<clus scale="   52.666">  2  3  1 -1</clus>
</clustering>
</event>
<event>
 6    0  0.2433432E+002  0.1070657E+03  0.7546771E-02  0.1266102E+00
          2   -1    0    0  504    0 -0.00000000000E+00  0.00000000000E+00  0.12612784123E+04  0.12612784123E+04  0.00000000000E+00 0.  1.
         21   -1    0    0  505  502  0.00000000000E+00 -0.00000000000E+00 -0.15722457280E+03  0.15722457280E+03  0.00000000000E+00 0. -1.
         21    1    1    2  503  501  0.89978642670E+02  0.77673995677E+02  0.84891855837E+02  0.14606858981E+03  0.00000000000E+00 0.  1.
         21    1    1    2  504  502 -0.93219203237E+02 -0.82351883136E+00 -0.31587178381E+02  0.98428897553E+02  0.00000000000E+00 0. -1.
         21    1    1    2  505  503 -0.19230441610E+02 -0.45572529495E+02 -0.51312218476E+02  0.71271376401E+02  0.00000000000E+00 0. -1.
          2    1    1    2  501    0  0.22471002177E+02 -0.31277947351E+02  0.11020613805E+04  0.11027341213E+04  0.00000000000E+00 0.  1.
<scales pt_clust_3="107.06565" pt_clust_4="14000.00000" pt_clust_5="50.76709" pt_clust_6="38.51306"></scales>
<clustering>
<clus scale="   38.513">  1  6  2 -1</clus>
<clus scale="   50.767">  2  5  1 -1</clus>
<clus scale="  107.066">  1  3  2 -1</clus>
<clus scale="   50.767">  2  3  1 -1</clus>
</clustering>
</event>
<event>
 6    0  0.2433432E+002  0.1260046E+03  0.7546771E-02  0.1233508E+00
         21   -1    0    0  505  502  0.00000000000E+00  0.00000000000E+00  0.31935840549E+02  0.31935840549E+02  0.00000000000E+00 0. -1.
          1   -1    0    0  503    0 -0.00000000000E+00 -0.00000000000E+00 -0.28373244232E+04  0.28373244232E+04  0.00000000000E+00 0.  1.
         21    1    1    2  503  504 -0.67270355838E+02  0.62019385023E+02 -0.82920040471E+02  0.12348051670E+03  0.00000000000E+00 0. -1.
         21    1    1    2  504  502 -0.41390483046E+02 -0.11372537797E+01 -0.10089842423E+03  0.10906400619E+03  0.00000000000E+00 0. -1.
         21    1    1    2  505  501 -0.16176694457E+02 -0.26337705122E+02 -0.34170068413E+02  0.46075522026E+02  0.00000000000E+00 0. -1.
          1    1    1    2  501    0  0.12483753334E+03 -0.34544426121E+02 -0.25874000495E+04  0.25906402188E+04  0.00000000000E+00 0.  1.
<scales pt_clust_3="14000.00000" pt_clust_4="44.24801" pt_clust_5="30.90890" pt_clust_6="126.00460"></scales>
<clustering>
<clus scale="   30.909">  1  5  2 -1</clus>
<clus scale="   44.248">  1  4  2 -1</clus>
<clus scale="  126.005">  2  6  1 -1</clus>
<clus scale="   30.909">  1  3  2 -1</clus>
</clustering>
</event>
<event>
 6    0  0.2433432E+002  0.3191273E+03  0.7546771E-02  0.1076052E+00
         21   -1    0    0  503  502  0.00000000000E+00  0.00000000000E+00  0.82898460349E+02  0.82898460349E+02  0.00000000000E+00 0.  1.
          2   -1    0    0  505    0 -0.00000000000E+00 -0.00000000000E+00 -0.27482104922E+04  0.27482104922E+04  0.00000000000E+00 0.  1.
         21    1    1    2  503  504 -0.17715873752E+03  0.13196227981E+02 -0.43274391939E+03  0.46778911753E+03  0.00000000000E+00 0.  1.
         21    1    1    2  504  501 -0.11238304771E+03 -0.57536318020E+02 -0.41886289101E+03  0.43747742658E+03  0.00000000000E+00 0.  1.
         21    1    1    2  505  502  0.31222570393E+03  0.12619432785E+02 -0.38164583273E+03  0.49325214842E+03  0.00000000000E+00 0.  1.
          2    1    1    2  501    0 -0.22683918703E+02  0.31720657254E+02 -0.14320593887E+04  0.14325902600E+04  0.00000000000E+00 0.  1.
<scales pt_clust_3="76.48028" pt_clust_4="76.48028" pt_clust_5="305.56404" pt_clust_6="38.99693"></scales>
<clustering>
<clus scale="   38.997">  2  6  1 -1</clus>
<clus scale="   76.480">  3  4 -1 -1</clus>
<clus scale="  305.564">  1  5  2 -1</clus>
<clus scale="  305.564">  1  3  2 -1</clus>
</clustering>
</event>
<event>
 6    0  0.2433432E+002  0.8822765E+02  0.7546771E-02  0.1307201E+00
          2   -1    0    0  505    0 -0.00000000000E+00  0.00000000000E+00  0.19930470460E+04  0.19930470460E+04  0.00000000000E+00 0. -1.
         21   -1    0    0  501  502  0.00000000000E+00 -0.00000000000E+00 -0.20530993127E+03  0.20530993127E+03  0.00000000000E+00 0. -1.
         21    1    1    2  503  502 -0.77740665741E+02 -0.35250015108E+02 -0.16320908067E+03  0.18418300325E+03  0.00000000000E+00 0. -1.
         21    1    1    2  504  503 -0.16186084830E+01 -0.34875188248E+02  0.15782112317E+04  0.15785973491E+04  0.00000000000E+00 0. -1.
         21    1    1    2  505  504 -0.21251416888E+02 -0.26936983632E+02  0.24119316447E+03  0.24362135866E+03  0.00000000000E+00 0. -1.
          2    1    1    2  501    0  0.10061069111E+03  0.97062186988E+02  0.13154179921E+03  0.19195526627E+03  0.00000000000E+00 0. -1.
<scales pt_clust_3="88.22765" pt_clust_4="62.70500" pt_clust_5="34.31070" pt_clust_6="14000.00000"></scales>
<clustering>
<clus scale="   34.311">  1  5  2 -1</clus>
<clus scale="   62.705">  1  4  2 -1</clus>
<clus scale="   88.228">  2  3  1 -1</clus>
<clus scale="   88.228">  2  3  1 -1</clus>
</clustering>
</event>
<event>
 6    0  0.2433432E+002  0.1784294E+03  0.7546771E-02  0.1169332E+00
         21   -1    0    0  504  502  0.00000000000E+00  0.00000000000E+00  0.22546698812E+03  0.22546698812E+03  0.00000000000E+00 0. -1.
          2   -1    0    0  505    0 -0.00000000000E+00 -0.00000000000E+00 -0.15730230936E+04  0.15730230936E+04  0.00000000000E+00 0.  1.
         21    1    1    2  503  502  0.35270922571E+02 -0.11714935673E+02 -0.85621287313E-01  0.37165643111E+02  0.00000000000E+00 0. -1.
         21    1    1    2  504  501  0.35276444153E+02 -0.16272708587E+02  0.12903920352E+03  0.13476032281E+03  0.00000000000E+00 0.  1.
         21    1    1    2  505  503  0.46589057207E+02 -0.98484315756E+02  0.27776303001E+02  0.11243319665E+03  0.00000000000E+00 0. -1.
          2    1    1    2  501    0 -0.11713642393E+03  0.12647196002E+03 -0.15042859907E+04  0.15141309191E+04  0.00000000000E+00 0.  1.
<scales pt_clust_3="30.72924" pt_clust_4="38.84879" pt_clust_5="30.72924" pt_clust_6="170.49621"></scales>
<clustering>
<clus scale="   30.729">  3  5 -1 -1</clus>
<clus scale="   38.849">  1  4  2 -1</clus>
<clus scale="  170.496">  2  6  1 -1</clus>
<clus scale="   38.849">  1  3  2 -1</clus>
</clustering>
</event>
<event>
 6    0  0.2433432E+002  0.7328935E+02  0.7546771E-02  0.1349252E+00
          2   -1    0    0  504    0 -0.00000000000E+00  0.00000000000E+00  0.13084615364E+04  0.13084615364E+04  0.00000000000E+00 0. -1.
         21   -1    0    0  503  502  0.00000000000E+00 -0.00000000000E+00 -0.45692067369E+03  0.45692067369E+03  0.00000000000E+00 0.  1.
         21    1    1    2  503  501 -0.65520494036E+02 -0.11043827967E+02 -0.12155544630E+03  0.13853024146E+03  0.00000000000E+00 0. -1.
         21    1    1    2  504  505  0.26869694654E+02 -0.79182755091E+02  0.17017366174E+03  0.18960739528E+03  0.00000000000E+00 0. -1.
         21    1    1    2  505  502 -0.97758561314E+01  0.30826605012E+02 -0.31502123657E+03  0.31667684858E+03  0.00000000000E+00 0.  1.
          2    1    1    2  501    0  0.48426655514E+02  0.59399978046E+02  0.11179438838E+04  0.11205677248E+04  0.00000000000E+00 0. -1.
<scales pt_clust_3="76.53003" pt_clust_4="14000.00000" pt_clust_5="32.33956" pt_clust_6="73.28935"></scales>
<clustering>
<clus scale="   32.340">  2  5  1 -1</clus>
<clus scale="   76.530">  2  3  1 -1</clus>
<clus scale="   73.289">  1  6  2 -1</clus>
<clus scale="   32.340">  2  3  1 -1</clus>
</clustering>
</event>
<event>
 6    0  0.2433432E+002  0.8921484E+02  0.7546771E-02  0.1304764E+00
          4   -1    0    0  504    0 -0.00000000000E+00  0.00000000000E+00  0.18722352047E+03  0.18722352047E+03  0.00000000000E+00 0. -1.
         21   -1    0    0  503  502  0.00000000000E+00 -0.00000000000E+00 -0.10051112796E+04  0.10051112796E+04  0.00000000000E+00 0. -1.
         21    1    1    2  503  505 -0.43780801608E+02  0.52109628889E+02 -0.64347075167E+03  0.64706010561E+03  0.00000000000E+00 0. -1.
         21    1    1    2  504  502 -0.17909993914E+02 -0.24612911202E+02 -0.35391968715E+02  0.46681417389E+02  0.00000000000E+00 0.  1.
         21    1    1    2  505  501  0.79335240734E+01 -0.99342983690E+02 -0.29899983701E+03  0.31517117848E+03  0.00000000000E+00 0. -1.
          4    1    1    2  501    0  0.53757271449E+02  0.71846266004E+02  0.15997479827E+03  0.18342209860E+03  0.00000000000E+00 0. -1.
<scales pt_clust_3="66.18162" pt_clust_4="30.43950" pt_clust_5="14000.00000" pt_clust_6="89.21484"></scales>
<clustering>
<clus scale="   30.440">  2  4  1 -1</clus>
<clus scale="   66.182">  2  3  1 -1</clus>
<clus scale="   89.215">  1  6  2 -1</clus>
<clus scale="   30.440">  2  3  1 -1</clus>
</clustering>
</event>
<event>
 6    0  0.2433432E+002  0.2632927E+03  0.7546771E-02  0.1105181E+00
          2   -1    0    0  504    0 -0.00000000000E+00  0.00000000000E+00  0.23007317907E+04  0.23007317907E+04  0.00000000000E+00 0. -1.
         21   -1    0    0  503  502  0.00000000000E+00 -0.00000000000E+00 -0.77203981717E+02  0.77203981717E+02  0.00000000000E+00 0.  1.
         21    1    1    2  503  505 -0.92370803236E+02  0.25346644436E+03  0.72454519270E+03  0.77313862921E+03  0.00000000000E+00 0. -1.
         21    1    1    2  504  502  0.10045889821E+03 -0.24033813920E+03  0.28351236233E+03  0.38501126084E+03  0.00000000000E+00 0.  1.
         21    1    1    2  505  501 -0.47887065559E+02 -0.29980734126E+02  0.54395504121E+03  0.54688125066E+03  0.00000000000E+00 0.  1.
          2    1    1    2  501    0  0.39798970589E+02  0.16852428965E+02  0.67151521278E+03  0.67290463174E+03  0.00000000000E+00 0. -1.
<scales pt_clust_3="14000.00000" pt_clust_4="263.29270" pt_clust_5="42.26710" pt_clust_6="43.21993"></scales>
<clustering>
<clus scale="   43.220">  1  6  2 -1</clus>
<clus scale="   42.267">  1  5  2 -1</clus>
<clus scale="  263.293">  2  4  1 -1</clus>
<clus scale="  263.293">  2  3  1 -1</clus>
</clustering>
</event>
<event>
 6    0  0.2433432E+002  0.1650430E+03  0.7546771E-02  0.1183118E+00
          1   -1    0    0  502    0 -0.00000000000E+00  0.00000000000E+00  0.45290272736E+03  0.45290272736E+03  0.00000000000E+00 0.  1.
         21   -1    0    0  503  502  0.00000000000E+00 -0.00000000000E+00 -0.15105516487E+04  0.15105516487E+04  0.00000000000E+00 0. -1.
         21    1    1    2  503  505  0.31874746173E+02 -0.40183501592E+02 -0.20344822581E+03  0.20981395051E+03  0.00000000000E+00 0. -1.
         21    1    1    2  504  501  0.88283409968E+01  0.24230186748E+03 -0.10011842285E+04  0.10301252322E+04  0.00000000000E+00 0. -1.
         21    1    1    2  505  504 -0.64094160673E+02 -0.39884881071E+02 -0.26742092886E+03  0.27787194598E+03  0.00000000000E+00 0. -1.
          1    1    1    2  501    0  0.23391073503E+02 -0.16223348482E+03  0.41440446185E+03  0.44564324736E+03  0.00000000000E+00 0.  1.
<scales pt_clust_3="51.29048" pt_clust_4="165.04304" pt_clust_5="75.03176" pt_clust_6="14000.00000"></scales>
<clustering>
<clus scale="   51.290">  2  3  1 -1</clus>
<clus scale="   75.032">  2  5  1 -1</clus>
<clus scale="  165.043">  2  4  1 -1</clus>
<clus scale="   51.290">  2  3  1 -1</clus>
</clustering>
</event>
<event>
 6    0  0.2433432E+002  0.6278230E+02  0.7546771E-02  0.1386513E+00
         21   -1    0    0  503  502  0.00000000000E+00  0.00000000000E+00  0.42969748506E+03  0.42969748506E+03  0.00000000000E+00 0.  1.
          4   -1    0    0  505    0 -0.00000000000E+00 -0.00000000000E+00 -0.60592753518E+02  0.60592753518E+02  0.00000000000E+00 0.  1.
         21    1    1    2  503  501 -0.63106943728E+02  0.63537546526E+02  0.19716465218E+03  0.21654885415E+03  0.00000000000E+00 0.  1.
         21    1    1    2  504  502  0.16821406910E+02 -0.47957569779E+02  0.14239097869E+03  0.15118888531E+03  0.00000000000E+00 0.  1.
         21    1    1    2  505  504 -0.31837891811E+02  0.48520918553E+01  0.26562179620E+02  0.41746179904E+02  0.00000000000E+00 0.  1.
          4    1    1    2  501    0  0.78123428630E+02 -0.20432068601E+02  0.29869210607E+01  0.80806319219E+02  0.00000000000E+00 0.  1.
<scales pt_clust_3="62.78230" pt_clust_4="49.62365" pt_clust_5="32.20550" pt_clust_6="14000.00000"></scales>
<clustering>
<clus scale="   32.205">  2  5  1 -1</clus>
<clus scale="   49.624">  1  4  2 -1</clus>
<clus scale="   62.782">  1  3  2 -1</clus>
<clus scale="   49.624">  1  3  2 -1</clus>
</clustering>
</event>
<event>
 6    0  0.2433432E+002  0.7420098E+02  0.7546771E-02  0.1346363E+00
          1   -1    0    0  503    0 -0.00000000000E+00  0.00000000000E+00  0.78538584364E+02  0.78538584364E+02  0.00000000000E+00 0. -1.
         21   -1    0    0  505  502  0.00000000000E+00 -0.00000000000E+00 -0.10114945231E+04  0.10114945231E+04  0.00000000000E+00 0. -1.
         21    1    1    2  503  502 -0.10073379225E+03  0.73199699837E+01 -0.25369058431E+03  0.27305638874E+03  0.00000000000E+00 0. -1.
         21    1    1    2  504  501  0.97564143090E+01 -0.55008221106E+02 -0.19405034715E+03  0.20193223923E+03  0.00000000000E+00 0.  1.
         21    1    1    2  505  504  0.68147055372E+02 -0.31360058769E+01 -0.53559860894E+03  0.53992566672E+03  0.00000000000E+00 0. -1.
          1    1    1    2  501    0  0.22830322573E+02  0.50824256999E+02  0.50383601618E+02  0.75118812825E+02  0.00000000000E+00 0. -1.
<scales pt_clust_3="14000.00000" pt_clust_4="45.05497" pt_clust_5="74.20098" pt_clust_6="55.71650"></scales>
<clustering>
<clus scale="   55.717">  1  6  2 -1</clus>
<clus scale="   45.055">  1  4  2 -1</clus>
<clus scale="   74.201">  2  5  1 -1</clus>
<clus scale="   74.201">  2  3  1 -1</clus>
</clustering>
</event>
<event>
 6    0  0.2433432E+002  0.1636069E+03  0.7546771E-02  0.1184684E+00
         21   -1    0    0  504  502  0.00000000000E+00  0.00000000000E+00  0.43704271939E+03  0.43704271939E+03  0.00000000000E+00 0. -1.
          2   -1    0    0  503    0 -0.00000000000E+00 -0.00000000000E+00 -0.58963037263E+03  0.58963037263E+03  0.00000000000E+00 0.  1.
         21    1    1    2  503  505 -0.32969644360E+02 -0.18740767019E+03 -0.24179749251E+03  0.30769247583E+03  0.00000000000E+00 0.  1.
         21    1    1    2  504  501 -0.45383139747E+02  0.15526739270E+03 -0.20955232738E+02  0.16311564728E+03  0.00000000000E+00 0. -1.
         21    1    1    2  505  502  0.63899733190E+02  0.67434272207E-01  0.32852891748E+03  0.33468556896E+03  0.00000000000E+00 0. -1.
          2    1    1    2  501    0  0.14453050916E+02  0.32072843215E+02 -0.21836384547E+03  0.22117939995E+03  0.00000000000E+00 0.  1.
<scales pt_clust_3="163.60694" pt_clust_4="14000.00000" pt_clust_5="64.02090" pt_clust_6="35.17894"></scales>
<clustering>
<clus scale="   35.179">  2  6  1 -1</clus>
<clus scale="   64.021">  1  5  2 -1</clus>
<clus scale="  163.607">  2  3  1 -1</clus>
<clus scale="   64.021">  1  3  2 -1</clus>
</clustering>
</event>
<event>
 6    0  0.2433432E+002  0.1918950E+03  0.7546771E-02  0.1156763E+00
          2   -1    0    0  504    0 -0.00000000000E+00  0.00000000000E+00  0.24021973497E+03  0.24021973497E+03  0.00000000000E+00 0.  1.
         21   -1    0    0  505  502  0.00000000000E+00 -0.00000000000E+00 -0.20885563449E+03  0.20885563449E+03  0.00000000000E+00 0.  1.
         21    1    1    2  503  502 -0.21192141473E+02 -0.86874788399E+02  0.13655712724E+02  0.90458908956E+02  0.00000000000E+00 0. -1.
         21    1    1    2  504  503 -0.47786521987E+02 -0.10458386973E+03 -0.47579752151E+02  0.12443942424E+03  0.00000000000E+00 0.  1.
         21    1    1    2  505  501  0.62481839371E+00  0.32252381871E+02 -0.23097888628E+02  0.39675168474E+02  0.00000000000E+00 0. -1.
          2    1    1    2  501    0  0.68353845067E+02  0.15920627626E+03  0.88386028536E+02  0.19450186779E+03  0.00000000000E+00 0.  1.
<scales pt_clust_3="54.43331" pt_clust_4="54.43331" pt_clust_5="32.25843" pt_clust_6="182.22987"></scales>
<clustering>
<clus scale="   32.258">  2  5  1 -1</clus>
<clus scale="   54.433">  3  4 -1 -1</clus>
<clus scale="  182.230">  1  6  2 -1</clus>
<clus scale="   32.258">  2  3  1 -1</clus>
</clustering>
</event>
<event>
 6    0  0.2433432E+002  0.1355577E+03  0.7546771E-02  0.1219435E+00
          2   -1    0    0  504    0 -0.00000000000E+00  0.00000000000E+00  0.13714955062E+04  0.13714955062E+04  0.00000000000E+00 0. -1.
         21   -1    0    0  503  502  0.00000000000E+00 -0.00000000000E+00 -0.88154348358E+02  0.88154348358E+02  0.00000000000E+00 0. -1.
         21    1    1    2  503  501  0.91421569348E+01  0.53601183238E+02  0.65879588963E+02  0.85421227571E+02  0.00000000000E+00 0.  1.
         21    1    1    2  504  505 -0.23670393794E+02  0.40035780824E+02 -0.56606374661E+01  0.46852898577E+02  0.00000000000E+00 0. -1.
         21    1    1    2  505  502 -0.20112329724E+02  0.35398215614E+02 -0.40078126329E+02  0.57129639292E+02  0.00000000000E+00 0. -1.
          2    1    1    2  501    0  0.34640566583E+02 -0.12903517968E+03  0.12632003327E+04  0.12702460891E+04  0.00000000000E+00 0. -1.
<scales pt_clust_3="54.37523" pt_clust_4="31.21512" pt_clust_5="31.21512" pt_clust_6="131.38790"></scales>
<clustering>
<clus scale="   31.215">  4  5 -1 -1</clus>
<clus scale="   54.375">  2  3  1 -1</clus>
<clus scale="  131.388">  1  6  2 -1</clus>
<clus scale="   54.375">  2  3  1 -1</clus>
</clustering>
</event>
<event>
 6    0  0.2433432E+002  0.1888258E+03  0.7546771E-02  0.1159525E+00
          1   -1    0    0  504    0 -0.00000000000E+00  0.00000000000E+00  0.20810469930E+04  0.20810469930E+04  0.00000000000E+00 0. -1.
         21   -1    0    0  501  502  0.00000000000E+00 -0.00000000000E+00 -0.33800588377E+03  0.33800588377E+03  0.00000000000E+00 0. -1.
         21    1    1    2  503  505 -0.60103777636E+02 -0.37237329589E+02  0.26317702030E+02  0.75443384343E+02  0.00000000000E+00 0. -1.
         21    1    1    2  504  503 -0.78144327341E+02 -0.57786880706E+02  0.90200260928E+02  0.13259693265E+03  0.00000000000E+00 0. -1.
         21    1    1    2  505  502 -0.41254108779E+02  0.42273768250E+02 -0.28464476930E+03  0.29070881938E+03  0.00000000000E+00 0. -1.
          1    1    1    2  501    0  0.17950221376E+03  0.52750442044E+02  0.19111679156E+04  0.19203037404E+04  0.00000000000E+00 0. -1.
<scales pt_clust_3="33.71168" pt_clust_4="33.71168" pt_clust_5="59.06753" pt_clust_6="184.64283"></scales>
<clustering>
<clus scale="   33.712">  3  4 -1 -1</clus>
<clus scale="   59.068">  2  5  1 -1</clus>
<clus scale="  184.643">  1  6  2 -1</clus>
<clus scale="   59.068">  2  3  1 -1</clus>
</clustering>
</event>
<event>
 6    0  0.2433432E+002  0.7185753E+02  0.7546771E-02  0.1353888E+00
         21   -1    0    0  505  502  0.00000000000E+00  0.00000000000E+00  0.13695389777E+04  0.13695389777E+04  0.00000000000E+00 0.  1.
          2   -1    0    0  504    0 -0.00000000000E+00 -0.00000000000E+00 -0.21162148104E+03  0.21162148104E+03  0.00000000000E+00 0. -1.
         21    1    1    2  503  501  0.59961631598E+02  0.19336263981E+02  0.10733721927E+03  0.12446110641E+03  0.00000000000E+00 0.  1.
         21    1    1    2  504  502 -0.68807658702E+02 -0.10154442805E+03  0.45995699713E+02  0.13100140898E+03  0.00000000000E+00 0.  1.
         21    1    1    2  505  503 -0.21081344238E+02  0.68516897183E+02  0.11623388447E+04  0.11645473706E+04  0.00000000000E+00 0.  1.
          2    1    1    2  501    0  0.29927371342E+02  0.13691266883E+02 -0.15775426705E+03  0.16115057281E+03  0.00000000000E+00 0. -1.
<scales pt_clust_3="68.36944" pt_clust_4="14000.00000" pt_clust_5="71.85753" pt_clust_6="32.91046"></scales>
<clustering>
<clus scale="   32.910">  2  6  1 -1</clus>
<clus scale="   68.369">  2  3  1 -1</clus>
<clus scale="   71.858">  1  5  2 -1</clus>
<clus scale="   71.858">  1  3  2 -1</clus>
</clustering>
</event>
<event>
 6    0  0.2433432E+002  0.5744412E+03  0.7546771E-02  0.9959899E-01
         21   -1    0    0  501  502  0.00000000000E+00  0.00000000000E+00  0.16652889454E+03  0.16652889454E+03  0.00000000000E+00 0. -1.
          1   -1    0    0  504    0 -0.00000000000E+00 -0.00000000000E+00 -0.20137728961E+04  0.20137728961E+04  0.00000000000E+00 0. -1.
         21    1    1    2  503  505  0.98494863566E+02 -0.39593188958E+02 -0.95889996354E+02  0.14305156469E+03  0.00000000000E+00 0. -1.
         21    1    1    2  504  503  0.22689598501E+03 -0.21818978155E+03 -0.49690516404E+03  0.58822046108E+03  0.00000000000E+00 0. -1.
         21    1    1    2  505  502  0.91845185311E+02 -0.81098817045E+02 -0.54322667863E+02  0.13402801362E+03  0.00000000000E+00 0. -1.
          1    1    1    2  501    0 -0.41723603389E+03  0.33888178756E+03 -0.12001261733E+04  0.13150017513E+04  0.00000000000E+00 0. -1.
<scales pt_clust_3="54.38097" pt_clust_4="155.54297" pt_clust_5="155.54297" pt_clust_6="537.51909"></scales>
<clustering>
<clus scale="   54.381">  3  5 -1 -1</clus>
<clus scale="  155.543">  3  4 -1 -1</clus>
<clus scale="  537.519">  2  6  1 -1</clus>
<clus scale="  574.441">  1  3  2 -1</clus>
</clustering>
</event>
<event>
 6    0  0.2433432E+002  0.2034863E+03  0.7546771E-02  0.1146830E+00
          2   -1    0    0  505    0 -0.00000000000E+00  0.00000000000E+00  0.13316190378E+04  0.13316190378E+04  0.00000000000E+00 0.  1.
         21   -1    0    0  504  502  0.00000000000E+00 -0.00000000000E+00 -0.29469833707E+03  0.29469833707E+03  0.00000000000E+00 0. -1.
         21    1    1    2  503  501 -0.63021496754E+02  0.13227877624E+03  0.66291352377E+01  0.14667422790E+03  0.00000000000E+00 0. -1.
         21    1    1    2  504  503 -0.85864625922E+02 -0.82916709028E+01 -0.17614367939E+03  0.19613281618E+03  0.00000000000E+00 0. -1.
         21    1    1    2  505  502 -0.39595823731E+02 -0.21449156596E+02 -0.11776519257E+02  0.46546557138E+02  0.00000000000E+00 0. -1.
          2    1    1    2  501    0  0.18848194641E+03 -0.10253794874E+03  0.12182117642E+04  0.12369637737E+04  0.00000000000E+00 0.  1.
<scales pt_clust_3="203.48632" pt_clust_4="115.99077" pt_clust_5="45.03216" pt_clust_6="14000.00000"></scales>
<clustering>
<clus scale="   45.032">  2  5  1 -1</clus>
<clus scale="  115.991">  2  4  1 -1</clus>
<clus scale="  203.486">  2  3  1 -1</clus>
<clus scale="   45.032">  2  3  1 -1</clus>
</clustering>
</event>
<event>
 6    0  0.2433432E+002  0.1813644E+03  0.7546771E-02  0.1166489E+00
         21   -1    0    0  505  502  0.00000000000E+00  0.00000000000E+00  0.50043459019E+03  0.50043459019E+03  0.00000000000E+00 0.  1.
         -2   -1    0    0    0  501 -0.00000000000E+00 -0.00000000000E+00 -0.17952213403E+03  0.17952213403E+03  0.00000000000E+00 0.  1.
         21    1    1    2  503  504  0.26682004751E+02  0.45255101245E+02  0.15904645116E+03  0.16749843938E+03  0.00000000000E+00 0.  1.
         21    1    1    2  504  501  0.56590926892E+01  0.57005120801E+02  0.10727632146E+03  0.12161339677E+03  0.00000000000E+00 0. -1.
         21    1    1    2  505  503  0.10095485488E+03  0.42586230014E+02  0.13872107068E+03  0.17677388144E+03  0.00000000000E+00 0.  1.
         -2    1    1    2    0  502 -0.13329595232E+03 -0.14484645206E+03 -0.84131387135E+02  0.21407100663E+03  0.00000000000E+00 0.  1.
<scales pt_clust_3="32.54205" pt_clust_4="32.54205" pt_clust_5="109.56947" pt_clust_6="178.15253"></scales>
<clustering>
<clus scale="   32.542">  3  4 -1 -1</clus>
<clus scale="  109.569">  1  5  2 -1</clus>
<clus scale="  178.153">  2  6  1 -1</clus>
<clus scale="  109.569">  1  3  2 -1</clus>
</clustering>
</event>
<event>
 6    0  0.2433432E+002  0.1267220E+03  0.7546771E-02  0.1232402E+00
         21   -1    0    0  503  502  0.00000000000E+00  0.00000000000E+00  0.10024641516E+04  0.10024641516E+04  0.00000000000E+00 0.  1.
          2   -1    0    0  504    0 -0.00000000000E+00 -0.00000000000E+00 -0.25470474526E+03  0.25470474526E+03  0.00000000000E+00 0.  1.
         21    1    1    2  503  505  0.13857909270E+02  0.55281145817E+02  0.90320789022E+02  0.10679836919E+03  0.00000000000E+00 0.  1.
         21    1    1    2  504  502  0.56714676271E+01 -0.71036963649E+02  0.27395658906E+03  0.28307353893E+03  0.00000000000E+00 0.  1.
         21    1    1    2  505  501 -0.13248839878E+03  0.71698842181E+02  0.59898349640E+03  0.61763672878E+03  0.00000000000E+00 0.  1.
          2    1    1    2  501    0  0.11295902188E+03 -0.55943024349E+02 -0.21550146818E+03  0.24966025992E+03  0.00000000000E+00 0.  1.
<scales pt_clust_3="56.99164" pt_clust_4="54.91092" pt_clust_5="14000.00000" pt_clust_6="126.72201"></scales>
<clustering>
<clus scale="   56.992">  1  3  2 -1</clus>
<clus scale="   54.911">  1  4  2 -1</clus>
<clus scale="  126.722">  2  6  1 -1</clus>
<clus scale="   56.992">  1  3  2 -1</clus>
</clustering>
</event>
<event>
 6    0  0.2433432E+002  0.1303313E+03  0.7546771E-02  0.1226965E+00
         21   -1    0    0  503  502  0.00000000000E+00  0.00000000000E+00  0.21432763159E+03  0.21432763159E+03  0.00000000000E+00 0.  1.
          2   -1    0    0  505    0 -0.00000000000E+00 -0.00000000000E+00 -0.68126907591E+03  0.68126907591E+03  0.00000000000E+00 0. -1.
         21    1    1    2  503  501 -0.14443046691E+03 -0.47603263671E+02  0.11920879885E+03  0.19322776252E+03  0.00000000000E+00 0.  1.
         21    1    1    2  504  502 -0.30425183880E+02  0.37266914368E+02  0.17500864974E+02  0.51193700741E+02  0.00000000000E+00 0. -1.
         21    1    1    2  505  504  0.47792165012E+02  0.39102127899E+02 -0.42163605775E+02  0.74771900435E+02  0.00000000000E+00 0. -1.
          2    1    1    2  501    0  0.12706348577E+03 -0.28765778597E+02 -0.56148750237E+03  0.57640334381E+03  0.00000000000E+00 0. -1.
<scales pt_clust_3="14000.00000" pt_clust_4="48.10940" pt_clust_5="61.90822" pt_clust_6="130.33126"></scales>
<clustering>
<clus scale="   48.109">  1  4  2 -1</clus>
<clus scale="   61.908">  1  5  2 -1</clus>
<clus scale="  130.331">  2  6  1 -1</clus>
<clus scale="   48.109">  1  3  2 -1</clus>
</clustering>
</event>
<event>
 6    0  0.2433432E+002  0.1252769E+03  0.7546771E-02  0.1234637E+00
         -2   -1    0    0    0  501 -0.00000000000E+00  0.00000000000E+00  0.14212814235E+03  0.14212814235E+03  0.00000000000E+00 0.  1.
         21   -1    0    0  503  502  0.00000000000E+00 -0.00000000000E+00 -0.16908531093E+04  0.16908531093E+04  0.00000000000E+00 0.  1.
         21    1    1    2  503  505 -0.41768328622E+02  0.22911896112E+02 -0.53258580825E+03  0.53471225103E+03  0.00000000000E+00 0.  1.
         21    1    1    2  504  502  0.16095646171E+02 -0.15103615661E+03 -0.91728668386E+03  0.92977731248E+03  0.00000000000E+00 0.  1.
         21    1    1    2  505  501  0.36718844800E+02  0.99079503929E+02 -0.21965927174E+03  0.24375236886E+03  0.00000000000E+00 0. -1.
         -2    1    1    2    0  504 -0.11046162349E+02  0.29044756571E+02  0.12080679691E+03  0.12473931925E+03  0.00000000000E+00 0.  1.
<scales pt_clust_3="48.95164" pt_clust_4="125.27695" pt_clust_5="14000.00000" pt_clust_6="31.07436"></scales>
<clustering>
<clus scale="   31.074">  1  6  2 -1</clus>
<clus scale="   48.952">  2  3  1 -1</clus>
<clus scale="  125.277">  2  4  1 -1</clus>
<clus scale="   48.952">  2  3  1 -1</clus>
</clustering>
</event>
<event>
 6    0  0.2433432E+002  0.1222090E+03  0.7546771E-02  0.1239497E+00
          2   -1    0    0  505    0 -0.00000000000E+00  0.00000000000E+00  0.24579548413E+04  0.24579548413E+04  0.00000000000E+00 0.  1.
         21   -1    0    0  503  502  0.00000000000E+00 -0.00000000000E+00 -0.10389844416E+04  0.10389844416E+04  0.00000000000E+00 0. -1.
         21    1    1    2  503  501  0.65209380825E+02 -0.70766645670E+02 -0.39188663606E+02  0.10390347849E+03  0.00000000000E+00 0. -1.
         21    1    1    2  504  502 -0.44622038421E+02  0.68056002765E+02 -0.78226183411E+03  0.78648351727E+03  0.00000000000E+00 0. -1.
         21    1    1    2  505  504 -0.13007151853E+03 -0.51256420235E+02 -0.15459055099E+03  0.20843238473E+03  0.00000000000E+00 0. -1.
          2    1    1    2  501    0  0.10948417613E+03  0.53967063140E+02  0.23950114483E+04  0.23981199024E+04  0.00000000000E+00 0.  1.
<scales pt_clust_3="73.76431" pt_clust_4="81.38025" pt_clust_5="122.20904" pt_clust_6="14000.00000"></scales>
<clustering>
<clus scale="   81.380">  2  4  1 -1</clus>
<clus scale="   73.764">  2  3  1 -1</clus>
<clus scale="  122.209">  2  5  1 -1</clus>
<clus scale="   81.380">  2  3  1 -1</clus>
</clustering>
</event>
<event>
 6    0  0.2433432E+002  0.1159551E+03  0.7546771E-02  0.1249923E+00
         21   -1    0    0  501  502  0.00000000000E+00  0.00000000000E+00  0.63143512157E+02  0.63143512157E+02  0.00000000000E+00 0. -1.
          1   -1    0    0  503    0 -0.00000000000E+00 -0.00000000000E+00 -0.96989342190E+03  0.96989342190E+03  0.00000000000E+00 0. -1.
         21    1    1    2  503  505  0.17291164960E+02 -0.35609563977E+02 -0.30978031306E+03  0.31229932403E+03  0.00000000000E+00 0. -1.
         21    1    1    2  504  502  0.54496456497E+02  0.51187269304E+02  0.12903688768E+01  0.74777438852E+02  0.00000000000E+00 0.  1.
         21    1    1    2  505  504 -0.20074809823E+02 -0.11971702754E+03 -0.37622993964E+03  0.39532787931E+03  0.00000000000E+00 0. -1.
          1    1    1    2  501    0 -0.51712811635E+02  0.10413932221E+03 -0.22203002592E+03  0.25063229187E+03  0.00000000000E+00 0. -1.
<scales pt_clust_3="39.58567" pt_clust_4="74.13954" pt_clust_5="115.95511" pt_clust_6="14000.00000"></scales>
<clustering>
<clus scale="   39.586">  2  3  1 -1</clus>
<clus scale="   74.140">  1  4  2 -1</clus>
<clus scale="  115.955">  1  5  2 -1</clus>
<clus scale="   74.140">  1  3  2 -1</clus>
</clustering>
</event>
<event>
 6    0  0.2433432E+002  0.1468422E+03  0.7546771E-02  0.1204408E+00
         21   -1    0    0  505  502  0.00000000000E+00  0.00000000000E+00  0.63430368982E+03  0.63430368982E+03  0.00000000000E+00 0.  1.
          1   -1    0    0  503    0 -0.00000000000E+00 -0.00000000000E+00 -0.18900014862E+03  0.18900014862E+03  0.00000000000E+00 0. -1.
         21    1    1    2  503  504 -0.18647605398E+02 -0.47884003172E+02 -0.18273672357E+01  0.51419356451E+02  0.00000000000E+00 0.  1.
         21    1    1    2  504  502  0.12553841769E+03  0.53193262435E+01  0.50839712196E+03  0.52369439864E+03  0.00000000000E+00 0.  1.
         21    1    1    2  505  501  0.24539680564E+02 -0.19201281328E+02  0.54295113930E+02  0.62600675104E+02  0.00000000000E+00 0.  1.
          1    1    1    2  501    0 -0.13143049285E+03  0.61765958256E+02 -0.11556132745E+03  0.18558940825E+03  0.00000000000E+00 0. -1.
<scales pt_clust_3="51.78980" pt_clust_4="146.84222" pt_clust_5="31.15903" pt_clust_6="14000.00000"></scales>
<clustering>
<clus scale="   31.159">  1  5  2 -1</clus>
<clus scale="   51.790">  2  3  1 -1</clus>
<clus scale="  146.842">  1  4  2 -1</clus>
<clus scale="   31.159">  1  3  2 -1</clus>
</clustering>
</event>
<event>
 6    0  0.2433432E+002  0.7475371E+02  0.7546771E-02  0.1344635E+00
         -4   -1    0    0    0  501 -0.00000000000E+00  0.00000000000E+00  0.32130339052E+03  0.32130339052E+03  0.00000000000E+00 0.  1.
         21   -1    0    0  505  502  0.00000000000E+00 -0.00000000000E+00 -0.23581829859E+03  0.23581829859E+03  0.00000000000E+00 0. -1.
         21    1    1    2  503  502  0.55017875865E+02  0.40195208594E+01 -0.17221555558E+03  0.18083506517E+03  0.00000000000E+00 0. -1.
         21    1    1    2  504  501  0.52883064562E+02 -0.25543142977E+02  0.45452923763E+02  0.74263308230E+02  0.00000000000E+00 0.  1.
         21    1    1    2  505  504 -0.11914352181E+03 -0.12325703485E+02  0.40242358564E+02  0.12635881124E+03  0.00000000000E+00 0.  1.
         -4    1    1    2    0  503  0.11242581384E+02  0.33849325603E+02  0.17200536518E+03  0.17566450447E+03  0.00000000000E+00 0.  1.
<scales pt_clust_3="55.57262" pt_clust_4="74.75371" pt_clust_5="14000.00000" pt_clust_6="35.66753"></scales>
<clustering>
<clus scale="   35.668">  1  6  2 -1</clus>
<clus scale="   55.573">  2  3  1 -1</clus>
<clus scale="   74.754">  1  4  2 -1</clus>
<clus scale="   55.573">  2  3  1 -1</clus>
</clustering>
</event>
<event>
 6    0  0.2433432E+002  0.1197193E+03  0.7546771E-02  0.1243561E+00
          1   -1    0    0  504    0 -0.00000000000E+00  0.00000000000E+00  0.12843555322E+04  0.12843555322E+04  0.00000000000E+00 0.  1.
         21   -1    0    0  503  502  0.00000000000E+00 -0.00000000000E+00 -0.12868718765E+03  0.12868718765E+03  0.00000000000E+00 0. -1.
         21    1    1    2  503  501  0.25904800571E+02 -0.49039726246E+02 -0.15182262113E+02  0.57501778458E+02  0.00000000000E+00 0.  1.
         21    1    1    2  504  505 -0.11899875321E+02  0.79635512935E+02 -0.18599114562E+02  0.82639875457E+02  0.00000000000E+00 0. -1.
         21    1    1    2  505  502 -0.38666570716E+02  0.78414121452E+02  0.98092194044E+01  0.87977831977E+02  0.00000000000E+00 0. -1.
          1    1    1    2  501    0  0.24661645467E+02 -0.10900990814E+03  0.11796405018E+04  0.11849232339E+04  0.00000000000E+00 0.  1.
<scales pt_clust_3="55.46128" pt_clust_4="37.12438" pt_clust_5="37.12438" pt_clust_6="113.29711"></scales>
<clustering>
<clus scale="   37.124">  4  5 -1 -1</clus>
<clus scale="   55.461">  2  3  1 -1</clus>
<clus scale="  113.297">  1  6  2 -1</clus>
<clus scale="   55.461">  2  3  1 -1</clus>
</clustering>
</event>
<event>
 6    0  0.2433432E+002  0.1572281E+03  0.7546771E-02  0.1191862E+00
         -4   -1    0    0    0  501 -0.00000000000E+00  0.00000000000E+00  0.28591148076E+03  0.28591148076E+03  0.00000000000E+00 0.  1.
         21   -1    0    0  504  502  0.00000000000E+00 -0.00000000000E+00 -0.14438669403E+03  0.14438669403E+03  0.00000000000E+00 0.  1.
         21    1    1    2  503  502 -0.71929677611E+02 -0.42624453435E+02  0.32812026043E+02  0.89818436887E+02  0.00000000000E+00 0.  1.
         21    1    1    2  504  501  0.13018375009E+03  0.80984689041E+02 -0.41806018654E+02  0.15891529770E+03  0.00000000000E+00 0.  1.
         21    1    1    2  505  503 -0.27847435616E+02 -0.53294240471E+02  0.60135987780E+02  0.85041711907E+02  0.00000000000E+00 0.  1.
         -4    1    1    2    0  505 -0.30406636864E+02  0.14934004865E+02  0.90382791567E+02  0.96522728299E+02  0.00000000000E+00 0.  1.
<scales pt_clust_3="43.69928" pt_clust_4="148.12090" pt_clust_5="43.69928" pt_clust_6="33.87607"></scales>
<clustering>
<clus scale="   33.876">  1  6  2 -1</clus>
<clus scale="   43.699">  3  5 -1 -1</clus>
<clus scale="  148.121">  2  4  1 -1</clus>
<clus scale="  148.121">  2  3  1 -1</clus>
</clustering>
</event>
<event>
 6    0  0.2433432E+002  0.1071158E+03  0.7546771E-02  0.1266006E+00
         21   -1    0    0  503  502  0.00000000000E+00  0.00000000000E+00  0.80258704086E+03  0.80258704086E+03  0.00000000000E+00 0.  1.
         -1   -1    0    0    0  501 -0.00000000000E+00 -0.00000000000E+00 -0.24777693078E+03  0.24777693078E+03  0.00000000000E+00 0. -1.
         21    1    1    2  503  504 -0.42731024263E+02 -0.53129159370E+02  0.70198646943E+03  0.70528976405E+03  0.00000000000E+00 0.  1.
         21    1    1    2  504  501 -0.11035548739E+02  0.77050915235E+02  0.12706166897E+02  0.78867442913E+02  0.00000000000E+00 0. -1.
         21    1    1    2  505  502 -0.25644444495E+02 -0.38238700181E+02  0.33318134530E+02  0.56832506662E+02  0.00000000000E+00 0.  1.
         -1    1    1    2    0  505  0.79411017498E+02  0.14316944316E+02 -0.19320066078E+03  0.20937425802E+03  0.00000000000E+00 0. -1.
<scales pt_clust_3="107.11576" pt_clust_4="75.79188" pt_clust_5="46.04167" pt_clust_6="14000.00000"></scales>
<clustering>
<clus scale="   46.042">  1  5  2 -1</clus>
<clus scale="   75.792">  2  4  1 -1</clus>
<clus scale="  107.116">  1  3  2 -1</clus>
<clus scale="   46.042">  1  3  2 -1</clus>
</clustering>
</event>
<event>
 6    0  0.2433432E+002  0.1188539E+03  0.7546771E-02  0.1245000E+00
         21   -1    0    0  505  502  0.00000000000E+00  0.00000000000E+00  0.56430531904E+02  0.56430531904E+02  0.00000000000E+00 0.  1.
          2   -1    0    0  504    0 -0.00000000000E+00 -0.00000000000E+00 -0.13944469528E+04  0.13944469528E+04  0.00000000000E+00 0.  1.
         21    1    1    2  503  502 -0.59875259812E+02  0.34190796786E+02 -0.90546897265E+02  0.11381035949E+03  0.00000000000E+00 0.  1.
         21    1    1    2  504  503 -0.91769423099E+01 -0.37340005159E+02 -0.11234228738E+03  0.11874039662E+03  0.00000000000E+00 0.  1.
         21    1    1    2  505  501  0.11897931876E+02  0.86474206562E+02 -0.90852687618E+01  0.87760419848E+02  0.00000000000E+00 0.  1.
          2    1    1    2  501    0  0.57154270246E+02 -0.83324998189E+02 -0.11260419675E+04  0.11305663087E+04  0.00000000000E+00 0.  1.
<scales pt_clust_3="68.17106" pt_clust_4="38.45117" pt_clust_5="118.85393" pt_clust_6="14000.00000"></scales>
<clustering>
<clus scale="   38.451">  2  4  1 -1</clus>
<clus scale="   68.171">  1  3  2 -1</clus>
<clus scale="  118.854">  1  5  2 -1</clus>
<clus scale="   68.171">  1  3  2 -1</clus>
</clustering>
</event>
<event>
 6    0  0.2433432E+002  0.1359820E+03  0.7546771E-02  0.1218840E+00
          1   -1    0    0  503    0 -0.00000000000E+00  0.00000000000E+00  0.30385263806E+03  0.30385263806E+03  0.00000000000E+00 0.  1.
         21   -1    0    0  505  502  0.00000000000E+00 -0.00000000000E+00 -0.46608977888E+03  0.46608977888E+03  0.00000000000E+00 0. -1.
         21    1    1    2  503  504  0.26909919404E+02 -0.21210122806E+02 -0.62637280118E+01  0.34831700509E+02  0.00000000000E+00 0.  1.
         21    1    1    2  504  502  0.29538373369E+02 -0.10373928232E+02 -0.31341370316E+03  0.31497346430E+03  0.00000000000E+00 0. -1.
         21    1    1    2  505  501 -0.14974640212E+02 -0.10492759743E+03 -0.86988030167E+02  0.13711658523E+03  0.00000000000E+00 0. -1.
          1    1    1    2  501    0 -0.41473652561E+02  0.13651164847E+03  0.24442832051E+03  0.28302066690E+03  0.00000000000E+00 0.  1.
<scales pt_clust_3="38.29532" pt_clust_4="31.30709" pt_clust_5="14000.00000" pt_clust_6="135.98205"></scales>
<clustering>
<clus scale="   31.307">  2  4  1 -1</clus>
<clus scale="   38.295">  2  3  1 -1</clus>
<clus scale="  135.982">  1  6  2 -1</clus>
<clus scale="   31.307">  2  3  1 -1</clus>
</clustering>
</event>
<event>
 6    0  0.2433432E+002  0.1000385E+03  0.7546771E-02  0.1280215E+00
          1   -1    0    0  503    0 -0.00000000000E+00  0.00000000000E+00  0.10107712398E+04  0.10107712398E+04  0.00000000000E+00 0. -1.
         21   -1    0    0  504  502  0.00000000000E+00 -0.00000000000E+00 -0.40189139223E+02  0.40189139223E+02  0.00000000000E+00 0.  1.
         21    1    1    2  503  505  0.47117862299E+02  0.14753143067E+02  0.29048220994E+03  0.29464837089E+03  0.00000000000E+00 0.  1.
         21    1    1    2  504  501  0.81429341200E+02 -0.12206190954E+02  0.18436836713E+03  0.20191934901E+03  0.00000000000E+00 0.  1.
         21    1    1    2  505  502 -0.96804605999E+02  0.61692110039E+02  0.10004184494E+03  0.15226758986E+03  0.00000000000E+00 0.  1.
          1    1    1    2  501    0 -0.31742597500E+02 -0.64239062152E+02  0.39568967856E+03  0.40212506926E+03  0.00000000000E+00 0. -1.
<scales pt_clust_3="49.37356" pt_clust_4="100.03852" pt_clust_5="14000.00000" pt_clust_6="56.32118"></scales>
<clustering>
<clus scale="   49.374">  1  3  2 -1</clus>
<clus scale="   56.321">  1  6  2 -1</clus>
<clus scale="  100.039">  1  4  2 -1</clus>
<clus scale="  100.039">  2  3  1 -1</clus>
</clustering>
</event>
<event>
 6    0  0.2433432E+002  0.1280237E+03  0.7546771E-02  0.1230418E+00
         21   -1    0    0  503  502  0.00000000000E+00  0.00000000000E+00  0.10126360557E+03  0.10126360557E+03  0.00000000000E+00 0. -1.
          2   -1    0    0  504    0 -0.00000000000E+00 -0.00000000000E+00 -0.30100135243E+04  0.30100135243E+04  0.00000000000E+00 0.  1.
         21    1    1    2  503  505 -0.50091188773E+02  0.35268829089E+02 -0.87408420967E+02  0.10673916598E+03  0.00000000000E+00 0. -1.
         21    1    1    2  504  502 -0.65243974121E+02 -0.18720643066E+02  0.66480735905E+02  0.95010140945E+02  0.00000000000E+00 0. -1.
         21    1    1    2  505  501  0.44036184470E+02  0.92374586877E+02 -0.27433391256E+03  0.29279915543E+03  0.00000000000E+00 0. -1.
          2    1    1    2  501    0  0.71298978425E+02 -0.10892277290E+03 -0.26134883211E+04  0.26167286675E+04  0.00000000000E+00 0.  1.
<scales pt_clust_3="61.26188" pt_clust_4="128.02375" pt_clust_5="103.54938" pt_clust_6="14000.00000"></scales>
<clustering>
<clus scale="   61.262">  1  3  2 -1</clus>
<clus scale="  103.549">  1  5  2 -1</clus>
<clus scale="  128.024">  1  4  2 -1</clus>
<clus scale="   61.262">  1  3  2 -1</clus>
</clustering>
</event>
<event>
 6    0  0.2433432E+002  0.8969060E+02  0.7546771E-02  0.1303603E+00
         21   -1    0    0  504  502  0.00000000000E+00  0.00000000000E+00  0.70363023587E+02  0.70363023587E+02  0.00000000000E+00 0.  1.
          1   -1    0    0  503    0 -0.00000000000E+00 -0.00000000000E+00 -0.16559518786E+04  0.16559518786E+04  0.00000000000E+00 0. -1.
         21    1    1    2  503  502  0.56909331889E+02 -0.48013878765E+01 -0.35071341412E+02  0.67020328036E+02  0.00000000000E+00 0.  1.
         21    1    1    2  504  505 -0.20737663818E+01 -0.39712443643E+02 -0.82242418708E+01  0.40608088375E+02  0.00000000000E+00 0.  1.
         21    1    1    2  505  501 -0.10740975949E+03 -0.28282932455E+02 -0.46846504572E+02  0.12054615586E+03  0.00000000000E+00 0.  1.
          1    1    1    2  501    0  0.52574193983E+02  0.72796763975E+02 -0.14954467672E+04  0.14981403299E+04  0.00000000000E+00 0. -1.
<scales pt_clust_3="58.66936" pt_clust_4="39.76655" pt_clust_5="14000.00000" pt_clust_6="89.69060"></scales>
<clustering>
<clus scale="   39.767">  1  4  2 -1</clus>
<clus scale="   58.669">  1  3  2 -1</clus>
<clus scale="   89.691">  2  6  1 -1</clus>
<clus scale="   39.767">  1  3  2 -1</clus>
</clustering>
</event>
<event>
 6    0  0.2433432E+002  0.9166558E+02  0.7546771E-02  0.1298868E+00
          2   -1    0    0  505    0 -0.00000000000E+00  0.00000000000E+00  0.31258004316E+04  0.31258004316E+04  0.00000000000E+00 0. -1.
         21   -1    0    0  503  502  0.00000000000E+00 -0.00000000000E+00 -0.62035485987E+02  0.62035485987E+02  0.00000000000E+00 0. -1.
         21    1    1    2  503  501 -0.10490544435E+02  0.79473867709E+02  0.33202099352E+02  0.86767082310E+02  0.00000000000E+00 0. -1.
         21    1    1    2  504  502 -0.27994662394E+02 -0.17338243196E+02  0.37759274518E+02  0.50100684744E+02  0.00000000000E+00 0. -1.
         21    1    1    2  505  504  0.17794307796E+02 -0.11513364794E+03  0.88997401643E+02  0.14660467856E+03  0.00000000000E+00 0. -1.
          2    1    1    2  501    0  0.20690899034E+02  0.52998023427E+02  0.29038061701E+04  0.29043634720E+04  0.00000000000E+00 0. -1.
<scales pt_clust_3="14000.00000" pt_clust_4="32.92895" pt_clust_5="91.66558" pt_clust_6="56.76254"></scales>
<clustering>
<clus scale="   32.929">  2  4  1 -1</clus>
<clus scale="   56.763">  1  6  2 -1</clus>
<clus scale="   91.666">  1  5  2 -1</clus>
<clus scale="   32.929">  2  3  1 -1</clus>
</clustering>
</event>
<event>
 6    0  0.2433432E+002  0.9562701E+02  0.7546771E-02  0.1289770E+00
         21   -1    0    0  503  502  0.00000000000E+00  0.00000000000E+00  0.18082876653E+03  0.18082876653E+03  0.00000000000E+00 0.  1.
          2   -1    0    0  505    0 -0.00000000000E+00 -0.00000000000E+00 -0.56759188116E+03  0.56759188116E+03  0.00000000000E+00 0. -1.
         21    1    1    2  503  501 -0.10824916856E+02 -0.84705279600E+02  0.28414045611E+02  0.89997339988E+02  0.00000000000E+00 0.  1.
         21    1    1    2  504  502  0.22609414881E+01 -0.47245686204E+02  0.79830216169E+02  0.92790786907E+02  0.00000000000E+00 0.  1.
         21    1    1    2  505  504 -0.69977767283E+01  0.96859154730E+02 -0.33792890014E+02  0.10282326658E+03  0.00000000000E+00 0.  1.
          2    1    1    2  501    0  0.15561752096E+02  0.35091811073E+02 -0.46121448640E+03  0.46280925422E+03  0.00000000000E+00 0. -1.
<scales pt_clust_3="14000.00000" pt_clust_4="45.20637" pt_clust_5="95.62701" pt_clust_6="38.38754"></scales>
<clustering>
<clus scale="   38.388">  2  6  1 -1</clus>
<clus scale="   45.206">  1  4  2 -1</clus>
<clus scale="   95.627">  1  5  2 -1</clus>
<clus scale="   45.206">  1  3  2 -1</clus>
</clustering>
</event>
<event>
 6    0  0.2433432E+002  0.1214258E+03  0.7546771E-02  0.1240763E+00
         21   -1    0    0  503  502  0.00000000000E+00  0.00000000000E+00  0.57892311199E+02  0.57892311199E+02  0.00000000000E+00 0. -1.
          2   -1    0    0  504    0 -0.00000000000E+00 -0.00000000000E+00 -0.20472216988E+04  0.20472216988E+04  0.00000000000E+00 0.  1.
         21    1    1    2  503  501 -0.15639496242E+02  0.36154985298E+02  0.39997789577E+02  0.56139112708E+02  0.00000000000E+00 0. -1.
         21    1    1    2  504  505  0.52666756538E+02  0.28037523032E+02 -0.33532755010E+03  0.34059426859E+03  0.00000000000E+00 0. -1.
         21    1    1    2  505  502  0.41456734222E+02  0.15338632476E+02 -0.87801958446E+02  0.98301161567E+02  0.00000000000E+00 0.  1.
          2    1    1    2  501    0 -0.78483994518E+02 -0.79531140806E+02 -0.16061976686E+04  0.16100794671E+04  0.00000000000E+00 0.  1.
<scales pt_clust_3="39.39260" pt_clust_4="47.15377" pt_clust_5="47.15377" pt_clust_6="109.06109"></scales>
<clustering>
<clus scale="   39.393">  1  3  2 -1</clus>
<clus scale="   47.154">  4  5 -1 -1</clus>
<clus scale="  109.061">  2  6  1 -1</clus>
<clus scale="   39.393">  1  3  2 -1</clus>
</clustering>
</event>
<event>
 6    0  0.2433432E+002  0.8366843E+02  0.7546771E-02  0.1318952E+00
          2   -1    0    0  503    0 -0.00000000000E+00  0.00000000000E+00  0.17724056755E+04  0.17724056755E+04  0.00000000000E+00 0. -1.
         21   -1    0    0  505  502  0.00000000000E+00 -0.00000000000E+00 -0.45537992059E+03  0.45537992059E+03  0.00000000000E+00 0.  1.
         21    1    1    2  503  502  0.78675838799E+01  0.51073784655E+02 -0.18446736129E+03  0.19156888509E+03  0.00000000000E+00 0.  1.
         21    1    1    2  504  501 -0.10653565543E+03  0.22407365777E+02 -0.21720822785E+03  0.24296368075E+03  0.00000000000E+00 0.  1.
         21    1    1    2  505  504  0.29953993444E+02 -0.25872094243E+02 -0.25477955115E+02  0.47071575081E+02  0.00000000000E+00 0.  1.
          2    1    1    2  501    0  0.68714078106E+02 -0.47609056189E+02  0.17441792991E+04  0.17461814551E+04  0.00000000000E+00 0. -1.
<scales pt_clust_3="44.85059" pt_clust_4="83.66843" pt_clust_5="39.58039" pt_clust_6="14000.00000"></scales>
<clustering>
<clus scale="   39.580">  2  5  1 -1</clus>
<clus scale="   44.851">  2  3  1 -1</clus>
<clus scale="   83.668">  2  4  1 -1</clus>
<clus scale="   39.580">  2  3  1 -1</clus>
</clustering>
</event>
<event>
 6    0  0.2433432E+002  0.8005454E+02  0.7546771E-02  0.1328897E+00
          3   -1    0    0  505    0 -0.00000000000E+00  0.00000000000E+00  0.84091064936E+03  0.84091064936E+03  0.00000000000E+00 0. -1.
         21   -1    0    0  503  502  0.00000000000E+00 -0.00000000000E+00 -0.69412141238E+02  0.69412141238E+02  0.00000000000E+00 0. -1.
         21    1    1    2  503  501  0.66648928125E+01  0.77325347095E+02  0.38145366035E+02  0.86479471839E+02  0.00000000000E+00 0. -1.
         21    1    1    2  504  502  0.26939657910E+02 -0.15925421944E+02 -0.49227569682E+01  0.31679611244E+02  0.00000000000E+00 0. -1.
         21    1    1    2  505  504  0.26489056788E+02 -0.90763788828E+02  0.63075061114E+02  0.11365825455E+03  0.00000000000E+00 0. -1.
          3    1    1    2  501    0 -0.60093607510E+02  0.29363863677E+02  0.67520083794E+03  0.67850545296E+03  0.00000000000E+00 0. -1.
<scales pt_clust_3="80.05454" pt_clust_4="31.29480" pt_clust_5="14000.00000" pt_clust_6="65.87561"></scales>
<clustering>
<clus scale="   31.295">  2  4  1 -1</clus>
<clus scale="   65.876">  1  6  2 -1</clus>
<clus scale="   80.055">  2  3  1 -1</clus>
<clus scale="   31.295">  2  3  1 -1</clus>
</clustering>
</event>
<event>
 6    0  0.2433432E+002  0.1298056E+03  0.7546771E-02  0.1227745E+00
          1   -1    0    0  503    0 -0.00000000000E+00  0.00000000000E+00  0.26140291112E+04  0.26140291112E+04  0.00000000000E+00 0.  1.
         21   -1    0    0  505  502  0.00000000000E+00 -0.00000000000E+00 -0.61357664901E+02  0.61357664901E+02  0.00000000000E+00 0. -1.
         21    1    1    2  503  504 -0.30023245470E+02 -0.57374962759E+02  0.29398773309E+03  0.30103499602E+03  0.00000000000E+00 0.  1.
         21    1    1    2  504  502  0.64216425251E+02 -0.27158699025E+02  0.78010735262E+03  0.78321697237E+03  0.00000000000E+00 0. -1.
         21    1    1    2  505  501  0.85016948939E+02  0.10095612241E+03  0.27175041183E+02  0.13475349020E+03  0.00000000000E+00 0. -1.
          1    1    1    2  501    0 -0.11921012872E+03 -0.16422460625E+02  0.14514013194E+04  0.14563813175E+04  0.00000000000E+00 0.  1.
<scales pt_clust_3="64.75555" pt_clust_4="71.33900" pt_clust_5="129.80556" pt_clust_6="14000.00000"></scales>
<clustering>
<clus scale="   64.756">  1  3  2 -1</clus>
<clus scale="   71.339">  1  4  2 -1</clus>
<clus scale="  129.806">  2  5  1 -1</clus>
<clus scale="  129.806">  2  3  1 -1</clus>
</clustering>
</event>
<event>
 6    0  0.2433432E+002  0.1188093E+03  0.7546771E-02  0.1245074E+00
          3   -1    0    0  504    0 -0.00000000000E+00  0.00000000000E+00  0.14149628321E+04  0.14149628321E+04  0.00000000000E+00 0. -1.
         21   -1    0    0  505  502  0.00000000000E+00 -0.00000000000E+00 -0.14214387708E+03  0.14214387708E+03  0.00000000000E+00 0.  1.
         21    1    1    2  503  502 -0.31686889866E+02 -0.43539520052E+02 -0.90429700519E+02  0.10524865572E+03  0.00000000000E+00 0.  1.
         21    1    1    2  504  503 -0.25022550976E+02 -0.19737780979E+02  0.59406796412E+02  0.67415691906E+02  0.00000000000E+00 0. -1.
         21    1    1    2  505  501 -0.90162169434E+02  0.24925683568E+02  0.25278343937E+02  0.96899438443E+02  0.00000000000E+00 0. -1.
          3    1    1    2  501    0  0.14687161028E+03  0.38351617463E+02  0.12785635152E+04  0.12875429232E+04  0.00000000000E+00 0. -1.
<scales pt_clust_3="54.01755" pt_clust_4="31.87018" pt_clust_5="14000.00000" pt_clust_6="118.80929"></scales>
<clustering>
<clus scale="   31.870">  1  4  2 -1</clus>
<clus scale="   54.018">  2  3  1 -1</clus>
<clus scale="  118.809">  1  6  2 -1</clus>
<clus scale="   54.018">  2  3  1 -1</clus>
</clustering>
</event>
<event>
 6    0  0.2433432E+002  0.1775644E+03  0.7546771E-02  0.1170181E+00
          1   -1    0    0  503    0 -0.00000000000E+00  0.00000000000E+00  0.72697445383E+03  0.72697445383E+03  0.00000000000E+00 0.  1.
         21   -1    0    0  504  502  0.00000000000E+00 -0.00000000000E+00 -0.32523393554E+03  0.32523393554E+03  0.00000000000E+00 0.  1.
         21    1    1    2  503  505  0.21051245745E+03  0.12850949220E+02  0.20273585730E+03  0.29254481618E+03  0.00000000000E+00 0.  1.
         21    1    1    2  504  501 -0.15003852356E+03 -0.42845732854E+02  0.13973598703E+03  0.20945992802E+03  0.00000000000E+00 0.  1.
         21    1    1    2  505  502  0.83845177825E+01 -0.38889445557E+02 -0.23597716713E+03  0.23930715100E+03  0.00000000000E+00 0.  1.
          1    1    1    2  501    0 -0.68858451668E+02  0.68884229191E+02  0.29524584109E+03  0.31089649416E+03  0.00000000000E+00 0.  1.
<scales pt_clust_3="177.56440" pt_clust_4="14000.00000" pt_clust_5="39.78303" pt_clust_6="94.43169"></scales>
<clustering>
<clus scale="   39.783">  2  5  1 -1</clus>
<clus scale="   94.432">  1  6  2 -1</clus>
<clus scale="  177.564">  1  3  2 -1</clus>
<clus scale="   39.783">  2  3  1 -1</clus>
</clustering>
</event>
<event>
 6    0  0.2433432E+002  0.8355145E+02  0.7546771E-02  0.1319265E+00
         21   -1    0    0  505  502  0.00000000000E+00  0.00000000000E+00  0.85433777765E+03  0.85433777765E+03  0.00000000000E+00 0.  1.
          3   -1    0    0  504    0 -0.00000000000E+00 -0.00000000000E+00 -0.52337026212E+03  0.52337026212E+03  0.00000000000E+00 0.  1.
         21    1    1    2  503  501  0.87457815459E+02 -0.99870211993E+02 -0.19892184049E+03  0.23915021922E+03  0.00000000000E+00 0. -1.
         21    1    1    2  504  502 -0.13560947570E+02  0.38828781084E+02 -0.10868990466E+02  0.42540668697E+02  0.00000000000E+00 0.  1.
         21    1    1    2  505  503 -0.81290468574E+02  0.18270250846E+02  0.81455306714E+03  0.81880317631E+03  0.00000000000E+00 0.  1.
          3    1    1    2  501    0  0.73936006856E+01  0.42771180063E+02 -0.27379472065E+03  0.27721397553E+03  0.00000000000E+00 0.  1.
<scales pt_clust_3="83.55145" pt_clust_4="41.12874" pt_clust_5="14000.00000" pt_clust_6="64.30995"></scales>
<clustering>
<clus scale="   41.129">  2  4  1 -1</clus>
<clus scale="   64.310">  2  6  1 -1</clus>
<clus scale="   83.551">  2  3  1 -1</clus>
<clus scale="   83.551">  1  3  2 -1</clus>
</clustering>
</event>
<event>
 6    0  0.2433432E+002  0.8404506E+02  0.7546771E-02  0.1317949E+00
          4   -1    0    0  504    0 -0.00000000000E+00  0.00000000000E+00  0.15942209905E+04  0.15942209905E+04  0.00000000000E+00 0.  1.
         21   -1    0    0  505  502  0.00000000000E+00 -0.00000000000E+00 -0.78150191282E+02  0.78150191282E+02  0.00000000000E+00 0.  1.
         21    1    1    2  503  501 -0.78042217426E+02  0.15431178449E+02  0.67583068977E+02  0.10438476987E+03  0.00000000000E+00 0.  1.
         21    1    1    2  504  502  0.48116203710E+02  0.25472503883E+02  0.24886571074E+02  0.59861163816E+02  0.00000000000E+00 0.  1.
         21    1    1    2  505  503  0.45889168166E+02 -0.87178110089E+02  0.16162006053E+02  0.99835109422E+02  0.00000000000E+00 0.  1.
          4    1    1    2  501    0 -0.15963154450E+02  0.46274427757E+02  0.14074391531E+04  0.14082901387E+04  0.00000000000E+00 0.  1.
<scales pt_clust_3="84.04506" pt_clust_4="57.22452" pt_clust_5="14000.00000" pt_clust_6="48.95043"></scales>
<clustering>
<clus scale="   48.950">  1  6  2 -1</clus>
<clus scale="   57.225">  2  4  1 -1</clus>
<clus scale="   84.045">  1  3  2 -1</clus>
<clus scale="   57.225">  2  3  1 -1</clus>
</clustering>
</event>
<event>
 6    0  0.2433432E+002  0.1032311E+03  0.7546771E-02  0.1273645E+00
         21   -1    0    0  505  502  0.00000000000E+00  0.00000000000E+00  0.28316242745E+04  0.28316242745E+04  0.00000000000E+00 0. -1.
          2   -1    0    0  504    0 -0.00000000000E+00 -0.00000000000E+00 -0.18860425594E+02  0.18860425594E+02  0.00000000000E+00 0. -1.
         21    1    1    2  503  501  0.82294961453E+02 -0.53249044098E+02  0.67897134679E+03  0.68601021213E+03  0.00000000000E+00 0. -1.
         21    1    1    2  504  502 -0.95676675532E+02  0.52698846646E+02  0.17407998485E+04  0.17442234110E+04  0.00000000000E+00 0. -1.
         21    1    1    2  505  503 -0.15737344319E+02 -0.42169500643E+02  0.35036277063E+03  0.35324212919E+03  0.00000000000E+00 0. -1.
          2    1    1    2  501    0  0.29119058398E+02  0.42719698095E+02  0.42629882945E+02  0.67008947814E+02  0.00000000000E+00 0. -1.
<scales pt_clust_3="14000.00000" pt_clust_4="103.23108" pt_clust_5="45.01034" pt_clust_6="50.73435"></scales>
<clustering>
<clus scale="   45.010">  1  5  2 -1</clus>
<clus scale="   50.734">  2  6  1 -1</clus>
<clus scale="  103.231">  1  4  2 -1</clus>
<clus scale="   45.010">  1  3  2 -1</clus>
</clustering>
</event>
<event>
 6    0  0.2433432E+002  0.1129999E+03  0.7546771E-02  0.1255113E+00
          2   -1    0    0  502    0 -0.00000000000E+00  0.00000000000E+00  0.36084812525E+03  0.36084812525E+03  0.00000000000E+00 0.  1.
         21   -1    0    0  503  502  0.00000000000E+00 -0.00000000000E+00 -0.44682018473E+03  0.44682018473E+03  0.00000000000E+00 0.  1.
         21    1    1    2  503  505  0.20852016633E+02 -0.38272643675E+02 -0.29009212771E+03  0.29334799200E+03  0.00000000000E+00 0.  1.
         21    1    1    2  504  501  0.38360351898E+02  0.60731486591E+02 -0.11112118675E+02  0.72686375909E+02  0.00000000000E+00 0.  1.
         21    1    1    2  505  504  0.65060696266E+01  0.84395001553E+02 -0.82718448686E+02  0.11835196231E+03  0.00000000000E+00 0.  1.
          2    1    1    2  501    0 -0.65718438158E+02 -0.10685384447E+03  0.29795063559E+03  0.32328197976E+03  0.00000000000E+00 0.  1.
<scales pt_clust_3="43.58442" pt_clust_4="112.99990" pt_clust_5="62.86082" pt_clust_6="14000.00000"></scales>
<clustering>
<clus scale="   43.584">  2  3  1 -1</clus>
<clus scale="   62.861">  2  5  1 -1</clus>
<clus scale="  113.000">  2  4  1 -1</clus>
<clus scale="   43.584">  2  3  1 -1</clus>
</clustering>
</event>
<event>
 6    0  0.2433432E+002  0.1848044E+03  0.7546771E-02  0.1163233E+00
          1   -1    0    0  505    0 -0.00000000000E+00  0.00000000000E+00  0.24231538853E+04  0.24231538853E+04  0.00000000000E+00 0. -1.
         21   -1    0    0  503  502  0.00000000000E+00 -0.00000000000E+00 -0.79671443697E+02  0.79671443697E+02  0.00000000000E+00 0. -1.
         21    1    1    2  503  501 -0.51342885024E+02  0.21849433678E+01  0.75801231824E+02  0.91578887120E+02  0.00000000000E+00 0.  1.
         21    1    1    2  504  502 -0.40792272731E+02 -0.10176060709E+02 -0.23132039440E+02  0.47985966436E+02  0.00000000000E+00 0. -1.
         21    1    1    2  505  504 -0.81595528447E+02 -0.36071625579E+02  0.28206573621E+02  0.93566036733E+02  0.00000000000E+00 0. -1.
          1    1    1    2  501    0  0.17373068620E+03  0.44062742920E+02  0.22626066756E+04  0.22696944387E+04  0.00000000000E+00 0. -1.
<scales pt_clust_3="51.38936" pt_clust_4="36.92735" pt_clust_5="36.92735" pt_clust_6="176.80238"></scales>
<clustering>
<clus scale="   36.927">  4  5 -1 -1</clus>
<clus scale="   51.389">  2  3  1 -1</clus>
<clus scale="  176.802">  1  6  2 -1</clus>
<clus scale="   51.389">  2  3  1 -1</clus>
</clustering>
</event>
<event>
 6    0  0.2433432E+002  0.1120913E+03  0.7546771E-02  0.1256745E+00
         -3   -1    0    0    0  501 -0.00000000000E+00  0.00000000000E+00  0.82372338595E+03  0.82372338595E+03  0.00000000000E+00 0.  1.
         21   -1    0    0  504  502  0.00000000000E+00 -0.00000000000E+00 -0.12142043049E+03  0.12142043049E+03  0.00000000000E+00 0.  1.
         21    1    1    2  503  501 -0.64178334455E+02  0.52195186879E+02  0.10462324519E+03  0.13337623319E+03  0.00000000000E+00 0.  1.
         21    1    1    2  504  503 -0.56251616753E+02  0.40630779460E+02 -0.81373530066E+02  0.10694276985E+03  0.00000000000E+00 0.  1.
         21    1    1    2  505  502  0.30252219730E+02 -0.75143927152E+01  0.27552560832E+02  0.41602962693E+02  0.00000000000E+00 0.  1.
         -3    1    1    2    0  505  0.90177731478E+02 -0.85311573624E+02  0.65150067951E+03  0.66322185070E+03  0.00000000000E+00 0.  1.
<scales pt_clust_3="112.09128" pt_clust_4="46.57685" pt_clust_5="31.17151" pt_clust_6="14000.00000"></scales>
<clustering>
<clus scale="   31.172">  2  5  1 -1</clus>
<clus scale="   46.577">  2  4  1 -1</clus>
<clus scale="  112.091">  2  3  1 -1</clus>
<clus scale="   31.172">  2  3  1 -1</clus>
</clustering>
</event>
<event>
 6    0  0.2433432E+002  0.1184505E+03  0.7546771E-02  0.1245675E+00
          2   -1    0    0  505    0 -0.00000000000E+00  0.00000000000E+00  0.23690121697E+04  0.23690121697E+04  0.00000000000E+00 0.  1.
         21   -1    0    0  501  502  0.00000000000E+00 -0.00000000000E+00 -0.19221192508E+02  0.19221192508E+02  0.00000000000E+00 0.  1.
         21    1    1    2  503  504 -0.30404752684E+02  0.13820202599E+01  0.55857092054E+02  0.63611113011E+02  0.00000000000E+00 0.  1.
         21    1    1    2  504  502 -0.18418788474E+02 -0.27720921845E+02  0.50727563551E+02  0.60671137954E+02  0.00000000000E+00 0.  1.
         21    1    1    2  505  503 -0.59517194903E+02  0.86369765861E+02  0.31982741682E+03  0.33658818977E+03  0.00000000000E+00 0.  1.
          2    1    1    2  501    0  0.10834073606E+03 -0.60030864275E+02  0.19233789048E+04  0.19273629215E+04  0.00000000000E+00 0.  1.
<scales pt_clust_3="30.36595" pt_clust_4="63.92018" pt_clust_5="118.45051" pt_clust_6="14000.00000"></scales>
<clustering>
<clus scale="   30.366">  3  4 -1 -1</clus>
<clus scale="   63.920">  2  3  1 -1</clus>
<clus scale="  118.451">  2  5  1 -1</clus>
<clus scale="   63.920">  2  3  1 -1</clus>
</clustering>
</event>
<event>
 6    0  0.2433432E+002  0.3485768E+03  0.7546771E-02  0.1063201E+00
         21   -1    0    0  504  502  0.00000000000E+00  0.00000000000E+00  0.68414336631E+03  0.68414336631E+03  0.00000000000E+00 0. -1.
          1   -1    0    0  502    0 -0.00000000000E+00 -0.00000000000E+00 -0.90192089906E+03  0.90192089906E+03  0.00000000000E+00 0.  1.
         21    1    1    2  503  505 -0.80212268965E+02  0.34372033076E+02  0.80033498061E+02  0.11840948257E+03  0.00000000000E+00 0. -1.
         21    1    1    2  504  503 -0.24971149340E+03  0.17378389061E+01  0.37680394925E+03  0.45203989446E+03  0.00000000000E+00 0. -1.
         21    1    1    2  505  501  0.35331090098E+03 -0.10845852715E+03 -0.34711381321E+02  0.37120981244E+03  0.00000000000E+00 0.  1.
          1    1    1    2  501    0 -0.23387138616E+02  0.72348655168E+02 -0.63990359874E+03  0.64440507590E+03  0.00000000000E+00 0.  1.
<scales pt_clust_3="47.87394" pt_clust_4="47.87394" pt_clust_5="339.03887" pt_clust_6="76.03477"></scales>
<clustering>
<clus scale="   47.874">  3  4 -1 -1</clus>
<clus scale="   76.035">  2  6  1 -1</clus>
<clus scale="  339.039">  2  5  1 -1</clus>
<clus scale="  348.577">  1  3  2 -1</clus>
</clustering>
</event>
<event>
 6    0  0.2433432E+002  0.1046485E+03  0.7546771E-02  0.1270814E+00
         21   -1    0    0  504  502  0.00000000000E+00  0.00000000000E+00  0.10344732782E+03  0.10344732782E+03  0.00000000000E+00 0. -1.
         -1   -1    0    0    0  501 -0.00000000000E+00 -0.00000000000E+00 -0.17606592319E+04  0.17606592319E+04  0.00000000000E+00 0. -1.
         21    1    1    2  503  502 -0.23399159498E+02 -0.77407167802E+02 -0.30264553692E+02  0.86344273131E+02  0.00000000000E+00 0.  1.
         21    1    1    2  504  501 -0.14730426182E+02  0.13849800862E+03 -0.73890684882E+01  0.13947502350E+03  0.00000000000E+00 0. -1.
         21    1    1    2  505  503  0.84878869749E+01 -0.75855843163E+02 -0.14952057734E+03  0.16787661009E+03  0.00000000000E+00 0.  1.
         -1    1    1    2    0  505  0.29641698706E+02  0.14765002343E+02 -0.14700377046E+04  0.14704106530E+04  0.00000000000E+00 0. -1.
<scales pt_clust_3="104.64851" pt_clust_4="14000.00000" pt_clust_5="72.14252" pt_clust_6="33.11549"></scales>
<clustering>
<clus scale="   33.115">  2  6  1 -1</clus>
<clus scale="   72.143">  2  5  1 -1</clus>
<clus scale="  104.649">  1  3  2 -1</clus>
<clus scale="  104.649">  1  3  2 -1</clus>
</clustering>
</event>
<event>
 6    0  0.2433432E+002  0.1230209E+03  0.7546771E-02  0.1238195E+00
         -4   -1    0    0    0  501 -0.00000000000E+00  0.00000000000E+00  0.34041584097E+03  0.34041584097E+03  0.00000000000E+00 0. -1.
         21   -1    0    0  504  502  0.00000000000E+00 -0.00000000000E+00 -0.37532951132E+03  0.37532951132E+03  0.00000000000E+00 0. -1.
         21    1    1    2  503  502 -0.32816454184E+02 -0.34233101871E+02 -0.37923710205E+02  0.60720941401E+02  0.00000000000E+00 0. -1.
         21    1    1    2  504  505 -0.47406344285E+02  0.17397975196E+02 -0.23563059528E+03  0.24098097114E+03  0.00000000000E+00 0. -1.
         21    1    1    2  505  501  0.34645323012E+02 -0.10479070723E+03 -0.31094135878E+02  0.11466575781E+03  0.00000000000E+00 0. -1.
         -4    1    1    2    0  503  0.45577475457E+02  0.12162583391E+03  0.26973477102E+03  0.29937768193E+03  0.00000000000E+00 0. -1.
<scales pt_clust_3="47.42178" pt_clust_4="71.80074" pt_clust_5="123.02086" pt_clust_6="14000.00000"></scales>
<clustering>
<clus scale="   47.422">  2  3  1 -1</clus>
<clus scale="   71.801">  2  4  1 -1</clus>
<clus scale="  123.021">  2  5  1 -1</clus>
<clus scale="   47.422">  2  3  1 -1</clus>
</clustering>
</event>
<event>
 6    0  0.2433432E+002  0.1571633E+03  0.7546771E-02  0.1191937E+00
          1   -1    0    0  503    0 -0.00000000000E+00  0.00000000000E+00  0.28539516893E+03  0.28539516893E+03  0.00000000000E+00 0. -1.
         21   -1    0    0  501  502  0.00000000000E+00 -0.00000000000E+00 -0.68269593904E+03  0.68269593904E+03  0.00000000000E+00 0.  1.
         21    1    1    2  503  505  0.29852711902E+01  0.53948972197E+02 -0.10235210283E+03  0.11573830999E+03  0.00000000000E+00 0. -1.
         21    1    1    2  504  502 -0.27473039942E+02  0.13595295983E+02 -0.27797008591E+03  0.27965508874E+03  0.00000000000E+00 0.  1.
         21    1    1    2  505  504  0.49597931079E+02  0.82021453273E+02 -0.26510080293E+03  0.28189698345E+03  0.00000000000E+00 0. -1.
          1    1    1    2  501    0 -0.25110162327E+02 -0.14956572145E+03  0.24812222157E+03  0.29080072579E+03  0.00000000000E+00 0. -1.
<scales pt_clust_3="33.21398" pt_clust_4="30.65290" pt_clust_5="33.21398" pt_clust_6="151.19880"></scales>
<clustering>
<clus scale="   30.653">  2  4  1 -1</clus>
<clus scale="   33.214">  3  5 -1 -1</clus>
<clus scale="  151.199">  1  6  2 -1</clus>
<clus scale="   30.653">  2  3  1 -1</clus>
</clustering>
</event>
<event>
 6    0  0.2433432E+002  0.1712031E+03  0.7546771E-02  0.1176599E+00
          1   -1    0    0  504    0 -0.00000000000E+00  0.00000000000E+00  0.75057047728E+03  0.75057047728E+03  0.00000000000E+00 0. -1.
         21   -1    0    0  503  502  0.00000000000E+00 -0.00000000000E+00 -0.44281523648E+03  0.44281523648E+03  0.00000000000E+00 0. -1.
         21    1    1    2  503  501 -0.81588098351E+02  0.47518004294E+02 -0.31570714510E+03  0.32952326168E+03  0.00000000000E+00 0. -1.
         21    1    1    2  504  505  0.36792754461E+02 -0.13257007446E+03 -0.88355596184E+01  0.13786442085E+03  0.00000000000E+00 0. -1.
         21    1    1    2  505  502  0.44075195827E+02 -0.77092079448E+02  0.17931125050E+02  0.90594353281E+02  0.00000000000E+00 0. -1.
          1    1    1    2  501    0  0.72014806215E+00  0.16214414961E+03  0.61436682046E+03  0.63540367795E+03  0.00000000000E+00 0. -1.
<scales pt_clust_3="94.41705" pt_clust_4="32.26471" pt_clust_5="32.26471" pt_clust_6="166.42619"></scales>
<clustering>
<clus scale="   32.265">  4  5 -1 -1</clus>
<clus scale="   94.417">  2  3  1 -1</clus>
<clus scale="  166.426">  1  6  2 -1</clus>
<clus scale="   94.417">  2  3  1 -1</clus>
</clustering>
</event>
<event>
 6    0  0.2433432E+002  0.6864763E+02  0.7546771E-02  0.1364753E+00
          1   -1    0    0  503    0 -0.00000000000E+00  0.00000000000E+00  0.69569255738E+03  0.69569255738E+03  0.00000000000E+00 0.  1.
         21   -1    0    0  504  502  0.00000000000E+00 -0.00000000000E+00 -0.15831034660E+03  0.15831034660E+03  0.00000000000E+00 0.  1.
         21    1    1    2  503  502 -0.27047279131E+02  0.36618758147E+02 -0.74030304973E+00  0.45530613934E+02  0.00000000000E+00 0.  1.
         21    1    1    2  504  505 -0.33523111449E+02 -0.37953908899E+02 -0.64112645984E+02  0.81699018214E+02  0.00000000000E+00 0.  1.
         21    1    1    2  505  501  0.11606369347E+03  0.39082380299E+02  0.16791130462E+01  0.12247870350E+03  0.00000000000E+00 0.  1.
          1    1    1    2  501    0 -0.55493302886E+02 -0.37747229546E+02  0.60055604676E+03  0.60429456833E+03  0.00000000000E+00 0.  1.
<scales pt_clust_3="45.52460" pt_clust_4="51.43965" pt_clust_5="14000.00000" pt_clust_6="68.64763"></scales>
<clustering>
<clus scale="   45.525">  2  3  1 -1</clus>
<clus scale="   51.440">  2  4  1 -1</clus>
<clus scale="   68.648">  1  6  2 -1</clus>
<clus scale="   45.525">  2  3  1 -1</clus>
</clustering>
</event>
<event>
 6    0  0.2433432E+002  0.1389238E+03  0.7546771E-02  0.1214784E+00
          2   -1    0    0  502    0 -0.00000000000E+00  0.00000000000E+00  0.13232222756E+04  0.13232222756E+04  0.00000000000E+00 0.  1.
         21   -1    0    0  505  502  0.00000000000E+00 -0.00000000000E+00 -0.28001763695E+03  0.28001763695E+03  0.00000000000E+00 0. -1.
         21    1    1    2  503  501 -0.50518664762E+02  0.15146325954E+03  0.98215429384E+02  0.18745539482E+03  0.00000000000E+00 0. -1.
         21    1    1    2  504  503  0.11743992307E+02 -0.69625604633E+02 -0.96070902747E+02  0.11922778422E+03  0.00000000000E+00 0. -1.
         21    1    1    2  505  504 -0.16607217336E+02 -0.62962258218E+02 -0.11866495867E+03  0.13535663280E+03  0.00000000000E+00 0. -1.
          2    1    1    2  501    0  0.55381889791E+02 -0.18875396685E+02  0.11597250707E+04  0.11612001007E+04  0.00000000000E+00 0.  1.
<scales pt_clust_3="134.91211" pt_clust_4="31.82884" pt_clust_5="31.82884" pt_clust_6="58.51012"></scales>
<clustering>
<clus scale="   31.829">  4  5 -1 -1</clus>
<clus scale="   58.510">  1  6  2 -1</clus>
<clus scale="  134.912">  1  3  2 -1</clus>
<clus scale="  138.924">  2  3  1 -1</clus>
</clustering>
</event>
<event>
 6    0  0.2433432E+002  0.1757106E+03  0.7546771E-02  0.1172020E+00
         21   -1    0    0  505  502  0.00000000000E+00  0.00000000000E+00  0.59546905373E+02  0.59546905373E+02  0.00000000000E+00 0. -1.
          2   -1    0    0  504    0 -0.00000000000E+00 -0.00000000000E+00 -0.14983292600E+04  0.14983292600E+04  0.00000000000E+00 0. -1.
         21    1    1    2  503  502  0.32729386425E+02  0.40016391774E+02 -0.44641807467E+02  0.68303845574E+02  0.00000000000E+00 0. -1.
         21    1    1    2  504  503  0.11257784814E+03 -0.21280518522E+03 -0.51084909558E+03  0.56473588269E+03  0.00000000000E+00 0. -1.
         21    1    1    2  505  501 -0.69033994501E+02  0.35714757306E+02 -0.10356462971E+03  0.12948694456E+03  0.00000000000E+00 0. -1.
          2    1    1    2  501    0 -0.76273240068E+02  0.13707403614E+03 -0.77972682192E+03  0.79534949259E+03  0.00000000000E+00 0. -1.
<scales pt_clust_3="51.69646" pt_clust_4="175.71058" pt_clust_5="76.07478" pt_clust_6="14000.00000"></scales>
<clustering>
<clus scale="   51.696">  1  3  2 -1</clus>
<clus scale="   76.075">  1  5  2 -1</clus>
<clus scale="  175.711">  1  4  2 -1</clus>
<clus scale="   51.696">  1  3  2 -1</clus>
</clustering>
</event>
<event>
 6    0  0.2433432E+002  0.1243298E+03  0.7546771E-02  0.1236120E+00
         21   -1    0    0  504  502  0.00000000000E+00  0.00000000000E+00  0.19443563867E+02  0.19443563867E+02  0.00000000000E+00 0. -1.
          2   -1    0    0  505    0 -0.00000000000E+00 -0.00000000000E+00 -0.16077519225E+04  0.16077519225E+04  0.00000000000E+00 0. -1.
         21    1    1    2  503  502  0.43578292258E+02 -0.80815449940E+01 -0.20245872099E+03  0.20725325722E+03  0.00000000000E+00 0.  1.
         21    1    1    2  504  501 -0.87220624381E+02  0.48098627089E+02 -0.25150017212E+03  0.27050554859E+03  0.00000000000E+00 0. -1.
         21    1    1    2  505  503  0.68467360383E+02 -0.95085199936E+02 -0.57373538686E+03  0.58557772227E+03  0.00000000000E+00 0. -1.
          2    1    1    2  501    0 -0.24825028260E+02  0.55068117842E+02 -0.56061407862E+03  0.56385895823E+03  0.00000000000E+00 0. -1.
<scales pt_clust_3="33.15502" pt_clust_4="112.03492" pt_clust_5="33.15502" pt_clust_6="60.40513"></scales>
<clustering>
<clus scale="   33.155">  3  5 -1 -1</clus>
<clus scale="   60.405">  2  6  1 -1</clus>
<clus scale="  112.035">  1  4  2 -1</clus>
<clus scale="  112.035">  1  3  2 -1</clus>
</clustering>
</event>
<event>
 6    0  0.2433432E+002  0.1073195E+03  0.7546771E-02  0.1265616E+00
          1   -1    0    0  503    0 -0.00000000000E+00  0.00000000000E+00  0.16723095037E+03  0.16723095037E+03  0.00000000000E+00 0.  1.
         21   -1    0    0  504  502  0.00000000000E+00 -0.00000000000E+00 -0.31481884754E+03  0.31481884754E+03  0.00000000000E+00 0. -1.
         21    1    1    2  503  505 -0.25524680258E+02 -0.59628152941E+02 -0.16835866429E+02  0.67010986591E+02  0.00000000000E+00 0.  1.
         21    1    1    2  504  501  0.11882025110E+03  0.24693162014E+02 -0.20729843805E+03  0.24020958919E+03  0.00000000000E+00 0. -1.
         21    1    1    2  505  502 -0.79546896234E+02  0.29891029342E+01 -0.11251107091E+02  0.80394221482E+02  0.00000000000E+00 0.  1.
          1    1    1    2  501    0 -0.13748674606E+02  0.31945887993E+02  0.87797514398E+02  0.94435000649E+02  0.00000000000E+00 0.  1.
<scales pt_clust_3="57.56791" pt_clust_4="14000.00000" pt_clust_5="107.31950" pt_clust_6="34.77881"></scales>
<clustering>
<clus scale="   34.779">  1  6  2 -1</clus>
<clus scale="   57.568">  1  3  2 -1</clus>
<clus scale="  107.319">  1  5  2 -1</clus>
<clus scale="  107.319">  2  3  1 -1</clus>
</clustering>
</event>
<event>
 6    0  0.2433432E+002  0.1068981E+03  0.7546771E-02  0.1266424E+00
         21   -1    0    0  504  502  0.00000000000E+00  0.00000000000E+00  0.16708342661E+02  0.16708342661E+02  0.00000000000E+00 0.  1.
          2   -1    0    0  503    0 -0.00000000000E+00 -0.00000000000E+00 -0.30170053596E+04  0.30170053596E+04  0.00000000000E+00 0.  1.
         21    1    1    2  503  502  0.41933787716E+02 -0.20417604394E+02 -0.15370596926E+03  0.16062641784E+03  0.00000000000E+00 0. -1.
         21    1    1    2  504  505 -0.55037107966E+02 -0.25391931179E+02 -0.30532785616E+03  0.31128593474E+03  0.00000000000E+00 0.  1.
         21    1    1    2  505  501  0.10903965836E+02 -0.66940286665E+02 -0.11943126261E+03  0.13734527636E+03  0.00000000000E+00 0.  1.
          2    1    1    2  501    0  0.21993544142E+01  0.11274982224E+03 -0.24218319289E+04  0.24244560734E+04  0.00000000000E+00 0.  1.
<scales pt_clust_3="46.64034" pt_clust_4="54.58065" pt_clust_5="106.89806" pt_clust_6="14000.00000"></scales>
<clustering>
<clus scale="   46.640">  1  3  2 -1</clus>
<clus scale="   54.581">  1  4  2 -1</clus>
<clus scale="  106.898">  1  5  2 -1</clus>
<clus scale="   46.640">  1  3  2 -1</clus>
</clustering>
</event>
<event>
 6    0  0.2433432E+002  0.1194017E+03  0.7546771E-02  0.1244087E+00
         21   -1    0    0  503  502  0.00000000000E+00  0.00000000000E+00  0.56077681487E+02  0.56077681487E+02  0.00000000000E+00 0. -1.
          2   -1    0    0  505    0 -0.00000000000E+00 -0.00000000000E+00 -0.62595730572E+03  0.62595730572E+03  0.00000000000E+00 0. -1.
         21    1    1    2  503  504 -0.67981410196E+02 -0.25487331421E+02 -0.90512458509E+02  0.11603267359E+03  0.00000000000E+00 0.  1.
         21    1    1    2  504  501 -0.11323760980E+02 -0.30525800255E+02 -0.66590737329E+02  0.74124073971E+02  0.00000000000E+00 0. -1.
         21    1    1    2  505  502  0.12751065160E+03 -0.99979077063E+00 -0.79333971858E+02  0.15017937589E+03  0.00000000000E+00 0. -1.
          2    1    1    2  501    0 -0.48205480422E+02  0.57012922447E+02 -0.33344245653E+03  0.34169886375E+03  0.00000000000E+00 0. -1.
<scales pt_clust_3="30.33063" pt_clust_4="30.33063" pt_clust_5="110.47796" pt_clust_6="74.66084"></scales>
<clustering>
<clus scale="   30.331">  3  4 -1 -1</clus>
<clus scale="   74.661">  2  6  1 -1</clus>
<clus scale="  110.478">  1  5  2 -1</clus>
<clus scale="  110.478">  1  3  2 -1</clus>
</clustering>
</event>
<event>
 6    0  0.2433432E+002  0.2015961E+03  0.7546771E-02  0.1148399E+00
          2   -1    0    0  503    0 -0.00000000000E+00  0.00000000000E+00  0.14551941697E+04  0.14551941697E+04  0.00000000000E+00 0.  1.
         21   -1    0    0  505  502  0.00000000000E+00 -0.00000000000E+00 -0.32024794139E+03  0.32024794139E+03  0.00000000000E+00 0.  1.
         21    1    1    2  503  504  0.19861455397E+02 -0.17151996663E+03 -0.13383067416E+03  0.21845875059E+03  0.00000000000E+00 0.  1.
         21    1    1    2  504  502 -0.30701167687E+02  0.14571333828E+03 -0.11752787913E+02  0.14937558928E+03  0.00000000000E+00 0.  1.
         21    1    1    2  505  501  0.67989798939E+02 -0.17064088479E+03  0.99336073158E+02  0.20882667394E+03  0.00000000000E+00 0.  1.
          2    1    1    2  501    0 -0.57150086649E+02  0.19644751314E+03  0.11811936172E+04  0.11987810972E+04  0.00000000000E+00 0.  1.
<scales pt_clust_3="64.49114" pt_clust_4="148.91252" pt_clust_5="14000.00000" pt_clust_6="201.59606"></scales>
<clustering>
<clus scale="  148.913">  2  4  1 -1</clus>
<clus scale="   64.491">  2  3  1 -1</clus>
<clus scale="  201.596">  1  6  2 -1</clus>
<clus scale="  148.913">  2  3  1 -1</clus>
</clustering>
</event>
<event>
 6    0  0.2433432E+002  0.9384540E+02  0.7546771E-02  0.1293798E+00
          2   -1    0    0  504    0 -0.00000000000E+00  0.00000000000E+00  0.16005618541E+03  0.16005618541E+03  0.00000000000E+00 0. -1.
         21   -1    0    0  505  502  0.00000000000E+00 -0.00000000000E+00 -0.14939866395E+03  0.14939866395E+03  0.00000000000E+00 0.  1.
         21    1    1    2  503  501  0.20965351176E+02 -0.30099953238E+02  0.19775175933E+02  0.41672661519E+02  0.00000000000E+00 0. -1.
         21    1    1    2  504  502 -0.11045164487E+03 -0.19482476398E+02 -0.49782391226E+02  0.12270867621E+03  0.00000000000E+00 0.  1.
         21    1    1    2  505  503  0.75608810369E+02  0.18815095140E+02 -0.15600432630E+02  0.79461144648E+02  0.00000000000E+00 0. -1.
          2    1    1    2  501    0  0.13877483324E+02  0.30767334497E+02  0.56265169382E+02  0.65612366982E+02  0.00000000000E+00 0. -1.
<scales pt_clust_3="32.57688" pt_clust_4="93.84540" pt_clust_5="14000.00000" pt_clust_6="33.75224"></scales>
<clustering>
<clus scale="   33.752">  1  6  2 -1</clus>
<clus scale="   32.577">  1  3  2 -1</clus>
<clus scale="   93.845">  1  4  2 -1</clus>
<clus scale="   93.845">  2  3  1 -1</clus>
</clustering>
</event>
<event>
 6    0  0.2433432E+002  0.1420184E+03  0.7546771E-02  0.1210639E+00
         21   -1    0    0  504  502  0.00000000000E+00  0.00000000000E+00  0.31517293958E+03  0.31517293958E+03  0.00000000000E+00 0.  1.
          1   -1    0    0  505    0 -0.00000000000E+00 -0.00000000000E+00 -0.22303730997E+04  0.22303730997E+04  0.00000000000E+00 0. -1.
         21    1    1    2  503  501  0.12334767507E+02 -0.17155400755E+03  0.18906431452E+03  0.25559389472E+03  0.00000000000E+00 0.  1.
         21    1    1    2  504  503  0.48253286099E+02  0.72172306819E+02  0.56692687742E+02  0.10368839055E+03  0.00000000000E+00 0.  1.
         21    1    1    2  505  502  0.43595694893E+02  0.26204803361E+01 -0.36122333804E+02  0.56676931196E+02  0.00000000000E+00 0.  1.
          1    1    1    2  501    0 -0.10418374850E+03  0.96761220392E+02 -0.21248348286E+04  0.21295868228E+04  0.00000000000E+00 0. -1.
<scales pt_clust_3="142.01844" pt_clust_4="94.20831" pt_clust_5="43.67438" pt_clust_6="14000.00000"></scales>
<clustering>
<clus scale="   43.674">  1  5  2 -1</clus>
<clus scale="   94.208">  1  4  2 -1</clus>
<clus scale="  142.018">  1  3  2 -1</clus>
<clus scale="   43.674">  1  3  2 -1</clus>
</clustering>
</event>
<event>
 6    0  0.2433432E+002  0.1490846E+03  0.7546771E-02  0.1201602E+00
          2   -1    0    0  502    0 -0.00000000000E+00  0.00000000000E+00  0.40293528679E+03  0.40293528679E+03  0.00000000000E+00 0. -1.
         21   -1    0    0  505  502  0.00000000000E+00 -0.00000000000E+00 -0.11441285562E+03  0.11441285562E+03  0.00000000000E+00 0. -1.
         21    1    1    2  503  501  0.94544784514E+01  0.93308952622E+02 -0.12152198421E+01  0.93794587059E+02  0.00000000000E+00 0. -1.
         21    1    1    2  504  503  0.35643818563E+02  0.69705759160E+02  0.19696977356E+02  0.80730078526E+02  0.00000000000E+00 0. -1.
         21    1    1    2  505  504 -0.51680416242E+01 -0.30217900458E+02 -0.83795994730E+01  0.31781249970E+02  0.00000000000E+00 0. -1.
          2    1    1    2  501    0 -0.39930255390E+02 -0.13279681132E+03  0.27842027313E+03  0.31104222685E+03  0.00000000000E+00 0. -1.
<scales pt_clust_3="36.42307" pt_clust_4="36.42307" pt_clust_5="30.65665" pt_clust_6="143.93262"></scales>
<clustering>
<clus scale="   30.657">  2  5  1 -1</clus>
<clus scale="   36.423">  3  4 -1 -1</clus>
<clus scale="  143.933">  1  6  2 -1</clus>
<clus scale="   30.657">  2  3  1 -1</clus>
</clustering>
</event>
<event>
 6    0  0.2433432E+002  0.1366749E+03  0.7546771E-02  0.1217874E+00
          2   -1    0    0  503    0 -0.00000000000E+00  0.00000000000E+00  0.39987970062E+03  0.39987970062E+03  0.00000000000E+00 0.  1.
         21   -1    0    0  505  502  0.00000000000E+00 -0.00000000000E+00 -0.51991043098E+03  0.51991043098E+03  0.00000000000E+00 0. -1.
         21    1    1    2  503  504 -0.10418548176E+02 -0.44159760963E+02  0.32336947426E+02  0.55716324388E+02  0.00000000000E+00 0.  1.
         21    1    1    2  504  502  0.13185007549E+03 -0.18087626777E+02 -0.40767439851E+03  0.42884731531E+03  0.00000000000E+00 0. -1.
         21    1    1    2  505  501 -0.15745649748E+03  0.45226403813E+02 -0.12662225189E+02  0.16431161903E+03  0.00000000000E+00 0.  1.
          2    1    1    2  501    0  0.36024970167E+02  0.17020983927E+02  0.26796894591E+03  0.27091487287E+03  0.00000000000E+00 0.  1.
<scales pt_clust_3="38.45410" pt_clust_4="14000.00000" pt_clust_5="136.67492" pt_clust_6="39.84360"></scales>
<clustering>
<clus scale="   39.844">  1  6  2 -1</clus>
<clus scale="   38.454">  1  3  2 -1</clus>
<clus scale="  136.675">  1  5  2 -1</clus>
<clus scale="  136.675">  2  3  1 -1</clus>
</clustering>
</event>
<event>
 6    0  0.2433432E+002  0.9818128E+02  0.7546771E-02  0.1284168E+00
          2   -1    0    0  503    0 -0.00000000000E+00  0.00000000000E+00  0.13563791707E+04  0.13563791707E+04  0.00000000000E+00 0.  1.
         21   -1    0    0  504  502  0.00000000000E+00 -0.00000000000E+00 -0.21194628078E+03  0.21194628078E+03  0.00000000000E+00 0. -1.
         21    1    1    2  503  505 -0.38123373250E+02 -0.52567077272E+02  0.73237824330E+02  0.97879865721E+02  0.00000000000E+00 0. -1.
         21    1    1    2  504  501 -0.47247517187E+02 -0.86376536125E+02 -0.17710793095E+03  0.20263379056E+03  0.00000000000E+00 0. -1.
         21    1    1    2  505  502  0.77644631568E+02  0.61758366744E+02  0.29252265983E+03  0.30888880068E+03  0.00000000000E+00 0. -1.
          2    1    1    2  501    0  0.77262588694E+01  0.77185246653E+02  0.95578033668E+03  0.95892299449E+03  0.00000000000E+00 0.  1.
<scales pt_clust_3="64.93604" pt_clust_4="14000.00000" pt_clust_5="98.18128" pt_clust_6="43.05033"></scales>
<clustering>
<clus scale="   64.936">  1  3  2 -1</clus>
<clus scale="   43.050">  1  6  2 -1</clus>
<clus scale="   98.181">  1  5  2 -1</clus>
<clus scale="   98.181">  2  3  1 -1</clus>
</clustering>
</event>
<event>
 6    0  0.2433432E+002  0.1398684E+03  0.7546771E-02  0.1213506E+00
         -4   -1    0    0    0  501 -0.00000000000E+00  0.00000000000E+00  0.15916128004E+03  0.15916128004E+03  0.00000000000E+00 0.  1.
         21   -1    0    0  505  502  0.00000000000E+00 -0.00000000000E+00 -0.10639900354E+04  0.10639900354E+04  0.00000000000E+00 0.  1.
         21    1    1    2  503  504  0.94339519244E+02 -0.10734788368E+03 -0.41709392434E+03  0.44089778264E+03  0.00000000000E+00 0.  1.
         21    1    1    2  504  502 -0.35562113571E+02 -0.26618254853E+02 -0.48680580157E+03  0.48882827645E+03  0.00000000000E+00 0.  1.
         21    1    1    2  505  501 -0.37280341776E+02 -0.57077111375E+01 -0.10911575037E+03  0.11544976755E+03  0.00000000000E+00 0.  1.
         -4    1    1    2    0  503 -0.21497063897E+02  0.13967384967E+03  0.10818672090E+03  0.17797548881E+03  0.00000000000E+00 0.  1.
<scales pt_clust_3="139.86837" pt_clust_4="62.14297" pt_clust_5="37.71474" pt_clust_6="14000.00000"></scales>
<clustering>
<clus scale="   37.715">  2  5  1 -1</clus>
<clus scale="   62.143">  2  4  1 -1</clus>
<clus scale="  139.868">  2  3  1 -1</clus>
<clus scale="   37.715">  2  3  1 -1</clus>
</clustering>
</event>
<event>
 6    0  0.2433432E+002  0.1140908E+03  0.7546771E-02  0.1253177E+00
         21   -1    0    0  504  502  0.00000000000E+00  0.00000000000E+00  0.65580368354E+03  0.65580368354E+03  0.00000000000E+00 0.  1.
          2   -1    0    0  503    0 -0.00000000000E+00 -0.00000000000E+00 -0.13954792331E+04  0.13954792331E+04  0.00000000000E+00 0. -1.
         21    1    1    2  503  505  0.84652561051E+02 -0.19747406458E+00  0.19179821127E+01  0.84674516496E+02  0.00000000000E+00 0. -1.
         21    1    1    2  504  501  0.43728775199E+02 -0.76717735103E+02  0.89062703606E+02  0.12541922434E+03  0.00000000000E+00 0.  1.
         21    1    1    2  505  502 -0.66627957633E+02 -0.19725587526E+02  0.50039990148E+03  0.50520139048E+03  0.00000000000E+00 0.  1.
          2    1    1    2  501    0 -0.61753378616E+02  0.96640796693E+02 -0.13310561368E+04  0.13359877854E+04  0.00000000000E+00 0. -1.
<scales pt_clust_3="66.05175" pt_clust_4="14000.00000" pt_clust_5="69.48657" pt_clust_6="114.09075"></scales>
<clustering>
<clus scale="   69.487">  1  5  2 -1</clus>
<clus scale="   66.052">  1  3  2 -1</clus>
<clus scale="  114.091">  2  6  1 -1</clus>
<clus scale="   69.487">  1  3  2 -1</clus>
</clustering>
</event>
<event>
 6    0  0.2433432E+002  0.9856028E+02  0.7546771E-02  0.1283353E+00
          2   -1    0    0  504    0 -0.00000000000E+00  0.00000000000E+00  0.31419431173E+04  0.31419431173E+04  0.00000000000E+00 0. -1.
         21   -1    0    0  505  502  0.00000000000E+00 -0.00000000000E+00 -0.21724077646E+03  0.21724077646E+03  0.00000000000E+00 0. -1.
         21    1    1    2  503  501 -0.44689627541E+02 -0.89768443204E+02  0.75845352616E+03  0.76505378083E+03  0.00000000000E+00 0.  1.
         21    1    1    2  504  502 -0.17348266542E+02  0.25290550980E+02 -0.20535100009E+03  0.20762853263E+03  0.00000000000E+00 0. -1.
         21    1    1    2  505  503  0.96486208230E+02  0.41320899095E+02  0.37343101016E+03  0.38790169429E+03  0.00000000000E+00 0.  1.
          2    1    1    2  501    0 -0.34448314147E+02  0.23156993128E+02  0.19981688046E+04  0.19985998860E+04  0.00000000000E+00 0. -1.
<scales pt_clust_3="14000.00000" pt_clust_4="30.66878" pt_clust_5="98.56028" pt_clust_6="42.08035"></scales>
<clustering>
<clus scale="   30.669">  2  4  1 -1</clus>
<clus scale="   42.080">  1  6  2 -1</clus>
<clus scale="   98.560">  2  5  1 -1</clus>
<clus scale="   30.669">  2  3  1 -1</clus>
</clustering>
</event>
<event>
 6    0  0.2433432E+002  0.1320158E+03  0.7546771E-02  0.1224495E+00
          4   -1    0    0  503    0 -0.00000000000E+00  0.00000000000E+00  0.16986148328E+04  0.16986148328E+04  0.00000000000E+00 0. -1.
         21   -1    0    0  504  502  0.00000000000E+00 -0.00000000000E+00 -0.12881268993E+03  0.12881268993E+03  0.00000000000E+00 0. -1.
         21    1    1    2  503  502  0.37542237074E+02 -0.12658945069E+02 -0.41228354974E+02  0.57179067050E+02  0.00000000000E+00 0. -1.
         21    1    1    2  504  505  0.37127362722E+02  0.76879460617E+02  0.43421725767E+02  0.95782768784E+02  0.00000000000E+00 0. -1.
         21    1    1    2  505  501 -0.10168771555E+03  0.67594495219E+02  0.23301451855E+02  0.12430754175E+03  0.00000000000E+00 0. -1.
          4    1    1    2  501    0  0.27018115753E+02 -0.13181501077E+03  0.15443073202E+04  0.15501581451E+04  0.00000000000E+00 0. -1.
<scales pt_clust_3="39.61904" pt_clust_4="87.95064" pt_clust_5="14000.00000" pt_clust_6="132.01580"></scales>
<clustering>
<clus scale="   39.619">  2  3  1 -1</clus>
<clus scale="   87.951">  2  4  1 -1</clus>
<clus scale="  132.016">  1  6  2 -1</clus>
<clus scale="   39.619">  2  3  1 -1</clus>
</clustering>
</event>
<event>
 6    0  0.2433432E+002  0.2659980E+03  0.7546771E-02  0.1103592E+00
         21   -1    0    0  505  502  0.00000000000E+00  0.00000000000E+00  0.16136278165E+03  0.16136278165E+03  0.00000000000E+00 0. -1.
          2   -1    0    0  504    0 -0.00000000000E+00 -0.00000000000E+00 -0.74045418134E+03  0.74045418134E+03  0.00000000000E+00 0.  1.
         21    1    1    2  503  502 -0.83038111392E+02  0.23984081641E+02 -0.70094235518E+02  0.11128237043E+03  0.00000000000E+00 0. -1.
         21    1    1    2  504  503 -0.13851206576E+03  0.70589603515E+02 -0.67841879358E+02  0.16962017887E+03  0.00000000000E+00 0. -1.
         21    1    1    2  505  501 -0.32158265007E+02  0.68773214859E+01  0.49429018815E+02  0.59369010941E+02  0.00000000000E+00 0. -1.
          2    1    1    2  501    0  0.25370844216E+03 -0.10145100664E+03 -0.49058430363E+03  0.56154540275E+03  0.00000000000E+00 0.  1.
<scales pt_clust_3="32.08142" pt_clust_4="32.08142" pt_clust_5="32.88543" pt_clust_6="262.49521"></scales>
<clustering>
<clus scale="   32.081">  3  4 -1 -1</clus>
<clus scale="   32.885">  1  5  2 -1</clus>
<clus scale="  262.495">  2  6  1 -1</clus>
<clus scale="   32.885">  1  3  2 -1</clus>
</clustering>
</event>
<event>
 6    0  0.2433432E+002  0.1256562E+03  0.7546771E-02  0.1234047E+00
          2   -1    0    0  503    0 -0.00000000000E+00  0.00000000000E+00  0.18276205873E+04  0.18276205873E+04  0.00000000000E+00 0. -1.
         21   -1    0    0  504  502  0.00000000000E+00 -0.00000000000E+00 -0.17239304276E+02  0.17239304276E+02  0.00000000000E+00 0. -1.
         21    1    1    2  503  505  0.16722508878E+02 -0.57663189039E+02  0.19712356680E+03  0.20606403437E+03  0.00000000000E+00 0. -1.
         21    1    1    2  504  501 -0.35408808359E+02 -0.22642326006E+02  0.74398154952E+02  0.85449073118E+02  0.00000000000E+00 0. -1.
         21    1    1    2  505  502  0.59774721193E+02 -0.28108547288E+02  0.22815081061E+03  0.23752031514E+03  0.00000000000E+00 0. -1.
          2    1    1    2  501    0 -0.41088421712E+02  0.10841406233E+03  0.13107087506E+04  0.13158264689E+04  0.00000000000E+00 0. -1.
<scales pt_clust_3="48.92099" pt_clust_4="42.02926" pt_clust_5="48.92099" pt_clust_6="114.40861"></scales>
<clustering>
<clus scale="   42.029">  2  4  1 -1</clus>
<clus scale="   48.921">  3  5 -1 -1</clus>
<clus scale="  114.409">  1  6  2 -1</clus>
<clus scale="   42.029">  2  3  1 -1</clus>
</clustering>
</event>
<event>
 6    0  0.2433432E+002  0.9780284E+02  0.7546771E-02  0.1284985E+00
         21   -1    0    0  504  502  0.00000000000E+00  0.00000000000E+00  0.33594911596E+03  0.33594911596E+03  0.00000000000E+00 0. -1.
          2   -1    0    0  503    0 -0.00000000000E+00 -0.00000000000E+00 -0.47060352660E+03  0.47060352660E+03  0.00000000000E+00 0.  1.
         21    1    1    2  503  502 -0.16389225114E+02  0.25332866639E+02  0.44286354281E+01  0.30495469233E+02  0.00000000000E+00 0. -1.
         21    1    1    2  504  505  0.88744496437E+02  0.65154196212E+02  0.25468739650E+03  0.27746409653E+03  0.00000000000E+00 0. -1.
         21    1    1    2  505  501 -0.51950378808E+02 -0.55322170443E+02  0.23423195198E+02  0.79423110453E+02  0.00000000000E+00 0. -1.
          2    1    1    2  501    0 -0.20404892515E+02 -0.35164892408E+02 -0.41719363776E+03  0.41916996634E+03  0.00000000000E+00 0.  1.
<scales pt_clust_3="30.17219" pt_clust_4="14000.00000" pt_clust_5="97.80284" pt_clust_6="40.61386"></scales>
<clustering>
<clus scale="   30.172">  1  3  2 -1</clus>
<clus scale="   40.614">  2  6  1 -1</clus>
<clus scale="   97.803">  2  5  1 -1</clus>
<clus scale="   30.172">  1  3  2 -1</clus>
</clustering>
</event>
<event>
 6    0  0.2433432E+002  0.8229730E+02  0.7546771E-02  0.1322656E+00
         -2   -1    0    0    0  501 -0.00000000000E+00  0.00000000000E+00  0.56507598496E+03  0.56507598496E+03  0.00000000000E+00 0. -1.
         21   -1    0    0  503  502  0.00000000000E+00 -0.00000000000E+00 -0.63232943338E+02  0.63232943338E+02  0.00000000000E+00 0. -1.
         21    1    1    2  503  501  0.62700584031E+02  0.77814983445E+01  0.16982273667E+02  0.65424097802E+02  0.00000000000E+00 0. -1.
         21    1    1    2  504  505 -0.84871238664E+02 -0.88710059013E+02  0.97317501264E+02  0.15666300704E+03  0.00000000000E+00 0. -1.
         21    1    1    2  505  502 -0.10881553396E+02  0.42635144357E+02  0.57913825154E+02  0.72733588407E+02  0.00000000000E+00 0. -1.
         -2    1    1    2    0  504  0.33052208029E+02  0.38293416311E+02  0.32962944154E+03  0.33348823505E+03  0.00000000000E+00 0. -1.
<scales pt_clust_3="14000.00000" pt_clust_4="82.29730" pt_clust_5="44.00186" pt_clust_6="51.46982"></scales>
<clustering>
<clus scale="   44.002">  2  5  1 -1</clus>
<clus scale="   51.470">  1  6  2 -1</clus>
<clus scale="   82.297">  1  4  2 -1</clus>
<clus scale="   44.002">  2  3  1 -1</clus>
</clustering>
</event>
<event>
 6    0  0.2433432E+002  0.1105617E+03  0.7546771E-02  0.1259533E+00
         21   -1    0    0  505  502  0.00000000000E+00  0.00000000000E+00  0.73726719762E+02  0.73726719762E+02  0.00000000000E+00 0.  1.
          1   -1    0    0  503    0 -0.00000000000E+00 -0.00000000000E+00 -0.70683633520E+03  0.70683633520E+03  0.00000000000E+00 0.  1.
         21    1    1    2  503  504 -0.40122346053E+02  0.11740908381E+03 -0.11264109433E+03  0.16757897167E+03  0.00000000000E+00 0.  1.
         21    1    1    2  504  502 -0.28206676634E+02 -0.18915815974E+02 -0.12468311397E+02  0.36178494852E+02  0.00000000000E+00 0.  1.
         21    1    1    2  505  501  0.84555358973E+02 -0.68732651324E+02 -0.54129407602E+02  0.12167078062E+03  0.00000000000E+00 0.  1.
          1    1    1    2  501    0 -0.16226336286E+02 -0.29760616511E+02 -0.45387080211E+03  0.45513480782E+03  0.00000000000E+00 0.  1.
<scales pt_clust_3="14000.00000" pt_clust_4="36.88993" pt_clust_5="110.56165" pt_clust_6="33.89673"></scales>
<clustering>
<clus scale="   33.897">  2  6  1 -1</clus>
<clus scale="   36.890">  1  4  2 -1</clus>
<clus scale="  110.562">  1  5  2 -1</clus>
<clus scale="   36.890">  1  3  2 -1</clus>
</clustering>
</event>
<event>
 6    0  0.2433432E+002  0.7483165E+02  0.7546771E-02  0.1344393E+00
         21   -1    0    0  504  502  0.00000000000E+00  0.00000000000E+00  0.87169065706E+03  0.87169065706E+03  0.00000000000E+00 0.  1.
         -1   -1    0    0    0  501 -0.00000000000E+00 -0.00000000000E+00 -0.25349793997E+03  0.25349793997E+03  0.00000000000E+00 0. -1.
         21    1    1    2  503  502  0.30455936157E+02 -0.12932283467E+02  0.12410093005E+03  0.12843616641E+03  0.00000000000E+00 0. -1.
         21    1    1    2  504  501 -0.45441763339E+02  0.10179756112E+03  0.69209066606E+03  0.70101154581E+03  0.00000000000E+00 0.  1.
         21    1    1    2  505  503 -0.26638109467E+02 -0.27030827586E+02  0.34682789181E+02  0.51411578281E+02  0.00000000000E+00 0.  1.
         -1    1    1    2    0  505  0.41623936649E+02 -0.61834450068E+02 -0.23268166819E+03  0.24432930653E+03  0.00000000000E+00 0. -1.
<scales pt_clust_3="33.08788" pt_clust_4="74.83165" pt_clust_5="37.29046" pt_clust_6="14000.00000"></scales>
<clustering>
<clus scale="   33.088">  1  3  2 -1</clus>
<clus scale="   37.290">  1  5  2 -1</clus>
<clus scale="   74.832">  1  4  2 -1</clus>
<clus scale="   33.088">  1  3  2 -1</clus>
</clustering>
</event>
<event>
 6    0  0.2433432E+002  0.1271753E+03  0.7546771E-02  0.1231708E+00
         -1   -1    0    0    0  501 -0.00000000000E+00  0.00000000000E+00  0.20600891509E+04  0.20600891509E+04  0.00000000000E+00 0.  1.
         21   -1    0    0  504  502  0.00000000000E+00 -0.00000000000E+00 -0.61251858049E+02  0.61251858049E+02  0.00000000000E+00 0. -1.
         21    1    1    2  503  501 -0.10674789173E+01  0.89889715351E+02  0.27333684775E+03  0.28774004375E+03  0.00000000000E+00 0.  1.
         21    1    1    2  504  505  0.29289123099E+02 -0.17201732955E+02  0.77212590828E+02  0.84353639702E+02  0.00000000000E+00 0.  1.
         21    1    1    2  505  503  0.18623223231E+02 -0.13210831386E+03  0.40142421812E+02  0.13932280884E+03  0.00000000000E+00 0. -1.
         -1    1    1    2    0  502 -0.46844867413E+02  0.59420331463E+02  0.16081454325E+04  0.16099245167E+04  0.00000000000E+00 0.  1.
<scales pt_clust_3="14000.00000" pt_clust_4="33.96693" pt_clust_5="127.17535" pt_clust_6="75.17744"></scales>
<clustering>
<clus scale="   33.967">  2  4  1 -1</clus>
<clus scale="   75.177">  1  6  2 -1</clus>
<clus scale="  127.175">  2  5  1 -1</clus>
<clus scale="   33.967">  2  3  1 -1</clus>
</clustering>
</event>
<event>
 6    0  0.2433432E+002  0.1074433E+03  0.7546771E-02  0.1265379E+00
          2   -1    0    0  503    0 -0.00000000000E+00  0.00000000000E+00  0.32098251754E+04  0.32098251754E+04  0.00000000000E+00 0.  1.
         21   -1    0    0  504  502  0.00000000000E+00 -0.00000000000E+00 -0.27956777652E+03  0.27956777652E+03  0.00000000000E+00 0.  1.
         21    1    1    2  503  505 -0.93066739173E+02 -0.10109472563E+02  0.17332586651E+04  0.17357849001E+04  0.00000000000E+00 0.  1.
         21    1    1    2  504  501 -0.12093036526E+02 -0.77455415091E+02 -0.25704783241E+03  0.26873624804E+03  0.00000000000E+00 0.  1.
         21    1    1    2  505  502 -0.50029984854E+02  0.46281233077E+02  0.98111842364E+02  0.11946081170E+03  0.00000000000E+00 0.  1.
          2    1    1    2  501    0  0.15518976055E+03  0.41283654576E+02  0.13559347239E+04  0.13654109921E+04  0.00000000000E+00 0.  1.
<scales pt_clust_3="14000.00000" pt_clust_4="68.98610" pt_clust_5="68.15388" pt_clust_6="107.44333"></scales>
<clustering>
<clus scale="   68.154">  2  5  1 -1</clus>
<clus scale="   68.986">  2  4  1 -1</clus>
<clus scale="  107.443">  2  6  1 -1</clus>
<clus scale="   68.154">  2  3  1 -1</clus>
</clustering>
</event>
<event>
 6    0  0.2433432E+002  0.1248998E+03  0.7546771E-02  0.1235226E+00
         21   -1    0    0  504  502  0.00000000000E+00  0.00000000000E+00  0.16098467660E+02  0.16098467660E+02  0.00000000000E+00 0.  1.
          2   -1    0    0  502    0 -0.00000000000E+00 -0.00000000000E+00 -0.20745742019E+04  0.20745742019E+04  0.00000000000E+00 0. -1.
         21    1    1    2  503  505  0.47610177958E+02 -0.24776172681E+02 -0.20066756848E+03  0.20772111308E+03  0.00000000000E+00 0. -1.
         21    1    1    2  504  503  0.77025809583E+02 -0.13390170370E+02 -0.17762310774E+03  0.19406761814E+03  0.00000000000E+00 0.  1.
         21    1    1    2  505  501 -0.92253508707E+02  0.44136593556E+02 -0.63518032331E+03  0.64336054579E+03  0.00000000000E+00 0.  1.
          2    1    1    2  501    0 -0.32382478834E+02 -0.59702505052E+01 -0.10450047347E+04  0.10455233925E+04  0.00000000000E+00 0. -1.
<scales pt_clust_3="30.32488" pt_clust_4="30.32488" pt_clust_5="119.41698" pt_clust_6="32.92824"></scales>
<clustering>
<clus scale="   30.325">  3  4 -1 -1</clus>
<clus scale="   32.928">  2  6  1 -1</clus>
<clus scale="  119.417">  2  5  1 -1</clus>
<clus scale="  124.900">  1  3  2 -1</clus>
</clustering>
</event>
<event>
 6    0  0.2433432E+002  0.1788412E+03  0.7546771E-02  0.1168929E+00
          2   -1    0    0  505    0 -0.00000000000E+00  0.00000000000E+00  0.42012229938E+04  0.42012229938E+04  0.00000000000E+00 0.  1.
         21   -1    0    0  504  502  0.00000000000E+00 -0.00000000000E+00 -0.39153958002E+02  0.39153958002E+02  0.00000000000E+00 0.  1.
         21    1    1    2  503  502 -0.73192437580E+02  0.11652215489E+01  0.24212669374E+03  0.25295024507E+03  0.00000000000E+00 0.  1.
         21    1    1    2  504  501  0.92330308792E+02 -0.72876492780E+02  0.15681140658E+03  0.19602470853E+03  0.00000000000E+00 0.  1.
         21    1    1    2  505  503 -0.11285829953E+03  0.16338829932E+03  0.76329986577E+03  0.78870743449E+03  0.00000000000E+00 0.  1.
          2    1    1    2  501    0  0.93720428314E+02 -0.91677028092E+02  0.29998310697E+04  0.30026945638E+04  0.00000000000E+00 0.  1.
<scales pt_clust_3="67.81471" pt_clust_4="117.62597" pt_clust_5="67.81471" pt_clust_6="139.67375"></scales>
<clustering>
<clus scale="   67.815">  3  5 -1 -1</clus>
<clus scale="  117.626">  2  4  1 -1</clus>
<clus scale="  139.674">  1  6  2 -1</clus>
<clus scale="  117.626">  2  3  1 -1</clus>
</clustering>
</event>
<event>
 6    0  0.2433432E+002  0.1828121E+03  0.7546771E-02  0.1165109E+00
         21   -1    0    0  505  502  0.00000000000E+00  0.00000000000E+00  0.36708384856E+03  0.36708384856E+03  0.00000000000E+00 0.  1.
          2   -1    0    0  504    0 -0.00000000000E+00 -0.00000000000E+00 -0.28529635152E+03  0.28529635152E+03  0.00000000000E+00 0.  1.
         21    1    1    2  503  501 -0.60386841855E+02  0.15346972263E+03 -0.30029515960E+02  0.16763441849E+03  0.00000000000E+00 0. -1.
         21    1    1    2  504  502  0.72010245947E+02 -0.19259869859E+03  0.13059213042E+03  0.24358579341E+03  0.00000000000E+00 0.  1.
         21    1    1    2  505  503 -0.67954961803E+02  0.36857137417E+01  0.90487695591E+02  0.11322316182E+03  0.00000000000E+00 0.  1.
          2    1    1    2  501    0  0.56331557711E+02  0.35443262217E+02 -0.10926281302E+03  0.12793682636E+03  0.00000000000E+00 0.  1.
<scales pt_clust_3="14000.00000" pt_clust_4="182.81212" pt_clust_5="64.40327" pt_clust_6="66.55426"></scales>
<clustering>
<clus scale="   66.554">  2  6  1 -1</clus>
<clus scale="   64.403">  1  5  2 -1</clus>
<clus scale="  182.812">  1  4  2 -1</clus>
<clus scale="   64.403">  1  3  2 -1</clus>
</clustering>
</event>
<event>
 6    0  0.2433432E+002  0.1053283E+03  0.7546771E-02  0.1269474E+00
         21   -1    0    0  501  502  0.00000000000E+00  0.00000000000E+00  0.48990443787E+03  0.48990443787E+03  0.00000000000E+00 0.  1.
          1   -1    0    0  504    0 -0.00000000000E+00 -0.00000000000E+00 -0.23203867024E+03  0.23203867024E+03  0.00000000000E+00 0. -1.
         21    1    1    2  503  505 -0.87817505422E+02  0.10621841419E+02  0.23018498218E+03  0.24659656079E+03  0.00000000000E+00 0.  1.
         21    1    1    2  504  503  0.15682077634E+03  0.20604598229E+02  0.13229259373E+03  0.20620047458E+03  0.00000000000E+00 0.  1.
         21    1    1    2  505  502 -0.80914509516E+00 -0.36038843132E+02  0.71586410529E+02  0.80150278243E+02  0.00000000000E+00 0.  1.
          1    1    1    2  501    0 -0.68194125826E+02  0.48124034836E+01 -0.17619821881E+03  0.18899579449E+03  0.00000000000E+00 0. -1.
<scales pt_clust_3="14000.00000" pt_clust_4="105.32828" pt_clust_5="36.04793" pt_clust_6="68.33925"></scales>
<clustering>
<clus scale="   36.048">  1  5  2 -1</clus>
<clus scale="   68.339">  2  6  1 -1</clus>
<clus scale="  105.328">  2  4  1 -1</clus>
<clus scale="   36.048">  1  3  2 -1</clus>
</clustering>
</event>
<event>
 6    0  0.2433432E+002  0.2185970E+03  0.7546771E-02  0.1134933E+00
         21   -1    0    0  501  502  0.00000000000E+00  0.00000000000E+00  0.76323161907E+02  0.76323161907E+02  0.00000000000E+00 0.  1.
         -1   -1    0    0    0  501 -0.00000000000E+00 -0.00000000000E+00 -0.11409999638E+04  0.11409999638E+04  0.00000000000E+00 0.  1.
         21    1    1    2  503  504  0.10582903592E+02 -0.84530134613E+02 -0.19399294290E+03  0.21187402720E+03  0.00000000000E+00 0.  1.
         21    1    1    2  504  505  0.57962370609E+02 -0.15389016277E+03 -0.25239573159E+03  0.30123981133E+03  0.00000000000E+00 0.  1.
         21    1    1    2  505  502 -0.12534981941E+03  0.15505656025E+03 -0.23657355593E+03  0.30938998281E+03  0.00000000000E+00 0.  1.
         -1    1    1    2    0  503  0.56804545204E+02  0.83363737136E+02 -0.38171457149E+03  0.39481930438E+03  0.00000000000E+00 0.  1.
<scales pt_clust_3="35.84552" pt_clust_4="35.84552" pt_clust_5="212.84823" pt_clust_6="100.87750"></scales>
<clustering>
<clus scale="   35.846">  3  4 -1 -1</clus>
<clus scale="  100.877">  2  6  1 -1</clus>
<clus scale="  212.848">  1  5  2 -1</clus>
<clus scale="  212.848">  1  3  2 -1</clus>
</clustering>
</event>
<event>
 6    0  0.2433432E+002  0.1802804E+03  0.7546771E-02  0.1167532E+00
         21   -1    0    0  505  502  0.00000000000E+00  0.00000000000E+00  0.65774908495E+03  0.65774908495E+03  0.00000000000E+00 0. -1.
          1   -1    0    0  504    0 -0.00000000000E+00 -0.00000000000E+00 -0.35426358730E+04  0.35426358730E+04  0.00000000000E+00 0. -1.
         21    1    1    2  503  501  0.91920187167E+02  0.64581995098E+02 -0.25150065712E+03  0.27545005978E+03  0.00000000000E+00 0. -1.
         21    1    1    2  504  502 -0.39750862761E+02 -0.12350342273E+03  0.31809895469E+03  0.34354064023E+03  0.00000000000E+00 0.  1.
         21    1    1    2  505  503 -0.12531700124E+03  0.14128985662E+02  0.30174260389E+03  0.32703605006E+03  0.00000000000E+00 0. -1.
          1    1    1    2  501    0  0.73147676835E+02  0.44792441965E+02 -0.32532276895E+04  0.32543582079E+04  0.00000000000E+00 0. -1.
<scales pt_clust_3="180.28045" pt_clust_4="14000.00000" pt_clust_5="123.16978" pt_clust_6="85.77264"></scales>
<clustering>
<clus scale="   85.773">  2  6  1 -1</clus>
<clus scale="  123.170">  1  5  2 -1</clus>
<clus scale="  180.280">  2  3  1 -1</clus>
<clus scale="  123.170">  1  3  2 -1</clus>
</clustering>
</event>
<event>
 6    0  0.2433432E+002  0.2453731E+03  0.7546771E-02  0.1116264E+00
         21   -1    0    0  501  502  0.00000000000E+00  0.00000000000E+00  0.24417153549E+03  0.24417153549E+03  0.00000000000E+00 0. -1.
          2   -1    0    0  504    0 -0.00000000000E+00 -0.00000000000E+00 -0.19844327524E+04  0.19844327524E+04  0.00000000000E+00 0. -1.
         21    1    1    2  503  505 -0.45032946555E+02  0.17448160871E+03  0.90485166950E+02  0.20164167102E+03  0.00000000000E+00 0. -1.
         21    1    1    2  504  503  0.17949840608E+02 -0.22162087260E+03 -0.80554908394E+03  0.83567178640E+03  0.00000000000E+00 0. -1.
         21    1    1    2  505  502 -0.13175048963E+02  0.59026275364E+02  0.71580872249E+02  0.93709681306E+02  0.00000000000E+00 0. -1.
          2    1    1    2  501    0  0.40258154911E+02 -0.11887011472E+02 -0.10967781721E+04  0.10975811491E+04  0.00000000000E+00 0. -1.
<scales pt_clust_3="32.00976" pt_clust_4="239.07122" pt_clust_5="32.00976" pt_clust_6="41.97642"></scales>
<clustering>
<clus scale="   32.010">  3  5 -1 -1</clus>
<clus scale="   41.976">  2  6  1 -1</clus>
<clus scale="  239.071">  2  4  1 -1</clus>
<clus scale="  245.373">  1  3  2 -1</clus>
</clustering>
</event>
<event>
 6    0  0.2433432E+002  0.1301815E+03  0.7546771E-02  0.1227187E+00
          1   -1    0    0  504    0 -0.00000000000E+00  0.00000000000E+00  0.13273590108E+04  0.13273590108E+04  0.00000000000E+00 0. -1.
         21   -1    0    0  505  502  0.00000000000E+00 -0.00000000000E+00 -0.16743243481E+04  0.16743243481E+04  0.00000000000E+00 0.  1.
         21    1    1    2  503  502 -0.37485051300E+02  0.28238863978E+02 -0.13174865887E+04  0.13183222193E+04  0.00000000000E+00 0.  1.
         21    1    1    2  504  503 -0.63380004542E+02 -0.55425188588E+02 -0.29349290283E+03  0.30533106707E+03  0.00000000000E+00 0.  1.
         21    1    1    2  505  501 -0.29929964595E+02  0.33303702291E+02 -0.44413301955E+02  0.63067271682E+02  0.00000000000E+00 0. -1.
          1    1    1    2  501    0  0.13079502044E+03 -0.61173776807E+01  0.13084274562E+04  0.13149628009E+04  0.00000000000E+00 0. -1.
<scales pt_clust_3="82.96317" pt_clust_4="130.18148" pt_clust_5="44.77655" pt_clust_6="14000.00000"></scales>
<clustering>
<clus scale="   44.777">  2  5  1 -1</clus>
<clus scale="   82.963">  2  3  1 -1</clus>
<clus scale="  130.181">  2  4  1 -1</clus>
<clus scale="   44.777">  2  3  1 -1</clus>
</clustering>
</event>
<event>
 6    0  0.2433432E+002  0.1875664E+03  0.7546771E-02  0.1160675E+00
         21   -1    0    0  505  502  0.00000000000E+00  0.00000000000E+00  0.26552009531E+03  0.26552009531E+03  0.00000000000E+00 0.  1.
          1   -1    0    0  504    0 -0.00000000000E+00 -0.00000000000E+00 -0.15365507735E+04  0.15365507735E+04  0.00000000000E+00 0.  1.
         21    1    1    2  503  502 -0.13240554770E+02  0.16454619480E+03  0.50758306845E+01  0.16515606731E+03  0.00000000000E+00 0.  1.
         21    1    1    2  504  503  0.19745933766E+02 -0.13251061619E+03 -0.57947816658E+03  0.59476374373E+03  0.00000000000E+00 0.  1.
         21    1    1    2  505  501  0.29569048466E+02  0.39958121313E+02  0.16727402208E+03  0.17450380669E+03  0.00000000000E+00 0.  1.
          1    1    1    2  501    0 -0.36074427462E+02 -0.71993699918E+02 -0.86390236437E+03  0.86764725108E+03  0.00000000000E+00 0.  1.
<scales pt_clust_3="187.56640" pt_clust_4="14000.00000" pt_clust_5="49.70895" pt_clust_6="79.55734"></scales>
<clustering>
<clus scale="   49.709">  1  5  2 -1</clus>
<clus scale="   79.557">  2  6  1 -1</clus>
<clus scale="  187.566">  1  3  2 -1</clus>
<clus scale="   49.709">  1  3  2 -1</clus>
</clustering>
</event>
<event>
 6    0  0.2433432E+002  0.1199015E+03  0.7546771E-02  0.1243260E+00
         21   -1    0    0  505  502  0.00000000000E+00  0.00000000000E+00  0.73518645439E+02  0.73518645439E+02  0.00000000000E+00 0. -1.
         -2   -1    0    0    0  501 -0.00000000000E+00 -0.00000000000E+00 -0.97401465350E+03  0.97401465350E+03  0.00000000000E+00 0.  1.
         21    1    1    2  503  501 -0.49882862822E+01  0.12195283754E+03 -0.37064030160E+02  0.12755830007E+03  0.00000000000E+00 0. -1.
         21    1    1    2  504  502 -0.52238730401E+02 -0.25721656984E+02 -0.66775638264E+02  0.88597259876E+02  0.00000000000E+00 0. -1.
         21    1    1    2  505  503  0.46551956680E+02  0.22982727217E+02 -0.40601219898E+02  0.65907127674E+02  0.00000000000E+00 0. -1.
         -2    1    1    2    0  504  0.10675060003E+02 -0.11921390777E+03 -0.75605511974E+03  0.76547061132E+03  0.00000000000E+00 0.  1.
<scales pt_clust_3="119.90149" pt_clust_4="48.92139" pt_clust_5="51.91619" pt_clust_6="14000.00000"></scales>
<clustering>
<clus scale="   51.916">  1  5  2 -1</clus>
<clus scale="   48.921">  1  4  2 -1</clus>
<clus scale="  119.901">  1  3  2 -1</clus>
<clus scale="   51.916">  1  3  2 -1</clus>
</clustering>
</event>
<event>
 6    0  0.2433432E+002  0.1215902E+03  0.7546771E-02  0.1240497E+00
         21   -1    0    0  503  502  0.00000000000E+00  0.00000000000E+00  0.96001813545E+02  0.96001813545E+02  0.00000000000E+00 0. -1.
          2   -1    0    0  504    0 -0.00000000000E+00 -0.00000000000E+00 -0.24813149691E+04  0.24813149691E+04  0.00000000000E+00 0. -1.
         21    1    1    2  503  501 -0.10899828717E+03  0.50060554177E+02  0.19607279266E+02  0.12153654220E+03  0.00000000000E+00 0. -1.
         21    1    1    2  504  505  0.57109562177E+02  0.11397318426E+02 -0.99411826765E+02  0.11521333369E+03  0.00000000000E+00 0. -1.
         21    1    1    2  505  502 -0.66507361163E+01  0.45769557354E+02 -0.17735268353E+02  0.49534073271E+02  0.00000000000E+00 0. -1.
          2    1    1    2  501    0  0.58539461107E+02 -0.10722742996E+03 -0.22877733397E+04  0.22910328335E+04  0.00000000000E+00 0. -1.
<scales pt_clust_3="121.59019" pt_clust_4="58.65313" pt_clust_5="46.25024" pt_clust_6="14000.00000"></scales>
<clustering>
<clus scale="   46.250">  1  5  2 -1</clus>
<clus scale="   58.653">  1  4  2 -1</clus>
<clus scale="  121.590">  1  3  2 -1</clus>
<clus scale="   46.250">  1  3  2 -1</clus>
</clustering>
</event>
<event>
 6    0  0.2433432E+002  0.1146385E+03  0.7546771E-02  0.1252213E+00
         -4   -1    0    0    0  501 -0.00000000000E+00  0.00000000000E+00  0.33738797064E+03  0.33738797064E+03  0.00000000000E+00 0. -1.
         21   -1    0    0  503  502  0.00000000000E+00 -0.00000000000E+00 -0.31262584711E+04  0.31262584711E+04  0.00000000000E+00 0.  1.
         21    1    1    2  503  501 -0.52009572827E+01  0.67530810545E+02 -0.40245387895E+03  0.40811344625E+03  0.00000000000E+00 0.  1.
         21    1    1    2  504  502  0.51307311282E+02 -0.20334223883E+02 -0.20382457557E+03  0.21116433993E+03  0.00000000000E+00 0.  1.
         21    1    1    2  505  504  0.60338577917E+02 -0.90025638994E+02 -0.25023254755E+04  0.25046712649E+04  0.00000000000E+00 0.  1.
         -4    1    1    2    0  505 -0.10644493192E+03  0.42829052332E+02  0.31973342958E+03  0.33969739069E+03  0.00000000000E+00 0. -1.
<scales pt_clust_3="64.73589" pt_clust_4="55.18986" pt_clust_5="14000.00000" pt_clust_6="114.63854"></scales>
<clustering>
<clus scale="   55.190">  2  4  1 -1</clus>
<clus scale="   64.736">  2  3  1 -1</clus>
<clus scale="  114.639">  1  6  2 -1</clus>
<clus scale="   55.190">  2  3  1 -1</clus>
</clustering>
</event>
<event>
 6    0  0.2433432E+002  0.6088801E+02  0.7546771E-02  0.1394143E+00
         21   -1    0    0  505  502  0.00000000000E+00  0.00000000000E+00  0.29360705200E+03  0.29360705200E+03  0.00000000000E+00 0. -1.
          2   -1    0    0  503    0 -0.00000000000E+00 -0.00000000000E+00 -0.41370878020E+03  0.41370878020E+03  0.00000000000E+00 0. -1.
         21    1    1    2  503  504 -0.75433463111E+02  0.98972109095E+02  0.13713681121E+03  0.18518150751E+03  0.00000000000E+00 0. -1.
         21    1    1    2  504  502 -0.13380919932E+02 -0.38547401407E+02  0.35647219741E+01  0.40959228706E+02  0.00000000000E+00 0. -1.
         21    1    1    2  505  501  0.34985041841E+02 -0.33685200895E+02  0.10224074649E+03  0.11318929347E+03  0.00000000000E+00 0. -1.
          2    1    1    2  501    0  0.53829341201E+02 -0.26739506792E+02 -0.36304400788E+03  0.36798580251E+03  0.00000000000E+00 0. -1.
<scales pt_clust_3="14000.00000" pt_clust_4="40.80381" pt_clust_5="57.27349" pt_clust_6="60.88801"></scales>
<clustering>
<clus scale="   40.804">  1  4  2 -1</clus>
<clus scale="   57.273">  1  5  2 -1</clus>
<clus scale="   60.888">  2  6  1 -1</clus>
<clus scale="   40.804">  1  3  2 -1</clus>
</clustering>
</event>
<event>
 6    0  0.2433432E+002  0.9299533E+02  0.7546771E-02  0.1295756E+00
          2   -1    0    0  504    0 -0.00000000000E+00  0.00000000000E+00  0.40440376636E+03  0.40440376636E+03  0.00000000000E+00 0. -1.
         21   -1    0    0  503  502  0.00000000000E+00 -0.00000000000E+00 -0.15470678564E+03  0.15470678564E+03  0.00000000000E+00 0.  1.
         21    1    1    2  503  501  0.41309640115E+02  0.52694737005E+02 -0.10093198178E+03  0.12112178425E+03  0.00000000000E+00 0.  1.
         21    1    1    2  504  505 -0.41161212000E+00 -0.57602636985E+02  0.57670957801E+02  0.81511794152E+02  0.00000000000E+00 0.  1.
         21    1    1    2  505  502  0.19372443427E+00 -0.62318249785E+02  0.10451311336E+02  0.63188857357E+02  0.00000000000E+00 0.  1.
          2    1    1    2  501    0 -0.41091752429E+02  0.67226149765E+02  0.28250669337E+03  0.29328811624E+03  0.00000000000E+00 0. -1.
<scales pt_clust_3="66.95686" pt_clust_4="42.09013" pt_clust_5="42.09013" pt_clust_6="82.04611"></scales>
<clustering>
<clus scale="   42.090">  4  5 -1 -1</clus>
<clus scale="   66.957">  2  3  1 -1</clus>
<clus scale="   82.046">  1  6  2 -1</clus>
<clus scale="   66.957">  2  3  1 -1</clus>
</clustering>
</event>
<event>
 6    0  0.2433432E+002  0.1419325E+03  0.7546771E-02  0.1210752E+00
          1   -1    0    0  503    0 -0.00000000000E+00  0.00000000000E+00  0.33887242666E+02  0.33887242666E+02  0.00000000000E+00 0.  1.
         21   -1    0    0  505  502  0.00000000000E+00 -0.00000000000E+00 -0.88062945500E+03  0.88062945500E+03  0.00000000000E+00 0.  1.
         21    1    1    2  503  502  0.28367716248E+02 -0.19122524556E+02 -0.65680946373E+02  0.74056633646E+02  0.00000000000E+00 0.  1.
         21    1    1    2  504  501  0.14657001843E+02  0.39308328188E+02 -0.10257502490E+03  0.11082241696E+03  0.00000000000E+00 0. -1.
         21    1    1    2  505  504 -0.15829422923E+02 -0.12616529927E+03 -0.53091796097E+03  0.54593235354E+03  0.00000000000E+00 0.  1.
          1    1    1    2  501    0 -0.27195295168E+02  0.10597949564E+03 -0.14756828009E+03  0.18370529352E+03  0.00000000000E+00 0.  1.
<scales pt_clust_3="34.21108" pt_clust_4="33.39827" pt_clust_5="131.28481" pt_clust_6="33.39827"></scales>
<clustering>
<clus scale="   33.398">  4  6 -1 -1</clus>
<clus scale="   34.211">  1  3  2 -1</clus>
<clus scale="  131.285">  2  5  1 -1</clus>
<clus scale="  131.285">  2  3  1 -1</clus>
</clustering>
</event>
<event>
 6    0  0.2433432E+002  0.1260756E+03  0.7546771E-02  0.1233398E+00
          2   -1    0    0  503    0 -0.00000000000E+00  0.00000000000E+00  0.51091914773E+03  0.51091914773E+03  0.00000000000E+00 0.  1.
         21   -1    0    0  504  502  0.00000000000E+00 -0.00000000000E+00 -0.32357978477E+03  0.32357978477E+03  0.00000000000E+00 0.  1.
         21    1    1    2  503  502 -0.33303813694E+02 -0.17298075564E+03 -0.12973343343E+03  0.21877442624E+03  0.00000000000E+00 0.  1.
         21    1    1    2  504  505  0.47392386162E+02  0.93550944427E+02 -0.11419831096E+03  0.15504538592E+03  0.00000000000E+00 0. -1.
         21    1    1    2  505  501 -0.16315215247E+02  0.43673791058E+02  0.25134228227E+02  0.52965231072E+02  0.00000000000E+00 0.  1.
          2    1    1    2  501    0  0.22266427786E+01  0.35756020155E+02  0.40613687912E+03  0.40771388926E+03  0.00000000000E+00 0.  1.
<scales pt_clust_3="14000.00000" pt_clust_4="126.07565" pt_clust_5="59.16110" pt_clust_6="35.82528"></scales>
<clustering>
<clus scale="   35.825">  1  6  2 -1</clus>
<clus scale="   59.161">  1  5  2 -1</clus>
<clus scale="  126.076">  2  4  1 -1</clus>
<clus scale="  126.076">  2  3  1 -1</clus>
</clustering>
</event>
<event>
 6    0  0.2433432E+002  0.1279974E+03  0.7546771E-02  0.1230458E+00
          2   -1    0    0  505    0 -0.00000000000E+00  0.00000000000E+00  0.21159922178E+04  0.21159922178E+04  0.00000000000E+00 0.  1.
         21   -1    0    0  503  502  0.00000000000E+00 -0.00000000000E+00 -0.10709745104E+03  0.10709745104E+03  0.00000000000E+00 0. -1.
         21    1    1    2  503  501 -0.33092036479E+02 -0.31104187197E+02 -0.83492422478E+02  0.95044925960E+02  0.00000000000E+00 0. -1.
         21    1    1    2  504  502  0.63333368476E+02  0.34857946327E+02  0.19703657782E+03  0.20987997757E+03  0.00000000000E+00 0. -1.
         21    1    1    2  505  504  0.83404755853E+02 -0.10126722443E+02  0.17573648019E+03  0.19478761325E+03  0.00000000000E+00 0. -1.
          2    1    1    2  501    0 -0.11364608785E+03  0.63729633135E+01  0.17196141312E+04  0.17233771520E+04  0.00000000000E+00 0.  1.
<scales pt_clust_3="45.41534" pt_clust_4="45.99461" pt_clust_5="45.99461" pt_clust_6="117.17912"></scales>
<clustering>
<clus scale="   45.415">  2  3  1 -1</clus>
<clus scale="   45.995">  4  5 -1 -1</clus>
<clus scale="  117.179">  1  6  2 -1</clus>
<clus scale="   45.415">  2  3  1 -1</clus>
</clustering>
</event>
<event>
 6    0  0.2433432E+002  0.1046640E+03  0.7546771E-02  0.1270783E+00
          1   -1    0    0  504    0 -0.00000000000E+00  0.00000000000E+00  0.16072277552E+04  0.16072277552E+04  0.00000000000E+00 0.  1.
         21   -1    0    0  503  502  0.00000000000E+00 -0.00000000000E+00 -0.34762509240E+03  0.34762509240E+03  0.00000000000E+00 0. -1.
         21    1    1    2  503  501  0.34993444822E+02  0.97721887670E+01 -0.34400398103E+01  0.36494804119E+02  0.00000000000E+00 0.  1.
         21    1    1    2  504  505  0.83213591550E+02 -0.97369170351E+02 -0.11850551470E+03  0.17449588582E+03  0.00000000000E+00 0. -1.
         21    1    1    2  505  502 -0.86110426189E+02  0.48799258944E+02 -0.16719802093E+03  0.19429758459E+03  0.00000000000E+00 0. -1.
          1    1    1    2  501    0 -0.32096610184E+02  0.38797722640E+02  0.15487462382E+04  0.15495645731E+04  0.00000000000E+00 0.  1.
<scales pt_clust_3="36.33231" pt_clust_4="104.66396" pt_clust_5="14000.00000" pt_clust_6="50.33487"></scales>
<clustering>
<clus scale="   36.332">  2  3  1 -1</clus>
<clus scale="   50.335">  1  6  2 -1</clus>
<clus scale="  104.664">  1  4  2 -1</clus>
<clus scale="   36.332">  2  3  1 -1</clus>
</clustering>
</event>
<event>
 6    0  0.2433432E+002  0.1354587E+03  0.7546771E-02  0.1219574E+00
         21   -1    0    0  503  502  0.00000000000E+00  0.00000000000E+00  0.49573250233E+03  0.49573250233E+03  0.00000000000E+00 0.  1.
          2   -1    0    0  505    0 -0.00000000000E+00 -0.00000000000E+00 -0.48877261678E+03  0.48877261678E+03  0.00000000000E+00 0.  1.
         21    1    1    2  503  504 -0.95401741702E+01 -0.31729199776E+02  0.29188865752E+03  0.29376307703E+03  0.00000000000E+00 0.  1.
         21    1    1    2  504  501  0.54498605730E+02 -0.52373632952E+02  0.87176677444E+01  0.76086090621E+02  0.00000000000E+00 0.  1.
         21    1    1    2  505  502  0.91331475959E+02  0.53328741198E+02  0.13056585235E+03  0.16802629240E+03  0.00000000000E+00 0.  1.
          2    1    1    2  501    0 -0.13628990752E+03  0.30774091530E+02 -0.42421229207E+03  0.44662965905E+03  0.00000000000E+00 0.  1.
<scales pt_clust_3="33.13242" pt_clust_4="78.98267" pt_clust_5="14000.00000" pt_clust_6="135.45867"></scales>
<clustering>
<clus scale="   33.132">  1  3  2 -1</clus>
<clus scale="   78.983">  1  4  2 -1</clus>
<clus scale="  135.459">  2  6  1 -1</clus>
<clus scale="   33.132">  1  3  2 -1</clus>
</clustering>
</event>
<event>
 6    0  0.2433432E+002  0.1164002E+03  0.7546771E-02  0.1249157E+00
          1   -1    0    0  504    0 -0.00000000000E+00  0.00000000000E+00  0.12541446460E+04  0.12541446460E+04  0.00000000000E+00 0.  1.
         21   -1    0    0  505  502  0.00000000000E+00 -0.00000000000E+00 -0.60019530243E+02  0.60019530243E+02  0.00000000000E+00 0.  1.
         21    1    1    2  503  502  0.22677135276E+02 -0.25222275177E+02 -0.24453465148E+02  0.41813724866E+02  0.00000000000E+00 0.  1.
         21    1    1    2  504  503  0.92303639032E+02  0.15726527854E+02  0.96928330600E+02  0.13476789948E+03  0.00000000000E+00 0.  1.
         21    1    1    2  505  501  0.63251653839E+00  0.44692225994E+02  0.10992153828E+03  0.11866145001E+03  0.00000000000E+00 0.  1.
          1    1    1    2  501    0 -0.11561329085E+03 -0.35196478671E+02  0.10117287120E+04  0.10189211018E+04  0.00000000000E+00 0.  1.
<scales pt_clust_3="33.91778" pt_clust_4="116.40021" pt_clust_5="40.82173" pt_clust_6="14000.00000"></scales>
<clustering>
<clus scale="   33.918">  2  3  1 -1</clus>
<clus scale="   40.822">  2  5  1 -1</clus>
<clus scale="  116.400">  2  4  1 -1</clus>
<clus scale="   33.918">  2  3  1 -1</clus>
</clustering>
</event>
<event>
 6    0  0.2433432E+002  0.1197025E+03  0.7546771E-02  0.1243589E+00
          2   -1    0    0  502    0 -0.00000000000E+00  0.00000000000E+00  0.12078054229E+04  0.12078054229E+04  0.00000000000E+00 0. -1.
         21   -1    0    0  504  502  0.00000000000E+00 -0.00000000000E+00 -0.60418193994E+03  0.60418193994E+03  0.00000000000E+00 0.  1.
         21    1    1    2  503  501  0.53480548653E+02 -0.34916828851E+02  0.13708883920E+03  0.15123724361E+03  0.00000000000E+00 0. -1.
         21    1    1    2  504  505 -0.59306437428E+02  0.90661113363E+02 -0.58032659799E+03  0.59035214180E+03  0.00000000000E+00 0.  1.
         21    1    1    2  505  503  0.32216652521E+02 -0.89012480827E+02  0.18800246833E+03  0.21049005330E+03  0.00000000000E+00 0. -1.
          2    1    1    2  501    0 -0.26390763746E+02  0.33268196315E+02  0.85885877342E+03  0.85990792413E+03  0.00000000000E+00 0. -1.
<scales pt_clust_3="40.73864" pt_clust_4="108.94442" pt_clust_5="40.73864" pt_clust_6="42.46464"></scales>
<clustering>
<clus scale="   40.739">  3  5 -1 -1</clus>
<clus scale="   42.465">  1  6  2 -1</clus>
<clus scale="  108.944">  2  4  1 -1</clus>
<clus scale="  108.944">  2  3  1 -1</clus>
</clustering>
</event>
<event>
 6    0  0.2433432E+002  0.1536803E+03  0.7546771E-02  0.1196022E+00
          2   -1    0    0  503    0 -0.00000000000E+00  0.00000000000E+00  0.12491490421E+04  0.12491490421E+04  0.00000000000E+00 0. -1.
         21   -1    0    0  504  502  0.00000000000E+00 -0.00000000000E+00 -0.85057174829E+03  0.85057174829E+03  0.00000000000E+00 0.  1.
         21    1    1    2  503  502 -0.20068663379E+02  0.25080968342E+02 -0.44186244419E+03  0.44302847065E+03  0.00000000000E+00 0.  1.
         21    1    1    2  504  505  0.16610030002E+02  0.13603032121E+03 -0.19326546052E+03  0.23692125193E+03  0.00000000000E+00 0.  1.
         21    1    1    2  505  501 -0.28633256314E+02 -0.16819883534E+03 -0.15505967431E+03  0.23055197716E+03  0.00000000000E+00 0.  1.
          2    1    1    2  501    0  0.32091889691E+02  0.70875457955E+01  0.11887648728E+04  0.11892190906E+04  0.00000000000E+00 0. -1.
<scales pt_clust_3="32.12174" pt_clust_4="153.68030" pt_clust_5="14000.00000" pt_clust_6="32.85733"></scales>
<clustering>
<clus scale="   32.122">  2  3  1 -1</clus>
<clus scale="   32.857">  1  6  2 -1</clus>
<clus scale="  153.680">  2  4  1 -1</clus>
<clus scale="   32.122">  2  3  1 -1</clus>
</clustering>
</event>
<event>
 6    0  0.2433432E+002  0.9226791E+02  0.7546771E-02  0.1297451E+00
         21   -1    0    0  505  502  0.00000000000E+00  0.00000000000E+00  0.38859263880E+03  0.38859263880E+03  0.00000000000E+00 0. -1.
          3   -1    0    0  504    0 -0.00000000000E+00 -0.00000000000E+00 -0.20811026279E+03  0.20811026279E+03  0.00000000000E+00 0.  1.
         21    1    1    2  503  501 -0.42048757753E+02  0.21630472991E+02  0.19387502133E+02  0.51106268005E+02  0.00000000000E+00 0. -1.
         21    1    1    2  504  502 -0.81288548504E+02 -0.24202711535E+02  0.27699952170E+03  0.28969351802E+03  0.00000000000E+00 0. -1.
         21    1    1    2  505  503  0.32048888757E+02 -0.12985877532E+02  0.52997000485E+02  0.63280694894E+02  0.00000000000E+00 0. -1.
          3    1    1    2  501    0  0.91288417500E+02  0.15558116076E+02 -0.16890164830E+03  0.19262242067E+03  0.00000000000E+00 0.  1.
<scales pt_clust_3="43.61398" pt_clust_4="14000.00000" pt_clust_5="34.57982" pt_clust_6="92.26791"></scales>
<clustering>
<clus scale="   34.580">  1  5  2 -1</clus>
<clus scale="   43.614">  1  3  2 -1</clus>
<clus scale="   92.268">  2  6  1 -1</clus>
<clus scale="   34.580">  1  3  2 -1</clus>
</clustering>
</event>
<event>
 6    0  0.2433432E+002  0.1259923E+03  0.7546771E-02  0.1233527E+00
         21   -1    0    0  501  502  0.00000000000E+00  0.00000000000E+00  0.13377292205E+03  0.13377292205E+03  0.00000000000E+00 0. -1.
          1   -1    0    0  503    0 -0.00000000000E+00 -0.00000000000E+00 -0.59916635929E+03  0.59916635929E+03  0.00000000000E+00 0.  1.
         21    1    1    2  503  504  0.50427273799E+01  0.83768714406E+02  0.62202690181E+01  0.84150569572E+02  0.00000000000E+00 0. -1.
         21    1    1    2  504  505  0.45113385456E+02  0.10595339347E+02 -0.27596632305E+02  0.53935636436E+02  0.00000000000E+00 0.  1.
         21    1    1    2  505  502 -0.25123112319E+02  0.37599005314E+02  0.58929502965E+02  0.74280160830E+02  0.00000000000E+00 0. -1.
          1    1    1    2  501    0 -0.25033000516E+02 -0.13196305907E+03 -0.50294657692E+03  0.52057291450E+03  0.00000000000E+00 0.  1.
<scales pt_clust_3="125.99232" pt_clust_4="44.02116" pt_clust_5="45.22008" pt_clust_6="14000.00000"></scales>
<clustering>
<clus scale="   45.220">  1  5  2 -1</clus>
<clus scale="   44.021">  1  4  2 -1</clus>
<clus scale="  125.992">  1  3  2 -1</clus>
<clus scale="   45.220">  1  3  2 -1</clus>
</clustering>
</event>
<event>
 6    0  0.2433432E+002  0.1110303E+03  0.7546771E-02  0.1258674E+00
          2   -1    0    0  504    0 -0.00000000000E+00  0.00000000000E+00  0.73068409245E+03  0.73068409245E+03  0.00000000000E+00 0. -1.
         21   -1    0    0  501  502  0.00000000000E+00 -0.00000000000E+00 -0.39384900016E+03  0.39384900016E+03  0.00000000000E+00 0. -1.
         21    1    1    2  503  505 -0.61450807379E+02  0.10145509032E+03  0.22492250396E+03  0.25428226416E+03  0.00000000000E+00 0. -1.
         21    1    1    2  504  503  0.52264953596E+02 -0.30207326622E+02  0.24383145413E+02  0.65104882584E+02  0.00000000000E+00 0. -1.
         21    1    1    2  505  502 -0.60268390671E+02 -0.94541804489E+02 -0.34690774385E+03  0.36457566355E+03  0.00000000000E+00 0. -1.
          2    1    1    2  501    0  0.69454244455E+02  0.23294040793E+02  0.43443718677E+03  0.44057028231E+03  0.00000000000E+00 0. -1.
<scales pt_clust_3="100.64395" pt_clust_4="60.36645" pt_clust_5="14000.00000" pt_clust_6="111.03032"></scales>
<clustering>
<clus scale="   60.366">  1  4  2 -1</clus>
<clus scale="  100.644">  1  3  2 -1</clus>
<clus scale="  111.030">  1  6  2 -1</clus>
<clus scale="  111.030">  2  3  1 -1</clus>
</clustering>
</event>
<event>
 6    0  0.2433432E+002  0.1060225E+03  0.7546771E-02  0.1268118E+00
          1   -1    0    0  505    0 -0.00000000000E+00  0.00000000000E+00  0.14230445009E+03  0.14230445009E+03  0.00000000000E+00 0. -1.
         21   -1    0    0  503  502  0.00000000000E+00 -0.00000000000E+00 -0.24760711324E+04  0.24760711324E+04  0.00000000000E+00 0. -1.
         21    1    1    2  503  504  0.37200567330E+02 -0.16893713095E+02 -0.33480024962E+03  0.33728398553E+03  0.00000000000E+00 0. -1.
         21    1    1    2  504  501  0.25320272954E+02 -0.34638523776E+02 -0.17735609805E+03  0.18247226931E+03  0.00000000000E+00 0. -1.
         21    1    1    2  505  502 -0.31389246624E+02  0.10803105163E+03 -0.19508943251E+04  0.19541352718E+04  0.00000000000E+00 0. -1.
          1    1    1    2  501    0 -0.31131593660E+02 -0.56498814758E+02  0.12928399047E+03  0.14448405581E+03  0.00000000000E+00 0. -1.
<scales pt_clust_3="34.88509" pt_clust_4="34.88509" pt_clust_5="99.81356" pt_clust_6="64.50808"></scales>
<clustering>
<clus scale="   34.885">  3  4 -1 -1</clus>
<clus scale="   64.508">  1  6  2 -1</clus>
<clus scale="   99.814">  2  5  1 -1</clus>
<clus scale="   99.814">  2  3  1 -1</clus>
</clustering>
</event>
<event>
 6    0  0.2433432E+002  0.1235160E+03  0.7546771E-02  0.1237407E+00
          2   -1    0    0  502    0 -0.00000000000E+00  0.00000000000E+00  0.19366837618E+04  0.19366837618E+04  0.00000000000E+00 0.  1.
         21   -1    0    0  505  502  0.00000000000E+00 -0.00000000000E+00 -0.97438350843E+03  0.97438350843E+03  0.00000000000E+00 0.  1.
         21    1    1    2  503  504  0.56718340815E+02  0.14724841788E+02 -0.18158486915E+03  0.19080580666E+03  0.00000000000E+00 0.  1.
         21    1    1    2  504  501 -0.81003021308E+02 -0.10300288586E+03 -0.60934779964E+03  0.62327828847E+03  0.00000000000E+00 0. -1.
         21    1    1    2  505  503  0.53647567154E+02 -0.31838617960E+02 -0.16415647664E+03  0.17561067131E+03  0.00000000000E+00 0.  1.
          2    1    1    2  501    0 -0.29362886662E+02  0.12011666203E+03  0.19173893988E+04  0.19213725038E+04  0.00000000000E+00 0.  1.
<scales pt_clust_3="45.97703" pt_clust_4="123.51600" pt_clust_5="121.34231" pt_clust_6="14000.00000"></scales>
<clustering>
<clus scale="   45.977">  3  5 -1 -1</clus>
<clus scale="  121.342">  2  3  1 -1</clus>
<clus scale="  123.516">  2  4  1 -1</clus>
<clus scale="  121.342">  2  3  1 -1</clus>
</clustering>
</event>
<event>
 6    0  0.2433432E+002  0.1406931E+03  0.7546771E-02  0.1212399E+00
         21   -1    0    0  503  502  0.00000000000E+00  0.00000000000E+00  0.15970561608E+03  0.15970561608E+03  0.00000000000E+00 0. -1.
          2   -1    0    0  505    0 -0.00000000000E+00 -0.00000000000E+00 -0.25953011347E+04  0.25953011347E+04  0.00000000000E+00 0.  1.
         21    1    1    2  503  504  0.30397897395E+02  0.11347050658E+03  0.36999206281E+02  0.12316058337E+03  0.00000000000E+00 0. -1.
         21    1    1    2  504  501 -0.99019348038E+01  0.38356775733E+02  0.44972164220E+02  0.59931511846E+02  0.00000000000E+00 0. -1.
         21    1    1    2  505  502  0.68682824283E+02 -0.59499842703E+02 -0.55448363042E+02  0.10645225501E+03  0.00000000000E+00 0.  1.
          2    1    1    2  501    0 -0.89178786874E+02 -0.92327439610E+02 -0.24621185261E+04  0.24654624006E+04  0.00000000000E+00 0.  1.
<scales pt_clust_3="33.51960" pt_clust_4="33.51960" pt_clust_5="90.87113" pt_clust_6="128.30728"></scales>
<clustering>
<clus scale="   33.520">  3  4 -1 -1</clus>
<clus scale="   90.871">  1  5  2 -1</clus>
<clus scale="  128.307">  2  6  1 -1</clus>
<clus scale="   90.871">  1  3  2 -1</clus>
</clustering>
</event>
<event>
 6    0  0.2433432E+002  0.1742453E+03  0.7546771E-02  0.1173492E+00
          2   -1    0    0  503    0 -0.00000000000E+00  0.00000000000E+00  0.23333982761E+04  0.23333982761E+04  0.00000000000E+00 0. -1.
         21   -1    0    0  505  502  0.00000000000E+00 -0.00000000000E+00 -0.38868567917E+03  0.38868567917E+03  0.00000000000E+00 0. -1.
         21    1    1    2  503  502 -0.32877855492E+02 -0.71752876730E+00  0.10813479937E+01  0.32903457915E+02  0.00000000000E+00 0.  1.
         21    1    1    2  504  501  0.43247908204E+02  0.11573869881E+03 -0.11554197151E+03  0.16916197902E+03  0.00000000000E+00 0. -1.
         21    1    1    2  505  504 -0.72726969843E+02  0.49751959704E+02 -0.21847046451E+03  0.23557124930E+03  0.00000000000E+00 0. -1.
          2    1    1    2  501    0  0.62356917131E+02 -0.16477312975E+03  0.22776436850E+04  0.22844472691E+04  0.00000000000E+00 0. -1.
<scales pt_clust_3="32.88568" pt_clust_4="14000.00000" pt_clust_5="105.04509" pt_clust_6="174.24530"></scales>
<clustering>
<clus scale="   32.886">  2  3  1 -1</clus>
<clus scale="  105.045">  2  5  1 -1</clus>
<clus scale="  174.245">  1  6  2 -1</clus>
<clus scale="   32.886">  2  3  1 -1</clus>
</clustering>
</event>
<event>
 6    0  0.2433432E+002  0.1320382E+03  0.7546771E-02  0.1224462E+00
          2   -1    0    0  505    0 -0.00000000000E+00  0.00000000000E+00  0.34653783809E+04  0.34653783809E+04  0.00000000000E+00 0.  1.
         21   -1    0    0  503  502  0.00000000000E+00 -0.00000000000E+00 -0.15332521640E+03  0.15332521640E+03  0.00000000000E+00 0. -1.
         21    1    1    2  503  501  0.11062049646E+03 -0.15232735680E+03  0.63814148180E+02  0.19877817630E+03  0.00000000000E+00 0. -1.
         21    1    1    2  504  502 -0.33245594888E+02  0.60686172420E+02  0.80522014484E+02  0.10616909117E+03  0.00000000000E+00 0. -1.
         21    1    1    2  505  504 -0.47675484642E+01  0.86108048435E+02 -0.46999330806E+02  0.98215388915E+02  0.00000000000E+00 0. -1.
          2    1    1    2  501    0 -0.72607353107E+02  0.55331359472E+01  0.32147163326E+04  0.32155409409E+04  0.00000000000E+00 0.  1.
<scales pt_clust_3="14000.00000" pt_clust_4="69.19596" pt_clust_5="132.03819" pt_clust_6="72.92889"></scales>
<clustering>
<clus scale="   69.196">  2  4  1 -1</clus>
<clus scale="   72.929">  1  6  2 -1</clus>
<clus scale="  132.038">  2  5  1 -1</clus>
<clus scale="   69.196">  2  3  1 -1</clus>
</clustering>
</event>
<event>
 6    0  0.2433432E+002  0.5848176E+02  0.7546771E-02  0.1404316E+00
         21   -1    0    0  501  502  0.00000000000E+00  0.00000000000E+00  0.58145144868E+03  0.58145144868E+03  0.00000000000E+00 0. -1.
          2   -1    0    0  503    0 -0.00000000000E+00 -0.00000000000E+00 -0.29340080313E+04  0.29340080313E+04  0.00000000000E+00 0.  1.
         21    1    1    2  503  505 -0.30656445410E+02  0.12671384078E+03  0.54066570470E+03  0.55616150472E+03  0.00000000000E+00 0. -1.
         21    1    1    2  504  502 -0.55112159506E+01 -0.30432198029E+02 -0.21862794381E+02  0.37874449914E+02  0.00000000000E+00 0.  1.
         21    1    1    2  505  504  0.20427418701E+02 -0.39998287253E+02  0.43476753714E+01  0.45122552001E+02  0.00000000000E+00 0.  1.
          2    1    1    2  501    0  0.15740242659E+02 -0.56283355501E+02 -0.28757071684E+04  0.28763009734E+04  0.00000000000E+00 0.  1.
<scales pt_clust_3="14000.00000" pt_clust_4="30.92721" pt_clust_5="45.98064" pt_clust_6="58.48176"></scales>
<clustering>
<clus scale="   30.927">  1  4  2 -1</clus>
<clus scale="   45.981">  1  5  2 -1</clus>
<clus scale="   58.482">  2  6  1 -1</clus>
<clus scale="   30.927">  1  3  2 -1</clus>
</clustering>
</event>
<event>
 6    0  0.2433432E+002  0.6826664E+02  0.7546771E-02  0.1366089E+00
         21   -1    0    0  501  502  0.00000000000E+00  0.00000000000E+00  0.14665054040E+04  0.14665054040E+04  0.00000000000E+00 0.  1.
          2   -1    0    0  503    0 -0.00000000000E+00 -0.00000000000E+00 -0.69852664089E+03  0.69852664089E+03  0.00000000000E+00 0. -1.
         21    1    1    2  503  505 -0.99361242361E+02  0.20322995337E+02  0.19959645602E+03  0.22388484959E+03  0.00000000000E+00 0.  1.
         21    1    1    2  504  502 -0.43149002381E+02 -0.26856132416E+02  0.45713609831E+03  0.45995271564E+03  0.00000000000E+00 0.  1.
         21    1    1    2  505  504  0.86565562552E+02  0.45303137162E+02  0.79151830238E+03  0.79752566971E+03  0.00000000000E+00 0.  1.
          2    1    1    2  501    0  0.55944682190E+02 -0.38770000083E+02 -0.68027209359E+03  0.68366880994E+03  0.00000000000E+00 0. -1.
<scales pt_clust_3="14000.00000" pt_clust_4="50.82409" pt_clust_5="57.83005" pt_clust_6="68.26664"></scales>
<clustering>
<clus scale="   50.824">  1  4  2 -1</clus>
<clus scale="   57.830">  1  5  2 -1</clus>
<clus scale="   68.267">  2  6  1 -1</clus>
<clus scale="   50.824">  1  3  2 -1</clus>
</clustering>
</event>
<event>
 6    0  0.2433432E+002  0.9756260E+02  0.7546771E-02  0.1285507E+00
         -1   -1    0    0    0  501 -0.00000000000E+00  0.00000000000E+00  0.73495428919E+03  0.73495428919E+03  0.00000000000E+00 0.  1.
         21   -1    0    0  505  502  0.00000000000E+00 -0.00000000000E+00 -0.25285670540E+03  0.25285670540E+03  0.00000000000E+00 0.  1.
         21    1    1    2  503  502  0.88452167382E+02 -0.79832227578E+01 -0.11277310342E+03  0.14354543049E+03  0.00000000000E+00 0.  1.
         21    1    1    2  504  503 -0.11223270736E+03 -0.26238192500E+02 -0.71176272202E+02  0.13546470047E+03  0.00000000000E+00 0.  1.
         21    1    1    2  505  501 -0.54356736275E+01 -0.42567006280E+02  0.56153025858E+01  0.43278495752E+02  0.00000000000E+00 0.  1.
         -1    1    1    2    0  504  0.29216213609E+02  0.76788421538E+02  0.66043165682E+03  0.66552236788E+03  0.00000000000E+00 0.  1.
<scales pt_clust_3="97.56260" pt_clust_4="14000.00000" pt_clust_5="42.91266" pt_clust_6="81.70502"></scales>
<clustering>
<clus scale="   42.913">  2  5  1 -1</clus>
<clus scale="   81.705">  1  6  2 -1</clus>
<clus scale="   97.563">  2  3  1 -1</clus>
<clus scale="   42.913">  2  3  1 -1</clus>
</clustering>
</event>
<event>
 6    0  0.2433432E+002  0.2019280E+03  0.7546771E-02  0.1148122E+00
         21   -1    0    0  504  502  0.00000000000E+00  0.00000000000E+00  0.30927852554E+03  0.30927852554E+03  0.00000000000E+00 0.  1.
          1   -1    0    0  503    0 -0.00000000000E+00 -0.00000000000E+00 -0.14883644019E+04  0.14883644019E+04  0.00000000000E+00 0. -1.
         21    1    1    2  503  502 -0.61234813600E+02  0.10618235902E+02 -0.29007335299E+02  0.68584800294E+02  0.00000000000E+00 0. -1.
         21    1    1    2  504  505 -0.11161207144E+03  0.12656491878E+03  0.22209623416E+03  0.27893130048E+03  0.00000000000E+00 0.  1.
         21    1    1    2  505  501  0.97071854526E+02 -0.15966932100E+03 -0.19419250839E+03  0.26949576494E+03  0.00000000000E+00 0.  1.
          1    1    1    2  501    0  0.75775030518E+02  0.22486166311E+02 -0.11779822669E+04  0.11806310618E+04  0.00000000000E+00 0. -1.
<scales pt_clust_3="62.14861" pt_clust_4="201.92804" pt_clust_5="14000.00000" pt_clust_6="78.78637"></scales>
<clustering>
<clus scale="   62.149">  1  3  2 -1</clus>
<clus scale="   78.786">  2  6  1 -1</clus>
<clus scale="  201.928">  1  4  2 -1</clus>
<clus scale="   62.149">  1  3  2 -1</clus>
</clustering>
</event>
<event>
 6    0  0.2433432E+002  0.1441087E+03  0.7546771E-02  0.1207905E+00
         21   -1    0    0  503  502  0.00000000000E+00  0.00000000000E+00  0.35323989987E+03  0.35323989987E+03  0.00000000000E+00 0. -1.
          2   -1    0    0  504    0 -0.00000000000E+00 -0.00000000000E+00 -0.31865578531E+04  0.31865578531E+04  0.00000000000E+00 0. -1.
         21    1    1    2  503  505 -0.31350705798E+02 -0.50834106784E+02  0.10943368979E+03  0.12467038794E+03  0.00000000000E+00 0. -1.
         21    1    1    2  504  502  0.77196525280E+02  0.70416653495E+01  0.67663485075E+02  0.10289429420E+03  0.00000000000E+00 0. -1.
         21    1    1    2  505  501 -0.12113224093E+03 -0.55351160922E+02  0.12004572105E+03  0.17929792512E+03  0.00000000000E+00 0. -1.
          2    1    1    2  501    0  0.75286421449E+02  0.99143602356E+02 -0.31304608491E+04  0.31329351457E+04  0.00000000000E+00 0. -1.
<scales pt_clust_3="48.33453" pt_clust_4="77.51702" pt_clust_5="48.33453" pt_clust_6="124.73067"></scales>
<clustering>
<clus scale="   48.335">  3  5 -1 -1</clus>
<clus scale="   77.517">  1  4  2 -1</clus>
<clus scale="  124.731">  2  6  1 -1</clus>
<clus scale="   77.517">  1  3  2 -1</clus>
</clustering>
</event>
<event>
 6    0  0.2433432E+002  0.9025642E+02  0.7546771E-02  0.1302232E+00
         21   -1    0    0  505  502  0.00000000000E+00  0.00000000000E+00  0.96923914237E+02  0.96923914237E+02  0.00000000000E+00 0.  1.
          2   -1    0    0  502    0 -0.00000000000E+00 -0.00000000000E+00 -0.26438778730E+04  0.26438778730E+04  0.00000000000E+00 0. -1.
         21    1    1    2  503  504 -0.73285695367E+02  0.70635508774E+02 -0.18975442540E+01  0.10180259780E+03  0.00000000000E+00 0.  1.
         21    1    1    2  504  501 -0.15517796061E+00 -0.64791707744E+02 -0.26033512433E+03  0.26827666025E+03  0.00000000000E+00 0.  1.
         21    1    1    2  505  503  0.64090868060E+02  0.31296408812E+02  0.13155120378E+02  0.72526972675E+02  0.00000000000E+00 0.  1.
          2    1    1    2  501    0  0.93500052674E+01 -0.37140209841E+02 -0.22978764106E+04  0.22981955566E+04  0.00000000000E+00 0. -1.
<scales pt_clust_3="90.25642" pt_clust_4="14000.00000" pt_clust_5="70.71946" pt_clust_6="38.29906"></scales>
<clustering>
<clus scale="   38.299">  2  6  1 -1</clus>
<clus scale="   70.719">  1  5  2 -1</clus>
<clus scale="   90.256">  1  3  2 -1</clus>
<clus scale="   70.719">  1  3  2 -1</clus>
</clustering>
</event>
<event>
 6    0  0.2433432E+002  0.1051648E+03  0.7546771E-02  0.1269795E+00
         21   -1    0    0  504  502  0.00000000000E+00  0.00000000000E+00  0.72666687922E+02  0.72666687922E+02  0.00000000000E+00 0. -1.
          2   -1    0    0  503    0 -0.00000000000E+00 -0.00000000000E+00 -0.20135106540E+04  0.20135106540E+04  0.00000000000E+00 0.  1.
         21    1    1    2  503  505 -0.10167116413E+03  0.61142445885E+01  0.98748867366E+01  0.10233241417E+03  0.00000000000E+00 0. -1.
         21    1    1    2  504  501  0.89908344780E+01  0.33402587535E+02 -0.39487618193E+02  0.52496094609E+02  0.00000000000E+00 0. -1.
         21    1    1    2  505  502 -0.12339533758E+02 -0.32538587214E+02 -0.26653113900E+02  0.43833916455E+02  0.00000000000E+00 0. -1.
          2    1    1    2  501    0  0.10501986341E+03 -0.69782449102E+01 -0.18845781207E+04  0.18875149167E+04  0.00000000000E+00 0.  1.
<scales pt_clust_3="105.16477" pt_clust_4="34.59144" pt_clust_5="30.33400" pt_clust_6="14000.00000"></scales>
<clustering>
<clus scale="   34.591">  1  4  2 -1</clus>
<clus scale="   30.334">  1  5  2 -1</clus>
<clus scale="  105.165">  1  3  2 -1</clus>
<clus scale="   34.591">  1  3  2 -1</clus>
</clustering>
</event>
<event>
 6    0  0.2433432E+002  0.1023975E+03  0.7546771E-02  0.1275334E+00
         21   -1    0    0  504  502  0.00000000000E+00  0.00000000000E+00  0.22977120724E+03  0.22977120724E+03  0.00000000000E+00 0. -1.
          2   -1    0    0  503    0 -0.00000000000E+00 -0.00000000000E+00 -0.32635533520E+03  0.32635533520E+03  0.00000000000E+00 0. -1.
         21    1    1    2  503  505 -0.31524125643E+00 -0.85777529141E+02  0.82030221831E+02  0.11868799929E+03  0.00000000000E+00 0. -1.
         21    1    1    2  504  501  0.12603099805E+02  0.57729308884E+02  0.39288670370E+02  0.70958514981E+02  0.00000000000E+00 0. -1.
         21    1    1    2  505  502  0.31260501540E+02 -0.53828704076E+02  0.51987210674E+02  0.81101284901E+02  0.00000000000E+00 0. -1.
          2    1    1    2  501    0 -0.43548360088E+02  0.81876924332E+02 -0.26989023084E+03  0.28537874327E+03  0.00000000000E+00 0. -1.
<scales pt_clust_3="33.07595" pt_clust_4="59.08901" pt_clust_5="33.07595" pt_clust_6="94.75055"></scales>
<clustering>
<clus scale="   33.076">  3  5 -1 -1</clus>
<clus scale="   59.089">  1  4  2 -1</clus>
<clus scale="   94.751">  2  6  1 -1</clus>
<clus scale="   59.089">  1  3  2 -1</clus>
</clustering>
</event>
<event>
 6    0  0.2433432E+002  0.1617692E+03  0.7546771E-02  0.1186714E+00
         -2   -1    0    0    0  501 -0.00000000000E+00  0.00000000000E+00  0.24328228093E+03  0.24328228093E+03  0.00000000000E+00 0. -1.
         21   -1    0    0  505  502  0.00000000000E+00 -0.00000000000E+00 -0.51176094165E+03  0.51176094165E+03  0.00000000000E+00 0. -1.
         21    1    1    2  503  501  0.30022894194E+02 -0.96996946519E+01  0.53380598947E+01  0.31999267735E+02  0.00000000000E+00 0.  1.
         21    1    1    2  504  503 -0.15940954169E+02 -0.14148600721E+03  0.45061051010E+02  0.14934156345E+03  0.00000000000E+00 0. -1.
         21    1    1    2  505  504 -0.47661610150E+01 -0.34190311482E+02 -0.37748447268E+03  0.37905965336E+03  0.00000000000E+00 0. -1.
         -2    1    1    2    0  502 -0.93157790108E+01  0.18537601334E+03  0.58606701055E+02  0.19464273803E+03  0.00000000000E+00 0. -1.
<scales pt_clust_3="31.55088" pt_clust_4="14000.00000" pt_clust_5="34.54024" pt_clust_6="161.76924"></scales>
<clustering>
<clus scale="   31.551">  1  3  2 -1</clus>
<clus scale="   34.540">  2  5  1 -1</clus>
<clus scale="  161.769">  2  6  1 -1</clus>
<clus scale="   34.540">  2  3  1 -1</clus>
</clustering>
</event>
<event>
 6    0  0.2433432E+002  0.6684924E+02  0.7546771E-02  0.1371147E+00
         21   -1    0    0  505  502  0.00000000000E+00  0.00000000000E+00  0.10871939760E+03  0.10871939760E+03  0.00000000000E+00 0. -1.
          2   -1    0    0  503    0 -0.00000000000E+00 -0.00000000000E+00 -0.89809249826E+03  0.89809249826E+03  0.00000000000E+00 0. -1.
         21    1    1    2  503  504  0.52134571041E+02 -0.19763643733E+02 -0.16383287845E+03  0.17306018367E+03  0.00000000000E+00 0. -1.
         21    1    1    2  504  502 -0.29052281781E+02 -0.50220589139E+02 -0.64882806064E+03  0.65141691330E+03  0.00000000000E+00 0. -1.
         21    1    1    2  505  501 -0.71521637568E+02  0.10907917931E+02  0.63267430125E+02  0.96109807141E+02  0.00000000000E+00 0. -1.
          2    1    1    2  501    0  0.48439348307E+02  0.59076314940E+02 -0.39979591696E+02  0.86224991757E+02  0.00000000000E+00 0. -1.
<scales pt_clust_3="55.75496" pt_clust_4="70.02645" pt_clust_5="14000.00000" pt_clust_6="66.84924"></scales>
<clustering>
<clus scale="   55.755">  2  3  1 -1</clus>
<clus scale="   70.026">  2  4  1 -1</clus>
<clus scale="   66.849">  2  6  1 -1</clus>
<clus scale="   66.849">  1  3  2 -1</clus>
</clustering>
</event>
<event>
 6    0  0.2433432E+002  0.2148054E+03  0.7546771E-02  0.1137816E+00
          2   -1    0    0  503    0 -0.00000000000E+00  0.00000000000E+00  0.16708664623E+04  0.16708664623E+04  0.00000000000E+00 0.  1.
         21   -1    0    0  501  502  0.00000000000E+00 -0.00000000000E+00 -0.17280763340E+03  0.17280763340E+03  0.00000000000E+00 0.  1.
         21    1    1    2  503  504  0.70892007501E+02 -0.14300375526E+03  0.29253207499E+03  0.33324280284E+03  0.00000000000E+00 0.  1.
         21    1    1    2  504  505  0.13879110402E+02  0.10561062121E+03 -0.28001088047E+02  0.11013761369E+03  0.00000000000E+00 0.  1.
         21    1    1    2  505  502 -0.80589546849E+02  0.82934159047E+02 -0.42681040348E+02  0.12326565216E+03  0.00000000000E+00 0.  1.
          2    1    1    2  501    0 -0.41815710537E+01 -0.45541024993E+02  0.12762088823E+04  0.12770280270E+04  0.00000000000E+00 0.  1.
<scales pt_clust_3="191.46707" pt_clust_4="92.54454" pt_clust_5="92.54454" pt_clust_6="45.73260"></scales>
<clustering>
<clus scale="   45.733">  1  6  2 -1</clus>
<clus scale="   92.545">  4  5 -1 -1</clus>
<clus scale="  191.467">  1  3  2 -1</clus>
<clus scale="  214.805">  2  3  1 -1</clus>
</clustering>
</event>
<event>
 6    0  0.2433432E+002  0.9201561E+02  0.7546771E-02  0.1298043E+00
          1   -1    0    0  505    0 -0.00000000000E+00  0.00000000000E+00  0.12356185844E+04  0.12356185844E+04  0.00000000000E+00 0.  1.
         21   -1    0    0  503  502  0.00000000000E+00 -0.00000000000E+00 -0.43422470512E+02  0.43422470512E+02  0.00000000000E+00 0. -1.
         21    1    1    2  503  501  0.39061876235E+02 -0.39754134756E+01  0.45946159914E+02  0.60437436231E+02  0.00000000000E+00 0.  1.
         21    1    1    2  504  502 -0.27263144288E+02  0.24868229303E+02 -0.13875587065E+01  0.36927404246E+02  0.00000000000E+00 0. -1.
         21    1    1    2  505  504 -0.66701819422E+02  0.54411978415E+02  0.10911970204E+03  0.13898527074E+03  0.00000000000E+00 0. -1.
          1    1    1    2  501    0  0.54903087475E+02 -0.75304794243E+02  0.10385178107E+04  0.10426909437E+04  0.00000000000E+00 0.  1.
<scales pt_clust_3="31.11289" pt_clust_4="36.90133" pt_clust_5="92.01561" pt_clust_6="14000.00000"></scales>
<clustering>
<clus scale="   36.901">  2  4  1 -1</clus>
<clus scale="   31.113">  2  3  1 -1</clus>
<clus scale="   92.016">  2  5  1 -1</clus>
<clus scale="   36.901">  2  3  1 -1</clus>
</clustering>
</event>
<event>
 6    0  0.2433432E+002  0.9438141E+02  0.7546771E-02  0.1292575E+00
         21   -1    0    0  505  502  0.00000000000E+00  0.00000000000E+00  0.26300331642E+03  0.26300331642E+03  0.00000000000E+00 0.  1.
          2   -1    0    0  504    0 -0.00000000000E+00 -0.00000000000E+00 -0.75256386332E+03  0.75256386332E+03  0.00000000000E+00 0.  1.
         21    1    1    2  503  501  0.51784376724E+02 -0.19551448917E+02  0.92630893571E+01  0.56122060296E+02  0.00000000000E+00 0.  1.
         21    1    1    2  504  502 -0.18784325424E+02  0.14205444694E+03  0.17143681584E+02  0.14431293287E+03  0.00000000000E+00 0.  1.
         21    1    1    2  505  503 -0.88225668378E+01 -0.85052493953E+02  0.13653925553E+03  0.16110472592E+03  0.00000000000E+00 0.  1.
          2    1    1    2  501    0 -0.24177484462E+02 -0.37450504067E+02 -0.65250657337E+03  0.65402746066E+03  0.00000000000E+00 0.  1.
<scales pt_clust_3="54.12218" pt_clust_4="94.38141" pt_clust_5="14000.00000" pt_clust_6="44.57680"></scales>
<clustering>
<clus scale="   44.577">  2  6  1 -1</clus>
<clus scale="   54.122">  2  3  1 -1</clus>
<clus scale="   94.381">  2  4  1 -1</clus>
<clus scale="   94.381">  1  3  2 -1</clus>
</clustering>
</event>
<event>
 6    0  0.2433432E+002  0.9738036E+02  0.7546771E-02  0.1285903E+00
         21   -1    0    0  505  502  0.00000000000E+00  0.00000000000E+00  0.28612553922E+03  0.28612553922E+03  0.00000000000E+00 0.  1.
          2   -1    0    0  504    0 -0.00000000000E+00 -0.00000000000E+00 -0.44896995947E+03  0.44896995947E+03  0.00000000000E+00 0.  1.
         21    1    1    2  503  501 -0.47097858165E+02  0.71072426622E+02 -0.16066956546E+03  0.18189064664E+03  0.00000000000E+00 0. -1.
         21    1    1    2  504  502  0.78572305027E+02 -0.83191461796E+02  0.54229240011E+02  0.12663031590E+03  0.00000000000E+00 0.  1.
         21    1    1    2  505  503  0.93993242741E+01  0.36853126764E+02  0.18072350698E+03  0.18468212210E+03  0.00000000000E+00 0.  1.
          2    1    1    2  501    0 -0.40873771136E+02 -0.24734091590E+02 -0.23712760178E+03  0.24189241406E+03  0.00000000000E+00 0.  1.
<scales pt_clust_3="97.38036" pt_clust_4="14000.00000" pt_clust_5="38.03288" pt_clust_6="47.15414"></scales>
<clustering>
<clus scale="   38.033">  1  5  2 -1</clus>
<clus scale="   47.154">  2  6  1 -1</clus>
<clus scale="   97.380">  2  3  1 -1</clus>
<clus scale="   38.033">  1  3  2 -1</clus>
</clustering>
</event>
<event>
 6    0  0.2433432E+002  0.1466328E+03  0.7546771E-02  0.1204673E+00
         -2   -1    0    0    0  501 -0.00000000000E+00  0.00000000000E+00  0.96968744721E+03  0.96968744721E+03  0.00000000000E+00 0. -1.
         21   -1    0    0  505  502  0.00000000000E+00 -0.00000000000E+00 -0.14515838697E+03  0.14515838697E+03  0.00000000000E+00 0. -1.
         21    1    1    2  503  504 -0.21282522509E+02  0.39102438237E+02  0.44418767499E+02  0.62888578824E+02  0.00000000000E+00 0. -1.
         21    1    1    2  504  502  0.32449161430E+02 -0.13349718989E+02 -0.58791789415E+02  0.68466324402E+02  0.00000000000E+00 0. -1.
         21    1    1    2  505  501  0.13607409010E+03 -0.12663688063E+02  0.51742485317E+01  0.13676000819E+03  0.00000000000E+00 0. -1.
         -2    1    1    2    0  503 -0.14724072902E+03 -0.13089031185E+02  0.83372783362E+03  0.84673092277E+03  0.00000000000E+00 0. -1.
<scales pt_clust_3="41.50947" pt_clust_4="35.08793" pt_clust_5="146.63278" pt_clust_6="14000.00000"></scales>
<clustering>
<clus scale="   35.088">  2  4  1 -1</clus>
<clus scale="   41.509">  2  3  1 -1</clus>
<clus scale="  146.633">  2  5  1 -1</clus>
<clus scale="   35.088">  2  3  1 -1</clus>
</clustering>
</event>
<event>
 6    0  0.2433432E+002  0.1277121E+03  0.7546771E-02  0.1230891E+00
         21   -1    0    0  501  502  0.00000000000E+00  0.00000000000E+00  0.15927234937E+04  0.15927234937E+04  0.00000000000E+00 0. -1.
          4   -1    0    0  505    0 -0.00000000000E+00 -0.00000000000E+00 -0.66286898191E+02  0.66286898191E+02  0.00000000000E+00 0. -1.
         21    1    1    2  503  504 -0.91354636477E+02  0.36491543180E+02  0.12073549610E+04  0.12113559775E+04  0.00000000000E+00 0. -1.
         21    1    1    2  504  502 -0.42859059680E+02 -0.11655988292E+02  0.20290161263E+03  0.20770610359E+03  0.00000000000E+00 0. -1.
         21    1    1    2  505  503  0.49968737640E+02  0.38960072600E+02  0.11835823943E+03  0.13425138673E+03  0.00000000000E+00 0.  1.
          4    1    1    2  501    0  0.84244958517E+02 -0.63795627488E+02 -0.21782175887E+01  0.10569692405E+03  0.00000000000E+00 0. -1.
<scales pt_clust_3="127.71212" pt_clust_4="44.41577" pt_clust_5="59.65319" pt_clust_6="14000.00000"></scales>
<clustering>
<clus scale="   44.416">  1  4  2 -1</clus>
<clus scale="   59.653">  2  5  1 -1</clus>
<clus scale="  127.712">  1  3  2 -1</clus>
<clus scale="   44.416">  1  3  2 -1</clus>
</clustering>
</event>
<event>
 6    0  0.2433432E+002  0.1352148E+03  0.7546771E-02  0.1219917E+00
          2   -1    0    0  503    0 -0.00000000000E+00  0.00000000000E+00  0.25944301500E+03  0.25944301500E+03  0.00000000000E+00 0.  1.
         21   -1    0    0  505  502  0.00000000000E+00 -0.00000000000E+00 -0.66236519943E+03  0.66236519943E+03  0.00000000000E+00 0. -1.
         21    1    1    2  503  504 -0.10315790683E+02  0.12185711287E+03 -0.13693346088E+03  0.18359287623E+03  0.00000000000E+00 0. -1.
         21    1    1    2  504  502 -0.33298661364E+02  0.69838186986E+02 -0.52007354688E+02  0.93225201270E+02  0.00000000000E+00 0. -1.
         21    1    1    2  505  501 -0.95565053710E+01 -0.11475246676E+03 -0.41103916590E+03  0.42686373859E+03  0.00000000000E+00 0. -1.
          2    1    1    2  501    0  0.53170957419E+02 -0.76942833091E+02  0.19705779704E+03  0.21812639834E+03  0.00000000000E+00 0.  1.
<scales pt_clust_3="37.98248" pt_clust_4="37.98248" pt_clust_5="126.50193" pt_clust_6="93.52727"></scales>
<clustering>
<clus scale="   37.982">  3  4 -1 -1</clus>
<clus scale="   93.527">  1  6  2 -1</clus>
<clus scale="  126.502">  2  5  1 -1</clus>
<clus scale="  126.502">  2  3  1 -1</clus>
</clustering>
</event>
<event>
 6    0  0.2433432E+002  0.7564320E+02  0.7546771E-02  0.1341891E+00
         21   -1    0    0  505  502  0.00000000000E+00  0.00000000000E+00  0.18835305712E+03  0.18835305712E+03  0.00000000000E+00 0.  1.
          2   -1    0    0  503    0 -0.00000000000E+00 -0.00000000000E+00 -0.40579389357E+04  0.40579389357E+04  0.00000000000E+00 0. -1.
         21    1    1    2  503  504 -0.73839558639E+02  0.33372495607E+02 -0.20386627463E+04  0.20402724811E+04  0.00000000000E+00 0. -1.
         21    1    1    2  504  502 -0.96779297224E+01  0.43418624111E+02  0.18081253761E+03  0.18620422391E+03  0.00000000000E+00 0.  1.
         21    1    1    2  505  501  0.58402476092E+02  0.47356767427E+01 -0.28434332614E+03  0.29031776206E+03  0.00000000000E+00 0.  1.
          2    1    1    2  501    0  0.25115012270E+02 -0.81526796461E+02 -0.17273923437E+04  0.17294975257E+04  0.00000000000E+00 0. -1.
<scales pt_clust_3="14000.00000" pt_clust_4="44.48415" pt_clust_5="61.17321" pt_clust_6="75.64320"></scales>
<clustering>
<clus scale="   44.484">  1  4  2 -1</clus>
<clus scale="   61.173">  1  5  2 -1</clus>
<clus scale="   75.643">  1  6  2 -1</clus>
<clus scale="   44.484">  1  3  2 -1</clus>
</clustering>
</event>
<event>
 6    0  0.2433432E+002  0.1000240E+03  0.7546771E-02  0.1280246E+00
          2   -1    0    0  505    0 -0.00000000000E+00  0.00000000000E+00  0.17142335297E+04  0.17142335297E+04  0.00000000000E+00 0. -1.
         21   -1    0    0  503  502  0.00000000000E+00 -0.00000000000E+00 -0.35539430286E+02  0.35539430286E+02  0.00000000000E+00 0.  1.
         21    1    1    2  503  501 -0.87307690641E+01  0.49153507231E+02  0.14477252351E+03  0.15313842485E+03  0.00000000000E+00 0.  1.
         21    1    1    2  504  502  0.31909467162E+02 -0.76268885897E+02  0.76327115630E+02  0.11252104528E+03  0.00000000000E+00 0.  1.
         21    1    1    2  505  504  0.76350682814E+02  0.51168773701E+02  0.17708246184E+03  0.19951408086E+03  0.00000000000E+00 0.  1.
          2    1    1    2  501    0 -0.99529380912E+02 -0.24053395035E+02  0.12805119985E+04  0.12845994090E+04  0.00000000000E+00 0. -1.
<scales pt_clust_3="49.92288" pt_clust_4="54.92266" pt_clust_5="100.02399" pt_clust_6="14000.00000"></scales>
<clustering>
<clus scale="   49.923">  2  3  1 -1</clus>
<clus scale="   54.923">  2  4  1 -1</clus>
<clus scale="  100.024">  2  5  1 -1</clus>
<clus scale="   49.923">  2  3  1 -1</clus>
</clustering>
</event>
<event>
 6    0  0.2433432E+002  0.1389405E+03  0.7546771E-02  0.1214762E+00
         21   -1    0    0  504  502  0.00000000000E+00  0.00000000000E+00  0.24203856660E+03  0.24203856660E+03  0.00000000000E+00 0. -1.
         -4   -1    0    0    0  501 -0.00000000000E+00 -0.00000000000E+00 -0.18370171109E+03  0.18370171109E+03  0.00000000000E+00 0.  1.
         21    1    1    2  503  501  0.47988094638E+02  0.49374753679E+02  0.31457221292E+02  0.75698614910E+02  0.00000000000E+00 0. -1.
         21    1    1    2  504  503  0.37218273203E+02  0.93955903824E+02  0.97175642152E+02  0.14019991851E+03  0.00000000000E+00 0. -1.
         21    1    1    2  505  502 -0.53193649823E+02 -0.80820224725E+02  0.16541605519E+02  0.98158534113E+02  0.00000000000E+00 0.  1.
         -4    1    1    2    0  505 -0.32012718019E+02 -0.62510432778E+02 -0.86837613453E+02  0.11168321016E+03  0.00000000000E+00 0.  1.
<scales pt_clust_3="39.25693" pt_clust_4="39.25693" pt_clust_5="130.54692" pt_clust_6="70.23082"></scales>
<clustering>
<clus scale="   39.257">  3  4 -1 -1</clus>
<clus scale="   70.231">  2  6  1 -1</clus>
<clus scale="  130.547">  1  5  2 -1</clus>
<clus scale="  130.547">  1  3  2 -1</clus>
</clustering>
</event>
<event>
 6    0  0.2433432E+002  0.1292674E+03  0.7546771E-02  0.1228547E+00
         21   -1    0    0  503  502  0.00000000000E+00  0.00000000000E+00  0.11951743399E+04  0.11951743399E+04  0.00000000000E+00 0. -1.
          2   -1    0    0  504    0 -0.00000000000E+00 -0.00000000000E+00 -0.58645045196E+03  0.58645045196E+03  0.00000000000E+00 0. -1.
         21    1    1    2  503  505  0.28257240336E+02  0.13156279013E+02  0.94518639146E+03  0.94570020298E+03  0.00000000000E+00 0. -1.
         21    1    1    2  504  502  0.10640319325E+03 -0.45794435418E+02 -0.26269846663E+03  0.28710495332E+03  0.00000000000E+00 0. -1.
         21    1    1    2  505  501 -0.14916438341E+03 -0.60720128525E+02  0.20140804767E+03  0.25788010577E+03  0.00000000000E+00 0. -1.
          2    1    1    2  501    0  0.14503949824E+02  0.93358284930E+02 -0.27517208452E+03  0.29093952984E+03  0.00000000000E+00 0. -1.
<scales pt_clust_3="31.16985" pt_clust_4="129.26743" pt_clust_5="14000.00000" pt_clust_6="95.02909"></scales>
<clustering>
<clus scale="   31.170">  1  3  2 -1</clus>
<clus scale="   95.029">  2  6  1 -1</clus>
<clus scale="  129.267">  2  4  1 -1</clus>
<clus scale="   31.170">  1  3  2 -1</clus>
</clustering>
</event>
<event>
 6    0  0.2433432E+002  0.1130059E+03  0.7546771E-02  0.1255103E+00
         21   -1    0    0  503  502  0.00000000000E+00  0.00000000000E+00  0.29534353223E+03  0.29534353223E+03  0.00000000000E+00 0.  1.
          1   -1    0    0  505    0 -0.00000000000E+00 -0.00000000000E+00 -0.49762920254E+03  0.49762920254E+03  0.00000000000E+00 0. -1.
         21    1    1    2  503  501 -0.50695854988E+02 -0.58148100677E+02 -0.13624279245E+02  0.78338319552E+02  0.00000000000E+00 0. -1.
         21    1    1    2  504  502 -0.89831952434E+01  0.78132698119E+02  0.18653818026E+03  0.20243988986E+03  0.00000000000E+00 0.  1.
         21    1    1    2  505  504 -0.10157173553E+02  0.76682004880E+02  0.35080081473E+02  0.84934740614E+02  0.00000000000E+00 0.  1.
          1    1    1    2  501    0  0.69836223784E+02 -0.96666602322E+02 -0.41027965280E+03  0.42725978474E+03  0.00000000000E+00 0. -1.
<scales pt_clust_3="77.14448" pt_clust_4="58.25817" pt_clust_5="113.00587" pt_clust_6="14000.00000"></scales>
<clustering>
<clus scale="   77.144">  1  3  2 -1</clus>
<clus scale="   58.258">  1  4  2 -1</clus>
<clus scale="  113.006">  1  5  2 -1</clus>
<clus scale="   77.144">  1  3  2 -1</clus>
</clustering>
</event>
<event>
 6    0  0.2433432E+002  0.1469883E+03  0.7546771E-02  0.1204223E+00
         21   -1    0    0  505  502  0.00000000000E+00  0.00000000000E+00  0.93533115980E+02  0.93533115980E+02  0.00000000000E+00 0.  1.
          2   -1    0    0  502    0 -0.00000000000E+00 -0.00000000000E+00 -0.32076618064E+04  0.32076618064E+04  0.00000000000E+00 0. -1.
         21    1    1    2  503  501 -0.81649122138E+02  0.11499657110E+03 -0.45166719577E+03  0.47317443533E+03  0.00000000000E+00 0.  1.
         21    1    1    2  504  503  0.12209058647E+03 -0.96101545560E+02 -0.30038498847E+03  0.33819041924E+03  0.00000000000E+00 0.  1.
         21    1    1    2  505  504 -0.89858275651E+02 -0.72286339429E+02  0.10808345736E+02  0.11583024177E+03  0.00000000000E+00 0.  1.
          2    1    1    2  501    0  0.49416811319E+02  0.53391313892E+02 -0.23728848519E+04  0.23739998260E+04  0.00000000000E+00 0. -1.
<scales pt_clust_3="146.98827" pt_clust_4="14000.00000" pt_clust_5="110.79662" pt_clust_6="72.75063"></scales>
<clustering>
<clus scale="   72.751">  2  6  1 -1</clus>
<clus scale="  110.797">  1  5  2 -1</clus>
<clus scale="  146.988">  2  3  1 -1</clus>
<clus scale="  110.797">  1  3  2 -1</clus>
</clustering>
</event>
<event>
 6    0  0.2433432E+002  0.1182582E+03  0.7546771E-02  0.1245998E+00
          1   -1    0    0  503    0 -0.00000000000E+00  0.00000000000E+00  0.11344652105E+04  0.11344652105E+04  0.00000000000E+00 0.  1.
         21   -1    0    0  504  502  0.00000000000E+00 -0.00000000000E+00 -0.10112400657E+03  0.10112400657E+03  0.00000000000E+00 0.  1.
         21    1    1    2  503  502  0.65895298751E+02  0.38201422845E+02  0.90601377837E+02  0.11836447428E+03  0.00000000000E+00 0.  1.
         21    1    1    2  504  505  0.91278839894E+02 -0.72051015876E+02 -0.11461427658E+02  0.11685264150E+03  0.00000000000E+00 0.  1.
         21    1    1    2  505  501 -0.99380703009E+02  0.75940287695E+02  0.16060532947E+03  0.20356208704E+03  0.00000000000E+00 0.  1.
          1    1    1    2  501    0 -0.57793435636E+02 -0.42090694663E+02  0.79359592433E+03  0.79681001430E+03  0.00000000000E+00 0.  1.
<scales pt_clust_3="54.31644" pt_clust_4="14000.00000" pt_clust_5="118.25822" pt_clust_6="71.49621"></scales>
<clustering>
<clus scale="   71.496">  1  6  2 -1</clus>
<clus scale="   54.316">  1  3  2 -1</clus>
<clus scale="  118.258">  1  5  2 -1</clus>
<clus scale="  118.258">  2  3  1 -1</clus>
</clustering>
</event>
<event>
 6    0  0.2433432E+002  0.9491176E+02  0.7546771E-02  0.1291375E+00
          2   -1    0    0  504    0 -0.00000000000E+00  0.00000000000E+00  0.70213213505E+03  0.70213213505E+03  0.00000000000E+00 0. -1.
         21   -1    0    0  505  502  0.00000000000E+00 -0.00000000000E+00 -0.10945893279E+03  0.10945893279E+03  0.00000000000E+00 0.  1.
         21    1    1    2  503  502 -0.21987442088E+02  0.72547534802E+02  0.54280225792E+02  0.93235912220E+02  0.00000000000E+00 0. -1.
         21    1    1    2  504  503  0.56825936161E+02 -0.55008012138E+02  0.83739319747E+02  0.11518394893E+03  0.00000000000E+00 0. -1.
         21    1    1    2  505  501 -0.76798595981E+02 -0.10049624377E+03 -0.12277181338E+02  0.12707575905E+03  0.00000000000E+00 0.  1.
          2    1    1    2  501    0  0.41960101909E+02  0.82956721108E+02  0.46693083806E+03  0.47609544764E+03  0.00000000000E+00 0. -1.
<scales pt_clust_3="75.80628" pt_clust_4="67.81813" pt_clust_5="14000.00000" pt_clust_6="94.91176"></scales>
<clustering>
<clus scale="   75.806">  2  3  1 -1</clus>
<clus scale="   67.818">  2  4  1 -1</clus>
<clus scale="   94.912">  1  6  2 -1</clus>
<clus scale="   75.806">  2  3  1 -1</clus>
</clustering>
</event>
<event>
 6    0  0.2433432E+002  0.8653042E+02  0.7546771E-02  0.1311478E+00
         21   -1    0    0  504  502  0.00000000000E+00  0.00000000000E+00  0.19903371980E+02  0.19903371980E+02  0.00000000000E+00 0.  1.
          2   -1    0    0  503    0 -0.00000000000E+00 -0.00000000000E+00 -0.22683957419E+04  0.22683957419E+04  0.00000000000E+00 0. -1.
         21    1    1    2  503  505  0.72072054656E+02 -0.89903119909E+01 -0.92262595630E+03  0.92548034124E+03  0.00000000000E+00 0. -1.
         21    1    1    2  504  501 -0.56341237756E+02 -0.21328480759E+02 -0.61454760486E+02  0.86057694309E+02  0.00000000000E+00 0.  1.
         21    1    1    2  505  502 -0.68423681774E+02 -0.27502686777E+02 -0.29054956654E+03  0.29976198663E+03  0.00000000000E+00 0.  1.
          2    1    1    2  501    0  0.52692864875E+02  0.57821479527E+02 -0.97386208654E+03  0.97699909166E+03  0.00000000000E+00 0. -1.
<scales pt_clust_3="62.85243" pt_clust_4="60.24317" pt_clust_5="14000.00000" pt_clust_6="86.53042"></scales>
<clustering>
<clus scale="   60.243">  1  4  2 -1</clus>
<clus scale="   62.852">  2  3  1 -1</clus>
<clus scale="   86.530">  2  6  1 -1</clus>
<clus scale="   60.243">  1  3  2 -1</clus>
</clustering>
</event>
<event>
 6    0  0.2433432E+002  0.8620425E+02  0.7546771E-02  0.1312313E+00
          2   -1    0    0  503    0 -0.00000000000E+00  0.00000000000E+00  0.89736635803E+03  0.89736635803E+03  0.00000000000E+00 0. -1.
         21   -1    0    0  505  502  0.00000000000E+00 -0.00000000000E+00 -0.64852926109E+02  0.64852926109E+02  0.00000000000E+00 0.  1.
         21    1    1    2  503  502 -0.70368669724E+02 -0.41465308884E+02  0.16414274040E+03  0.18334110490E+03  0.00000000000E+00 0.  1.
         21    1    1    2  504  501  0.66018655438E+02 -0.24115989821E+02  0.15829152933E+03  0.17319426113E+03  0.00000000000E+00 0.  1.
         21    1    1    2  505  504 -0.37546754483E+01 -0.35088559898E+02 -0.35960245201E+02  0.50382971908E+02  0.00000000000E+00 0.  1.
          2    1    1    2  501    0  0.81046897347E+01  0.10066985860E+03  0.54603940739E+03  0.55530094620E+03  0.00000000000E+00 0. -1.
<scales pt_clust_3="14000.00000" pt_clust_4="74.15111" pt_clust_5="35.28887" pt_clust_6="86.20425"></scales>
<clustering>
<clus scale="   35.289">  2  5  1 -1</clus>
<clus scale="   74.151">  2  4  1 -1</clus>
<clus scale="   86.204">  1  6  2 -1</clus>
<clus scale="   35.289">  2  3  1 -1</clus>
</clustering>
</event>
<event>
 6    0  0.2433432E+002  0.1459257E+03  0.7546771E-02  0.1205571E+00
          2   -1    0    0  505    0 -0.00000000000E+00  0.00000000000E+00  0.19686701366E+03  0.19686701366E+03  0.00000000000E+00 0. -1.
         21   -1    0    0  504  502  0.00000000000E+00 -0.00000000000E+00 -0.53772970236E+03  0.53772970236E+03  0.00000000000E+00 0. -1.
         21    1    1    2  503  501  0.22770512029E+02  0.12876628896E+03  0.10429187131E+02  0.13117934798E+03  0.00000000000E+00 0. -1.
         21    1    1    2  504  503 -0.27920750706E+02  0.44569294415E+02  0.19736215446E+02  0.56173913205E+02  0.00000000000E+00 0. -1.
         21    1    1    2  505  502  0.22925320093E+02 -0.12560455046E+03 -0.44189554394E+03  0.45997146123E+03  0.00000000000E+00 0. -1.
          2    1    1    2  501    0 -0.17775081416E+02 -0.47731032915E+02  0.70867452652E+02  0.87271993605E+02  0.00000000000E+00 0. -1.
<scales pt_clust_3="40.70455" pt_clust_4="40.70455" pt_clust_5="131.05258" pt_clust_6="50.93334"></scales>
<clustering>
<clus scale="   40.705">  3  4 -1 -1</clus>
<clus scale="   50.933">  1  6  2 -1</clus>
<clus scale="  131.053">  2  5  1 -1</clus>
<clus scale="  131.053">  2  3  1 -1</clus>
</clustering>
</event>
<event>
 6    0  0.2433432E+002  0.1975091E+03  0.7546771E-02  0.1151858E+00
          2   -1    0    0  504    0 -0.00000000000E+00  0.00000000000E+00  0.14305510432E+04  0.14305510432E+04  0.00000000000E+00 0. -1.
         21   -1    0    0  503  502  0.00000000000E+00 -0.00000000000E+00 -0.12460414070E+04  0.12460414070E+04  0.00000000000E+00 0. -1.
         21    1    1    2  503  505 -0.15466993544E+03  0.91220630116E+02 -0.50305561313E+03  0.53414318510E+03  0.00000000000E+00 0. -1.
         21    1    1    2  504  502  0.99528838378E+02 -0.11498579530E+03 -0.61486689672E+03  0.63339484010E+03  0.00000000000E+00 0. -1.
         21    1    1    2  505  501 -0.63891172987E+02  0.40310261748E+02 -0.86550530950E+02  0.11488252084E+03  0.00000000000E+00 0. -1.
          2    1    1    2  501    0  0.11903227005E+03 -0.16545096568E+02  0.13889826770E+04  0.13941719042E+04  0.00000000000E+00 0. -1.
<scales pt_clust_3="59.90386" pt_clust_4="174.58584" pt_clust_5="59.90386" pt_clust_6="120.17663"></scales>
<clustering>
<clus scale="   59.904">  3  5 -1 -1</clus>
<clus scale="  120.177">  1  6  2 -1</clus>
<clus scale="  174.586">  2  4  1 -1</clus>
<clus scale="  174.586">  2  3  1 -1</clus>
</clustering>
</event>
<event>
 6    0  0.2433432E+002  0.3297113E+03  0.7546771E-02  0.1071265E+00
          2   -1    0    0  504    0 -0.00000000000E+00  0.00000000000E+00  0.10828628990E+04  0.10828628990E+04  0.00000000000E+00 0.  1.
         21   -1    0    0  503  502  0.00000000000E+00 -0.00000000000E+00 -0.12237743388E+04  0.12237743388E+04  0.00000000000E+00 0. -1.
         21    1    1    2  503  505 -0.50681449017E+02  0.14160268736E+02 -0.98094780466E+02  0.11131805083E+03  0.00000000000E+00 0.  1.
         21    1    1    2  504  502  0.23857791015E+03 -0.30568610340E+03 -0.99367468136E+03  0.10666549514E+04  0.00000000000E+00 0. -1.
         21    1    1    2  505  501 -0.60708147294E+02 -0.11421518021E+02 -0.47311332099E+02  0.77809333417E+02  0.00000000000E+00 0.  1.
          2    1    1    2  501    0 -0.12718831384E+03  0.30294735269E+03  0.99816935413E+03  0.10508549021E+04  0.00000000000E+00 0.  1.
<scales pt_clust_3="43.39986" pt_clust_4="329.71132" pt_clust_5="120.93895" pt_clust_6="14000.00000"></scales>
<clustering>
<clus scale="   43.400">  3  5 -1 -1</clus>
<clus scale="  120.939">  2  3  1 -1</clus>
<clus scale="  329.711">  2  4  1 -1</clus>
<clus scale="  120.939">  2  3  1 -1</clus>
</clustering>
</event>
<event>
 6    0  0.2433432E+002  0.1149903E+03  0.7546771E-02  0.1251598E+00
         -4   -1    0    0    0  501 -0.00000000000E+00  0.00000000000E+00  0.24264732792E+04  0.24264732792E+04  0.00000000000E+00 0. -1.
         21   -1    0    0  504  502  0.00000000000E+00 -0.00000000000E+00 -0.15886634680E+02  0.15886634680E+02  0.00000000000E+00 0. -1.
         21    1    1    2  503  502  0.92354286369E+01 -0.10303160209E+03  0.45690916459E+03  0.46847282617E+03  0.00000000000E+00 0. -1.
         21    1    1    2  504  505  0.47913375440E+02  0.31456887706E+02  0.17457473938E+03  0.18374320929E+03  0.00000000000E+00 0. -1.
         21    1    1    2  505  501  0.53207063326E+02  0.48129864969E+02  0.39595055459E+03  0.40239820722E+03  0.00000000000E+00 0. -1.
         -4    1    1    2    0  503 -0.11035586740E+03  0.23444849417E+02  0.13831521860E+04  0.13877456712E+04  0.00000000000E+00 0. -1.
<scales pt_clust_3="103.44469" pt_clust_4="34.65446" pt_clust_5="34.65446" pt_clust_6="108.25673"></scales>
<clustering>
<clus scale="   34.654">  4  5 -1 -1</clus>
<clus scale="  103.445">  2  3  1 -1</clus>
<clus scale="  108.257">  1  6  2 -1</clus>
<clus scale="  103.445">  2  3  1 -1</clus>
</clustering>
</event>
<event>
 6    0  0.2433432E+002  0.9392679E+02  0.7546771E-02  0.1293612E+00
         21   -1    0    0  505  502  0.00000000000E+00  0.00000000000E+00  0.73536606930E+01  0.73536606930E+01  0.00000000000E+00 0. -1.
          2   -1    0    0  504    0 -0.00000000000E+00 -0.00000000000E+00 -0.36958895737E+04  0.36958895737E+04  0.00000000000E+00 0. -1.
         21    1    1    2  503  501  0.16183311136E+02 -0.48399016012E+02 -0.29658523313E+03  0.30094379013E+03  0.00000000000E+00 0. -1.
         21    1    1    2  504  502  0.51149821954E+01  0.71127634220E+02 -0.44777404750E+03  0.45341691742E+03  0.00000000000E+00 0. -1.
         21    1    1    2  505  503  0.29977899872E+02 -0.70553423940E+02 -0.82704163401E+03  0.83058673509E+03  0.00000000000E+00 0. -1.
          2    1    1    2  501    0 -0.51276193203E+02  0.47824805732E+02 -0.21171349983E+04  0.21182957917E+04  0.00000000000E+00 0. -1.
<scales pt_clust_3="32.05480" pt_clust_4="85.31583" pt_clust_5="32.05480" pt_clust_6="70.11747"></scales>
<clustering>
<clus scale="   32.055">  3  5 -1 -1</clus>
<clus scale="   70.117">  2  6  1 -1</clus>
<clus scale="   85.316">  1  4  2 -1</clus>
<clus scale="   85.316">  1  3  2 -1</clus>
</clustering>
</event>
<event>
 6    0  0.2433432E+002  0.1304747E+03  0.7546771E-02  0.1226753E+00
         21   -1    0    0  505  502  0.00000000000E+00  0.00000000000E+00  0.69480464414E+03  0.69480464414E+03  0.00000000000E+00 0. -1.
         -3   -1    0    0    0  501 -0.00000000000E+00 -0.00000000000E+00 -0.29645821103E+03  0.29645821103E+03  0.00000000000E+00 0. -1.
         21    1    1    2  503  501  0.56651215920E+02 -0.10490211803E+02  0.49072554336E+02  0.75680383178E+02  0.00000000000E+00 0.  1.
         21    1    1    2  504  503  0.29868657214E+02 -0.28870076560E+02  0.10553635259E+03  0.11341754592E+03  0.00000000000E+00 0.  1.
         21    1    1    2  505  504  0.12064404710E+02 -0.31072896337E+02  0.50923686898E+03  0.51032662431E+03  0.00000000000E+00 0. -1.
         -3    1    1    2    0  502 -0.98584277843E+02  0.70433184701E+02 -0.26549934280E+03  0.29183830176E+03  0.00000000000E+00 0. -1.
<scales pt_clust_3="51.32478" pt_clust_4="51.32478" pt_clust_5="33.33279" pt_clust_6="119.18245"></scales>
<clustering>
<clus scale="   33.333">  1  5  2 -1</clus>
<clus scale="   51.325">  3  4 -1 -1</clus>
<clus scale="  119.182">  2  6  1 -1</clus>
<clus scale="   33.333">  1  3  2 -1</clus>
</clustering>
</event>
<event>
 6    0  0.2433432E+002  0.8188538E+02  0.7546771E-02  0.1323785E+00
         21   -1    0    0  504  502  0.00000000000E+00  0.00000000000E+00  0.36058361374E+03  0.36058361374E+03  0.00000000000E+00 0. -1.
          2   -1    0    0  503    0 -0.00000000000E+00 -0.00000000000E+00 -0.85825388472E+03  0.85825388472E+03  0.00000000000E+00 0.  1.
         21    1    1    2  503  505 -0.77716919012E+02 -0.46874299873E+02 -0.68547826126E+02  0.11373620337E+03  0.00000000000E+00 0. -1.
         21    1    1    2  504  501 -0.34414891157E+02  0.25043208646E+02  0.22758801199E+02  0.48264998339E+02  0.00000000000E+00 0. -1.
         21    1    1    2  505  502  0.30163074220E+02  0.34369820670E+02  0.29845200837E+03  0.30193492167E+03  0.00000000000E+00 0. -1.
          2    1    1    2  501    0  0.81968735949E+02 -0.12538729443E+02 -0.75033325443E+03  0.75490137509E+03  0.00000000000E+00 0.  1.
<scales pt_clust_3="81.88538" pt_clust_4="42.56227" pt_clust_5="57.51919" pt_clust_6="14000.00000"></scales>
<clustering>
<clus scale="   42.562">  1  4  2 -1</clus>
<clus scale="   57.519">  1  5  2 -1</clus>
<clus scale="   81.885">  1  3  2 -1</clus>
<clus scale="   42.562">  1  3  2 -1</clus>
</clustering>
</event>
<event>
 6    0  0.2433432E+002  0.7462839E+02  0.7546771E-02  0.1345026E+00
         21   -1    0    0  503  502  0.00000000000E+00  0.00000000000E+00  0.14607948479E+03  0.14607948479E+03  0.00000000000E+00 0.  1.
         -1   -1    0    0    0  501 -0.00000000000E+00 -0.00000000000E+00 -0.19056945845E+03  0.19056945845E+03  0.00000000000E+00 0.  1.
         21    1    1    2  503  501  0.65491015484E+02 -0.57516815209E+00  0.42021223066E+02  0.77815082828E+02  0.00000000000E+00 0.  1.
         21    1    1    2  504  505 -0.81663324470E+02 -0.67406837394E+02 -0.34225360733E+02  0.11128322249E+03  0.00000000000E+00 0.  1.
         21    1    1    2  505  502 -0.25223236332E+02  0.58147736232E+02  0.17556120271E+02  0.65769204336E+02  0.00000000000E+00 0.  1.
         -1    1    1    2    0  504  0.41395545318E+02  0.98342693144E+01 -0.69841956267E+02  0.81781433591E+02  0.00000000000E+00 0.  1.
<scales pt_clust_3="74.62839" pt_clust_4="14000.00000" pt_clust_5="62.44063" pt_clust_6="42.54767"></scales>
<clustering>
<clus scale="   42.548">  2  6  1 -1</clus>
<clus scale="   62.441">  1  5  2 -1</clus>
<clus scale="   74.628">  1  3  2 -1</clus>
<clus scale="   62.441">  1  3  2 -1</clus>
</clustering>
</event>
<event>
 6    0  0.2433432E+002  0.7771870E+02  0.7546771E-02  0.1335653E+00
          2   -1    0    0  504    0 -0.00000000000E+00  0.00000000000E+00  0.66128718970E+03  0.66128718970E+03  0.00000000000E+00 0. -1.
         21   -1    0    0  501  502  0.00000000000E+00 -0.00000000000E+00 -0.86103631484E+02  0.86103631484E+02  0.00000000000E+00 0. -1.
         21    1    1    2  503  502  0.42668083058E+02  0.37701730084E+02 -0.52649358488E+02  0.77549601627E+02  0.00000000000E+00 0. -1.
         21    1    1    2  504  505 -0.56668462147E+01  0.49227807190E+02  0.15698389182E+03  0.16461905247E+03  0.00000000000E+00 0. -1.
         21    1    1    2  505  503 -0.98224407560E+02 -0.66525881128E+02  0.30607860743E+03  0.32826489460E+03  0.00000000000E+00 0. -1.
          2    1    1    2  501    0  0.61223170717E+02 -0.20403656147E+02  0.16477041745E+03  0.17695727248E+03  0.00000000000E+00 0. -1.
<scales pt_clust_3="57.65253" pt_clust_4="49.55290" pt_clust_5="77.71870" pt_clust_6="14000.00000"></scales>
<clustering>
<clus scale="   49.553">  1  4  2 -1</clus>
<clus scale="   57.653">  2  3  1 -1</clus>
<clus scale="   77.719">  2  5  1 -1</clus>
<clus scale="   57.653">  2  3  1 -1</clus>
</clustering>
</event>
<event>
 6    0  0.2433432E+002  0.6969929E+02  0.7546771E-02  0.1361119E+00
          2   -1    0    0  503    0 -0.00000000000E+00  0.00000000000E+00  0.16980402062E+03  0.16980402062E+03  0.00000000000E+00 0. -1.
         21   -1    0    0  504  502  0.00000000000E+00 -0.00000000000E+00 -0.81433501989E+03  0.81433501989E+03  0.00000000000E+00 0.  1.
         21    1    1    2  503  502  0.47835844677E+02 -0.21324189723E+02 -0.72756174133E+03  0.72944436152E+03  0.00000000000E+00 0.  1.
         21    1    1    2  504  505  0.33163961008E+02  0.46325004160E+02 -0.11545519075E+02  0.58130485383E+02  0.00000000000E+00 0. -1.
         21    1    1    2  505  501 -0.10745383376E+03  0.73482194169E+01  0.17819063857E+02  0.10916886806E+03  0.00000000000E+00 0. -1.
          2    1    1    2  501    0  0.26454028071E+02 -0.32349033853E+02  0.76757197278E+02  0.87395325541E+02  0.00000000000E+00 0. -1.
<scales pt_clust_3="52.77452" pt_clust_4="69.69929" pt_clust_5="14000.00000" pt_clust_6="41.78846"></scales>
<clustering>
<clus scale="   41.788">  1  6  2 -1</clus>
<clus scale="   52.775">  2  3  1 -1</clus>
<clus scale="   69.699">  2  4  1 -1</clus>
<clus scale="   52.775">  2  3  1 -1</clus>
</clustering>
</event>
<event>
 6    0  0.2433432E+002  0.1310124E+03  0.7546771E-02  0.1225961E+00
         21   -1    0    0  504  502  0.00000000000E+00  0.00000000000E+00  0.16194643889E+03  0.16194643889E+03  0.00000000000E+00 0. -1.
         -2   -1    0    0    0  501 -0.00000000000E+00 -0.00000000000E+00 -0.39942100255E+03  0.39942100255E+03  0.00000000000E+00 0. -1.
         21    1    1    2  503  505  0.79516732890E+02  0.80479013448E+02 -0.94948295506E+02  0.14769888705E+03  0.00000000000E+00 0. -1.
         21    1    1    2  504  501 -0.11971623758E+03 -0.65867780430E+02  0.32768143370E+02  0.14051438809E+03  0.00000000000E+00 0. -1.
         21    1    1    2  505  502  0.10533549694E+02 -0.29260536177E+02  0.42610281841E+02  0.52751974040E+02  0.00000000000E+00 0. -1.
         -2    1    1    2    0  503  0.29665954999E+02  0.14649303160E+02 -0.21790469336E+03  0.22040219227E+03  0.00000000000E+00 0. -1.
<scales pt_clust_3="14000.00000" pt_clust_4="131.01241" pt_clust_5="31.09879" pt_clust_6="33.04917"></scales>
<clustering>
<clus scale="   31.099">  1  5  2 -1</clus>
<clus scale="   33.049">  2  6  1 -1</clus>
<clus scale="  131.012">  1  4  2 -1</clus>
<clus scale="   31.099">  1  3  2 -1</clus>
</clustering>
</event>
<event>
 6    0  0.2433432E+002  0.9259324E+02  0.7546771E-02  0.1296691E+00
          1   -1    0    0  503    0 -0.00000000000E+00  0.00000000000E+00  0.61051161152E+03  0.61051161152E+03  0.00000000000E+00 0. -1.
         21   -1    0    0  505  502  0.00000000000E+00 -0.00000000000E+00 -0.16686071693E+03  0.16686071693E+03  0.00000000000E+00 0.  1.
         21    1    1    2  503  504  0.32358419204E+02 -0.19900744490E+02  0.50742966396E+02  0.63387345450E+02  0.00000000000E+00 0. -1.
         21    1    1    2  504  502 -0.12461907370E+03  0.66346484701E+02 -0.92634390241E+02  0.16885763180E+03  0.00000000000E+00 0.  1.
         21    1    1    2  505  501  0.39911434073E+02 -0.28308989271E+02 -0.70431464317E+01  0.49436093646E+02  0.00000000000E+00 0. -1.
          1    1    1    2  501    0  0.52349220424E+02 -0.18136750939E+02  0.49258546487E+03  0.49569125755E+03  0.00000000000E+00 0. -1.
<scales pt_clust_3="37.98825" pt_clust_4="14000.00000" pt_clust_5="50.38368" pt_clust_6="92.59324"></scales>
<clustering>
<clus scale="   37.988">  1  3  2 -1</clus>
<clus scale="   50.384">  2  5  1 -1</clus>
<clus scale="   92.593">  1  6  2 -1</clus>
<clus scale="   50.384">  2  3  1 -1</clus>
</clustering>
</event>
<event>
 6    0  0.2433432E+002  0.1760600E+03  0.7546771E-02  0.1171672E+00
         -1   -1    0    0    0  501 -0.00000000000E+00  0.00000000000E+00  0.39709640531E+04  0.39709640531E+04  0.00000000000E+00 0. -1.
         21   -1    0    0  505  502  0.00000000000E+00 -0.00000000000E+00 -0.14912045930E+03  0.14912045930E+03  0.00000000000E+00 0. -1.
         21    1    1    2  503  501  0.12979745401E+03  0.27053059331E+02 -0.14470096222E+00  0.13258683202E+03  0.00000000000E+00 0. -1.
         21    1    1    2  504  502 -0.12937035276E+03 -0.42279705371E+02  0.67552698188E+03  0.68910156356E+03  0.00000000000E+00 0.  1.
         21    1    1    2  505  503  0.45862983178E+02  0.55748107823E+02 -0.58455621907E+02  0.92888774803E+02  0.00000000000E+00 0. -1.
         -1    1    1    2    0  504 -0.46290084430E+02 -0.40521461783E+02  0.32049169348E+04  0.32055073420E+04  0.00000000000E+00 0. -1.
<scales pt_clust_3="176.05996" pt_clust_4="14000.00000" pt_clust_5="70.82468" pt_clust_6="61.52041"></scales>
<clustering>
<clus scale="   61.520">  1  6  2 -1</clus>
<clus scale="   70.825">  2  5  1 -1</clus>
<clus scale="  176.060">  2  3  1 -1</clus>
<clus scale="   70.825">  2  3  1 -1</clus>
</clustering>
</event>
<event>
 6    0  0.2433432E+002  0.6464523E+02  0.7546771E-02  0.1379311E+00
          2   -1    0    0  503    0 -0.00000000000E+00  0.00000000000E+00  0.91439631111E+03  0.91439631111E+03  0.00000000000E+00 0.  1.
         21   -1    0    0  504  502  0.00000000000E+00 -0.00000000000E+00 -0.23073552913E+03  0.23073552913E+03  0.00000000000E+00 0. -1.
         21    1    1    2  503  505  0.45560532482E+02  0.47188237757E+02  0.68788431468E+02  0.95049146269E+02  0.00000000000E+00 0. -1.
         21    1    1    2  504  501  0.21630711722E+02 -0.88755658130E+02 -0.17833764599E+03  0.20037407646E+03  0.00000000000E+00 0. -1.
         21    1    1    2  505  502 -0.41355425322E+01  0.58946399076E+02  0.55652147872E+01  0.59352778298E+02  0.00000000000E+00 0.  1.
          2    1    1    2  501    0 -0.63055701672E+02 -0.17378978704E+02  0.78764478171E+03  0.79035583921E+03  0.00000000000E+00 0.  1.
<scales pt_clust_3="14000.00000" pt_clust_4="38.37097" pt_clust_5="59.09129" pt_clust_6="64.64523"></scales>
<clustering>
<clus scale="   59.091">  2  5  1 -1</clus>
<clus scale="   38.371">  2  4  1 -1</clus>
<clus scale="   64.645">  1  6  2 -1</clus>
<clus scale="   59.091">  2  3  1 -1</clus>
</clustering>
</event>
<event>
 6    0  0.2433432E+002  0.9058213E+02  0.7546771E-02  0.1301448E+00
         21   -1    0    0  501  502  0.00000000000E+00  0.00000000000E+00  0.12440148815E+03  0.12440148815E+03  0.00000000000E+00 0.  1.
          2   -1    0    0  504    0 -0.00000000000E+00 -0.00000000000E+00 -0.22188504027E+04  0.22188504027E+04  0.00000000000E+00 0. -1.
         21    1    1    2  503  502  0.89897384628E+02 -0.66014084403E+01  0.96648968978E+02  0.13215953072E+03  0.00000000000E+00 0.  1.
         21    1    1    2  504  505  0.41758359987E+02 -0.32298856511E+02 -0.40399502842E+03  0.40742969915E+03  0.00000000000E+00 0.  1.
         21    1    1    2  505  503 -0.16008643800E+02 -0.75447503812E+02 -0.43147239197E+03  0.43831156446E+03  0.00000000000E+00 0.  1.
          2    1    1    2  501    0 -0.11564710082E+03  0.11434776876E+03 -0.13556304631E+04  0.13653510965E+04  0.00000000000E+00 0. -1.
<scales pt_clust_3="14000.00000" pt_clust_4="52.79182" pt_clust_5="83.41013" pt_clust_6="90.58213"></scales>
<clustering>
<clus scale="   52.792">  2  4  1 -1</clus>
<clus scale="   83.410">  2  5  1 -1</clus>
<clus scale="   90.582">  2  6  1 -1</clus>
<clus scale="   90.582">  1  3  2 -1</clus>
</clustering>
</event>
<event>
 6    0  0.2433432E+002  0.1389503E+03  0.7546771E-02  0.1214748E+00
          2   -1    0    0  505    0 -0.00000000000E+00  0.00000000000E+00  0.26858919962E+03  0.26858919962E+03  0.00000000000E+00 0. -1.
         21   -1    0    0  504  502  0.00000000000E+00 -0.00000000000E+00 -0.19187534632E+03  0.19187534632E+03  0.00000000000E+00 0. -1.
         21    1    1    2  503  502  0.77777386487E+02  0.10823525381E+02  0.69747807175E+02  0.10502964894E+03  0.00000000000E+00 0.  1.
         21    1    1    2  504  501 -0.12878293368E+03 -0.93538276266E+01 -0.11214861964E+03  0.17102587812E+03  0.00000000000E+00 0. -1.
         21    1    1    2  505  503  0.90709547023E+02 -0.14023186113E+02  0.52190672536E+02  0.10558758435E+03  0.00000000000E+00 0. -1.
          2    1    1    2  501    0 -0.39703999825E+02  0.12553488358E+02  0.66923993226E+02  0.78821434530E+02  0.00000000000E+00 0. -1.
<scales pt_clust_3="30.57295" pt_clust_4="134.96164" pt_clust_5="30.57295" pt_clust_6="41.64130"></scales>
<clustering>
<clus scale="   30.573">  3  5 -1 -1</clus>
<clus scale="   41.641">  1  6  2 -1</clus>
<clus scale="  134.962">  2  4  1 -1</clus>
<clus scale="  134.962">  2  3  1 -1</clus>
</clustering>
</event>
<event>
 6    0  0.2433432E+002  0.1234259E+03  0.7546771E-02  0.1237550E+00
          2   -1    0    0  504    0 -0.00000000000E+00  0.00000000000E+00  0.23240098577E+04  0.23240098577E+04  0.00000000000E+00 0.  1.
         21   -1    0    0  501  502  0.00000000000E+00 -0.00000000000E+00 -0.99147802357E+02  0.99147802357E+02  0.00000000000E+00 0.  1.
         21    1    1    2  503  502  0.39088844734E+02 -0.10447060736E+03 -0.47362569502E+02  0.12118274867E+03  0.00000000000E+00 0.  1.
         21    1    1    2  504  505 -0.51349704264E+02  0.83323422009E+02  0.22490012192E+03  0.24527464121E+03  0.00000000000E+00 0. -1.
         21    1    1    2  505  503 -0.40753615663E+01  0.60022755330E+02  0.19900509128E+03  0.20789989438E+03  0.00000000000E+00 0. -1.
          2    1    1    2  501    0  0.16336221096E+02 -0.38875569978E+02  0.18483194116E+04  0.18488003758E+04  0.00000000000E+00 0.  1.
<scales pt_clust_3="114.81502" pt_clust_4="35.51017" pt_clust_5="35.51017" pt_clust_6="42.16850"></scales>
<clustering>
<clus scale="   35.510">  4  5 -1 -1</clus>
<clus scale="   42.168">  1  6  2 -1</clus>
<clus scale="  114.815">  2  3  1 -1</clus>
<clus scale="  114.815">  2  3  1 -1</clus>
</clustering>
</event>
<event>
 6    0  0.2433432E+002  0.1260398E+03  0.7546771E-02  0.1233453E+00
         21   -1    0    0  503  502  0.00000000000E+00  0.00000000000E+00  0.14015520788E+03  0.14015520788E+03  0.00000000000E+00 0.  1.
          2   -1    0    0  505    0 -0.00000000000E+00 -0.00000000000E+00 -0.29072791275E+04  0.29072791275E+04  0.00000000000E+00 0.  1.
         21    1    1    2  503  501 -0.10619167881E+02 -0.92121653437E+02 -0.66985764667E+02  0.11439518533E+03  0.00000000000E+00 0. -1.
         21    1    1    2  504  502 -0.11219140087E+02 -0.45253429703E+02  0.10898957899E+03  0.11854311592E+03  0.00000000000E+00 0.  1.
         21    1    1    2  505  504  0.27236932403E+02  0.41448636830E+02 -0.18285757294E+04  0.18292482167E+04  0.00000000000E+00 0.  1.
          2    1    1    2  501    0 -0.53986244347E+01  0.95926446309E+02 -0.98055200452E+03  0.98524781746E+03  0.00000000000E+00 0.  1.
<scales pt_clust_3="126.03982" pt_clust_4="46.62341" pt_clust_5="49.03678" pt_clust_6="14000.00000"></scales>
<clustering>
<clus scale="   46.623">  1  4  2 -1</clus>
<clus scale="   49.037">  2  5  1 -1</clus>
<clus scale="  126.040">  1  3  2 -1</clus>
<clus scale="   46.623">  1  3  2 -1</clus>
</clustering>
</event>
<event>
 6    0  0.2433432E+002  0.5238675E+03  0.7546771E-02  0.1007730E+00
          1   -1    0    0  505    0 -0.00000000000E+00  0.00000000000E+00  0.19178857690E+04  0.19178857690E+04  0.00000000000E+00 0. -1.
         21   -1    0    0  503  502  0.00000000000E+00 -0.00000000000E+00 -0.19589444031E+03  0.19589444031E+03  0.00000000000E+00 0. -1.
         21    1    1    2  503  501  0.67239679368E+02 -0.77811084749E+01 -0.13316876093E+02  0.68985935664E+02  0.00000000000E+00 0. -1.
         21    1    1    2  504  502 -0.25212512536E+03  0.36552047670E+02  0.76538707211E+03  0.80667248694E+03  0.00000000000E+00 0.  1.
         21    1    1    2  505  504 -0.24742749065E+03 -0.55925773434E+02  0.65550105867E+03  0.70287245869E+03  0.00000000000E+00 0. -1.
          1    1    1    2  501    0  0.43231293665E+03  0.27154834239E+02  0.31442007399E+03  0.53524932802E+03  0.00000000000E+00 0. -1.
<scales pt_clust_3="61.88608" pt_clust_4="509.70861" pt_clust_5="99.15840" pt_clust_6="61.88608"></scales>
<clustering>
<clus scale="   61.886">  3  6 -1 -1</clus>
<clus scale="   99.158">  4  5 -1 -1</clus>
<clus scale="  509.709">  1  4  2 -1</clus>
<clus scale="  523.867">  2  3  1 -1</clus>
</clustering>
</event>
<event>
 6    0  0.2433432E+002  0.1759177E+03  0.7546771E-02  0.1171813E+00
          2   -1    0    0  504    0 -0.00000000000E+00  0.00000000000E+00  0.25430388094E+03  0.25430388094E+03  0.00000000000E+00 0. -1.
         21   -1    0    0  505  502  0.00000000000E+00 -0.00000000000E+00 -0.29978484649E+03  0.29978484649E+03  0.00000000000E+00 0. -1.
         21    1    1    2  503  501 -0.48096681412E+02  0.33530294149E+02  0.62423545493E+02  0.85640355093E+02  0.00000000000E+00 0.  1.
         21    1    1    2  504  502  0.13306078579E+03  0.14273087952E+03 -0.17032431089E+02  0.19587593112E+03  0.00000000000E+00 0. -1.
         21    1    1    2  505  503 -0.30238459775E+02 -0.17393596189E+03 -0.11709153682E+03  0.21184548917E+03  0.00000000000E+00 0. -1.
          2    1    1    2  501    0 -0.54725644599E+02 -0.23252117837E+01  0.26219456864E+02  0.60726952046E+02  0.00000000000E+00 0. -1.
<scales pt_clust_3="43.43732" pt_clust_4="14000.00000" pt_clust_5="175.91771" pt_clust_6="116.47234"></scales>
<clustering>
<clus scale="   43.437">  3  6 -1 -1</clus>
<clus scale="  116.472">  1  3  2 -1</clus>
<clus scale="  175.918">  2  5  1 -1</clus>
<clus scale="  175.918">  2  3  1 -1</clus>
</clustering>
</event>
<event>
 6    0  0.2433432E+002  0.1056061E+03  0.7546771E-02  0.1268930E+00
          2   -1    0    0  504    0 -0.00000000000E+00  0.00000000000E+00  0.31683022742E+04  0.31683022742E+04  0.00000000000E+00 0.  1.
         21   -1    0    0  503  502  0.00000000000E+00 -0.00000000000E+00 -0.48741842981E+02  0.48741842981E+02  0.00000000000E+00 0.  1.
         21    1    1    2  503  505  0.54927546544E+02 -0.44722167343E+01  0.72199794359E+01  0.55580250044E+02  0.00000000000E+00 0.  1.
         21    1    1    2  504  502 -0.40768689155E+02 -0.25281443525E+01  0.14246941302E+03  0.14820934915E+03  0.00000000000E+00 0. -1.
         21    1    1    2  505  501  0.85433339519E+02  0.43572008735E+02  0.90285001232E+02  0.13171467987E+03  0.00000000000E+00 0.  1.
          2    1    1    2  501    0 -0.99592196908E+02 -0.36571647648E+02  0.28795860375E+04  0.28815398381E+04  0.00000000000E+00 0.  1.
<scales pt_clust_3="33.93755" pt_clust_4="40.84700" pt_clust_5="105.60609" pt_clust_6="14000.00000"></scales>
<clustering>
<clus scale="   40.847">  2  4  1 -1</clus>
<clus scale="   33.938">  2  3  1 -1</clus>
<clus scale="  105.606">  2  5  1 -1</clus>
<clus scale="   40.847">  2  3  1 -1</clus>
</clustering>
</event>
<event>
 6    0  0.2433432E+002  0.7514735E+02  0.7546771E-02  0.1343415E+00
         21   -1    0    0  504  502  0.00000000000E+00  0.00000000000E+00  0.87953480873E+03  0.87953480873E+03  0.00000000000E+00 0.  1.
          1   -1    0    0  503    0 -0.00000000000E+00 -0.00000000000E+00 -0.29410718589E+04  0.29410718589E+04  0.00000000000E+00 0. -1.
         21    1    1    2  503  505  0.62234450207E+02 -0.52548659383E+02  0.23995290839E+03  0.25340064452E+03  0.00000000000E+00 0.  1.
         21    1    1    2  504  501 -0.44911085907E+02 -0.51751555312E+02  0.57851610128E+02  0.89677410249E+02  0.00000000000E+00 0.  1.
         21    1    1    2  505  502 -0.49629111447E+02  0.36385098785E+02  0.55691392195E+03  0.56030352540E+03  0.00000000000E+00 0.  1.
          1    1    1    2  501    0  0.32305747147E+02  0.67915115910E+02 -0.29162554907E+04  0.29172250875E+04  0.00000000000E+00 0. -1.
<scales pt_clust_3="34.41603" pt_clust_4="75.14735" pt_clust_5="61.53799" pt_clust_6="14000.00000"></scales>
<clustering>
<clus scale="   61.538">  1  5  2 -1</clus>
<clus scale="   34.416">  1  3  2 -1</clus>
<clus scale="   75.147">  1  4  2 -1</clus>
<clus scale="   61.538">  1  3  2 -1</clus>
</clustering>
</event>
<event>
 6    0  0.2433432E+002  0.1866571E+03  0.7546771E-02  0.1161511E+00
          2   -1    0    0  505    0 -0.00000000000E+00  0.00000000000E+00  0.95278435975E+03  0.95278435975E+03  0.00000000000E+00 0.  1.
         21   -1    0    0  504  502  0.00000000000E+00 -0.00000000000E+00 -0.12010993467E+03  0.12010993467E+03  0.00000000000E+00 0.  1.
         21    1    1    2  503  502 -0.83294131100E+02  0.69396115536E+01  0.34647228589E+02  0.90479284552E+02  0.00000000000E+00 0.  1.
         21    1    1    2  504  501  0.64013290091E+02  0.92678449419E+02  0.13064174758E+03  0.17249423905E+03  0.00000000000E+00 0. -1.
         21    1    1    2  505  503 -0.10368452631E+03  0.34297020445E+02 -0.89497436993E+01  0.10957583913E+03  0.00000000000E+00 0.  1.
          2    1    1    2  501    0  0.12296536732E+03 -0.13391508142E+03  0.67633519261E+03  0.70034493170E+03  0.00000000000E+00 0.  1.
<scales pt_clust_3="45.45971" pt_clust_4="112.63657" pt_clust_5="45.45971" pt_clust_6="179.27819"></scales>
<clustering>
<clus scale="   45.460">  3  5 -1 -1</clus>
<clus scale="  112.637">  2  4  1 -1</clus>
<clus scale="  179.278">  1  6  2 -1</clus>
<clus scale="  112.637">  2  3  1 -1</clus>
</clustering>
</event>
<event>
 6    0  0.2433432E+002  0.1210803E+03  0.7546771E-02  0.1241325E+00
         -3   -1    0    0    0  501 -0.00000000000E+00  0.00000000000E+00  0.14481389477E+04  0.14481389477E+04  0.00000000000E+00 0.  1.
         21   -1    0    0  504  502  0.00000000000E+00 -0.00000000000E+00 -0.64210284746E+02  0.64210284746E+02  0.00000000000E+00 0.  1.
         21    1    1    2  503  502  0.44081729746E+01  0.84162480726E+02  0.86877331145E+02  0.12103894339E+03  0.00000000000E+00 0.  1.
         21    1    1    2  504  501 -0.92309581234E+02 -0.49572852377E+02  0.28301126518E+02  0.10853331398E+03  0.00000000000E+00 0.  1.
         21    1    1    2  505  503 -0.17598314253E+01  0.40968406253E+02  0.98881186891E+02  0.10704670214E+03  0.00000000000E+00 0.  1.
         -3    1    1    2    0  505  0.89661239685E+02 -0.75558034601E+02  0.11698690184E+04  0.11757302729E+04  0.00000000000E+00 0.  1.
<scales pt_clust_3="30.01913" pt_clust_4="104.77846" pt_clust_5="30.01913" pt_clust_6="113.17400"></scales>
<clustering>
<clus scale="   30.019">  3  5 -1 -1</clus>
<clus scale="  104.778">  2  4  1 -1</clus>
<clus scale="  113.174">  1  6  2 -1</clus>
<clus scale="  104.778">  2  3  1 -1</clus>
</clustering>
</event>
<event>
 6    0  0.2433432E+002  0.1003193E+03  0.7546771E-02  0.1279626E+00
         21   -1    0    0  503  502  0.00000000000E+00  0.00000000000E+00  0.26467723974E+03  0.26467723974E+03  0.00000000000E+00 0.  1.
         -1   -1    0    0    0  501 -0.00000000000E+00 -0.00000000000E+00 -0.87722077417E+03  0.87722077417E+03  0.00000000000E+00 0.  1.
         21    1    1    2  503  501 -0.36795826031E+02 -0.87980804520E+02  0.21567096361E+03  0.23581458675E+03  0.00000000000E+00 0.  1.
         21    1    1    2  504  505  0.23284616451E+02  0.60579260737E+02 -0.16323277754E+03  0.17566149225E+03  0.00000000000E+00 0.  1.
         21    1    1    2  505  502  0.34546102783E+02 -0.18663407558E+02  0.19658506037E+02  0.43911420596E+02  0.00000000000E+00 0.  1.
         -1    1    1    2    0  504 -0.21034893203E+02  0.46064951340E+02 -0.68464022654E+03  0.68651051431E+03  0.00000000000E+00 0.  1.
<scales pt_clust_3="14000.00000" pt_clust_4="100.31929" pt_clust_5="39.26520" pt_clust_6="50.51467"></scales>
<clustering>
<clus scale="   39.265">  1  5  2 -1</clus>
<clus scale="   50.515">  2  6  1 -1</clus>
<clus scale="  100.319">  2  4  1 -1</clus>
<clus scale="   39.265">  1  3  2 -1</clus>
</clustering>
</event>
<event>
 6    0  0.2433432E+002  0.6182904E+02  0.7546771E-02  0.1390313E+00
         21   -1    0    0  504  502  0.00000000000E+00  0.00000000000E+00  0.19381263784E+03  0.19381263784E+03  0.00000000000E+00 0.  1.
          2   -1    0    0  505    0 -0.00000000000E+00 -0.00000000000E+00 -0.16148115611E+04  0.16148115611E+04  0.00000000000E+00 0.  1.
         21    1    1    2  503  502 -0.47257214753E+02 -0.32903659059E+02  0.16999594586E+03  0.17948402920E+03  0.00000000000E+00 0.  1.
         21    1    1    2  504  501  0.51700628717E+02  0.49612310044E+02 -0.20919638435E+03  0.22112770867E+03  0.00000000000E+00 0.  1.
         21    1    1    2  505  503  0.32200049508E+02 -0.65761282413E+02 -0.95901276978E+02  0.12065837882E+03  0.00000000000E+00 0.  1.
          2    1    1    2  501    0 -0.36643463472E+02  0.49052631429E+02 -0.12858972078E+04  0.12873540822E+04  0.00000000000E+00 0.  1.
<scales pt_clust_3="57.58381" pt_clust_4="53.93636" pt_clust_5="14000.00000" pt_clust_6="61.82904"></scales>
<clustering>
<clus scale="   57.584">  1  3  2 -1</clus>
<clus scale="   53.936">  1  4  2 -1</clus>
<clus scale="   61.829">  2  6  1 -1</clus>
<clus scale="   57.584">  1  3  2 -1</clus>
</clustering>
</event>
<event>
 6    0  0.2433432E+002  0.7292006E+02  0.7546771E-02  0.1350436E+00
         21   -1    0    0  504  502  0.00000000000E+00  0.00000000000E+00  0.50554678491E+02  0.50554678491E+02  0.00000000000E+00 0.  1.
          1   -1    0    0  505    0 -0.00000000000E+00 -0.00000000000E+00 -0.15483121122E+04  0.15483121122E+04  0.00000000000E+00 0.  1.
         21    1    1    2  503  502  0.36191928185E+01 -0.54508083911E+02 -0.20250165297E+02  0.58260612449E+02  0.00000000000E+00 0.  1.
         21    1    1    2  504  501  0.56291359285E+02 -0.32967064571E+02 -0.68885431677E+02  0.94872267675E+02  0.00000000000E+00 0.  1.
         21    1    1    2  505  503 -0.79758407332E+01  0.10713972185E+03 -0.14283701621E+03  0.17873149480E+03  0.00000000000E+00 0.  1.
          1    1    1    2  501    0 -0.51934711370E+02 -0.19664573365E+02 -0.12657848205E+04  0.12670024157E+04  0.00000000000E+00 0.  1.
<scales pt_clust_3="54.62810" pt_clust_4="72.92006" pt_clust_5="14000.00000" pt_clust_6="55.84921"></scales>
<clustering>
<clus scale="   54.628">  1  3  2 -1</clus>
<clus scale="   55.849">  2  6  1 -1</clus>
<clus scale="   72.920">  2  4  1 -1</clus>
<clus scale="   54.628">  1  3  2 -1</clus>
</clustering>
</event>
<event>
 6    0  0.2433432E+002  0.9967559E+02  0.7546771E-02  0.1280980E+00
         21   -1    0    0  503  502  0.00000000000E+00  0.00000000000E+00  0.38843607462E+02  0.38843607462E+02  0.00000000000E+00 0.  1.
          1   -1    0    0  504    0 -0.00000000000E+00 -0.00000000000E+00 -0.58468380694E+03  0.58468380694E+03  0.00000000000E+00 0.  1.
         21    1    1    2  503  505 -0.34918129972E+02 -0.73551512030E+01 -0.24464400114E+02  0.43265239198E+02  0.00000000000E+00 0. -1.
         21    1    1    2  504  502 -0.52124433836E+02  0.56299355879E+02 -0.76151071486E+02  0.10809976764E+03  0.00000000000E+00 0.  1.
         21    1    1    2  505  501  0.16247406581E+02  0.37037709904E+02 -0.70958330075E+02  0.81675300933E+02  0.00000000000E+00 0.  1.
          1    1    1    2  501    0  0.70795157227E+02 -0.85981914580E+02 -0.37426639781E+03  0.39048710663E+03  0.00000000000E+00 0.  1.
<scales pt_clust_3="35.68437" pt_clust_4="14000.00000" pt_clust_5="37.04442" pt_clust_6="99.67559"></scales>
<clustering>
<clus scale="   35.684">  1  3  2 -1</clus>
<clus scale="   37.044">  1  5  2 -1</clus>
<clus scale="   99.676">  2  6  1 -1</clus>
<clus scale="   35.684">  1  3  2 -1</clus>
</clustering>
</event>
<event>
 6    0  0.2433432E+002  0.7991417E+02  0.7546771E-02  0.1329295E+00
          2   -1    0    0  504    0 -0.00000000000E+00  0.00000000000E+00  0.16112409196E+04  0.16112409196E+04  0.00000000000E+00 0.  1.
         21   -1    0    0  501  502  0.00000000000E+00 -0.00000000000E+00 -0.24993919319E+02  0.24993919319E+02  0.00000000000E+00 0.  1.
         21    1    1    2  503  502 -0.96969334876E+02  0.39121108385E+01  0.12526269863E+03  0.15845851251E+03  0.00000000000E+00 0.  1.
         21    1    1    2  504  505  0.52564594917E+01  0.44312281812E+02  0.52979470054E+03  0.53167060611E+03  0.00000000000E+00 0.  1.
         21    1    1    2  505  503  0.57151665894E+02  0.24265690331E+02  0.17547346106E+03  0.18613455396E+03  0.00000000000E+00 0.  1.
          2    1    1    2  501    0  0.34561209491E+02 -0.72490082981E+02  0.75571614009E+03  0.75997116637E+03  0.00000000000E+00 0.  1.
<scales pt_clust_3="79.91417" pt_clust_4="44.62296" pt_clust_5="14000.00000" pt_clust_6="56.37139"></scales>
<clustering>
<clus scale="   44.623">  1  4  2 -1</clus>
<clus scale="   56.371">  1  6  2 -1</clus>
<clus scale="   79.914">  2  3  1 -1</clus>
<clus scale="   79.914">  2  3  1 -1</clus>
</clustering>
</event>
<event>
 6    0  0.2433432E+002  0.3030382E+03  0.7546771E-02  0.1083732E+00
          2   -1    0    0  505    0 -0.00000000000E+00  0.00000000000E+00  0.31127177096E+04  0.31127177096E+04  0.00000000000E+00 0. -1.
         21   -1    0    0  504  502  0.00000000000E+00 -0.00000000000E+00 -0.94435938922E+02  0.94435938922E+02  0.00000000000E+00 0. -1.
         21    1    1    2  503  501  0.56817606593E+02 -0.35603032093E+02  0.11246272505E+03  0.13093387964E+03  0.00000000000E+00 0. -1.
         21    1    1    2  504  503  0.22680105449E+03 -0.66451360009E+02  0.20829543835E+03  0.31502617542E+03  0.00000000000E+00 0. -1.
         21    1    1    2  505  502 -0.25519987019E+03  0.12439521574E+03  0.60439956966E+03  0.66775742846E+03  0.00000000000E+00 0.  1.
          2    1    1    2  501    0 -0.28418790889E+02 -0.22340823642E+02  0.20931240376E+04  0.20934361650E+04  0.00000000000E+00 0. -1.
<scales pt_clust_3="38.23375" pt_clust_4="38.23375" pt_clust_5="294.43541" pt_clust_6="36.14886"></scales>
<clustering>
<clus scale="   36.149">  1  6  2 -1</clus>
<clus scale="   38.234">  3  4 -1 -1</clus>
<clus scale="  294.435">  1  5  2 -1</clus>
<clus scale="  303.038">  2  3  1 -1</clus>
</clustering>
</event>
<event>
 6    0  0.2433432E+002  0.1316575E+03  0.7546771E-02  0.1225017E+00
         21   -1    0    0  503  502  0.00000000000E+00  0.00000000000E+00  0.18759661801E+03  0.18759661801E+03  0.00000000000E+00 0.  1.
          2   -1    0    0  504    0 -0.00000000000E+00 -0.00000000000E+00 -0.24234775803E+03  0.24234775803E+03  0.00000000000E+00 0.  1.
         21    1    1    2  503  505  0.59738165800E+02 -0.84200847324E+02  0.63468488456E+02  0.12118861403E+03  0.00000000000E+00 0.  1.
         21    1    1    2  504  502 -0.35102809984E+02  0.28848669542E+02  0.18344336703E+02  0.48999670327E+02  0.00000000000E+00 0.  1.
         21    1    1    2  505  501  0.56592312612E+02 -0.29690464470E+02  0.17193622923E+02  0.66180315777E+02  0.00000000000E+00 0.  1.
          2    1    1    2  501    0 -0.81227668428E+02  0.85042642252E+02 -0.15375758810E+03  0.19357577590E+03  0.00000000000E+00 0.  1.
<scales pt_clust_3="36.02673" pt_clust_4="45.43625" pt_clust_5="36.02673" pt_clust_6="123.43813"></scales>
<clustering>
<clus scale="   36.027">  3  5 -1 -1</clus>
<clus scale="   45.436">  1  4  2 -1</clus>
<clus scale="  123.438">  2  6  1 -1</clus>
<clus scale="   45.436">  1  3  2 -1</clus>
</clustering>
</event>
<event>
 6    0  0.2433432E+002  0.1705593E+03  0.7546771E-02  0.1177266E+00
         21   -1    0    0  503  502  0.00000000000E+00  0.00000000000E+00  0.89909660218E+03  0.89909660218E+03  0.00000000000E+00 0.  1.
          1   -1    0    0  505    0 -0.00000000000E+00 -0.00000000000E+00 -0.31148853763E+03  0.31148853763E+03  0.00000000000E+00 0.  1.
         21    1    1    2  503  504  0.78440756883E+02  0.14696699094E+02  0.40489773651E+03  0.41268768134E+03  0.00000000000E+00 0.  1.
         21    1    1    2  504  501  0.11751362354E+03  0.17077654734E+02  0.40074309236E+03  0.41796665427E+03  0.00000000000E+00 0.  1.
         21    1    1    2  505  502 -0.30891980568E+02 -0.26239739512E+02  0.50451685655E+02  0.64716388794E+02  0.00000000000E+00 0. -1.
          1    1    1    2  501    0 -0.16506239986E+03 -0.55346143152E+01 -0.26848444997E+03  0.31521441540E+03  0.00000000000E+00 0.  1.
<scales pt_clust_3="31.97978" pt_clust_4="31.97978" pt_clust_5="40.53194" pt_clust_6="166.03830"></scales>
<clustering>
<clus scale="   31.980">  3  4 -1 -1</clus>
<clus scale="   40.532">  1  5  2 -1</clus>
<clus scale="  166.038">  2  6  1 -1</clus>
<clus scale="   40.532">  1  3  2 -1</clus>
</clustering>
</event>
<event>
 6    0  0.2433432E+002  0.1084784E+03  0.7546771E-02  0.1263414E+00
         21   -1    0    0  501  502  0.00000000000E+00  0.00000000000E+00  0.14689029468E+03  0.14689029468E+03  0.00000000000E+00 0. -1.
          2   -1    0    0  505    0 -0.00000000000E+00 -0.00000000000E+00 -0.24408053313E+04  0.24408053313E+04  0.00000000000E+00 0. -1.
         21    1    1    2  503  502 -0.50240699995E+02 -0.96547557809E+02  0.11879781933E+03  0.16111635775E+03  0.00000000000E+00 0. -1.
         21    1    1    2  504  503  0.75280114162E+02  0.73603015536E+02 -0.47943202748E+03  0.49085595490E+03  0.00000000000E+00 0.  1.
         21    1    1    2  505  504  0.68648139681E+01  0.37105508896E+02 -0.34475125735E+03  0.34681028518E+03  0.00000000000E+00 0.  1.
          2    1    1    2  501    0 -0.31904228136E+02 -0.14160966623E+02 -0.15885295711E+04  0.15889130282E+04  0.00000000000E+00 0. -1.
<scales pt_clust_3="14000.00000" pt_clust_4="108.47840" pt_clust_5="31.94328" pt_clust_6="34.90577"></scales>
<clustering>
<clus scale="   34.906">  2  6  1 -1</clus>
<clus scale="   31.943">  2  5  1 -1</clus>
<clus scale="  108.478">  2  4  1 -1</clus>
<clus scale="  108.478">  1  3  2 -1</clus>
</clustering>
</event>
<event>
 6    0  0.2433432E+002  0.2576575E+03  0.7546771E-02  0.1108559E+00
         -1   -1    0    0    0  501 -0.00000000000E+00  0.00000000000E+00  0.78161365326E+03  0.78161365326E+03  0.00000000000E+00 0.  1.
         21   -1    0    0  505  502  0.00000000000E+00 -0.00000000000E+00 -0.33848013281E+03  0.33848013281E+03  0.00000000000E+00 0. -1.
         21    1    1    2  503  501 -0.49082717054E+02 -0.70593326040E+02  0.50098689256E+02  0.99510850966E+02  0.00000000000E+00 0.  1.
         21    1    1    2  504  502 -0.15593172504E+03  0.16112061777E+03  0.29901317514E+03  0.37374247184E+03  0.00000000000E+00 0.  1.
         21    1    1    2  505  503  0.27753982273E+03 -0.11813128561E+01 -0.19270485287E+03  0.33788298125E+03  0.00000000000E+00 0. -1.
         -1    1    1    2    0  504 -0.72525380628E+02 -0.89345978878E+02  0.28672650892E+03  0.30895748202E+03  0.00000000000E+00 0.  1.
<scales pt_clust_3="85.97983" pt_clust_4="257.65751" pt_clust_5="14000.00000" pt_clust_6="151.23162"></scales>
<clustering>
<clus scale="   85.980">  1  3  2 -1</clus>
<clus scale="  151.232">  1  6  2 -1</clus>
<clus scale="  257.658">  1  4  2 -1</clus>
<clus scale="  257.658">  2  3  1 -1</clus>
</clustering>
</event>
<event>
 6    0  0.2433432E+002  0.8080044E+02  0.7546771E-02  0.1326795E+00
         21   -1    0    0  505  502  0.00000000000E+00  0.00000000000E+00  0.28457645813E+03  0.28457645813E+03  0.00000000000E+00 0. -1.
          1   -1    0    0  503    0 -0.00000000000E+00 -0.00000000000E+00 -0.16928226391E+03  0.16928226391E+03  0.00000000000E+00 0. -1.
         21    1    1    2  503  502 -0.10942908542E+03  0.55973809287E+02  0.23145226277E+02  0.12507395237E+03  0.00000000000E+00 0. -1.
         21    1    1    2  504  501  0.49131552689E+02 -0.98548428598E+01  0.50828469921E+02  0.71376191772E+02  0.00000000000E+00 0. -1.
         21    1    1    2  505  504  0.39479507724E+02 -0.21139848853E+02  0.14342361608E+03  0.15025264853E+03  0.00000000000E+00 0. -1.
          1    1    1    2  501    0  0.20818025005E+02 -0.24979117575E+02 -0.10210311806E+03  0.10715592937E+03  0.00000000000E+00 0. -1.
<scales pt_clust_3="80.80044" pt_clust_4="14000.00000" pt_clust_5="46.37956" pt_clust_6="32.51686"></scales>
<clustering>
<clus scale="   32.517">  2  6  1 -1</clus>
<clus scale="   46.380">  1  5  2 -1</clus>
<clus scale="   80.800">  2  3  1 -1</clus>
<clus scale="   46.380">  1  3  2 -1</clus>
</clustering>
</event>
<event>
 6    0  0.2433432E+002  0.8366331E+02  0.7546771E-02  0.1318966E+00
         -2   -1    0    0    0  501 -0.00000000000E+00  0.00000000000E+00  0.87622001173E+03  0.87622001173E+03  0.00000000000E+00 0.  1.
         21   -1    0    0  503  502  0.00000000000E+00 -0.00000000000E+00 -0.23655774427E+03  0.23655774427E+03  0.00000000000E+00 0. -1.
         21    1    1    2  503  501  0.49275986152E+02 -0.78062959580E+02  0.56595660039E+03  0.57343597898E+03  0.00000000000E+00 0. -1.
         21    1    1    2  504  505 -0.56826089346E+02  0.24634663271E+02  0.32147375165E+02  0.69781980445E+02  0.00000000000E+00 0. -1.
         21    1    1    2  505  502 -0.13512983394E+02 -0.29600687450E+02 -0.20550669635E+03  0.20806682500E+03  0.00000000000E+00 0. -1.
         -2    1    1    2    0  504  0.21063086588E+02  0.83028983759E+02  0.24706498826E+03  0.26149297158E+03  0.00000000000E+00 0.  1.
<scales pt_clust_3="83.66331" pt_clust_4="65.63520" pt_clust_5="32.53923" pt_clust_6="14000.00000"></scales>
<clustering>
<clus scale="   32.539">  2  5  1 -1</clus>
<clus scale="   65.635">  2  4  1 -1</clus>
<clus scale="   83.663">  1  3  2 -1</clus>
<clus scale="   32.539">  2  3  1 -1</clus>
</clustering>
</event>
<event>
 6    0  0.2433432E+002  0.6833111E+02  0.7546771E-02  0.1365862E+00
         21   -1    0    0  504  502  0.00000000000E+00  0.00000000000E+00  0.20392219729E+03  0.20392219729E+03  0.00000000000E+00 0.  1.
          1   -1    0    0  505    0 -0.00000000000E+00 -0.00000000000E+00 -0.97007296206E+03  0.97007296206E+03  0.00000000000E+00 0.  1.
         21    1    1    2  503  502  0.53810195676E+02  0.11887709059E+02  0.68608095922E+02  0.87999577336E+02  0.00000000000E+00 0.  1.
         21    1    1    2  504  501 -0.38597603665E+02 -0.75254783100E+02  0.70445613402E+02  0.11007107629E+03  0.00000000000E+00 0.  1.
         21    1    1    2  505  503  0.37163775742E+02  0.62557920305E+02 -0.36565711215E+01  0.72856091940E+02  0.00000000000E+00 0.  1.
          1    1    1    2  501    0 -0.52376367753E+02  0.80915373515E+00 -0.90154790297E+03  0.90306841379E+03  0.00000000000E+00 0.  1.
<scales pt_clust_3="47.84638" pt_clust_4="14000.00000" pt_clust_5="68.33111" pt_clust_6="52.38262"></scales>
<clustering>
<clus scale="   52.383">  2  6  1 -1</clus>
<clus scale="   47.846">  1  3  2 -1</clus>
<clus scale="   68.331">  2  5  1 -1</clus>
<clus scale="   47.846">  1  3  2 -1</clus>
</clustering>
</event>
<event>
 6    0  0.2433432E+002  0.1396258E+03  0.7546771E-02  0.1213833E+00
         -1   -1    0    0    0  501 -0.00000000000E+00  0.00000000000E+00  0.13789353526E+04  0.13789353526E+04  0.00000000000E+00 0.  1.
         21   -1    0    0  503  502  0.00000000000E+00 -0.00000000000E+00 -0.81607496962E+02  0.81607496962E+02  0.00000000000E+00 0.  1.
         21    1    1    2  503  504  0.96372183075E+02 -0.81106603528E+01  0.17614767794E+03  0.20095120036E+03  0.00000000000E+00 0.  1.
         21    1    1    2  504  501  0.70053396292E+02 -0.10594538195E+03  0.54908180273E+03  0.56358027678E+03  0.00000000000E+00 0.  1.
         21    1    1    2  505  502 -0.37272065674E+02  0.14935790863E+02 -0.43529089218E+02  0.59220489161E+02  0.00000000000E+00 0.  1.
         -1    1    1    2    0  505 -0.12915351369E+03  0.99120251435E+02  0.61562746418E+03  0.63679088326E+03  0.00000000000E+00 0.  1.
<scales pt_clust_3="81.10707" pt_clust_4="14000.00000" pt_clust_5="40.15327" pt_clust_6="139.62580"></scales>
<clustering>
<clus scale="   40.153">  2  5  1 -1</clus>
<clus scale="   81.107">  2  3  1 -1</clus>
<clus scale="  139.626">  2  6  1 -1</clus>
<clus scale="   40.153">  2  3  1 -1</clus>
</clustering>
</event>
<event>
 6    0  0.2433432E+002  0.7988416E+02  0.7546771E-02  0.1329380E+00
          2   -1    0    0  505    0 -0.00000000000E+00  0.00000000000E+00  0.24750874693E+03  0.24750874693E+03  0.00000000000E+00 0. -1.
         21   -1    0    0  503  502  0.00000000000E+00 -0.00000000000E+00 -0.88064960265E+03  0.88064960265E+03  0.00000000000E+00 0.  1.
         21    1    1    2  503  501 -0.12077998682E+02  0.27939655062E+02 -0.25259153311E+03  0.25441891631E+03  0.00000000000E+00 0.  1.
         21    1    1    2  504  502 -0.38423347831E+02 -0.19783814666E+02 -0.59301263885E+02  0.73378422439E+02  0.00000000000E+00 0.  1.
         21    1    1    2  505  504  0.11286190056E+03  0.41097389075E+02 -0.54752050510E+03  0.56054037098E+03  0.00000000000E+00 0.  1.
          2    1    1    2  501    0 -0.62360554050E+02 -0.49253229471E+02  0.22627244637E+03  0.23982063986E+03  0.00000000000E+00 0. -1.
<scales pt_clust_3="30.43850" pt_clust_4="43.12029" pt_clust_5="14000.00000" pt_clust_6="79.88416"></scales>
<clustering>
<clus scale="   30.439">  2  3  1 -1</clus>
<clus scale="   43.120">  2  4  1 -1</clus>
<clus scale="   79.884">  1  6  2 -1</clus>
<clus scale="   30.439">  2  3  1 -1</clus>
</clustering>
</event>
<event>
 6    0  0.2433432E+002  0.1448252E+03  0.7546771E-02  0.1206980E+00
         21   -1    0    0  503  502  0.00000000000E+00  0.00000000000E+00  0.38036633091E+03  0.38036633091E+03  0.00000000000E+00 0. -1.
          2   -1    0    0  505    0 -0.00000000000E+00 -0.00000000000E+00 -0.61243403160E+03  0.61243403160E+03  0.00000000000E+00 0. -1.
         21    1    1    2  503  504  0.19130589049E+02  0.25426427050E+02  0.24610742889E+03  0.24815589694E+03  0.00000000000E+00 0. -1.
         21    1    1    2  504  501 -0.20207576982E+02  0.25279183389E+02 -0.90536548005E+01  0.33605832017E+02  0.00000000000E+00 0.  1.
         21    1    1    2  505  502 -0.11297977415E+03  0.42743017945E+02  0.78402194251E+02  0.14400798246E+03  0.00000000000E+00 0. -1.
          2    1    1    2  501    0  0.11405676208E+03 -0.93448628385E+02 -0.54752366904E+03  0.56703065109E+03  0.00000000000E+00 0. -1.
<scales pt_clust_3="31.81953" pt_clust_4="33.21425" pt_clust_5="144.82524" pt_clust_6="14000.00000"></scales>
<clustering>
<clus scale="   31.820">  1  3  2 -1</clus>
<clus scale="   33.214">  1  4  2 -1</clus>
<clus scale="  144.825">  1  5  2 -1</clus>
<clus scale="   31.820">  1  3  2 -1</clus>
</clustering>
</event>
<event>
 6    0  0.2433432E+002  0.1596453E+03  0.7546771E-02  0.1189098E+00
         21   -1    0    0  503  502  0.00000000000E+00  0.00000000000E+00  0.10632697331E+03  0.10632697331E+03  0.00000000000E+00 0.  1.
          2   -1    0    0  504    0 -0.00000000000E+00 -0.00000000000E+00 -0.27592496650E+04  0.27592496650E+04  0.00000000000E+00 0. -1.
         21    1    1    2  503  501  0.60548143933E+02 -0.48332766611E+02 -0.16000549694E+03  0.17777483825E+03  0.00000000000E+00 0.  1.
         21    1    1    2  504  505 -0.36094711075E+02  0.54711730757E+02 -0.35878176736E+03  0.36471983527E+03  0.00000000000E+00 0. -1.
         21    1    1    2  505  502  0.64676944377E+02 -0.65536578102E+02  0.70428679865E+02  0.11592389379E+03  0.00000000000E+00 0.  1.
          2    1    1    2  501    0 -0.89130377236E+02  0.59157613956E+02 -0.22045641072E+04  0.22071580710E+04  0.00000000000E+00 0. -1.
<scales pt_clust_3="73.09572" pt_clust_4="65.54542" pt_clust_5="14000.00000" pt_clust_6="159.64527"></scales>
<clustering>
<clus scale="   65.545">  2  4  1 -1</clus>
<clus scale="   73.096">  1  3  2 -1</clus>
<clus scale="  159.645">  2  6  1 -1</clus>
<clus scale="   73.096">  1  3  2 -1</clus>
</clustering>
</event>
<event>
 6    0  0.2433432E+002  0.8118039E+02  0.7546771E-02  0.1325735E+00
         21   -1    0    0  505  502  0.00000000000E+00  0.00000000000E+00  0.19609513062E+02  0.19609513062E+02  0.00000000000E+00 0.  1.
          1   -1    0    0  504    0 -0.00000000000E+00 -0.00000000000E+00 -0.10860456492E+04  0.10860456492E+04  0.00000000000E+00 0.  1.
         21    1    1    2  503  502  0.29187852631E+02 -0.32702577206E+02 -0.83095433064E+02  0.93948072323E+02  0.00000000000E+00 0.  1.
         21    1    1    2  504  503 -0.66089982586E+02 -0.20395077564E+02 -0.16904175467E+03  0.18264435334E+03  0.00000000000E+00 0.  1.
         21    1    1    2  505  501 -0.49078684903E+02  0.38925589376E+02 -0.23321517009E+03  0.24148133340E+03  0.00000000000E+00 0.  1.
          1    1    1    2  501    0  0.85980814858E+02  0.14172065394E+02 -0.58108377835E+03  0.58758140323E+03  0.00000000000E+00 0.  1.
<scales pt_clust_3="43.83365" pt_clust_4="81.18039" pt_clust_5="50.10284" pt_clust_6="14000.00000"></scales>
<clustering>
<clus scale="   43.834">  1  3  2 -1</clus>
<clus scale="   50.103">  1  5  2 -1</clus>
<clus scale="   81.180">  1  4  2 -1</clus>
<clus scale="   43.834">  1  3  2 -1</clus>
</clustering>
</event>
<event>
 6    0  0.2433432E+002  0.1022801E+03  0.7546771E-02  0.1275573E+00
         21   -1    0    0  503  502  0.00000000000E+00  0.00000000000E+00  0.10730930285E+04  0.10730930285E+04  0.00000000000E+00 0.  1.
          1   -1    0    0  505    0 -0.00000000000E+00 -0.00000000000E+00 -0.43763310317E+03  0.43763310317E+03  0.00000000000E+00 0. -1.
         21    1    1    2  503  504  0.13274494467E+02  0.38181751432E+02  0.64080885612E+03  0.64208258692E+03  0.00000000000E+00 0.  1.
         21    1    1    2  504  501 -0.48973101780E+02 -0.89938651677E+02  0.98829259158E+02  0.14231847466E+03  0.00000000000E+00 0. -1.
         21    1    1    2  505  502  0.77802099066E+02  0.42325649120E+02  0.30360766625E+03  0.31626293206E+03  0.00000000000E+00 0. -1.
          1    1    1    2  501    0 -0.42103491753E+02  0.94312511259E+01 -0.40778585621E+03  0.41006213802E+03  0.00000000000E+00 0. -1.
<scales pt_clust_3="40.42349" pt_clust_4="102.28010" pt_clust_5="14000.00000" pt_clust_6="43.13485"></scales>
<clustering>
<clus scale="   40.423">  1  3  2 -1</clus>
<clus scale="   43.135">  2  6  1 -1</clus>
<clus scale="  102.280">  2  4  1 -1</clus>
<clus scale="   40.423">  1  3  2 -1</clus>
</clustering>
</event>
<event>
 6    0  0.2433432E+002  0.1255775E+03  0.7546771E-02  0.1234169E+00
         21   -1    0    0  505  502  0.00000000000E+00  0.00000000000E+00  0.35700371769E+02  0.35700371769E+02  0.00000000000E+00 0.  1.
          1   -1    0    0  503    0 -0.00000000000E+00 -0.00000000000E+00 -0.26338098528E+04  0.26338098528E+04  0.00000000000E+00 0.  1.
         21    1    1    2  503  502 -0.11919934208E+03  0.66574121349E+02 -0.53712275282E+03  0.55420343592E+03  0.00000000000E+00 0.  1.
         21    1    1    2  504  501  0.36335498450E+02  0.65747527398E+02 -0.50344880346E+03  0.50902230159E+03  0.00000000000E+00 0.  1.
         21    1    1    2  505  504  0.52216071836E+02 -0.11762996542E+03 -0.14716282039E+03  0.19549993000E+03  0.00000000000E+00 0.  1.
          1    1    1    2  501    0  0.30647771790E+02 -0.14691683326E+02 -0.14103751044E+04  0.14107845571E+04  0.00000000000E+00 0.  1.
<scales pt_clust_3="14000.00000" pt_clust_4="77.22090" pt_clust_5="125.57751" pt_clust_6="33.98723"></scales>
<clustering>
<clus scale="   33.987">  2  6  1 -1</clus>
<clus scale="   77.221">  2  4  1 -1</clus>
<clus scale="  125.578">  1  5  2 -1</clus>
<clus scale="  125.578">  1  3  2 -1</clus>
</clustering>
</event>
<event>
 6    0  0.2433432E+002  0.2076518E+03  0.7546771E-02  0.1143439E+00
         21   -1    0    0  504  502  0.00000000000E+00  0.00000000000E+00  0.14040931003E+04  0.14040931003E+04  0.00000000000E+00 0. -1.
          2   -1    0    0  503    0 -0.00000000000E+00 -0.00000000000E+00 -0.13997333924E+04  0.13997333924E+04  0.00000000000E+00 0. -1.
         21    1    1    2  503  502 -0.95453589154E+01  0.21253643456E+03  0.13641523986E+04  0.13806428273E+04  0.00000000000E+00 0. -1.
         21    1    1    2  504  505  0.26640774019E+02 -0.12078795652E+03 -0.11104132680E+03  0.16622165184E+03  0.00000000000E+00 0. -1.
         21    1    1    2  505  501 -0.52563768544E+01 -0.60708130318E+02 -0.23839139509E+03  0.24605601768E+03  0.00000000000E+00 0.  1.
          2    1    1    2  501    0 -0.11839038250E+02 -0.31040347723E+02 -0.10103599688E+04  0.10109059959E+04  0.00000000000E+00 0. -1.
<scales pt_clust_3="14000.00000" pt_clust_4="207.65185" pt_clust_5="81.02135" pt_clust_6="33.22147"></scales>
<clustering>
<clus scale="   33.221">  2  6  1 -1</clus>
<clus scale="   81.021">  2  5  1 -1</clus>
<clus scale="  207.652">  2  4  1 -1</clus>
<clus scale="  207.652">  1  3  2 -1</clus>
</clustering>
</event>
<event>
 6    0  0.2433432E+002  0.1296787E+03  0.7546771E-02  0.1227933E+00
          1   -1    0    0  505    0 -0.00000000000E+00  0.00000000000E+00  0.19211734193E+04  0.19211734193E+04  0.00000000000E+00 0.  1.
         21   -1    0    0  503  502  0.00000000000E+00 -0.00000000000E+00 -0.33594305084E+03  0.33594305084E+03  0.00000000000E+00 0.  1.
         21    1    1    2  503  504  0.12846612202E+03 -0.19451624069E+02 -0.31219805921E+03  0.33815608579E+03  0.00000000000E+00 0.  1.
         21    1    1    2  504  501 -0.55212755329E+02  0.39922761684E+02  0.20309359485E+03  0.21421784127E+03  0.00000000000E+00 0. -1.
         21    1    1    2  505  502 -0.11768119874E+03 -0.82980984654E+01  0.74429872222E+03  0.75359028051E+03  0.00000000000E+00 0.  1.
          1    1    1    2  501    0  0.44427832052E+02 -0.12173039150E+02  0.95003611061E+03  0.95115226257E+03  0.00000000000E+00 0.  1.
<scales pt_clust_3="129.67874" pt_clust_4="58.96361" pt_clust_5="14000.00000" pt_clust_6="46.06534"></scales>
<clustering>
<clus scale="   46.065">  1  6  2 -1</clus>
<clus scale="   58.964">  1  4  2 -1</clus>
<clus scale="  129.679">  2  3  1 -1</clus>
<clus scale="  129.679">  2  3  1 -1</clus>
</clustering>
</event>
<event>
 6    0  0.2433432E+002  0.1119813E+03  0.7546771E-02  0.1256944E+00
         21   -1    0    0  505  502  0.00000000000E+00  0.00000000000E+00  0.16787049504E+03  0.16787049504E+03  0.00000000000E+00 0.  1.
          2   -1    0    0  503    0 -0.00000000000E+00 -0.00000000000E+00 -0.78282806075E+03  0.78282806075E+03  0.00000000000E+00 0.  1.
         21    1    1    2  503  502  0.49004048585E+02  0.73816249088E+01  0.14710645319E+03  0.15522948732E+03  0.00000000000E+00 0.  1.
         21    1    1    2  504  501  0.99517042230E-01 -0.50705023945E+02 -0.19548094266E+03  0.20195001436E+03  0.00000000000E+00 0.  1.
         21    1    1    2  505  504  0.96768101684E+00 -0.51121497977E+02 -0.77198248976E+02  0.92595429730E+02  0.00000000000E+00 0.  1.
          2    1    1    2  501    0 -0.50071246644E+02  0.94444897013E+02 -0.48938482725E+03  0.50092362438E+03  0.00000000000E+00 0.  1.
<scales pt_clust_3="49.55689" pt_clust_4="44.90407" pt_clust_5="44.90407" pt_clust_6="102.50124"></scales>
<clustering>
<clus scale="   44.904">  4  5 -1 -1</clus>
<clus scale="   49.557">  1  3  2 -1</clus>
<clus scale="  102.501">  2  6  1 -1</clus>
<clus scale="   49.557">  1  3  2 -1</clus>
</clustering>
</event>
<event>
 6    0  0.2433432E+002  0.9058929E+02  0.7546771E-02  0.1301431E+00
          2   -1    0    0  504    0 -0.00000000000E+00  0.00000000000E+00  0.21124636671E+04  0.21124636671E+04  0.00000000000E+00 0.  1.
         21   -1    0    0  505  502  0.00000000000E+00 -0.00000000000E+00 -0.13151103103E+03  0.13151103103E+03  0.00000000000E+00 0. -1.
         21    1    1    2  503  501  0.38583157884E+02 -0.31050907489E+02  0.21019511290E+03  0.21595093057E+03  0.00000000000E+00 0. -1.
         21    1    1    2  504  502 -0.53680727365E+02  0.76779289220E+02 -0.98425951589E+02  0.13588358138E+03  0.00000000000E+00 0. -1.
         21    1    1    2  505  503  0.53289571180E+01 -0.78143084709E+02  0.12424026850E+03  0.14686859361E+03  0.00000000000E+00 0. -1.
          2    1    1    2  501    0  0.97686123634E+01  0.32414702979E+02  0.17449432063E+04  0.17452715926E+04  0.00000000000E+00 0.  1.
<scales pt_clust_3="45.91343" pt_clust_4="14000.00000" pt_clust_5="90.58929" pt_clust_6="33.85467"></scales>
<clustering>
<clus scale="   33.855">  1  6  2 -1</clus>
<clus scale="   45.913">  1  3  2 -1</clus>
<clus scale="   90.589">  1  5  2 -1</clus>
<clus scale="   90.589">  2  3  1 -1</clus>
</clustering>
</event>
<event>
 6    0  0.2433432E+002  0.5964784E+02  0.7546771E-02  0.1399316E+00
         -2   -1    0    0    0  501 -0.00000000000E+00  0.00000000000E+00  0.36198775487E+03  0.36198775487E+03  0.00000000000E+00 0. -1.
         21   -1    0    0  504  502  0.00000000000E+00 -0.00000000000E+00 -0.60157288981E+02  0.60157288981E+02  0.00000000000E+00 0. -1.
         21    1    1    2  503  502  0.70880514457E+01 -0.52798071232E+02  0.36520798678E+02  0.64588277073E+02  0.00000000000E+00 0. -1.
         21    1    1    2  504  501  0.93873743255E+01  0.72339339649E+02  0.29936974157E+02  0.78850017623E+02  0.00000000000E+00 0. -1.
         21    1    1    2  505  503 -0.72266667603E+02 -0.82896173351E+01  0.59883454702E+02  0.94218985078E+02  0.00000000000E+00 0. -1.
         -2    1    1    2    0  505  0.55791241832E+02 -0.11251651082E+02  0.17548923835E+03  0.18448776408E+03  0.00000000000E+00 0. -1.
<scales pt_clust_3="53.27173" pt_clust_4="46.25123" pt_clust_5="14000.00000" pt_clust_6="59.64784"></scales>
<clustering>
<clus scale="   53.272">  2  3  1 -1</clus>
<clus scale="   46.251">  2  4  1 -1</clus>
<clus scale="   59.648">  1  6  2 -1</clus>
<clus scale="   53.272">  2  3  1 -1</clus>
</clustering>
</event>
<event>
 6    0  0.2433432E+002  0.7780584E+02  0.7546771E-02  0.1335396E+00
          1   -1    0    0  503    0 -0.00000000000E+00  0.00000000000E+00  0.38900986059E+03  0.38900986059E+03  0.00000000000E+00 0.  1.
         21   -1    0    0  505  502  0.00000000000E+00 -0.00000000000E+00 -0.14309377332E+03  0.14309377332E+03  0.00000000000E+00 0. -1.
         21    1    1    2  503  504 -0.12572604732E+02 -0.68295085902E+02 -0.58467018254E+01  0.69688399826E+02  0.00000000000E+00 0. -1.
         21    1    1    2  504  502  0.44341260194E+02 -0.44292312655E+02 -0.38486414368E+02  0.73546994547E+02  0.00000000000E+00 0. -1.
         21    1    1    2  505  501 -0.33563000066E+02  0.33646008367E+02 -0.31864323977E+02  0.57217689528E+02  0.00000000000E+00 0. -1.
          1    1    1    2  501    0  0.17943446036E+01  0.78941390190E+02  0.32211352744E+03  0.33165055000E+03  0.00000000000E+00 0.  1.
<scales pt_clust_3="77.80584" pt_clust_4="35.66119" pt_clust_5="47.52398" pt_clust_6="14000.00000"></scales>
<clustering>
<clus scale="   47.524">  2  5  1 -1</clus>
<clus scale="   35.661">  2  4  1 -1</clus>
<clus scale="   77.806">  2  3  1 -1</clus>
<clus scale="   47.524">  2  3  1 -1</clus>
</clustering>
</event>
<event>
 6    0  0.2433432E+002  0.1230593E+03  0.7546771E-02  0.1238134E+00
         21   -1    0    0  504  502  0.00000000000E+00  0.00000000000E+00  0.60804582988E+02  0.60804582988E+02  0.00000000000E+00 0. -1.
          2   -1    0    0  503    0 -0.00000000000E+00 -0.00000000000E+00 -0.11295103530E+04  0.11295103530E+04  0.00000000000E+00 0.  1.
         21    1    1    2  503  505  0.13813826470E+03  0.42926400417E+02 -0.21766424446E+03  0.26134762166E+03  0.00000000000E+00 0.  1.
         21    1    1    2  504  501 -0.56725343238E+02  0.14722793948E+02 -0.42265220099E+02  0.72255616094E+02  0.00000000000E+00 0.  1.
         21    1    1    2  505  502  0.33315441042E+02 -0.26930886212E+02 -0.37851890134E+01  0.43006033296E+02  0.00000000000E+00 0. -1.
          2    1    1    2  501    0 -0.11472836251E+03 -0.30718308152E+02 -0.80499111647E+03  0.81370566498E+03  0.00000000000E+00 0.  1.
<scales pt_clust_3="123.05935" pt_clust_4="44.86862" pt_clust_5="42.83913" pt_clust_6="14000.00000"></scales>
<clustering>
<clus scale="   42.839">  1  5  2 -1</clus>
<clus scale="   44.869">  1  4  2 -1</clus>
<clus scale="  123.059">  1  3  2 -1</clus>
<clus scale="   42.839">  1  3  2 -1</clus>
</clustering>
</event>
<event>
 6    0  0.2433432E+002  0.1025279E+03  0.7546771E-02  0.1275068E+00
          2   -1    0    0  503    0 -0.00000000000E+00  0.00000000000E+00  0.27983096270E+03  0.27983096270E+03  0.00000000000E+00 0.  1.
         21   -1    0    0  505  502  0.00000000000E+00 -0.00000000000E+00 -0.25795872324E+04  0.25795872324E+04  0.00000000000E+00 0.  1.
         21    1    1    2  503  502 -0.24325079768E+02 -0.55666891086E+02 -0.16361039332E+03  0.17452470620E+03  0.00000000000E+00 0. -1.
         21    1    1    2  504  501 -0.86424894628E+02  0.81499402544E+02 -0.13130330886E+04  0.13183957322E+04  0.00000000000E+00 0.  1.
         21    1    1    2  505  504  0.42016914332E+02  0.50086895475E+02 -0.10841348491E+04  0.10861042718E+04  0.00000000000E+00 0.  1.
          2    1    1    2  501    0  0.68733060064E+02 -0.75919406933E+02  0.26102206129E+03  0.28039348490E+03  0.00000000000E+00 0.  1.
<scales pt_clust_3="60.74959" pt_clust_4="14000.00000" pt_clust_5="39.89408" pt_clust_6="102.52791"></scales>
<clustering>
<clus scale="   60.750">  2  3  1 -1</clus>
<clus scale="   39.894">  2  5  1 -1</clus>
<clus scale="  102.528">  1  6  2 -1</clus>
<clus scale="   60.750">  2  3  1 -1</clus>
</clustering>
</event>
<event>
 6    0  0.2433432E+002  0.7172231E+02  0.7546771E-02  0.1354332E+00
         21   -1    0    0  504  502  0.00000000000E+00  0.00000000000E+00  0.31733286268E+03  0.31733286268E+03  0.00000000000E+00 0.  1.
         -2   -1    0    0    0  501 -0.00000000000E+00 -0.00000000000E+00 -0.12578861917E+03  0.12578861917E+03  0.00000000000E+00 0.  1.
         21    1    1    2  503  501  0.54052127433E+02 -0.53419410078E+02  0.35199470871E+02  0.83751230455E+02  0.00000000000E+00 0.  1.
         21    1    1    2  504  503  0.51272487420E+02  0.56921363819E+02  0.14466725711E+03  0.16369949574E+03  0.00000000000E+00 0.  1.
         21    1    1    2  505  502 -0.31765435365E+02 -0.11753744917E+02  0.84989356045E+02  0.91489802953E+02  0.00000000000E+00 0.  1.
         -2    1    1    2    0  505 -0.73559179488E+02  0.82517911760E+01 -0.73311840517E+02  0.10418095270E+03  0.00000000000E+00 0.  1.
<scales pt_clust_3="71.72231" pt_clust_4="57.40829" pt_clust_5="33.87024" pt_clust_6="14000.00000"></scales>
<clustering>
<clus scale="   33.870">  1  5  2 -1</clus>
<clus scale="   57.408">  1  4  2 -1</clus>
<clus scale="   71.722">  1  3  2 -1</clus>
<clus scale="   33.870">  1  3  2 -1</clus>
</clustering>
</event>
<event>
 6    0  0.2433432E+002  0.2421187E+03  0.7546771E-02  0.1118389E+00
         21   -1    0    0  503  502  0.00000000000E+00  0.00000000000E+00  0.62657860719E+03  0.62657860719E+03  0.00000000000E+00 0. -1.
          1   -1    0    0  504    0 -0.00000000000E+00 -0.00000000000E+00 -0.12310426165E+04  0.12310426165E+04  0.00000000000E+00 0. -1.
         21    1    1    2  503  505  0.65578259695E+02  0.20485314074E+03  0.38688501463E+03  0.44265712686E+03  0.00000000000E+00 0. -1.
         21    1    1    2  504  502  0.77870827652E+02 -0.18020217411E+03 -0.18535509134E+02  0.19718076593E+03  0.00000000000E+00 0.  1.
         21    1    1    2  505  501  0.36801226699E+02  0.10206085991E+03  0.84650109570E+02  0.13760955803E+03  0.00000000000E+00 0. -1.
          1    1    1    2  501    0 -0.18025031405E+03 -0.12671182653E+03 -0.10574636244E+04  0.10801737729E+04  0.00000000000E+00 0. -1.
<scales pt_clust_3="69.89818" pt_clust_4="196.30764" pt_clust_5="69.89818" pt_clust_6="221.21291"></scales>
<clustering>
<clus scale="   69.898">  3  5 -1 -1</clus>
<clus scale="  196.308">  1  4  2 -1</clus>
<clus scale="  221.213">  2  6  1 -1</clus>
<clus scale="  196.308">  1  3  2 -1</clus>
</clustering>
</event>
<event>
 6    0  0.2433432E+002  0.1167950E+03  0.7546771E-02  0.1248480E+00
          2   -1    0    0  505    0 -0.00000000000E+00  0.00000000000E+00  0.43502641553E+02  0.43502641553E+02  0.00000000000E+00 0. -1.
         21   -1    0    0  501  502  0.00000000000E+00 -0.00000000000E+00 -0.48911771350E+03  0.48911771350E+03  0.00000000000E+00 0. -1.
         21    1    1    2  503  504 -0.50072539513E+01  0.48798734793E+02 -0.84433578641E+02  0.97649466520E+02  0.00000000000E+00 0. -1.
         21    1    1    2  504  502 -0.36120369989E+02  0.57990379072E+02 -0.21210594354E+03  0.22283737676E+03  0.00000000000E+00 0. -1.
         21    1    1    2  505  503  0.44462522826E+02 -0.19498822330E+01 -0.58790848606E+02  0.73736570686E+02  0.00000000000E+00 0. -1.
          2    1    1    2  501    0 -0.33348988850E+01 -0.10483923163E+03 -0.90284701153E+02  0.13839694109E+03  0.00000000000E+00 0. -1.
<scales pt_clust_3="34.73907" pt_clust_4="34.73907" pt_clust_5="44.50526" pt_clust_6="109.36334"></scales>
<clustering>
<clus scale="   34.739">  3  4 -1 -1</clus>
<clus scale="   44.505">  1  5  2 -1</clus>
<clus scale="  109.363">  1  6  2 -1</clus>
<clus scale="  116.795">  2  3  1 -1</clus>
</clustering>
</event>
<event>
 6    0  0.2433432E+002  0.9529214E+02  0.7546771E-02  0.1290519E+00
         21   -1    0    0  503  502  0.00000000000E+00  0.00000000000E+00  0.72633542472E+02  0.72633542472E+02  0.00000000000E+00 0.  1.
          2   -1    0    0  504    0 -0.00000000000E+00 -0.00000000000E+00 -0.30094970917E+04  0.30094970917E+04  0.00000000000E+00 0. -1.
         21    1    1    2  503  501  0.56391701440E+02  0.54037007077E+02  0.96612752951E+01  0.78697918432E+02  0.00000000000E+00 0.  1.
         21    1    1    2  504  505 -0.72457023060E+02 -0.23319178204E+02 -0.10561067741E+03  0.13018225473E+03  0.00000000000E+00 0.  1.
         21    1    1    2  505  502 -0.47632073853E+02 -0.85829068369E+01 -0.21381798612E+02  0.52911832904E+02  0.00000000000E+00 0.  1.
          2    1    1    2  501    0  0.63697395473E+02 -0.22134922036E+02 -0.28195323485E+04  0.28203386281E+04  0.00000000000E+00 0. -1.
<scales pt_clust_3="84.40006" pt_clust_4="35.27752" pt_clust_5="35.27752" pt_clust_6="67.43377"></scales>
<clustering>
<clus scale="   35.278">  4  5 -1 -1</clus>
<clus scale="   67.434">  2  6  1 -1</clus>
<clus scale="   84.400">  1  3  2 -1</clus>
<clus scale="   84.400">  1  3  2 -1</clus>
</clustering>
</event>
<event>
 6    0  0.2433432E+002  0.9435749E+02  0.7546771E-02  0.1292630E+00
         -2   -1    0    0    0  501 -0.00000000000E+00  0.00000000000E+00  0.20894417700E+03  0.20894417700E+03  0.00000000000E+00 0. -1.
         21   -1    0    0  505  502  0.00000000000E+00 -0.00000000000E+00 -0.16005159949E+04  0.16005159949E+04  0.00000000000E+00 0.  1.
         21    1    1    2  503  501 -0.50961346113E+02  0.77469452521E+02 -0.18353612119E+03  0.20563093797E+03  0.00000000000E+00 0.  1.
         21    1    1    2  504  503  0.79335917572E+02 -0.57748677543E+01 -0.11976900231E+04  0.12003286751E+04  0.00000000000E+00 0.  1.
         21    1    1    2  505  504  0.25323463210E+02 -0.16967348677E+02 -0.19823748219E+03  0.20056736538E+03  0.00000000000E+00 0. -1.
         -2    1    1    2    0  502 -0.53698034670E+02 -0.54727236089E+02  0.18789180853E+03  0.20293319346E+03  0.00000000000E+00 0. -1.
<scales pt_clust_3="94.35749" pt_clust_4="14000.00000" pt_clust_5="30.48227" pt_clust_6="76.64168"></scales>
<clustering>
<clus scale="   30.482">  2  5  1 -1</clus>
<clus scale="   76.642">  1  6  2 -1</clus>
<clus scale="   94.357">  1  3  2 -1</clus>
<clus scale="   30.482">  2  3  1 -1</clus>
</clustering>
</event>
<event>
 6    0  0.2433432E+002  0.1355803E+03  0.7546771E-02  0.1219403E+00
          2   -1    0    0  503    0 -0.00000000000E+00  0.00000000000E+00  0.23487724655E+04  0.23487724655E+04  0.00000000000E+00 0. -1.
         21   -1    0    0  504  502  0.00000000000E+00 -0.00000000000E+00 -0.10298138648E+03  0.10298138648E+03  0.00000000000E+00 0. -1.
         21    1    1    2  503  505 -0.34928960246E+02  0.56458124507E+02  0.43265617135E+03  0.43772013284E+03  0.00000000000E+00 0. -1.
         21    1    1    2  504  501  0.46211713257E+02  0.44412946813E+02 -0.77515513404E+02  0.10058174340E+03  0.00000000000E+00 0. -1.
         21    1    1    2  505  502  0.12697291670E+03 -0.66517413375E+01  0.83569483431E+03  0.84531190890E+03  0.00000000000E+00 0. -1.
          2    1    1    2  501    0 -0.13825566971E+03 -0.94219329982E+02  0.10549555867E+04  0.10681400668E+04  0.00000000000E+00 0. -1.
<scales pt_clust_3="69.77043" pt_clust_4="64.09393" pt_clust_5="14000.00000" pt_clust_6="135.58034"></scales>
<clustering>
<clus scale="   64.094">  2  4  1 -1</clus>
<clus scale="   69.770">  1  3  2 -1</clus>
<clus scale="  135.580">  2  6  1 -1</clus>
<clus scale="   64.094">  2  3  1 -1</clus>
</clustering>
</event>
<event>
 6    0  0.2433432E+002  0.1133702E+03  0.7546771E-02  0.1254453E+00
         -2   -1    0    0    0  501 -0.00000000000E+00  0.00000000000E+00  0.13984122901E+04  0.13984122901E+04  0.00000000000E+00 0. -1.
         21   -1    0    0  503  502  0.00000000000E+00 -0.00000000000E+00 -0.45845512876E+02  0.45845512876E+02  0.00000000000E+00 0. -1.
         21    1    1    2  503  504  0.11365319337E+03 -0.11695437812E+02  0.70477820523E+02  0.13424214992E+03  0.00000000000E+00 0. -1.
         21    1    1    2  504  505 -0.69860213023E+02 -0.35437268852E+02  0.28001436668E+03  0.29076501670E+03  0.00000000000E+00 0. -1.
         21    1    1    2  505  501  0.53544977144E+02 -0.30248716496E+02  0.29799327055E+03  0.30427296745E+03  0.00000000000E+00 0. -1.
         -2    1    1    2    0  502 -0.97337957488E+02  0.77381423159E+02  0.70408131944E+03  0.71497766888E+03  0.00000000000E+00 0. -1.
<scales pt_clust_3="113.37016" pt_clust_4="70.73809" pt_clust_5="61.49837" pt_clust_6="14000.00000"></scales>
<clustering>
<clus scale="   61.498">  1  5  2 -1</clus>
<clus scale="   70.738">  1  4  2 -1</clus>
<clus scale="  113.370">  2  3  1 -1</clus>
<clus scale="  113.370">  2  3  1 -1</clus>
</clustering>
</event>
<event>
 6    0  0.2433432E+002  0.2229028E+03  0.7546771E-02  0.1131737E+00
         21   -1    0    0  504  502  0.00000000000E+00  0.00000000000E+00  0.26186997682E+03  0.26186997682E+03  0.00000000000E+00 0.  1.
          2   -1    0    0  505    0 -0.00000000000E+00 -0.00000000000E+00 -0.18977405823E+04  0.18977405823E+04  0.00000000000E+00 0.  1.
         21    1    1    2  503  502  0.11138898664E+03  0.35221924586E+02 -0.11305882800E+03  0.16257425658E+03  0.00000000000E+00 0. -1.
         21    1    1    2  504  501 -0.21267502835E+03 -0.55740749327E+02  0.15758763751E+03  0.27050242571E+03  0.00000000000E+00 0.  1.
         21    1    1    2  505  503  0.62323567558E+02 -0.32490426866E+02 -0.32694895759E+02  0.77516521593E+02  0.00000000000E+00 0.  1.
          2    1    1    2  501    0  0.38962474154E+02  0.53009251607E+02 -0.16477045192E+04  0.16490173552E+04  0.00000000000E+00 0.  1.
<scales pt_clust_3="61.15237" pt_clust_4="208.49398" pt_clust_5="61.15237" pt_clust_6="65.78796"></scales>
<clustering>
<clus scale="   61.152">  3  5 -1 -1</clus>
<clus scale="   65.788">  2  6  1 -1</clus>
<clus scale="  208.494">  1  4  2 -1</clus>
<clus scale="  208.494">  1  3  2 -1</clus>
</clustering>
</event>
<event>
 6    0  0.2433432E+002  0.9862961E+02  0.7546771E-02  0.1283204E+00
         21   -1    0    0  505  502  0.00000000000E+00  0.00000000000E+00  0.65655519020E+03  0.65655519020E+03  0.00000000000E+00 0. -1.
          2   -1    0    0  504    0 -0.00000000000E+00 -0.00000000000E+00 -0.17560262826E+04  0.17560262826E+04  0.00000000000E+00 0. -1.
         21    1    1    2  503  501  0.15090337574E+03 -0.72951293818E+02 -0.60618366627E+02  0.17823665855E+03  0.00000000000E+00 0. -1.
         21    1    1    2  504  502 -0.40811231599E+02 -0.27928331657E+02  0.85224044396E+02  0.98532665026E+02  0.00000000000E+00 0. -1.
         21    1    1    2  505  503 -0.48368515527E+02  0.60743848158E+02  0.50205013157E+03  0.50801935297E+03  0.00000000000E+00 0. -1.
          2    1    1    2  501    0 -0.61723628609E+02  0.40135777317E+02 -0.16261269017E+04  0.16277927963E+04  0.00000000000E+00 0. -1.
<scales pt_clust_3="98.62961" pt_clust_4="49.45249" pt_clust_5="14000.00000" pt_clust_6="73.65336"></scales>
<clustering>
<clus scale="   49.452">  1  4  2 -1</clus>
<clus scale="   73.653">  2  6  1 -1</clus>
<clus scale="   98.630">  2  3  1 -1</clus>
<clus scale="   49.452">  1  3  2 -1</clus>
</clustering>
</event>
<event>
 6    0  0.2433432E+002  0.1274401E+03  0.7546771E-02  0.1231304E+00
         21   -1    0    0  505  502  0.00000000000E+00  0.00000000000E+00  0.29087838259E+03  0.29087838259E+03  0.00000000000E+00 0.  1.
         -1   -1    0    0    0  501 -0.00000000000E+00 -0.00000000000E+00 -0.12865353093E+04  0.12865353093E+04  0.00000000000E+00 0. -1.
         21    1    1    2  503  502 -0.25467305591E+02 -0.27142394887E+02 -0.23211033573E+02  0.43863941157E+02  0.00000000000E+00 0.  1.
         21    1    1    2  504  501  0.39558426451E+02  0.94404457274E+02 -0.68109270061E+02  0.12294691263E+03  0.00000000000E+00 0.  1.
         21    1    1    2  505  504 -0.66381908580E+02 -0.88152127741E+02  0.24038145553E+03  0.26450066082E+03  0.00000000000E+00 0.  1.
         -1    1    1    2    0  503  0.52290787720E+02  0.20890065355E+02 -0.11447180786E+04  0.11461021773E+04  0.00000000000E+00 0. -1.
<scales pt_clust_3="37.21953" pt_clust_4="14000.00000" pt_clust_5="127.44013" pt_clust_6="56.22599"></scales>
<clustering>
<clus scale="   37.220">  1  3  2 -1</clus>
<clus scale="   56.226">  2  6  1 -1</clus>
<clus scale="  127.440">  1  5  2 -1</clus>
<clus scale="   37.220">  1  3  2 -1</clus>
</clustering>
</event>
<event>
 6    0  0.2433432E+002  0.9481506E+02  0.7546771E-02  0.1291593E+00
          1   -1    0    0  504    0 -0.00000000000E+00  0.00000000000E+00  0.57559533530E+03  0.57559533530E+03  0.00000000000E+00 0.  1.
         21   -1    0    0  503  502  0.00000000000E+00 -0.00000000000E+00 -0.76491650231E+02  0.76491650231E+02  0.00000000000E+00 0. -1.
         21    1    1    2  503  501  0.56278144945E+02 -0.71659062177E+01 -0.16992043404E+02  0.59222540890E+02  0.00000000000E+00 0. -1.
         21    1    1    2  504  505  0.19268964069E+02 -0.24952948322E+02  0.51010838802E+02  0.59967059971E+02  0.00000000000E+00 0. -1.
         21    1    1    2  505  502 -0.11723188450E+03  0.80036893698E+02  0.13208872226E+03  0.19389855503E+03  0.00000000000E+00 0. -1.
          1    1    1    2  501    0  0.41684775485E+02 -0.47918039158E+02  0.33299616742E+03  0.33899882964E+03  0.00000000000E+00 0.  1.
<scales pt_clust_3="57.64362" pt_clust_4="31.52686" pt_clust_5="14000.00000" pt_clust_6="94.81506"></scales>
<clustering>
<clus scale="   31.527">  1  4  2 -1</clus>
<clus scale="   57.644">  2  3  1 -1</clus>
<clus scale="   94.815">  1  6  2 -1</clus>
<clus scale="   57.644">  2  3  1 -1</clus>
</clustering>
</event>
<event>
 6    0  0.2433432E+002  0.1382757E+03  0.7546771E-02  0.1215668E+00
         21   -1    0    0  505  502  0.00000000000E+00  0.00000000000E+00  0.29533413833E+03  0.29533413833E+03  0.00000000000E+00 0.  1.
         -3   -1    0    0    0  501 -0.00000000000E+00 -0.00000000000E+00 -0.31027367042E+03  0.31027367042E+03  0.00000000000E+00 0. -1.
         21    1    1    2  503  502 -0.21394785980E+02  0.69638014548E+02  0.87118137696E+02  0.11356390207E+03  0.00000000000E+00 0.  1.
         21    1    1    2  504  503 -0.41481158334E+02  0.65033785722E+02  0.34120367351E+02  0.84346186934E+02  0.00000000000E+00 0.  1.
         21    1    1    2  505  501 -0.16187596501E+02 -0.12295122765E+03  0.99398621975E+02  0.15893120748E+03  0.00000000000E+00 0. -1.
         -3    1    1    2    0  504  0.79063540815E+02 -0.11720572618E+02 -0.23557665911E+03  0.24876651226E+03  0.00000000000E+00 0. -1.
<scales pt_clust_3="47.40795" pt_clust_4="47.40795" pt_clust_5="129.38478" pt_clust_6="79.92756"></scales>
<clustering>
<clus scale="   47.408">  3  4 -1 -1</clus>
<clus scale="   79.928">  2  6  1 -1</clus>
<clus scale="  129.385">  1  5  2 -1</clus>
<clus scale="  129.385">  1  3  2 -1</clus>
</clustering>
</event>
<event>
 6    0  0.2433432E+002  0.1671674E+03  0.7546771E-02  0.1180834E+00
         21   -1    0    0  504  502  0.00000000000E+00  0.00000000000E+00  0.17368520134E+04  0.17368520134E+04  0.00000000000E+00 0.  1.
          2   -1    0    0  503    0 -0.00000000000E+00 -0.00000000000E+00 -0.43045045515E+03  0.43045045515E+03  0.00000000000E+00 0.  1.
         21    1    1    2  503  505 -0.15958950910E+03  0.10008495694E+02  0.37023532150E+03  0.40329043466E+03  0.00000000000E+00 0.  1.
         21    1    1    2  504  501 -0.71885955795E+02 -0.44337375059E+02  0.79090180165E+03  0.79539867571E+03  0.00000000000E+00 0.  1.
         21    1    1    2  505  502  0.77625336401E+02 -0.33825881731E+02  0.53628221643E+03  0.54292586859E+03  0.00000000000E+00 0.  1.
          2    1    1    2  501    0  0.15385012850E+03  0.68154761095E+02 -0.39101778132E+03  0.42568748961E+03  0.00000000000E+00 0.  1.
<scales pt_clust_3="14000.00000" pt_clust_4="84.45942" pt_clust_5="69.54002" pt_clust_6="167.16742"></scales>
<clustering>
<clus scale="   84.459">  1  4  2 -1</clus>
<clus scale="   69.540">  1  5  2 -1</clus>
<clus scale="  167.167">  2  6  1 -1</clus>
<clus scale="   84.459">  1  3  2 -1</clus>
</clustering>
</event>
<event>
 6    0  0.2433432E+002  0.1086270E+03  0.7546771E-02  0.1263134E+00
          2   -1    0    0  505    0 -0.00000000000E+00  0.00000000000E+00  0.16729189360E+04  0.16729189360E+04  0.00000000000E+00 0.  1.
         21   -1    0    0  501  502  0.00000000000E+00 -0.00000000000E+00 -0.38261862155E+02  0.38261862155E+02  0.00000000000E+00 0.  1.
         21    1    1    2  503  504  0.83928912144E+01 -0.66191919526E+02  0.12489656254E+03  0.14160142008E+03  0.00000000000E+00 0. -1.
         21    1    1    2  504  502 -0.29274471705E+01  0.33479344651E+02  0.26960434606E+02  0.43084817504E+02  0.00000000000E+00 0.  1.
         21    1    1    2  505  503 -0.92735652138E+02 -0.34512196216E+02  0.10492510341E+03  0.14422298773E+03  0.00000000000E+00 0.  1.
          2    1    1    2  501    0  0.87270208094E+02  0.67224771091E+02  0.13778749733E+04  0.13822715728E+04  0.00000000000E+00 0.  1.
<scales pt_clust_3="57.43523" pt_clust_4="33.60709" pt_clust_5="108.62703" pt_clust_6="14000.00000"></scales>
<clustering>
<clus scale="   33.607">  2  4  1 -1</clus>
<clus scale="   57.435">  2  3  1 -1</clus>
<clus scale="  108.627">  2  5  1 -1</clus>
<clus scale="   33.607">  2  3  1 -1</clus>
</clustering>
</event>
<event>
 6    0  0.2433432E+002  0.1336612E+03  0.7546771E-02  0.1222122E+00
          4   -1    0    0  505    0 -0.00000000000E+00  0.00000000000E+00  0.97761946714E+03  0.97761946714E+03  0.00000000000E+00 0. -1.
         21   -1    0    0  501  502  0.00000000000E+00 -0.00000000000E+00 -0.68306541038E+02  0.68306541038E+02  0.00000000000E+00 0. -1.
         21    1    1    2  503  502 -0.34572585259E+02  0.50916940756E+02 -0.12211804352E+01  0.61557207451E+02  0.00000000000E+00 0. -1.
         21    1    1    2  504  503 -0.68160459099E+02  0.72822532786E+01  0.20236450360E+02  0.71473025125E+02  0.00000000000E+00 0. -1.
         21    1    1    2  505  504 -0.37366376717E+02 -0.13629970322E+02  0.79699333119E+02  0.89073036883E+02  0.00000000000E+00 0. -1.
          4    1    1    2  501    0  0.14009942107E+03 -0.44569223713E+02  0.81059832306E+03  0.82382273872E+03  0.00000000000E+00 0. -1.
<scales pt_clust_3="54.62906" pt_clust_4="54.62906" pt_clust_5="39.77464" pt_clust_6="120.29584"></scales>
<clustering>
<clus scale="   39.775">  1  5  2 -1</clus>
<clus scale="   54.629">  3  4 -1 -1</clus>
<clus scale="  120.296">  1  6  2 -1</clus>
<clus scale="  133.661">  2  3  1 -1</clus>
</clustering>
</event>
<event>
 6    0  0.2433432E+002  0.1368986E+03  0.7546771E-02  0.1217564E+00
         21   -1    0    0  505  502  0.00000000000E+00  0.00000000000E+00  0.17494626429E+04  0.17494626429E+04  0.00000000000E+00 0. -1.
          2   -1    0    0  503    0 -0.00000000000E+00 -0.00000000000E+00 -0.13846603820E+04  0.13846603820E+04  0.00000000000E+00 0.  1.
         21    1    1    2  503  502 -0.54272594296E+02 -0.11941605548E+03  0.16640507417E+04  0.16692125628E+04  0.00000000000E+00 0. -1.
         21    1    1    2  504  501  0.33162469203E+02  0.59551283833E+02  0.28247494635E+02  0.73783641297E+02  0.00000000000E+00 0.  1.
         21    1    1    2  505  504  0.52376167137E+02  0.32824743851E+02  0.11649700579E+01  0.61823004198E+02  0.00000000000E+00 0.  1.
          2    1    1    2  501    0 -0.31266042044E+02  0.27040027792E+02 -0.13286609456E+04  0.13293038166E+04  0.00000000000E+00 0.  1.
<scales pt_clust_3="130.64203" pt_clust_4="38.96067" pt_clust_5="38.96067" pt_clust_6="41.33677"></scales>
<clustering>
<clus scale="   38.961">  4  5 -1 -1</clus>
<clus scale="   41.337">  2  6  1 -1</clus>
<clus scale="  130.642">  1  3  2 -1</clus>
<clus scale="  130.642">  1  3  2 -1</clus>
</clustering>
</event>
<event>
 6    0  0.2433432E+002  0.1425905E+03  0.7546771E-02  0.1209885E+00
         21   -1    0    0  505  502  0.00000000000E+00  0.00000000000E+00  0.28673981285E+03  0.28673981285E+03  0.00000000000E+00 0. -1.
          2   -1    0    0  502    0 -0.00000000000E+00 -0.00000000000E+00 -0.39530477773E+03  0.39530477773E+03  0.00000000000E+00 0.  1.
         21    1    1    2  503  504 -0.73388696372E+02 -0.29581738990E+02  0.10446736972E+03  0.13105117845E+03  0.00000000000E+00 0. -1.
         21    1    1    2  504  501 -0.42254917566E+02  0.20821281551E+02  0.51696748626E+02  0.69939671449E+02  0.00000000000E+00 0.  1.
         21    1    1    2  505  503 -0.13861119862E+02 -0.28116961907E+02  0.93361121320E+02  0.98483466454E+02  0.00000000000E+00 0. -1.
          2    1    1    2  501    0  0.12950473380E+03  0.36877419345E+02 -0.35809020454E+03  0.38257027423E+03  0.00000000000E+00 0.  1.
<scales pt_clust_3="36.13078" pt_clust_4="36.13078" pt_clust_5="31.34795" pt_clust_6="133.31223"></scales>
<clustering>
<clus scale="   31.348">  1  5  2 -1</clus>
<clus scale="   36.131">  3  4 -1 -1</clus>
<clus scale="  133.312">  2  6  1 -1</clus>
<clus scale="   31.348">  1  3  2 -1</clus>
</clustering>
</event>
<event>
 6    0  0.2433432E+002  0.9705975E+02  0.7546771E-02  0.1286603E+00
         21   -1    0    0  504  502  0.00000000000E+00  0.00000000000E+00  0.13018641508E+03  0.13018641508E+03  0.00000000000E+00 0.  1.
          2   -1    0    0  505    0 -0.00000000000E+00 -0.00000000000E+00 -0.67349962708E+03  0.67349962708E+03  0.00000000000E+00 0. -1.
         21    1    1    2  503  502 -0.71287294556E+02  0.43232996307E+02 -0.15188611734E+03  0.17326385363E+03  0.00000000000E+00 0. -1.
         21    1    1    2  504  501 -0.93354236736E+01 -0.99693204724E+02  0.90885742633E+02  0.13522611958E+03  0.00000000000E+00 0.  1.
         21    1    1    2  505  503  0.21700183696E+02  0.23663022433E+02 -0.65303584910E+02  0.72769463411E+02  0.00000000000E+00 0. -1.
          2    1    1    2  501    0  0.58922534533E+02  0.32797185985E+02 -0.41700925238E+03  0.42242660553E+03  0.00000000000E+00 0. -1.
<scales pt_clust_3="82.12011" pt_clust_4="97.05975" pt_clust_5="32.10664" pt_clust_6="14000.00000"></scales>
<clustering>
<clus scale="   32.107">  2  5  1 -1</clus>
<clus scale="   82.120">  2  3  1 -1</clus>
<clus scale="   97.060">  1  4  2 -1</clus>
<clus scale="   97.060">  1  3  2 -1</clus>
</clustering>
</event>
<event>
 6    0  0.2433432E+002  0.1303323E+03  0.7546771E-02  0.1226964E+00
          1   -1    0    0  504    0 -0.00000000000E+00  0.00000000000E+00  0.67048433083E+03  0.67048433083E+03  0.00000000000E+00 0.  1.
         21   -1    0    0  505  502  0.00000000000E+00 -0.00000000000E+00 -0.14980681710E+03  0.14980681710E+03  0.00000000000E+00 0.  1.
         21    1    1    2  503  502  0.14512432515E+02 -0.92706597816E+02 -0.32171225770E+02  0.99197337382E+02  0.00000000000E+00 0.  1.
         21    1    1    2  504  503 -0.23580295477E+02 -0.33621366714E+02 -0.35130807303E+02  0.54042578179E+02  0.00000000000E+00 0. -1.
         21    1    1    2  505  501 -0.34711292603E+02  0.10411889393E+03  0.39904024506E+02  0.11678162989E+03  0.00000000000E+00 0.  1.
          1    1    1    2  501    0  0.43779155565E+02  0.22209070596E+02  0.54807552230E+03  0.55026960249E+03  0.00000000000E+00 0.  1.
<scales pt_clust_3="35.69836" pt_clust_4="35.69836" pt_clust_5="118.63631" pt_clust_6="49.09030"></scales>
<clustering>
<clus scale="   35.698">  3  4 -1 -1</clus>
<clus scale="   49.090">  1  6  2 -1</clus>
<clus scale="  118.636">  1  5  2 -1</clus>
<clus scale="  130.332">  2  3  1 -1</clus>
</clustering>
</event>
<event>
 6    0  0.2433432E+002  0.1100408E+03  0.7546771E-02  0.1260494E+00
         21   -1    0    0  503  502  0.00000000000E+00  0.00000000000E+00  0.13831769264E+03  0.13831769264E+03  0.00000000000E+00 0. -1.
          1   -1    0    0  505    0 -0.00000000000E+00 -0.00000000000E+00 -0.62698320703E+03  0.62698320703E+03  0.00000000000E+00 0. -1.
         21    1    1    2  503  501 -0.48070835351E+02 -0.28146550024E+02  0.10386816979E+03  0.11786275996E+03  0.00000000000E+00 0. -1.
         21    1    1    2  504  502  0.14549380800E+02  0.42159967649E+02 -0.28853892689E+02  0.53119624219E+02  0.00000000000E+00 0. -1.
         21    1    1    2  505  504  0.35861701834E+02  0.76910818204E+02 -0.16675140855E+03  0.18710255976E+03  0.00000000000E+00 0. -1.
          1    1    1    2  501    0 -0.23402472834E+01 -0.90924235829E+02 -0.39692838295E+03  0.40721595574E+03  0.00000000000E+00 0. -1.
<scales pt_clust_3="55.70488" pt_clust_4="37.85185" pt_clust_5="37.85185" pt_clust_6="96.86507"></scales>
<clustering>
<clus scale="   37.852">  4  5 -1 -1</clus>
<clus scale="   55.705">  1  3  2 -1</clus>
<clus scale="   96.865">  2  6  1 -1</clus>
<clus scale="   55.705">  1  3  2 -1</clus>
</clustering>
</event>
<event>
 6    0  0.2433432E+002  0.1052393E+03  0.7546771E-02  0.1269649E+00
         -3   -1    0    0    0  501 -0.00000000000E+00  0.00000000000E+00  0.16006397434E+03  0.16006397434E+03  0.00000000000E+00 0. -1.
         21   -1    0    0  503  502  0.00000000000E+00 -0.00000000000E+00 -0.13798974777E+04  0.13798974777E+04  0.00000000000E+00 0. -1.
         21    1    1    2  503  501  0.96207265148E+02 -0.33980968205E+02 -0.28827069210E+03  0.30579492473E+03  0.00000000000E+00 0. -1.
         21    1    1    2  504  502  0.33233896563E+02 -0.10529789216E+02 -0.10258424512E+04  0.10264346560E+04  0.00000000000E+00 0. -1.
         21    1    1    2  505  504 -0.39903636277E+02 -0.11494480850E+02 -0.24957501301E+02  0.48448943738E+02  0.00000000000E+00 0. -1.
         -3    1    1    2    0  505 -0.89537525435E+02  0.56005238270E+02  0.11923714123E+03  0.15928292759E+03  0.00000000000E+00 0. -1.
<scales pt_clust_3="14000.00000" pt_clust_4="34.86213" pt_clust_5="38.56733" pt_clust_6="105.23926"></scales>
<clustering>
<clus scale="   34.862">  2  4  1 -1</clus>
<clus scale="   38.567">  2  5  1 -1</clus>
<clus scale="  105.239">  1  6  2 -1</clus>
<clus scale="   34.862">  2  3  1 -1</clus>
</clustering>
</event>
<event>
 6    0  0.2433432E+002  0.8879968E+02  0.7546771E-02  0.1305785E+00
          2   -1    0    0  504    0 -0.00000000000E+00  0.00000000000E+00  0.18220304248E+03  0.18220304248E+03  0.00000000000E+00 0.  1.
         21   -1    0    0  505  502  0.00000000000E+00 -0.00000000000E+00 -0.16509754920E+03  0.16509754920E+03  0.00000000000E+00 0. -1.
         21    1    1    2  503  502  0.30051837870E+02 -0.65586056143E+02  0.64565123063E+01  0.72431555768E+02  0.00000000000E+00 0. -1.
         21    1    1    2  504  503 -0.27823005736E+02  0.10446168411E+03 -0.21038476569E+02  0.11013165118E+03  0.00000000000E+00 0. -1.
         21    1    1    2  505  501 -0.29563626127E+02 -0.10057902619E+02 -0.58431980915E+02  0.66253043617E+02  0.00000000000E+00 0. -1.
          2    1    1    2  501    0  0.27334793993E+02 -0.28817725349E+02  0.90119438458E+02  0.98484341116E+02  0.00000000000E+00 0.  1.
<scales pt_clust_3="14000.00000" pt_clust_4="88.79968" pt_clust_5="31.22770" pt_clust_6="39.20558"></scales>
<clustering>
<clus scale="   31.228">  2  5  1 -1</clus>
<clus scale="   39.206">  1  6  2 -1</clus>
<clus scale="   88.800">  1  4  2 -1</clus>
<clus scale="   31.228">  2  3  1 -1</clus>
</clustering>
</event>
<event>
 6    0  0.2433432E+002  0.3136167E+03  0.7546771E-02  0.1078625E+00
         -1   -1    0    0    0  501 -0.00000000000E+00  0.00000000000E+00  0.14219827257E+04  0.14219827257E+04  0.00000000000E+00 0. -1.
         21   -1    0    0  504  502  0.00000000000E+00 -0.00000000000E+00 -0.43099257737E+03  0.43099257737E+03  0.00000000000E+00 0.  1.
         21    1    1    2  503  505  0.23105502388E+03 -0.24756685731E+02 -0.14336502260E+03  0.27304367280E+03  0.00000000000E+00 0.  1.
         21    1    1    2  504  501  0.13102920963E+02  0.15190631311E+03 -0.79087882969E+02  0.17176177611E+03  0.00000000000E+00 0.  1.
         21    1    1    2  505  502  0.37469497497E+02 -0.54161557560E+01 -0.74832207659E+02  0.83863921259E+02  0.00000000000E+00 0.  1.
         -1    1    1    2    0  503 -0.28162744234E+03 -0.12173347162E+03  0.12882752616E+04  0.13243059329E+04  0.00000000000E+00 0. -1.
<scales pt_clust_3="33.17950" pt_clust_4="152.47037" pt_clust_5="33.17950" pt_clust_6="302.65206"></scales>
<clustering>
<clus scale="   33.179">  3  5 -1 -1</clus>
<clus scale="  152.470">  2  4  1 -1</clus>
<clus scale="  302.652">  1  6  2 -1</clus>
<clus scale="  152.470">  2  3  1 -1</clus>
</clustering>
</event>
<event>
 6    0  0.2433432E+002  0.8993331E+02  0.7546771E-02  0.1303013E+00
         21   -1    0    0  503  502  0.00000000000E+00  0.00000000000E+00  0.64281726004E+03  0.64281726004E+03  0.00000000000E+00 0. -1.
          2   -1    0    0  505    0 -0.00000000000E+00 -0.00000000000E+00 -0.72252389392E+03  0.72252389392E+03  0.00000000000E+00 0. -1.
         21    1    1    2  503  504  0.32554267070E+02 -0.12074975637E+02  0.56553828973E+03  0.56660316139E+03  0.00000000000E+00 0. -1.
         21    1    1    2  504  501 -0.12664334162E+03  0.37529974776E+02 -0.77344134398E+02  0.15306583586E+03  0.00000000000E+00 0.  1.
         21    1    1    2  505  502  0.14176167928E+02 -0.64467823247E+02  0.47301457882E+01  0.66177324293E+02  0.00000000000E+00 0.  1.
          2    1    1    2  501    0  0.79912906621E+02  0.39012824108E+02 -0.57263093500E+03  0.57949483243E+03  0.00000000000E+00 0. -1.
<scales pt_clust_3="34.72154" pt_clust_4="14000.00000" pt_clust_5="75.89432" pt_clust_6="89.93331"></scales>
<clustering>
<clus scale="   34.722">  1  3  2 -1</clus>
<clus scale="   75.894">  1  5  2 -1</clus>
<clus scale="   89.933">  2  6  1 -1</clus>
<clus scale="   34.722">  1  3  2 -1</clus>
</clustering>
</event>
<event>
 6    0  0.2433432E+002  0.1229588E+03  0.7546771E-02  0.1238294E+00
         21   -1    0    0  504  502  0.00000000000E+00  0.00000000000E+00  0.16323806384E+04  0.16323806384E+04  0.00000000000E+00 0.  1.
          1   -1    0    0  503    0 -0.00000000000E+00 -0.00000000000E+00 -0.84057549095E+03  0.84057549095E+03  0.00000000000E+00 0.  1.
         21    1    1    2  503  505  0.31273921776E+01 -0.97036095081E+02  0.22132479832E+03  0.24168254112E+03  0.00000000000E+00 0.  1.
         21    1    1    2  504  501 -0.66459902628E+01  0.13864665519E+03  0.97305497738E+03  0.98290541416E+03  0.00000000000E+00 0.  1.
         21    1    1    2  505  502  0.63240480709E+02 -0.30173941754E+01  0.41898277818E+03  0.42373934380E+03  0.00000000000E+00 0. -1.
          1    1    1    2  501    0 -0.59721882624E+02 -0.38593165934E+02 -0.82155740641E+03  0.82462883029E+03  0.00000000000E+00 0.  1.
<scales pt_clust_3="122.95884" pt_clust_4="14000.00000" pt_clust_5="63.31242" pt_clust_6="71.04125"></scales>
<clustering>
<clus scale="   63.312">  1  5  2 -1</clus>
<clus scale="   71.041">  2  6  1 -1</clus>
<clus scale="  122.959">  2  3  1 -1</clus>
<clus scale="   63.312">  1  3  2 -1</clus>
</clustering>
</event>
<event>
 6    0  0.2433432E+002  0.8995090E+02  0.7546771E-02  0.1302971E+00
         -2   -1    0    0    0  501 -0.00000000000E+00  0.00000000000E+00  0.18628573785E+04  0.18628573785E+04  0.00000000000E+00 0. -1.
         21   -1    0    0  503  502  0.00000000000E+00 -0.00000000000E+00 -0.19862748132E+03  0.19862748132E+03  0.00000000000E+00 0. -1.
         21    1    1    2  503  504 -0.78600817219E+01  0.37461127181E+02 -0.52069897320E+01  0.38629388766E+02  0.00000000000E+00 0. -1.
         21    1    1    2  504  501 -0.99172306299E+02 -0.73791175447E+02 -0.36638601741E+02  0.12892893798E+03  0.00000000000E+00 0. -1.
         21    1    1    2  505  502  0.36426094085E+02  0.55054229351E+02 -0.81487573125E+02  0.10487160280E+03  0.00000000000E+00 0. -1.
         -2    1    1    2    0  505  0.70606293936E+02 -0.18724181085E+02  0.17875630617E+04  0.17890549302E+04  0.00000000000E+00 0. -1.
<scales pt_clust_3="38.27685" pt_clust_4="14000.00000" pt_clust_5="89.95090" pt_clust_6="72.97440"></scales>
<clustering>
<clus scale="   38.277">  2  3  1 -1</clus>
<clus scale="   72.974">  1  6  2 -1</clus>
<clus scale="   89.951">  2  5  1 -1</clus>
<clus scale="   38.277">  2  3  1 -1</clus>
</clustering>
</event>
<event>
 6    0  0.2433432E+002  0.1524307E+03  0.7546771E-02  0.1197518E+00
          2   -1    0    0  502    0 -0.00000000000E+00  0.00000000000E+00  0.12872906405E+04  0.12872906405E+04  0.00000000000E+00 0.  1.
         21   -1    0    0  504  502  0.00000000000E+00 -0.00000000000E+00 -0.31552150044E+02  0.31552150044E+02  0.00000000000E+00 0.  1.
         21    1    1    2  503  505  0.48412499550E+02 -0.87908834867E+02  0.25371870989E+03  0.27284595857E+03  0.00000000000E+00 0.  1.
         21    1    1    2  504  503 -0.25424861697E+02 -0.16819215660E+02  0.41983343420E+01  0.30772319038E+02  0.00000000000E+00 0.  1.
         21    1    1    2  505  501  0.31045261233E+01 -0.39992696000E+02  0.21099446457E+03  0.21477364339E+03  0.00000000000E+00 0. -1.
          2    1    1    2  501    0 -0.26092163977E+02  0.14472074653E+03  0.78682698161E+03  0.80045086950E+03  0.00000000000E+00 0.  1.
<scales pt_clust_3="33.71197" pt_clust_4="30.48458" pt_clust_5="33.71197" pt_clust_6="142.94543"></scales>
<clustering>
<clus scale="   30.485">  2  4  1 -1</clus>
<clus scale="   33.712">  3  5 -1 -1</clus>
<clus scale="  142.945">  1  6  2 -1</clus>
<clus scale="   30.485">  2  3  1 -1</clus>
</clustering>
</event>
<event>
 6    0  0.2433432E+002  0.8936595E+02  0.7546771E-02  0.1304394E+00
          1   -1    0    0  505    0 -0.00000000000E+00  0.00000000000E+00  0.18102533256E+04  0.18102533256E+04  0.00000000000E+00 0. -1.
         21   -1    0    0  503  502  0.00000000000E+00 -0.00000000000E+00 -0.33437220369E+02  0.33437220369E+02  0.00000000000E+00 0. -1.
         21    1    1    2  503  504  0.39705271312E+02 -0.66846160070E+01  0.18026234659E+02  0.44115051820E+02  0.00000000000E+00 0.  1.
         21    1    1    2  504  501  0.67255006059E+02 -0.15801150127E+02  0.15908741294E+03  0.17344081740E+03  0.00000000000E+00 0.  1.
         21    1    1    2  505  502 -0.34963019782E+02 -0.39217763589E+02  0.46863340509E+02  0.70403255726E+02  0.00000000000E+00 0. -1.
          1    1    1    2  501    0 -0.71997257589E+02  0.61703529723E+02  0.15528391171E+04  0.15557314210E+04  0.00000000000E+00 0. -1.
<scales pt_clust_3="40.26404" pt_clust_4="14000.00000" pt_clust_5="44.72865" pt_clust_6="89.36595"></scales>
<clustering>
<clus scale="   40.264">  2  3  1 -1</clus>
<clus scale="   44.729">  2  5  1 -1</clus>
<clus scale="   89.366">  1  6  2 -1</clus>
<clus scale="   40.264">  2  3  1 -1</clus>
</clustering>
</event>
<event>
 6    0  0.2433432E+002  0.7366581E+02  0.7546771E-02  0.1348053E+00
         21   -1    0    0  503  502  0.00000000000E+00  0.00000000000E+00  0.10646519586E+04  0.10646519586E+04  0.00000000000E+00 0. -1.
          2   -1    0    0  504    0 -0.00000000000E+00 -0.00000000000E+00 -0.94955835376E+03  0.94955835376E+03  0.00000000000E+00 0.  1.
         21    1    1    2  503  501 -0.83364274973E+02  0.46873431302E+02 -0.85239384428E+02  0.12811117657E+03  0.00000000000E+00 0.  1.
         21    1    1    2  504  505 -0.23992952594E+02 -0.40760390398E+02 -0.17959783268E+02  0.50592736778E+02  0.00000000000E+00 0.  1.
         21    1    1    2  505  502  0.36632383523E+02  0.89296915807E+01  0.10249357899E+04  0.10256290968E+04  0.00000000000E+00 0. -1.
          2    1    1    2  501    0  0.70724844044E+02 -0.15042732484E+02 -0.80664301727E+03  0.80987730224E+03  0.00000000000E+00 0.  1.
<scales pt_clust_3="73.66581" pt_clust_4="38.09252" pt_clust_5="37.70505" pt_clust_6="14000.00000"></scales>
<clustering>
<clus scale="   37.705">  1  5  2 -1</clus>
<clus scale="   38.093">  1  4  2 -1</clus>
<clus scale="   73.666">  1  3  2 -1</clus>
<clus scale="   37.705">  1  3  2 -1</clus>
</clustering>
</event>
<event>
 6    0  0.2433432E+002  0.1110787E+03  0.7546771E-02  0.1258585E+00
          2   -1    0    0  502    0 -0.00000000000E+00  0.00000000000E+00  0.85057997088E+03  0.85057997088E+03  0.00000000000E+00 0. -1.
         21   -1    0    0  504  502  0.00000000000E+00 -0.00000000000E+00 -0.63453876662E+03  0.63453876662E+03  0.00000000000E+00 0. -1.
         21    1    1    2  503  505 -0.93322460645E+02  0.56331259565E+02 -0.21915595769E+03  0.24476851565E+03  0.00000000000E+00 0.  1.
         21    1    1    2  504  503 -0.30087438321E+02 -0.32836921039E+02 -0.34750396788E+03  0.35034629300E+03  0.00000000000E+00 0. -1.
         21    1    1    2  505  501  0.97447963940E+02  0.26682066588E+02 -0.41569627794E+01  0.10112031790E+03  0.00000000000E+00 0.  1.
          2    1    1    2  501    0  0.25961935026E+02 -0.50176405114E+02  0.78685809261E+03  0.78888361093E+03  0.00000000000E+00 0. -1.
<scales pt_clust_3="14000.00000" pt_clust_4="44.53670" pt_clust_5="111.07873" pt_clust_6="56.54966"></scales>
<clustering>
<clus scale="   44.537">  2  4  1 -1</clus>
<clus scale="   56.550">  1  6  2 -1</clus>
<clus scale="  111.079">  1  5  2 -1</clus>
<clus scale="   44.537">  2  3  1 -1</clus>
</clustering>
</event>
<event>
 6    0  0.2433432E+002  0.7710208E+02  0.7546771E-02  0.1337482E+00
          2   -1    0    0  503    0 -0.00000000000E+00  0.00000000000E+00  0.34159420399E+04  0.34159420399E+04  0.00000000000E+00 0. -1.
         21   -1    0    0  504  502  0.00000000000E+00 -0.00000000000E+00 -0.74594902611E+02  0.74594902611E+02  0.00000000000E+00 0.  1.
         21    1    1    2  503  502 -0.95374098413E+02  0.50971374357E+01  0.10593043733E+03  0.14263049117E+03  0.00000000000E+00 0.  1.
         21    1    1    2  504  505  0.37295664720E+02 -0.25873785369E+02 -0.15652738288E+02  0.48014868448E+02  0.00000000000E+00 0.  1.
         21    1    1    2  505  501  0.32654490922E+02  0.86394597177E+02  0.64751647333E+02  0.11279679974E+03  0.00000000000E+00 0.  1.
          2    1    1    2  501    0  0.25423942771E+02 -0.65617949244E+02  0.31863177909E+04  0.31870947832E+04  0.00000000000E+00 0. -1.
<scales pt_clust_3="77.10208" pt_clust_4="45.39184" pt_clust_5="14000.00000" pt_clust_6="70.71309"></scales>
<clustering>
<clus scale="   45.392">  2  4  1 -1</clus>
<clus scale="   70.713">  1  6  2 -1</clus>
<clus scale="   77.102">  1  3  2 -1</clus>
<clus scale="   45.392">  2  3  1 -1</clus>
</clustering>
</event>
<event>
 6    0  0.2433432E+002  0.8933935E+02  0.7546771E-02  0.1304459E+00
         21   -1    0    0  501  502  0.00000000000E+00  0.00000000000E+00  0.37361436311E+03  0.37361436311E+03  0.00000000000E+00 0. -1.
          2   -1    0    0  503    0 -0.00000000000E+00 -0.00000000000E+00 -0.11109781267E+04  0.11109781267E+04  0.00000000000E+00 0.  1.
         21    1    1    2  503  505  0.58302736333E+02 -0.81143602382E+01 -0.10941432131E+03  0.12424389568E+03  0.00000000000E+00 0.  1.
         21    1    1    2  504  502 -0.21217557248E+02  0.77163498116E+02  0.35022379006E+03  0.35925073876E+03  0.00000000000E+00 0. -1.
         21    1    1    2  505  504  0.34132220991E+02 -0.31441181111E+02 -0.45625081183E+02  0.65078448141E+02  0.00000000000E+00 0.  1.
          2    1    1    2  501    0 -0.71217400076E+02 -0.37607956767E+02 -0.93254815115E+03  0.93601940723E+03  0.00000000000E+00 0.  1.
<scales pt_clust_3="36.57515" pt_clust_4="80.02743" pt_clust_5="36.57515" pt_clust_6="79.27577"></scales>
<clustering>
<clus scale="   36.575">  3  5 -1 -1</clus>
<clus scale="   80.027">  1  4  2 -1</clus>
<clus scale="   79.276">  2  6  1 -1</clus>
<clus scale="   80.027">  1  3  2 -1</clus>
</clustering>
</event>
<event>
 6    0  0.2433432E+002  0.1695744E+03  0.7546771E-02  0.1178292E+00
         21   -1    0    0  501  502  0.00000000000E+00  0.00000000000E+00  0.24182491412E+03  0.24182491412E+03  0.00000000000E+00 0.  1.
          2   -1    0    0  505    0 -0.00000000000E+00 -0.00000000000E+00 -0.30222471119E+03  0.30222471119E+03  0.00000000000E+00 0.  1.
         21    1    1    2  503  504 -0.53077009159E+01 -0.84202526475E+02  0.71014731725E+02  0.11027841709E+03  0.00000000000E+00 0.  1.
         21    1    1    2  504  502 -0.87468494574E+02 -0.20093114364E+02  0.73473205988E+02  0.11598613187E+03  0.00000000000E+00 0.  1.
         21    1    1    2  505  503 -0.18479396925E+02 -0.36036162375E+02  0.61956228985E+01  0.40969242763E+02  0.00000000000E+00 0.  1.
          2    1    1    2  501    0  0.11125559241E+03  0.14033180321E+03 -0.21108335768E+03  0.27681583359E+03  0.00000000000E+00 0.  1.
<scales pt_clust_3="30.12993" pt_clust_4="89.74670" pt_clust_5="30.12993" pt_clust_6="163.90312"></scales>
<clustering>
<clus scale="   30.130">  3  5 -1 -1</clus>
<clus scale="   89.747">  1  4  2 -1</clus>
<clus scale="  163.903">  2  6  1 -1</clus>
<clus scale="   89.747">  1  3  2 -1</clus>
</clustering>
</event>
<event>
 6    0  0.2433432E+002  0.9912748E+02  0.7546771E-02  0.1282142E+00
          2   -1    0    0  503    0 -0.00000000000E+00  0.00000000000E+00  0.19972065183E+03  0.19972065183E+03  0.00000000000E+00 0. -1.
         21   -1    0    0  505  502  0.00000000000E+00 -0.00000000000E+00 -0.16810707989E+04  0.16810707989E+04  0.00000000000E+00 0. -1.
         21    1    1    2  503  502  0.20040186009E+02 -0.70381808151E+02  0.29930830323E+02  0.79063661550E+02  0.00000000000E+00 0. -1.
         21    1    1    2  504  501  0.49255183956E+02  0.51231000088E+02 -0.77861717162E+02  0.10541885750E+03  0.00000000000E+00 0.  1.
         21    1    1    2  505  504 -0.88117833824E+02  0.48390604393E+02 -0.15609185422E+04  0.15641525177E+04  0.00000000000E+00 0. -1.
          2    1    1    2  501    0  0.18822463859E+02 -0.29239796330E+02  0.12749928201E+03  0.13215641395E+03  0.00000000000E+00 0. -1.
<scales pt_clust_3="14000.00000" pt_clust_4="69.80401" pt_clust_5="99.12748" pt_clust_6="34.77428"></scales>
<clustering>
<clus scale="   34.774">  1  6  2 -1</clus>
<clus scale="   69.804">  1  4  2 -1</clus>
<clus scale="   99.127">  2  5  1 -1</clus>
<clus scale="   99.127">  2  3  1 -1</clus>
</clustering>
</event>
<event>
 6    0  0.2433432E+002  0.1620029E+03  0.7546771E-02  0.1186454E+00
         21   -1    0    0  505  502  0.00000000000E+00  0.00000000000E+00  0.64870021680E+03  0.64870021680E+03  0.00000000000E+00 0.  1.
         -3   -1    0    0    0  501 -0.00000000000E+00 -0.00000000000E+00 -0.23038165070E+03  0.23038165070E+03  0.00000000000E+00 0.  1.
         21    1    1    2  503  502 -0.75014243541E+02  0.13693250114E+03  0.14618141406E+03  0.21388467083E+03  0.00000000000E+00 0. -1.
         21    1    1    2  504  501  0.18564033264E+03 -0.39888045861E+02  0.37679420966E+03  0.42193277395E+03  0.00000000000E+00 0.  1.
         21    1    1    2  505  504 -0.16382826808E+02 -0.48627328598E+02  0.39219439317E+02  0.64584661655E+02  0.00000000000E+00 0. -1.
         -3    1    1    2    0  503 -0.94243262290E+02 -0.48417126676E+02 -0.14387649694E+03  0.17867976106E+03  0.00000000000E+00 0.  1.
<scales pt_clust_3="14000.00000" pt_clust_4="162.00287" pt_clust_5="51.31290" pt_clust_6="107.03078"></scales>
<clustering>
<clus scale="   51.313">  1  5  2 -1</clus>
<clus scale="  107.031">  2  6  1 -1</clus>
<clus scale="  162.003">  1  4  2 -1</clus>
<clus scale="   51.313">  1  3  2 -1</clus>
</clustering>
</event>
<event>
 6    0  0.2433432E+002  0.1006210E+03  0.7546771E-02  0.1278996E+00
          1   -1    0    0  502    0 -0.00000000000E+00  0.00000000000E+00  0.31309742109E+04  0.31309742109E+04  0.00000000000E+00 0. -1.
         21   -1    0    0  504  502  0.00000000000E+00 -0.00000000000E+00 -0.31301914698E+03  0.31301914698E+03  0.00000000000E+00 0.  1.
         21    1    1    2  503  505 -0.33547675094E+02 -0.70489223211E+01 -0.89742226479E+02  0.96066648862E+02  0.00000000000E+00 0.  1.
         21    1    1    2  504  503 -0.40863081077E+02 -0.64338281409E+02 -0.11609374754E+03  0.13887751462E+03  0.00000000000E+00 0.  1.
         21    1    1    2  505  501  0.86610365316E+02 -0.37146987138E+01 -0.71775811554E+02  0.11254741886E+03  0.00000000000E+00 0.  1.
          1    1    1    2  501    0 -0.12199609146E+02  0.75101902444E+02  0.30955668495E+04  0.30965017756E+04  0.00000000000E+00 0. -1.
<scales pt_clust_3="31.43614" pt_clust_4="31.43614" pt_clust_5="89.03574" pt_clust_6="76.08631"></scales>
<clustering>
<clus scale="   31.436">  3  4 -1 -1</clus>
<clus scale="   76.086">  1  6  2 -1</clus>
<clus scale="   89.036">  1  5  2 -1</clus>
<clus scale="  100.621">  2  3  1 -1</clus>
</clustering>
</event>
<event>
 6    0  0.2433432E+002  0.1393729E+03  0.7546771E-02  0.1214175E+00
          1   -1    0    0  504    0 -0.00000000000E+00  0.00000000000E+00  0.10266545402E+04  0.10266545402E+04  0.00000000000E+00 0.  1.
         21   -1    0    0  505  502  0.00000000000E+00 -0.00000000000E+00 -0.19865262697E+04  0.19865262697E+04  0.00000000000E+00 0. -1.
         21    1    1    2  503  502  0.35016652560E+02 -0.54046393043E+02  0.19361863014E+02  0.67246266044E+02  0.00000000000E+00 0. -1.
         21    1    1    2  504  503  0.55629931041E+01 -0.30282950578E+02  0.13512007357E+03  0.13858368688E+03  0.00000000000E+00 0. -1.
         21    1    1    2  505  501 -0.81042667790E+02  0.11372116832E+03 -0.19576242570E+04  0.19625985707E+04  0.00000000000E+00 0. -1.
          1    1    1    2  501    0  0.40463022126E+02 -0.29391824701E+02  0.84327059100E+03  0.84475228628E+03  0.00000000000E+00 0.  1.
<scales pt_clust_3="65.78518" pt_clust_4="30.78967" pt_clust_5="139.37293" pt_clust_6="14000.00000"></scales>
<clustering>
<clus scale="   30.790">  1  4  2 -1</clus>
<clus scale="   65.785">  1  3  2 -1</clus>
<clus scale="  139.373">  2  5  1 -1</clus>
<clus scale="  139.373">  2  3  1 -1</clus>
</clustering>
</event>
<event>
 6    0  0.2433432E+002  0.1456476E+03  0.7546771E-02  0.1205925E+00
          2   -1    0    0  505    0 -0.00000000000E+00  0.00000000000E+00  0.75904480776E+03  0.75904480776E+03  0.00000000000E+00 0. -1.
         21   -1    0    0  504  502  0.00000000000E+00 -0.00000000000E+00 -0.13622178944E+03  0.13622178944E+03  0.00000000000E+00 0. -1.
         21    1    1    2  503  502 -0.56845289614E+02  0.61614008189E+01 -0.67962023864E+02  0.88815463176E+02  0.00000000000E+00 0. -1.
         21    1    1    2  504  501 -0.37003903991E+02  0.37103246702E+02  0.25401468428E+02  0.58233791090E+02  0.00000000000E+00 0. -1.
         21    1    1    2  505  503 -0.44831329193E+02 -0.20833344861E+02 -0.16420026662E+02  0.52091204736E+02  0.00000000000E+00 0.  1.
          2    1    1    2  501    0  0.13868052280E+03 -0.22431302660E+02  0.68180360041E+03  0.69612613820E+03  0.00000000000E+00 0. -1.
<scales pt_clust_3="43.42383" pt_clust_4="52.40172" pt_clust_5="43.42383" pt_clust_6="137.95752"></scales>
<clustering>
<clus scale="   43.424">  3  5 -1 -1</clus>
<clus scale="   52.402">  2  4  1 -1</clus>
<clus scale="  137.958">  1  6  2 -1</clus>
<clus scale="   52.402">  2  3  1 -1</clus>
</clustering>
</event>
<event>
 6    0  0.2433432E+002  0.1158551E+03  0.7546771E-02  0.1250096E+00
          1   -1    0    0  504    0 -0.00000000000E+00  0.00000000000E+00  0.37300570410E+03  0.37300570410E+03  0.00000000000E+00 0.  1.
         21   -1    0    0  501  502  0.00000000000E+00 -0.00000000000E+00 -0.28481208198E+03  0.28481208198E+03  0.00000000000E+00 0.  1.
         21    1    1    2  503  502 -0.56750359505E+02  0.10467866959E+03 -0.20770475685E+03  0.23941489759E+03  0.00000000000E+00 0.  1.
         21    1    1    2  504  505 -0.43333288940E+02 -0.15744785519E+02 -0.15710982384E+02  0.48708389102E+02  0.00000000000E+00 0.  1.
         21    1    1    2  505  503  0.69336905921E+02 -0.72751342380E+02  0.62881313402E+02  0.11855135561E+03  0.00000000000E+00 0. -1.
          1    1    1    2  501    0  0.30746742524E+02 -0.16182541688E+02  0.24872804795E+03  0.25114314379E+03  0.00000000000E+00 0.  1.
<scales pt_clust_3="14000.00000" pt_clust_4="43.10977" pt_clust_5="115.85505" pt_clust_6="34.74531"></scales>
<clustering>
<clus scale="   34.745">  1  6  2 -1</clus>
<clus scale="   43.110">  1  4  2 -1</clus>
<clus scale="  115.855">  1  5  2 -1</clus>
<clus scale="  115.855">  2  3  1 -1</clus>
</clustering>
</event>
<event>
 6    0  0.2433432E+002  0.1111337E+03  0.7546771E-02  0.1258485E+00
          2   -1    0    0  503    0 -0.00000000000E+00  0.00000000000E+00  0.93952245762E+03  0.93952245762E+03  0.00000000000E+00 0.  1.
         21   -1    0    0  505  502  0.00000000000E+00 -0.00000000000E+00 -0.84398840531E+03  0.84398840531E+03  0.00000000000E+00 0. -1.
         21    1    1    2  503  504 -0.64375567056E+01  0.85007089389E+02  0.11334415397E+03  0.14182575444E+03  0.00000000000E+00 0.  1.
         21    1    1    2  504  502 -0.61903422750E+02  0.18596373736E+02 -0.81607619301E+03  0.81863191463E+03  0.00000000000E+00 0. -1.
         21    1    1    2  505  501  0.42562150777E+02 -0.13567729640E+03  0.43940268331E+03  0.46183826556E+03  0.00000000000E+00 0.  1.
          2    1    1    2  501    0  0.25778828679E+02  0.32073833276E+02  0.35886340805E+03  0.36121492830E+03  0.00000000000E+00 0.  1.
<scales pt_clust_3="14000.00000" pt_clust_4="64.60232" pt_clust_5="111.13373" pt_clust_6="41.14947"></scales>
<clustering>
<clus scale="   41.149">  1  6  2 -1</clus>
<clus scale="   64.602">  2  4  1 -1</clus>
<clus scale="  111.134">  1  5  2 -1</clus>
<clus scale="   64.602">  2  3  1 -1</clus>
</clustering>
</event>
<event>
 6    0  0.3386718E+002  0.1414611E+03  0.7546771E-02  0.1211376E+00
          1   -1    0    0  504    0 -0.00000000000E+00  0.00000000000E+00  0.16714784643E+04  0.16714784643E+04  0.00000000000E+00 0. -1.
         21   -1    0    0  501  502  0.00000000000E+00 -0.00000000000E+00 -0.19663305650E+04  0.19663305650E+04  0.00000000000E+00 0.  1.
         21    1    1    2  503  502 -0.69685762452E+02 -0.56705799096E+02 -0.14855623254E+04  0.14882765455E+04  0.00000000000E+00 0.  1.
         21    1    1    2  504  505  0.10060951172E+03  0.34723997599E+02  0.81657451343E+02  0.13414905597E+03  0.00000000000E+00 0.  1.
         21    1    1    2  505  503 -0.20301324147E+02 -0.43139235389E+02 -0.45121210166E+03  0.45372403295E+03  0.00000000000E+00 0.  1.
          1    1    1    2  501    0 -0.10622425119E+02  0.65121036886E+02  0.15602648750E+04  0.15616593948E+04  0.00000000000E+00 0. -1.
<scales pt_clust_3="34.20243" pt_clust_4="133.44239" pt_clust_5="34.20243" pt_clust_6="65.98170"></scales>
<clustering>
<clus scale="   34.202">  3  5 -1 -1</clus>
<clus scale="   65.982">  1  6  2 -1</clus>
<clus scale="  133.442">  1  4  2 -1</clus>
<clus scale="  141.461">  2  3  1 -1</clus>
</clustering>
</event>
<event>
 6    0  0.2433432E+002  0.1008678E+03  0.7546771E-02  0.1278482E+00
         21   -1    0    0  504  502  0.00000000000E+00  0.00000000000E+00  0.35739470250E+03  0.35739470250E+03  0.00000000000E+00 0. -1.
          2   -1    0    0  503    0 -0.00000000000E+00 -0.00000000000E+00 -0.16282071596E+03  0.16282071596E+03  0.00000000000E+00 0. -1.
         21    1    1    2  503  502 -0.33059853221E+02  0.82635992245E+02  0.15406110454E+03  0.17792269400E+03  0.00000000000E+00 0. -1.
         21    1    1    2  504  505  0.11841638500E+02 -0.32541705144E+02  0.87444050198E+02  0.94051309885E+02  0.00000000000E+00 0. -1.
         21    1    1    2  505  501  0.29251520291E+02  0.52844582289E+02  0.69861800480E+02  0.92351894853E+02  0.00000000000E+00 0. -1.
          2    1    1    2  501    0 -0.80333055704E+01 -0.10293886939E+03 -0.11679296868E+03  0.15588951973E+03  0.00000000000E+00 0. -1.
<scales pt_clust_3="14000.00000" pt_clust_4="34.62928" pt_clust_5="54.07153" pt_clust_6="100.86781"></scales>
<clustering>
<clus scale="   34.629">  1  4  2 -1</clus>
<clus scale="   54.072">  1  5  2 -1</clus>
<clus scale="  100.868">  2  6  1 -1</clus>
<clus scale="   34.629">  1  3  2 -1</clus>
</clustering>
</event>
<event>
 6    0  0.2433432E+002  0.1056299E+03  0.7546771E-02  0.1268883E+00
         21   -1    0    0  504  502  0.00000000000E+00  0.00000000000E+00  0.32956187397E+04  0.32956187397E+04  0.00000000000E+00 0. -1.
         -3   -1    0    0    0  501 -0.00000000000E+00 -0.00000000000E+00 -0.14471570036E+02  0.14471570036E+02  0.00000000000E+00 0. -1.
         21    1    1    2  503  502  0.63910286594E+01 -0.45546953203E+02  0.37141085861E+03  0.37424777366E+03  0.00000000000E+00 0.  1.
         21    1    1    2  504  505 -0.47715343210E+02  0.26693683188E+02  0.78945348521E+03  0.79134449641E+03  0.00000000000E+00 0.  1.
         21    1    1    2  505  501  0.69569368357E+01 -0.85052270908E+02  0.18623913824E+04  0.18643454479E+04  0.00000000000E+00 0. -1.
         -3    1    1    2    0  503  0.34367377715E+02  0.10390554092E+03  0.25789144342E+03  0.28015259177E+03  0.00000000000E+00 0. -1.
<scales pt_clust_3="45.99315" pt_clust_4="48.18189" pt_clust_5="105.62995" pt_clust_6="14000.00000"></scales>
<clustering>
<clus scale="   45.993">  1  3  2 -1</clus>
<clus scale="   48.182">  1  4  2 -1</clus>
<clus scale="  105.630">  1  5  2 -1</clus>
<clus scale="   45.993">  1  3  2 -1</clus>
</clustering>
</event>
<event>
 6    0  0.2433432E+002  0.1687986E+03  0.7546771E-02  0.1179107E+00
         21   -1    0    0  504  502  0.00000000000E+00  0.00000000000E+00  0.25640476975E+03  0.25640476975E+03  0.00000000000E+00 0. -1.
         -3   -1    0    0    0  501 -0.00000000000E+00 -0.00000000000E+00 -0.80439246575E+03  0.80439246575E+03  0.00000000000E+00 0. -1.
         21    1    1    2  503  502  0.43177591126E+02  0.25882474800E+02  0.20215888780E+03  0.20833248137E+03  0.00000000000E+00 0. -1.
         21    1    1    2  504  505 -0.62652209985E+02 -0.17608103000E+03 -0.47216311714E+03  0.50780689019E+03  0.00000000000E+00 0. -1.
         21    1    1    2  505  501 -0.43309372633E+02  0.21096287519E+02 -0.12928439057E+03  0.13796814397E+03  0.00000000000E+00 0. -1.
         -3    1    1    2    0  503  0.62783991492E+02  0.12910226768E+03 -0.14869907609E+03  0.20668971996E+03  0.00000000000E+00 0. -1.
<scales pt_clust_3="50.22022" pt_clust_4="14000.00000" pt_clust_5="48.17422" pt_clust_6="168.79855"></scales>
<clustering>
<clus scale="   48.174">  2  5  1 -1</clus>
<clus scale="   50.220">  1  3  2 -1</clus>
<clus scale="  168.799">  1  6  2 -1</clus>
<clus scale="   50.220">  1  3  2 -1</clus>
</clustering>
</event>
<event>
 6    0  0.2433432E+002  0.7113603E+02  0.7546771E-02  0.1356272E+00
          1   -1    0    0  504    0 -0.00000000000E+00  0.00000000000E+00  0.10150699743E+04  0.10150699743E+04  0.00000000000E+00 0. -1.
         21   -1    0    0  505  502  0.00000000000E+00 -0.00000000000E+00 -0.11205928641E+03  0.11205928641E+03  0.00000000000E+00 0.  1.
         21    1    1    2  503  502  0.30347956009E+02 -0.11945436979E+03 -0.43657162764E+02  0.13075279254E+03  0.00000000000E+00 0.  1.
         21    1    1    2  504  503 -0.38120864609E+02 -0.82793787610E+01  0.77369479165E+02  0.86647473924E+02  0.00000000000E+00 0.  1.
         21    1    1    2  505  501 -0.10978154371E+02  0.54576785289E+02  0.23271910948E+02  0.60338438868E+02  0.00000000000E+00 0. -1.
          1    1    1    2  501    0  0.18751062970E+02  0.73156963263E+02  0.84602646056E+03  0.84939055540E+03  0.00000000000E+00 0. -1.
<scales pt_clust_3="71.13603" pt_clust_4="39.00959" pt_clust_5="55.67055" pt_clust_6="14000.00000"></scales>
<clustering>
<clus scale="   39.010">  1  4  2 -1</clus>
<clus scale="   55.671">  2  5  1 -1</clus>
<clus scale="   71.136">  2  3  1 -1</clus>
<clus scale="   55.671">  2  3  1 -1</clus>
</clustering>
</event>
<event>
 6    0  0.2433432E+002  0.1436031E+03  0.7546771E-02  0.1208561E+00
          1   -1    0    0  504    0 -0.00000000000E+00  0.00000000000E+00  0.55950775540E+03  0.55950775540E+03  0.00000000000E+00 0.  1.
         21   -1    0    0  501  502  0.00000000000E+00 -0.00000000000E+00 -0.11259309977E+03  0.11259309977E+03  0.00000000000E+00 0.  1.
         21    1    1    2  503  502  0.54357212712E+02 -0.44829307022E+02 -0.13384048346E+02  0.71718240999E+02  0.00000000000E+00 0.  1.
         21    1    1    2  504  505 -0.12025783701E+03  0.99364769077E+02  0.13486982186E+03  0.20621632706E+03  0.00000000000E+00 0.  1.
         21    1    1    2  505  503  0.30660416891E+02 -0.60146190483E+02  0.73169296018E+00  0.67514152354E+02  0.00000000000E+00 0.  1.
          1    1    1    2  501    0  0.35240207411E+02  0.56107284278E+01  0.32469718916E+03  0.32665213476E+03  0.00000000000E+00 0.  1.
<scales pt_clust_3="30.60743" pt_clust_4="140.15754" pt_clust_5="30.60743" pt_clust_6="35.68406"></scales>
<clustering>
<clus scale="   30.607">  3  5 -1 -1</clus>
<clus scale="   35.684">  1  6  2 -1</clus>
<clus scale="  140.158">  1  4  2 -1</clus>
<clus scale="  143.603">  2  3  1 -1</clus>
</clustering>
</event>
<event>
 6    0  0.2433432E+002  0.1043171E+03  0.7546771E-02  0.1271471E+00
         21   -1    0    0  503  502  0.00000000000E+00  0.00000000000E+00  0.71403282233E+03  0.71403282233E+03  0.00000000000E+00 0.  1.
          2   -1    0    0  504    0 -0.00000000000E+00 -0.00000000000E+00 -0.13149625683E+04  0.13149625683E+04  0.00000000000E+00 0.  1.
         21    1    1    2  503  505 -0.29838868756E+02  0.20709687703E+02  0.45482236736E+03  0.45627035309E+03  0.00000000000E+00 0.  1.
         21    1    1    2  504  502  0.26450701344E+01 -0.44453455785E+02  0.10989245003E+02  0.45867958675E+02  0.00000000000E+00 0.  1.
         21    1    1    2  505  501 -0.72832442221E+02  0.53969422396E+02  0.21892556810E+03  0.23695077034E+03  0.00000000000E+00 0.  1.
          2    1    1    2  501    0  0.10002624084E+03 -0.30225654314E+02 -0.12856669264E+04  0.12899063085E+04  0.00000000000E+00 0.  1.
<scales pt_clust_3="36.32147" pt_clust_4="42.18059" pt_clust_5="14000.00000" pt_clust_6="104.31707"></scales>
<clustering>
<clus scale="   36.321">  1  3  2 -1</clus>
<clus scale="   42.181">  1  4  2 -1</clus>
<clus scale="  104.317">  2  6  1 -1</clus>
<clus scale="   36.321">  1  3  2 -1</clus>
</clustering>
</event>
<event>
 6    0  0.2433432E+002  0.1437971E+03  0.7546771E-02  0.1208309E+00
         21   -1    0    0  504  502  0.00000000000E+00  0.00000000000E+00  0.20289108930E+03  0.20289108930E+03  0.00000000000E+00 0. -1.
          3   -1    0    0  503    0 -0.00000000000E+00 -0.00000000000E+00 -0.11318697814E+04  0.11318697814E+04  0.00000000000E+00 0.  1.
         21    1    1    2  503  502 -0.33331412281E+02  0.14400871571E+02 -0.29736902283E+02  0.46932414215E+02  0.00000000000E+00 0. -1.
         21    1    1    2  504  505 -0.13235139680E+02 -0.32102513972E+02  0.13342412922E+02  0.37198928859E+02  0.00000000000E+00 0. -1.
         21    1    1    2  505  501 -0.67353301652E+02  0.10667224931E+03  0.13983351894E+03  0.18833175259E+03  0.00000000000E+00 0. -1.
          3    1    1    2  501    0  0.11391985361E+03 -0.88970606904E+02 -0.10524177217E+04  0.10622977750E+04  0.00000000000E+00 0.  1.
<scales pt_clust_3="36.32003" pt_clust_4="34.72377" pt_clust_5="14000.00000" pt_clust_6="143.79705"></scales>
<clustering>
<clus scale="   34.724">  1  4  2 -1</clus>
<clus scale="   36.320">  1  3  2 -1</clus>
<clus scale="  143.797">  2  6  1 -1</clus>
<clus scale="   34.724">  1  3  2 -1</clus>
</clustering>
</event>
<event>
 6    0  0.2433432E+002  0.1553150E+03  0.7546771E-02  0.1194090E+00
         21   -1    0    0  503  502  0.00000000000E+00  0.00000000000E+00  0.18639544813E+03  0.18639544813E+03  0.00000000000E+00 0. -1.
         -1   -1    0    0    0  501 -0.00000000000E+00 -0.00000000000E+00 -0.62194809603E+03  0.62194809603E+03  0.00000000000E+00 0.  1.
         21    1    1    2  503  501 -0.13464714642E+03  0.37991268018E+01  0.10128749460E+03  0.16853321324E+03  0.00000000000E+00 0. -1.
         21    1    1    2  504  505  0.12847780016E+03 -0.15837190857E+02 -0.12048964625E+03  0.17684772150E+03  0.00000000000E+00 0. -1.
         21    1    1    2  505  502 -0.54725388260E+02 -0.24861545622E+02 -0.24853616219E+02  0.65043576240E+02  0.00000000000E+00 0. -1.
         -1    1    1    2    0  504  0.60894734523E+02  0.36899609678E+02 -0.39149688003E+03  0.39791903318E+03  0.00000000000E+00 0.  1.
<scales pt_clust_3="14000.00000" pt_clust_4="155.31499" pt_clust_5="60.10794" pt_clust_6="70.04981"></scales>
<clustering>
<clus scale="   60.108">  1  5  2 -1</clus>
<clus scale="   70.050">  2  6  1 -1</clus>
<clus scale="  155.315">  2  4  1 -1</clus>
<clus scale="   60.108">  1  3  2 -1</clus>
</clustering>
</event>
<event>
 6    0  0.2433432E+002  0.1371594E+03  0.7546771E-02  0.1217203E+00
          2   -1    0    0  503    0 -0.00000000000E+00  0.00000000000E+00  0.12048709307E+04  0.12048709307E+04  0.00000000000E+00 0.  1.
         21   -1    0    0  504  502  0.00000000000E+00 -0.00000000000E+00 -0.42079052590E+03  0.42079052590E+03  0.00000000000E+00 0.  1.
         21    1    1    2  503  502  0.22331068930E+02  0.50097257921E+02 -0.15310148180E+03  0.16262987308E+03  0.00000000000E+00 0.  1.
         21    1    1    2  504  505  0.10427434858E+03 -0.38883175969E+02 -0.64853397947E+02  0.12880607272E+03  0.00000000000E+00 0. -1.
         21    1    1    2  505  501 -0.16953452613E+03  0.24506424833E+02 -0.12105077614E+03  0.20975178381E+03  0.00000000000E+00 0.  1.
          2    1    1    2  501    0  0.42929108620E+02 -0.35720506785E+02  0.11230860606E+04  0.11244737269E+04  0.00000000000E+00 0.  1.
<scales pt_clust_3="54.84899" pt_clust_4="137.15944" pt_clust_5="14000.00000" pt_clust_6="55.80770"></scales>
<clustering>
<clus scale="   54.849">  2  3  1 -1</clus>
<clus scale="   55.808">  1  6  2 -1</clus>
<clus scale="  137.159">  2  4  1 -1</clus>
<clus scale="   54.849">  2  3  1 -1</clus>
</clustering>
</event>
<event>
 6    0  0.2433432E+002  0.1482941E+03  0.7546771E-02  0.1202585E+00
         21   -1    0    0  505  502  0.00000000000E+00  0.00000000000E+00  0.66408019962E+03  0.66408019962E+03  0.00000000000E+00 0. -1.
          1   -1    0    0  504    0 -0.00000000000E+00 -0.00000000000E+00 -0.23076715380E+03  0.23076715380E+03  0.00000000000E+00 0.  1.
         21    1    1    2  503  502  0.12835272936E+03 -0.58090596039E+02  0.44536505547E+03  0.46711772940E+03  0.00000000000E+00 0. -1.
         21    1    1    2  504  503  0.37280360348E+02  0.10880009095E+02  0.63513070190E+02  0.74445348750E+02  0.00000000000E+00 0. -1.
         21    1    1    2  505  501 -0.53138522301E+02 -0.18396856994E+02  0.11177735012E+03  0.12512522887E+03  0.00000000000E+00 0. -1.
          1    1    1    2  501    0 -0.11249456741E+03  0.65607443939E+02 -0.18734242995E+03  0.22815904641E+03  0.00000000000E+00 0.  1.
<scales pt_clust_3="35.88065" pt_clust_4="35.88065" pt_clust_5="56.23297" pt_clust_6="131.60804"></scales>
<clustering>
<clus scale="   35.881">  3  4 -1 -1</clus>
<clus scale="   56.233">  1  5  2 -1</clus>
<clus scale="  131.608">  2  6  1 -1</clus>
<clus scale="   56.233">  1  3  2 -1</clus>
</clustering>
</event>
<event>
 6    0  0.2433432E+002  0.1170139E+03  0.7546771E-02  0.1248106E+00
         21   -1    0    0  503  502  0.00000000000E+00  0.00000000000E+00  0.44674038016E+03  0.44674038016E+03  0.00000000000E+00 0. -1.
          1   -1    0    0  504    0 -0.00000000000E+00 -0.00000000000E+00 -0.99154442033E+03  0.99154442033E+03  0.00000000000E+00 0.  1.
         21    1    1    2  503  501 -0.63234757538E+02  0.92394959319E+02  0.16503817975E+03  0.19943185263E+03  0.00000000000E+00 0. -1.
         21    1    1    2  504  505  0.21404499868E+02 -0.13645676697E+03  0.13132740537E+03  0.19059246908E+03  0.00000000000E+00 0. -1.
         21    1    1    2  505  502  0.65380487224E+02  0.89695733654E+01  0.92503810422E+02  0.11363105341E+03  0.00000000000E+00 0. -1.
          1    1    1    2  501    0 -0.23550229554E+02  0.35092234288E+02 -0.93367343572E+03  0.93462942538E+03  0.00000000000E+00 0.  1.
<scales pt_clust_3="14000.00000" pt_clust_4="117.01386" pt_clust_5="62.96540" pt_clust_6="42.26202"></scales>
<clustering>
<clus scale="   42.262">  2  6  1 -1</clus>
<clus scale="   62.965">  1  5  2 -1</clus>
<clus scale="  117.014">  2  4  1 -1</clus>
<clus scale="   62.965">  1  3  2 -1</clus>
</clustering>
</event>
<event>
 6    0  0.2433432E+002  0.1529236E+03  0.7546771E-02  0.1196926E+00
          1   -1    0    0  504    0 -0.00000000000E+00  0.00000000000E+00  0.30803584430E+04  0.30803584430E+04  0.00000000000E+00 0. -1.
         21   -1    0    0  505  502  0.00000000000E+00 -0.00000000000E+00 -0.29441832128E+02  0.29441832128E+02  0.00000000000E+00 0. -1.
         21    1    1    2  503  502  0.37901775297E+02 -0.73869256057E+02  0.89965416047E+02  0.12242135290E+03  0.00000000000E+00 0. -1.
         21    1    1    2  504  503 -0.93976841601E+02 -0.84855031092E+02  0.10660879199E+04  0.10735806798E+04  0.00000000000E+00 0. -1.
         21    1    1    2  505  501 -0.12244051061E+02 -0.39746237327E+02  0.12984707233E+03  0.13634493889E+03  0.00000000000E+00 0. -1.
          1    1    1    2  501    0  0.68319117365E+02  0.19847052448E+03  0.17650162026E+04  0.17774533035E+04  0.00000000000E+00 0. -1.
<scales pt_clust_3="103.05424" pt_clust_4="152.92364" pt_clust_5="41.58942" pt_clust_6="14000.00000"></scales>
<clustering>
<clus scale="   41.589">  2  5  1 -1</clus>
<clus scale="  103.054">  2  3  1 -1</clus>
<clus scale="  152.924">  1  4  2 -1</clus>
<clus scale="   41.589">  2  3  1 -1</clus>
</clustering>
</event>
<event>
 6    0  0.2433432E+002  0.1151571E+03  0.7546771E-02  0.1251307E+00
          2   -1    0    0  504    0 -0.00000000000E+00  0.00000000000E+00  0.16374575693E+04  0.16374575693E+04  0.00000000000E+00 0.  1.
         21   -1    0    0  505  502  0.00000000000E+00 -0.00000000000E+00 -0.15657275960E+03  0.15657275960E+03  0.00000000000E+00 0. -1.
         21    1    1    2  503  502  0.27292055094E+02 -0.33560536714E+02  0.19528760098E+02  0.47460914095E+02  0.00000000000E+00 0. -1.
         21    1    1    2  504  503 -0.13775568658E+03 -0.63735686288E+02  0.59362890849E+02  0.16298104093E+03  0.00000000000E+00 0. -1.
         21    1    1    2  505  501  0.10105106946E+02  0.44002106838E+02 -0.82877172419E+02  0.94376502905E+02  0.00000000000E+00 0. -1.
          2    1    1    2  501    0  0.10035852454E+03  0.53294116164E+02  0.14848703312E+04  0.14892118710E+04  0.00000000000E+00 0.  1.
<scales pt_clust_3="43.25698" pt_clust_4="14000.00000" pt_clust_5="35.61301" pt_clust_6="115.15707"></scales>
<clustering>
<clus scale="   43.257">  2  3  1 -1</clus>
<clus scale="   35.613">  2  5  1 -1</clus>
<clus scale="  115.157">  1  6  2 -1</clus>
<clus scale="   43.257">  2  3  1 -1</clus>
</clustering>
</event>
<event>
 6    0  0.2433432E+002  0.1006993E+03  0.7546771E-02  0.1278832E+00
          2   -1    0    0  505    0 -0.00000000000E+00  0.00000000000E+00  0.40339891927E+03  0.40339891927E+03  0.00000000000E+00 0.  1.
         21   -1    0    0  503  502  0.00000000000E+00 -0.00000000000E+00 -0.91784637085E+02  0.91784637085E+02  0.00000000000E+00 0.  1.
         21    1    1    2  503  501  0.93567647731E+02 -0.15201680444E+02  0.58693528178E+02  0.11149406280E+03  0.00000000000E+00 0.  1.
         21    1    1    2  504  502 -0.30672809897E+01  0.31469452525E+02  0.23064030109E+02  0.39136736448E+02  0.00000000000E+00 0.  1.
         21    1    1    2  505  504 -0.99885199816E+02  0.17183213408E+02 -0.10319755276E+02  0.10187646104E+03  0.00000000000E+00 0.  1.
          2    1    1    2  501    0  0.93848330747E+01 -0.33450985489E+02  0.24017647918E+03  0.24267629607E+03  0.00000000000E+00 0.  1.
<scales pt_clust_3="100.69927" pt_clust_4="31.61858" pt_clust_5="14000.00000" pt_clust_6="34.27806"></scales>
<clustering>
<clus scale="   31.619">  2  4  1 -1</clus>
<clus scale="   34.278">  1  6  2 -1</clus>
<clus scale="  100.699">  1  3  2 -1</clus>
<clus scale="   31.619">  2  3  1 -1</clus>
</clustering>
</event>
<event>
 6    0  0.2433432E+002  0.2614172E+03  0.7546771E-02  0.1106295E+00
         21   -1    0    0  505  502  0.00000000000E+00  0.00000000000E+00  0.75171801073E+02  0.75171801073E+02  0.00000000000E+00 0.  1.
          1   -1    0    0  504    0 -0.00000000000E+00 -0.00000000000E+00 -0.14213222468E+04  0.14213222468E+04  0.00000000000E+00 0.  1.
         21    1    1    2  503  501 -0.16834345684E+03  0.19983125179E+03 -0.55596185948E+03  0.61430093427E+03  0.00000000000E+00 0.  1.
         21    1    1    2  504  502  0.57892564346E+02 -0.53299433000E+01 -0.10136662896E+03  0.11685525563E+03  0.00000000000E+00 0.  1.
         21    1    1    2  505  503 -0.22342014471E+02  0.32856934925E+02 -0.16003918135E+02  0.42835372987E+02  0.00000000000E+00 0.  1.
          1    1    1    2  501    0  0.13279290697E+03 -0.22735824342E+03 -0.67281803916E+03  0.72250248499E+03  0.00000000000E+00 0.  1.
<scales pt_clust_3="261.41719" pt_clust_4="55.10412" pt_clust_5="39.73341" pt_clust_6="14000.00000"></scales>
<clustering>
<clus scale="   39.733">  1  5  2 -1</clus>
<clus scale="   55.104">  1  4  2 -1</clus>
<clus scale="  261.417">  1  3  2 -1</clus>
<clus scale="   39.733">  1  3  2 -1</clus>
</clustering>
</event>
<event>
 6    0  0.2433432E+002  0.1592116E+03  0.7546771E-02  0.1189590E+00
          2   -1    0    0  502    0 -0.00000000000E+00  0.00000000000E+00  0.59917472160E+03  0.59917472160E+03  0.00000000000E+00 0.  1.
         21   -1    0    0  505  502  0.00000000000E+00 -0.00000000000E+00 -0.17548645940E+03  0.17548645940E+03  0.00000000000E+00 0. -1.
         21    1    1    2  503  501  0.71683898186E+01 -0.82537606349E+02 -0.76417487959E+02  0.11270969231E+03  0.00000000000E+00 0. -1.
         21    1    1    2  504  503  0.90480361887E+01 -0.62150687919E+02  0.47112297258E+02  0.78512059714E+02  0.00000000000E+00 0.  1.
         21    1    1    2  505  504  0.61942697860E+02 -0.86210262817E+01 -0.30973231222E+02  0.69789404387E+02  0.00000000000E+00 0. -1.
          2    1    1    2  501    0 -0.78159123867E+02  0.15330932055E+03  0.48396668413E+03  0.51365002459E+03  0.00000000000E+00 0.  1.
<scales pt_clust_3="159.21162" pt_clust_4="65.43179" pt_clust_5="62.53975" pt_clust_6="14000.00000"></scales>
<clustering>
<clus scale="   62.540">  2  5  1 -1</clus>
<clus scale="   65.432">  2  4  1 -1</clus>
<clus scale="  159.212">  2  3  1 -1</clus>
<clus scale="   62.540">  2  3  1 -1</clus>
</clustering>
</event>
<event>
 6    0  0.2433432E+002  0.1873056E+03  0.7546771E-02  0.1160914E+00
          2   -1    0    0  504    0 -0.00000000000E+00  0.00000000000E+00  0.79095481649E+03  0.79095481649E+03  0.00000000000E+00 0.  1.
         21   -1    0    0  505  502  0.00000000000E+00 -0.00000000000E+00 -0.16733566970E+03  0.16733566970E+03  0.00000000000E+00 0. -1.
         21    1    1    2  503  501  0.19790201504E+03 -0.29837689331E+02  0.36927484896E+03  0.42002310572E+03  0.00000000000E+00 0. -1.
         21    1    1    2  504  502 -0.45565889299E+02  0.74060075149E+02  0.35783192634E+02  0.94029686130E+02  0.00000000000E+00 0. -1.
         21    1    1    2  505  503 -0.14397354834E+03 -0.12679230366E+02 -0.65235433511E+02  0.15857114267E+03  0.00000000000E+00 0. -1.
          2    1    1    2  501    0 -0.83625774029E+01 -0.31543155452E+02  0.28379653871E+03  0.28566655166E+03  0.00000000000E+00 0.  1.
<scales pt_clust_3="187.30561" pt_clust_4="84.12677" pt_clust_5="14000.00000" pt_clust_6="32.63286"></scales>
<clustering>
<clus scale="   32.633">  1  6  2 -1</clus>
<clus scale="   84.127">  2  4  1 -1</clus>
<clus scale="  187.306">  1  3  2 -1</clus>
<clus scale="   84.127">  2  3  1 -1</clus>
</clustering>
</event>
<event>
 6    0  0.2433432E+002  0.9050665E+02  0.7546771E-02  0.1301629E+00
         21   -1    0    0  504  502  0.00000000000E+00  0.00000000000E+00  0.67723723848E+01  0.67723723848E+01  0.00000000000E+00 0. -1.
          2   -1    0    0  505    0 -0.00000000000E+00 -0.00000000000E+00 -0.31772315693E+04  0.31772315693E+04  0.00000000000E+00 0.  1.
         21    1    1    2  503  501 -0.28804328275E+02  0.25143906488E+02 -0.25193714158E+03  0.25482195484E+03  0.00000000000E+00 0.  1.
         21    1    1    2  504  503  0.22202682253E+02  0.20519365838E+02 -0.17695429618E+03  0.17951831776E+03  0.00000000000E+00 0. -1.
         21    1    1    2  505  502  0.95351824286E+02 -0.31577163967E+02 -0.84172484621E+03  0.84769676442E+03  0.00000000000E+00 0. -1.
          2    1    1    2  501    0 -0.88750178264E+02 -0.14086108358E+02 -0.18998429129E+04  0.19019669046E+04  0.00000000000E+00 0.  1.
<scales pt_clust_3="38.21058" pt_clust_4="30.23249" pt_clust_5="14000.00000" pt_clust_6="90.50665"></scales>
<clustering>
<clus scale="   30.232">  1  4  2 -1</clus>
<clus scale="   38.211">  1  3  2 -1</clus>
<clus scale="   90.507">  2  6  1 -1</clus>
<clus scale="   30.232">  1  3  2 -1</clus>
</clustering>
</event>
<event>
 6    0  0.2433432E+002  0.9723084E+02  0.7546771E-02  0.1286229E+00
         21   -1    0    0  504  502  0.00000000000E+00  0.00000000000E+00  0.14933336936E+03  0.14933336936E+03  0.00000000000E+00 0.  1.
         -4   -1    0    0    0  501 -0.00000000000E+00 -0.00000000000E+00 -0.53873911581E+03  0.53873911581E+03  0.00000000000E+00 0. -1.
         21    1    1    2  503  502 -0.23576231857E+02 -0.61308229069E+02  0.43006108347E+02  0.78511547018E+02  0.00000000000E+00 0.  1.
         21    1    1    2  504  501  0.99174137342E+02  0.22036987321E+02 -0.31960173897E+02  0.10650160113E+03  0.00000000000E+00 0.  1.
         21    1    1    2  505  503 -0.87988069734E+02 -0.16896846895E+02  0.85778225464E+01  0.90005460335E+02  0.00000000000E+00 0.  1.
         -4    1    1    2    0  505  0.12390164248E+02  0.56168088642E+02 -0.40902950345E+03  0.41305387668E+03  0.00000000000E+00 0. -1.
<scales pt_clust_3="57.79098" pt_clust_4="14000.00000" pt_clust_5="97.23084" pt_clust_6="57.51843"></scales>
<clustering>
<clus scale="   57.518">  2  6  1 -1</clus>
<clus scale="   57.791">  1  3  2 -1</clus>
<clus scale="   97.231">  2  5  1 -1</clus>
<clus scale="   57.791">  1  3  2 -1</clus>
</clustering>
</event>
<event>
 6    0  0.2433432E+002  0.1205246E+03  0.7546771E-02  0.1242234E+00
          2   -1    0    0  504    0 -0.00000000000E+00  0.00000000000E+00  0.10217437671E+04  0.10217437671E+04  0.00000000000E+00 0. -1.
         21   -1    0    0  505  502  0.00000000000E+00 -0.00000000000E+00 -0.59104929496E+03  0.59104929496E+03  0.00000000000E+00 0. -1.
         21    1    1    2  503  501  0.47961158682E+02  0.24227954614E+02 -0.24290005415E+02  0.58968388904E+02  0.00000000000E+00 0.  1.
         21    1    1    2  504  502 -0.68034433515E+02  0.58798551376E+02 -0.46072171013E+03  0.46941500613E+03  0.00000000000E+00 0. -1.
         21    1    1    2  505  503  0.31301688649E+00  0.36277572555E+02 -0.76602714817E+02  0.84759283665E+02  0.00000000000E+00 0.  1.
          2    1    1    2  501    0  0.19760257946E+02 -0.11930407855E+03  0.99230890248E+03  0.99965038333E+03  0.00000000000E+00 0. -1.
<scales pt_clust_3="55.15302" pt_clust_4="120.52460" pt_clust_5="36.27892" pt_clust_6="14000.00000"></scales>
<clustering>
<clus scale="   36.279">  2  5  1 -1</clus>
<clus scale="   55.153">  2  3  1 -1</clus>
<clus scale="  120.525">  2  4  1 -1</clus>
<clus scale="   36.279">  2  3  1 -1</clus>
</clustering>
</event>
<event>
 6    0  0.2433432E+002  0.1105310E+03  0.7546771E-02  0.1259590E+00
         21   -1    0    0  504  502  0.00000000000E+00  0.00000000000E+00  0.65642508872E+02  0.65642508872E+02  0.00000000000E+00 0. -1.
          2   -1    0    0  503    0 -0.00000000000E+00 -0.00000000000E+00 -0.12010483285E+04  0.12010483285E+04  0.00000000000E+00 0.  1.
         21    1    1    2  503  505 -0.27554656722E+02 -0.28019473088E+02 -0.91084497840E+02  0.99200482488E+02  0.00000000000E+00 0.  1.
         21    1    1    2  504  501  0.37179667610E+01 -0.76954076513E+02 -0.83982916677E+02  0.11396878284E+03  0.00000000000E+00 0. -1.
         21    1    1    2  505  502 -0.39157854834E+02 -0.39922103122E+02  0.20859455553E+02  0.59684410015E+02  0.00000000000E+00 0. -1.
          2    1    1    2  501    0  0.62994544795E+02  0.14489565272E+03 -0.98119786062E+03  0.99383716199E+03  0.00000000000E+00 0.  1.
<scales pt_clust_3="39.29822" pt_clust_4="14000.00000" pt_clust_5="56.61041" pt_clust_6="110.53102"></scales>
<clustering>
<clus scale="   39.298">  2  3  1 -1</clus>
<clus scale="   56.610">  1  5  2 -1</clus>
<clus scale="  110.531">  2  6  1 -1</clus>
<clus scale="   56.610">  1  3  2 -1</clus>
</clustering>
</event>
<event>
 6    0  0.2433432E+002  0.1213226E+03  0.7546771E-02  0.1240931E+00
          1   -1    0    0  504    0 -0.00000000000E+00  0.00000000000E+00  0.54056049029E+03  0.54056049029E+03  0.00000000000E+00 0. -1.
         21   -1    0    0  501  502  0.00000000000E+00 -0.00000000000E+00 -0.46403487567E+03  0.46403487567E+03  0.00000000000E+00 0. -1.
         21    1    1    2  503  505  0.33974973130E+02 -0.91508454985E+02 -0.16278864233E+03  0.18981105922E+03  0.00000000000E+00 0. -1.
         21    1    1    2  504  503 -0.31546623187E+01 -0.65059819047E+02 -0.14737456645E+03  0.16112726270E+03  0.00000000000E+00 0. -1.
         21    1    1    2  505  502  0.38193435301E+01  0.47777568434E+02 -0.12264797326E+03  0.13168070768E+03  0.00000000000E+00 0. -1.
          1    1    1    2  501    0 -0.34639654341E+02  0.10879070560E+03  0.50933679667E+03  0.52197633636E+03  0.00000000000E+00 0. -1.
<scales pt_clust_3="31.56356" pt_clust_4="31.56356" pt_clust_5="47.92998" pt_clust_6="115.00517"></scales>
<clustering>
<clus scale="   31.564">  3  4 -1 -1</clus>
<clus scale="   47.930">  2  5  1 -1</clus>
<clus scale="  115.005">  1  6  2 -1</clus>
<clus scale="   47.930">  2  3  1 -1</clus>
</clustering>
</event>
<event>
 6    0  0.2433432E+002  0.9941482E+02  0.7546771E-02  0.1281531E+00
         21   -1    0    0  504  502  0.00000000000E+00  0.00000000000E+00  0.62258201413E+03  0.62258201413E+03  0.00000000000E+00 0.  1.
          2   -1    0    0  503    0 -0.00000000000E+00 -0.00000000000E+00 -0.21683977345E+04  0.21683977345E+04  0.00000000000E+00 0.  1.
         21    1    1    2  503  505  0.34790933236E+02 -0.18633778588E+02  0.62810134330E+02  0.74180453722E+02  0.00000000000E+00 0. -1.
         21    1    1    2  504  501 -0.44937850571E+02  0.10547483897E+03  0.49231802724E+02  0.12477228245E+03  0.00000000000E+00 0.  1.
         21    1    1    2  505  502  0.48371853408E+02 -0.84602100602E+02  0.46182657370E+03  0.47199696588E+03  0.00000000000E+00 0.  1.
          2    1    1    2  501    0 -0.38224936072E+02 -0.22389597784E+01 -0.21196842311E+04  0.21200300466E+04  0.00000000000E+00 0.  1.
<scales pt_clust_3="35.72108" pt_clust_4="99.41482" pt_clust_5="14000.00000" pt_clust_6="38.29045"></scales>
<clustering>
<clus scale="   38.290">  2  6  1 -1</clus>
<clus scale="   35.721">  2  3  1 -1</clus>
<clus scale="   99.415">  2  4  1 -1</clus>
<clus scale="   99.415">  1  3  2 -1</clus>
</clustering>
</event>
<event>
 6    0  0.2433432E+002  0.2247670E+03  0.7546771E-02  0.1130378E+00
         -1   -1    0    0    0  501 -0.00000000000E+00  0.00000000000E+00  0.33164716257E+04  0.33164716257E+04  0.00000000000E+00 0.  1.
         21   -1    0    0  503  502  0.00000000000E+00 -0.00000000000E+00 -0.18745218337E+02  0.18745218337E+02  0.00000000000E+00 0.  1.
         21    1    1    2  503  501  0.12841094226E+02 -0.31471503062E+02  0.57227058645E+03  0.57327914084E+03  0.00000000000E+00 0.  1.
         21    1    1    2  504  505  0.27127916735E+02  0.66201878253E+02  0.22784256629E+03  0.23881132210E+03  0.00000000000E+00 0.  1.
         21    1    1    2  505  502  0.84907693160E+02  0.12578119548E+03  0.91485630989E+03  0.92735769433E+03  0.00000000000E+00 0.  1.
         -1    1    1    2    0  504 -0.12487670412E+03 -0.16051157067E+03  0.15827569447E+04  0.15957686868E+04  0.00000000000E+00 0.  1.
<scales pt_clust_3="33.99043" pt_clust_4="47.75074" pt_clust_5="47.75074" pt_clust_6="213.86966"></scales>
<clustering>
<clus scale="   33.990">  1  3  2 -1</clus>
<clus scale="   47.751">  4  5 -1 -1</clus>
<clus scale="  213.870">  1  6  2 -1</clus>
<clus scale="  224.767">  2  3  1 -1</clus>
</clustering>
</event>
<event>
 6    0  0.2433432E+002  0.7547470E+02  0.7546771E-02  0.1342407E+00
         21   -1    0    0  504  502  0.00000000000E+00  0.00000000000E+00  0.75821002587E+02  0.75821002587E+02  0.00000000000E+00 0.  1.
          3   -1    0    0  503    0 -0.00000000000E+00 -0.00000000000E+00 -0.30508612597E+03  0.30508612597E+03  0.00000000000E+00 0. -1.
         21    1    1    2  503  505 -0.31614925112E+02 -0.53236225423E+02 -0.22236980480E+02  0.65788163738E+02  0.00000000000E+00 0.  1.
         21    1    1    2  504  501  0.46213790312E+02 -0.31337482520E+02 -0.96702713976E+01  0.56668036622E+02  0.00000000000E+00 0.  1.
         21    1    1    2  505  502 -0.58126811728E+02  0.16296629776E+02 -0.20187365244E+02  0.63654034430E+02  0.00000000000E+00 0. -1.
          3    1    1    2  501    0  0.43527946529E+02  0.68277078167E+02 -0.17717050627E+03  0.19479689377E+03  0.00000000000E+00 0. -1.
<scales pt_clust_3="14000.00000" pt_clust_4="55.83684" pt_clust_5="39.06864" pt_clust_6="75.47470"></scales>
<clustering>
<clus scale="   55.837">  1  4  2 -1</clus>
<clus scale="   39.069">  1  5  2 -1</clus>
<clus scale="   75.475">  2  6  1 -1</clus>
<clus scale="   55.837">  1  3  2 -1</clus>
</clustering>
</event>
<event>
 6    0  0.2433432E+002  0.1165847E+03  0.7546771E-02  0.1248840E+00
         21   -1    0    0  504  502  0.00000000000E+00  0.00000000000E+00  0.22240928500E+03  0.22240928500E+03  0.00000000000E+00 0.  1.
          2   -1    0    0  505    0 -0.00000000000E+00 -0.00000000000E+00 -0.27697726801E+03  0.27697726801E+03  0.00000000000E+00 0.  1.
         21    1    1    2  503  502 -0.14006727460E+02  0.62828959190E+02 -0.14118251279E+02  0.65901377423E+02  0.00000000000E+00 0. -1.
         21    1    1    2  504  501  0.69985967288E+02 -0.82665558931E+02  0.13530836499E+03  0.17332046586E+03  0.00000000000E+00 0.  1.
         21    1    1    2  505  503 -0.24272110589E+02  0.43553119704E+02  0.24833838375E+02  0.55702146430E+02  0.00000000000E+00 0.  1.
          2    1    1    2  501    0 -0.31707129239E+02 -0.23716519963E+02 -0.20059193509E+03  0.20446256329E+03  0.00000000000E+00 0.  1.
<scales pt_clust_3="38.26315" pt_clust_4="108.17493" pt_clust_5="38.26315" pt_clust_6="39.59565"></scales>
<clustering>
<clus scale="   38.263">  3  5 -1 -1</clus>
<clus scale="   39.596">  2  6  1 -1</clus>
<clus scale="  108.175">  1  4  2 -1</clus>
<clus scale="  108.175">  1  3  2 -1</clus>
</clustering>
</event>
<event>
 6    0  0.2433432E+002  0.1021712E+03  0.7546771E-02  0.1275795E+00
         21   -1    0    0  503  502  0.00000000000E+00  0.00000000000E+00  0.64082674037E+03  0.64082674037E+03  0.00000000000E+00 0.  1.
          2   -1    0    0  505    0 -0.00000000000E+00 -0.00000000000E+00 -0.52713367960E+03  0.52713367960E+03  0.00000000000E+00 0.  1.
         21    1    1    2  503  504  0.31265427719E+02 -0.29088135877E+01  0.60833479602E+03  0.60914465624E+03  0.00000000000E+00 0.  1.
         21    1    1    2  504  501 -0.12290540547E+02 -0.31792577467E+02 -0.48155897270E+02  0.58998439055E+02  0.00000000000E+00 0.  1.
         21    1    1    2  505  502  0.87314881965E+02  0.51990097485E+01 -0.85352569025E+02  0.12221284447E+03  0.00000000000E+00 0.  1.
          2    1    1    2  501    0 -0.10628976914E+03  0.29502381306E+02 -0.36113326896E+03  0.37760448021E+03  0.00000000000E+00 0.  1.
<scales pt_clust_3="31.40045" pt_clust_4="33.03592" pt_clust_5="14000.00000" pt_clust_6="102.17119"></scales>
<clustering>
<clus scale="   31.400">  1  3  2 -1</clus>
<clus scale="   33.036">  1  4  2 -1</clus>
<clus scale="  102.171">  2  6  1 -1</clus>
<clus scale="   31.400">  1  3  2 -1</clus>
</clustering>
</event>
<event>
 6    0  0.2433432E+002  0.1441155E+03  0.7546771E-02  0.1207896E+00
         21   -1    0    0  504  502  0.00000000000E+00  0.00000000000E+00  0.58952589161E+03  0.58952589161E+03  0.00000000000E+00 0. -1.
          1   -1    0    0  503    0 -0.00000000000E+00 -0.00000000000E+00 -0.13027645141E+04  0.13027645141E+04  0.00000000000E+00 0.  1.
         21    1    1    2  503  502 -0.89171556279E+02 -0.10757111384E+03  0.50339551562E+03  0.52242717782E+03  0.00000000000E+00 0. -1.
         21    1    1    2  504  505  0.19223356449E+01  0.45747321506E+02  0.38152965626E+01  0.45946374037E+02  0.00000000000E+00 0.  1.
         21    1    1    2  505  501  0.58950439730E+02  0.44014584143E+02  0.25240191629E+02  0.77778565396E+02  0.00000000000E+00 0.  1.
          1    1    1    2  501    0  0.28298780905E+02  0.17809208190E+02 -0.12456896263E+04  0.12461382884E+04  0.00000000000E+00 0.  1.
<scales pt_clust_3="134.41852" pt_clust_4="40.41040" pt_clust_5="40.41040" pt_clust_6="33.43634"></scales>
<clustering>
<clus scale="   33.436">  2  6  1 -1</clus>
<clus scale="   40.410">  4  5 -1 -1</clus>
<clus scale="  134.419">  1  3  2 -1</clus>
<clus scale="  134.419">  1  3  2 -1</clus>
</clustering>
</event>
<event>
 6    0  0.2433432E+002  0.1192543E+03  0.7546771E-02  0.1244332E+00
         21   -1    0    0  504  502  0.00000000000E+00  0.00000000000E+00  0.65160968335E+03  0.65160968335E+03  0.00000000000E+00 0. -1.
          2   -1    0    0  503    0 -0.00000000000E+00 -0.00000000000E+00 -0.17778801827E+04  0.17778801827E+04  0.00000000000E+00 0.  1.
         21    1    1    2  503  502  0.18789949837E+02  0.42583496759E+02  0.15813645090E+01  0.46571634337E+02  0.00000000000E+00 0. -1.
         21    1    1    2  504  505  0.11755017505E+03 -0.51125454357E+02  0.48418029482E+03  0.50086167116E+03  0.00000000000E+00 0. -1.
         21    1    1    2  505  501 -0.10028595404E+03  0.15019680834E+02  0.11575002557E+03  0.15388610012E+03  0.00000000000E+00 0. -1.
          2    1    1    2  501    0 -0.36054170847E+02 -0.64777232359E+01 -0.17277821842E+04  0.17281704604E+04  0.00000000000E+00 0.  1.
<scales pt_clust_3="39.74464" pt_clust_4="14000.00000" pt_clust_5="119.25429" pt_clust_6="36.63146"></scales>
<clustering>
<clus scale="   36.631">  2  6  1 -1</clus>
<clus scale="   39.745">  2  3  1 -1</clus>
<clus scale="  119.254">  2  5  1 -1</clus>
<clus scale="  119.254">  1  3  2 -1</clus>
</clustering>
</event>
<event>
 6    0  0.3136486E+002  0.1372012E+03  0.7546771E-02  0.1217145E+00
         21   -1    0    0  503  502  0.00000000000E+00  0.00000000000E+00  0.51937562157E+03  0.51937562157E+03  0.00000000000E+00 0.  1.
          2   -1    0    0  505    0 -0.00000000000E+00 -0.00000000000E+00 -0.45467197208E+04  0.45467197208E+04  0.00000000000E+00 0. -1.
         21    1    1    2  503  501  0.82507258094E+02  0.96552881542E+02  0.43545864649E+03  0.45360130002E+03  0.00000000000E+00 0.  1.
         21    1    1    2  504  502 -0.17753297142E+01 -0.64151225522E+02 -0.13784313377E+02  0.65639460897E+02  0.00000000000E+00 0. -1.
         21    1    1    2  505  504 -0.56962166302E+02 -0.88634592181E+02 -0.82676003655E+01  0.10568411677E+03  0.00000000000E+00 0. -1.
          2    1    1    2  501    0 -0.23769762078E+02  0.56232936161E+02 -0.44407508320E+04  0.44411704647E+04  0.00000000000E+00 0. -1.
<scales pt_clust_3="129.43067" pt_clust_4="35.52464" pt_clust_5="35.52464" pt_clust_6="61.05035"></scales>
<clustering>
<clus scale="   35.525">  4  5 -1 -1</clus>
<clus scale="   61.050">  2  6  1 -1</clus>
<clus scale="  129.431">  1  3  2 -1</clus>
<clus scale="  129.431">  1  3  2 -1</clus>
</clustering>
</event>
<event>
 6    0  0.2433432E+002  0.1100539E+03  0.7546771E-02  0.1260470E+00
         21   -1    0    0  503  502  0.00000000000E+00  0.00000000000E+00  0.64578792427E+03  0.64578792427E+03  0.00000000000E+00 0. -1.
          2   -1    0    0  505    0 -0.00000000000E+00 -0.00000000000E+00 -0.20197692273E+04  0.20197692273E+04  0.00000000000E+00 0.  1.
         21    1    1    2  503  501  0.10488891401E+03  0.15684252201E+02  0.80162674692E+02  0.13294259837E+03  0.00000000000E+00 0. -1.
         21    1    1    2  504  502  0.68811090789E+01  0.91869203936E+02  0.43553654854E+03  0.44517343295E+03  0.00000000000E+00 0. -1.
         21    1    1    2  505  504 -0.23194134958E+01 -0.12007456600E+03  0.60276526559E+02  0.13437462831E+03  0.00000000000E+00 0. -1.
          2    1    1    2  501    0 -0.10945060959E+03  0.12521109861E+02 -0.19499570529E+04  0.19530664920E+04  0.00000000000E+00 0.  1.
<scales pt_clust_3="14000.00000" pt_clust_4="92.12655" pt_clust_5="76.55654" pt_clust_6="110.05392"></scales>
<clustering>
<clus scale="   92.127">  1  4  2 -1</clus>
<clus scale="   76.557">  1  5  2 -1</clus>
<clus scale="  110.054">  2  6  1 -1</clus>
<clus scale="   92.127">  1  3  2 -1</clus>
</clustering>
</event>
<event>
 6    0  0.2433432E+002  0.1511028E+03  0.7546771E-02  0.1199124E+00
         21   -1    0    0  504  502  0.00000000000E+00  0.00000000000E+00  0.56041847020E+03  0.56041847020E+03  0.00000000000E+00 0. -1.
         -3   -1    0    0    0  501 -0.00000000000E+00 -0.00000000000E+00 -0.12411796486E+04  0.12411796486E+04  0.00000000000E+00 0. -1.
         21    1    1    2  503  502 -0.26175426939E+02  0.94742844750E+02 -0.24331369603E+02  0.10125895098E+03  0.00000000000E+00 0. -1.
         21    1    1    2  504  505  0.21331160709E+02 -0.39247996439E+02  0.39017545110E+03  0.39272421148E+03  0.00000000000E+00 0. -1.
         21    1    1    2  505  501 -0.13554900447E+03  0.30049047301E+01  0.88796126385E+02  0.16207194120E+03  0.00000000000E+00 0. -1.
         -3    1    1    2    0  503  0.14039327070E+03 -0.58499753041E+02 -0.11354013862E+04  0.11455430151E+04  0.00000000000E+00 0. -1.
<scales pt_clust_3="88.41732" pt_clust_4="44.67017" pt_clust_5="151.10275" pt_clust_6="14000.00000"></scales>
<clustering>
<clus scale="   44.670">  1  4  2 -1</clus>
<clus scale="   88.417">  1  3  2 -1</clus>
<clus scale="  151.103">  1  5  2 -1</clus>
<clus scale="   44.670">  1  3  2 -1</clus>
</clustering>
</event>
<event>
 6    0  0.2433432E+002  0.1082928E+03  0.7546771E-02  0.1263764E+00
          1   -1    0    0  505    0 -0.00000000000E+00  0.00000000000E+00  0.90751874069E+03  0.90751874069E+03  0.00000000000E+00 0. -1.
         21   -1    0    0  504  502  0.00000000000E+00 -0.00000000000E+00 -0.74025076412E+03  0.74025076412E+03  0.00000000000E+00 0.  1.
         21    1    1    2  503  501  0.38097046925E+02  0.51280832138E+02 -0.24281168202E+03  0.25107493235E+03  0.00000000000E+00 0.  1.
         21    1    1    2  504  503  0.69205947677E+02  0.27917038958E+02 -0.22625211273E+03  0.23824114417E+03  0.00000000000E+00 0.  1.
         21    1    1    2  505  502 -0.19758398031E+02 -0.30180611417E+02 -0.25699276081E+03  0.25951212439E+03  0.00000000000E+00 0.  1.
          1    1    1    2  501    0 -0.87544596570E+02 -0.49017259678E+02  0.89332453214E+03  0.89894130390E+03  0.00000000000E+00 0. -1.
<scales pt_clust_3="34.72810" pt_clust_4="34.72810" pt_clust_5="36.07303" pt_clust_6="100.51959"></scales>
<clustering>
<clus scale="   36.073">  2  5  1 -1</clus>
<clus scale="   34.728">  3  4 -1 -1</clus>
<clus scale="  100.520">  1  6  2 -1</clus>
<clus scale="   36.073">  2  3  1 -1</clus>
</clustering>
</event>
<event>
 6    0  0.2433432E+002  0.8159890E+02  0.7546771E-02  0.1324574E+00
         21   -1    0    0  505  502  0.00000000000E+00  0.00000000000E+00  0.10673770786E+02  0.10673770786E+02  0.00000000000E+00 0. -1.
          1   -1    0    0  504    0 -0.00000000000E+00 -0.00000000000E+00 -0.37277270039E+04  0.37277270039E+04  0.00000000000E+00 0. -1.
         21    1    1    2  503  502 -0.61552408708E+02 -0.25340035919E+02 -0.14522250075E+04  0.14537497339E+04  0.00000000000E+00 0. -1.
         21    1    1    2  504  503  0.39568348375E+01  0.31221330953E+02 -0.13308735692E+04  0.13312456142E+04  0.00000000000E+00 0. -1.
         21    1    1    2  505  501  0.51902773708E+02 -0.74831211175E+02 -0.25200734522E+03  0.26795766481E+03  0.00000000000E+00 0. -1.
          1    1    1    2  501    0  0.56928001617E+01  0.68949916141E+02 -0.68194731115E+03  0.68544776175E+03  0.00000000000E+00 0. -1.
<scales pt_clust_3="59.50007" pt_clust_4="31.47107" pt_clust_5="81.59890" pt_clust_6="14000.00000"></scales>
<clustering>
<clus scale="   31.471">  2  4  1 -1</clus>
<clus scale="   59.500">  2  3  1 -1</clus>
<clus scale="   81.599">  1  5  2 -1</clus>
<clus scale="   81.599">  1  3  2 -1</clus>
</clustering>
</event>
<event>
 6    0  0.2433432E+002  0.1225915E+03  0.7546771E-02  0.1238882E+00
         21   -1    0    0  503  502  0.00000000000E+00  0.00000000000E+00  0.68177038662E+02  0.68177038662E+02  0.00000000000E+00 0. -1.
          2   -1    0    0  504    0 -0.00000000000E+00 -0.00000000000E+00 -0.10649488036E+04  0.10649488036E+04  0.00000000000E+00 0. -1.
         21    1    1    2  503  501  0.10108194550E+02 -0.30491463900E+02  0.24676982285E+02  0.40507510692E+02  0.00000000000E+00 0. -1.
         21    1    1    2  504  505 -0.38827109493E+02 -0.18467309488E+01 -0.10728181806E+03  0.11410671905E+03  0.00000000000E+00 0. -1.
         21    1    1    2  505  502 -0.73736933152E+02  0.12204458971E+03 -0.16952041283E+03  0.22151565984E+03  0.00000000000E+00 0. -1.
          2    1    1    2  501    0  0.10245584809E+03 -0.89706394857E+02 -0.74464651631E+03  0.75699595265E+03  0.00000000000E+00 0. -1.
<scales pt_clust_3="32.12328" pt_clust_4="38.15719" pt_clust_5="14000.00000" pt_clust_6="122.59151"></scales>
<clustering>
<clus scale="   32.123">  1  3  2 -1</clus>
<clus scale="   38.157">  2  4  1 -1</clus>
<clus scale="  122.592">  2  6  1 -1</clus>
<clus scale="   32.123">  1  3  2 -1</clus>
</clustering>
</event>
<event>
 6    0  0.2433432E+002  0.7655841E+02  0.7546771E-02  0.1339112E+00
         -1   -1    0    0    0  501 -0.00000000000E+00  0.00000000000E+00  0.64255369459E+03  0.64255369459E+03  0.00000000000E+00 0.  1.
         21   -1    0    0  503  502  0.00000000000E+00 -0.00000000000E+00 -0.38660543166E+03  0.38660543166E+03  0.00000000000E+00 0.  1.
         21    1    1    2  503  505 -0.60230343372E+02 -0.93859198408E+01 -0.52988360041E+02  0.80768533810E+02  0.00000000000E+00 0.  1.
         21    1    1    2  504  502  0.31278142636E+02 -0.13020875280E+03 -0.26971550658E+03  0.30112969964E+03  0.00000000000E+00 0.  1.
         21    1    1    2  505  501  0.42013561591E+02  0.64677163352E+02  0.15085587405E+02  0.78586574962E+02  0.00000000000E+00 0. -1.
         -1    1    1    2    0  504 -0.13061360855E+02  0.74917509293E+02  0.56356654215E+03  0.56867431784E+03  0.00000000000E+00 0.  1.
<scales pt_clust_3="60.95728" pt_clust_4="14000.00000" pt_clust_5="73.22411" pt_clust_6="76.55841"></scales>
<clustering>
<clus scale="   60.957">  2  3  1 -1</clus>
<clus scale="   73.224">  2  5  1 -1</clus>
<clus scale="   76.558">  1  6  2 -1</clus>
<clus scale="   60.957">  2  3  1 -1</clus>
</clustering>
</event>
<event>
 6    0  0.2433432E+002  0.1762320E+03  0.7546771E-02  0.1171500E+00
         -4   -1    0    0    0  501 -0.00000000000E+00  0.00000000000E+00  0.44705608478E+02  0.44705608478E+02  0.00000000000E+00 0. -1.
         21   -1    0    0  504  502  0.00000000000E+00 -0.00000000000E+00 -0.24449324368E+04  0.24449324368E+04  0.00000000000E+00 0.  1.
         21    1    1    2  503  502  0.36436863977E+02  0.59006897910E+01 -0.27546179388E+03  0.27792384404E+03  0.00000000000E+00 0.  1.
         21    1    1    2  504  501 -0.62741942058E+02 -0.16217058883E+03 -0.10164599180E+04  0.10312257833E+04  0.00000000000E+00 0. -1.
         21    1    1    2  505  503  0.52945297429E+02  0.17139065816E+03 -0.11292315552E+04  0.11433905140E+04  0.00000000000E+00 0.  1.
         -4    1    1    2    0  505 -0.26640219348E+02 -0.15120759121E+02  0.20926438736E+02  0.37097904004E+02  0.00000000000E+00 0. -1.
<scales pt_clust_3="34.66921" pt_clust_4="14000.00000" pt_clust_5="176.23205" pt_clust_6="30.63231"></scales>
<clustering>
<clus scale="   30.632">  1  6  2 -1</clus>
<clus scale="   34.669">  2  3  1 -1</clus>
<clus scale="  176.232">  1  5  2 -1</clus>
<clus scale="   34.669">  2  3  1 -1</clus>
</clustering>
</event>
<event>
 6    0  0.2433432E+002  0.2543331E+03  0.7546771E-02  0.1110597E+00
         21   -1    0    0  505  502  0.00000000000E+00  0.00000000000E+00  0.12424625639E+04  0.12424625639E+04  0.00000000000E+00 0. -1.
          2   -1    0    0  504    0 -0.00000000000E+00 -0.00000000000E+00 -0.11097491707E+04  0.11097491707E+04  0.00000000000E+00 0.  1.
         21    1    1    2  503  502  0.29924576894E+02  0.61449382602E+01  0.15250833806E+03  0.15553788525E+03  0.00000000000E+00 0. -1.
         21    1    1    2  504  503  0.67155064512E+02 -0.29120394263E+03  0.40898162227E+03  0.50653282840E+03  0.00000000000E+00 0. -1.
         21    1    1    2  505  501 -0.81783152962E+02  0.22090261888E+03  0.60760272143E+03  0.65166518875E+03  0.00000000000E+00 0. -1.
          2    1    1    2  501    0 -0.15296488444E+02  0.64156385485E+02 -0.10363792885E+04  0.10384758322E+04  0.00000000000E+00 0.  1.
<scales pt_clust_3="30.54899" pt_clust_4="254.33306" pt_clust_5="14000.00000" pt_clust_6="65.95379"></scales>
<clustering>
<clus scale="   30.549">  1  3  2 -1</clus>
<clus scale="   65.954">  2  6  1 -1</clus>
<clus scale="  254.333">  2  4  1 -1</clus>
<clus scale="   30.549">  1  3  2 -1</clus>
</clustering>
</event>
<event>
 6    0  0.2433432E+002  0.1818435E+03  0.7546771E-02  0.1166031E+00
          1   -1    0    0  503    0 -0.00000000000E+00  0.00000000000E+00  0.95984917196E+03  0.95984917196E+03  0.00000000000E+00 0. -1.
         21   -1    0    0  501  502  0.00000000000E+00 -0.00000000000E+00 -0.19357036167E+03  0.19357036167E+03  0.00000000000E+00 0. -1.
         21    1    1    2  503  504 -0.13568820298E+03  0.97888098059E+02  0.38091425409E+02  0.17159348723E+03  0.00000000000E+00 0. -1.
         21    1    1    2  504  505  0.60351956791E+02  0.56643643233E+02 -0.15242478889E+02  0.84161714395E+02  0.00000000000E+00 0. -1.
         21    1    1    2  505  502 -0.41865214952E+02 -0.11517992065E+02 -0.59533953814E+02  0.73686172522E+02  0.00000000000E+00 0.  1.
          1    1    1    2  501    0  0.11720146114E+03 -0.14301374923E+03  0.80296381759E+03  0.82397815949E+03  0.00000000000E+00 0. -1.
<scales pt_clust_3="181.84349" pt_clust_4="68.19629" pt_clust_5="43.42074" pt_clust_6="14000.00000"></scales>
<clustering>
<clus scale="   43.421">  2  5  1 -1</clus>
<clus scale="   68.196">  2  4  1 -1</clus>
<clus scale="  181.843">  2  3  1 -1</clus>
<clus scale="   43.421">  2  3  1 -1</clus>
</clustering>
</event>
<event>
 6    0  0.2433432E+002  0.1061356E+03  0.7546771E-02  0.1267898E+00
          3   -1    0    0  505    0 -0.00000000000E+00  0.00000000000E+00  0.19806068516E+04  0.19806068516E+04  0.00000000000E+00 0.  1.
         21   -1    0    0  504  502  0.00000000000E+00 -0.00000000000E+00 -0.17082445014E+03  0.17082445014E+03  0.00000000000E+00 0.  1.
         21    1    1    2  503  502  0.32259857702E+02  0.26906488765E+02 -0.16699802446E+02  0.45205541235E+02  0.00000000000E+00 0.  1.
         21    1    1    2  504  501 -0.50472132810E+02  0.37462896573E+02 -0.44313718313E+02  0.76906504541E+02  0.00000000000E+00 0.  1.
         21    1    1    2  505  503  0.96314539795E+01  0.42649712756E+02 -0.71634419454E+02  0.83924090430E+02  0.00000000000E+00 0.  1.
          3    1    1    2  501    0  0.85808211290E+01 -0.10701909810E+03  0.19424303417E+04  0.19453951656E+04  0.00000000000E+00 0.  1.
<scales pt_clust_3="42.00783" pt_clust_4="61.19424" pt_clust_5="106.13557" pt_clust_6="14000.00000"></scales>
<clustering>
<clus scale="   42.008">  2  3  1 -1</clus>
<clus scale="   61.194">  2  4  1 -1</clus>
<clus scale="  106.136">  2  5  1 -1</clus>
<clus scale="   42.008">  2  3  1 -1</clus>
</clustering>
</event>
<event>
 6    0  0.2433432E+002  0.2357033E+03  0.7546771E-02  0.1122689E+00
         21   -1    0    0  503  502  0.00000000000E+00  0.00000000000E+00  0.90185643433E+02  0.90185643433E+02  0.00000000000E+00 0.  1.
          2   -1    0    0  505    0 -0.00000000000E+00 -0.00000000000E+00 -0.28462344389E+04  0.28462344389E+04  0.00000000000E+00 0. -1.
         21    1    1    2  503  504  0.63605139346E+02 -0.98008223258E+01  0.54936542119E+02  0.84614972254E+02  0.00000000000E+00 0.  1.
         21    1    1    2  504  501 -0.35277632404E+02 -0.60825673099E+02 -0.27909654669E+03  0.28781792201E+03  0.00000000000E+00 0. -1.
         21    1    1    2  505  502 -0.32355368770E+02  0.23128507881E+03 -0.17694625947E+04  0.17848074214E+04  0.00000000000E+00 0. -1.
          2    1    1    2  501    0  0.40278618280E+01 -0.16065858339E+03 -0.76242619629E+03  0.77917976673E+03  0.00000000000E+00 0. -1.
<scales pt_clust_3="64.35581" pt_clust_4="40.14060" pt_clust_5="227.75741" pt_clust_6="40.14060"></scales>
<clustering>
<clus scale="   40.141">  4  6 -1 -1</clus>
<clus scale="   64.356">  1  3  2 -1</clus>
<clus scale="  227.757">  2  5  1 -1</clus>
<clus scale="   64.356">  1  3  2 -1</clus>
</clustering>
</event>
<event>
 6    0  0.2433432E+002  0.1057091E+03  0.7546771E-02  0.1268729E+00
          2   -1    0    0  502    0 -0.00000000000E+00  0.00000000000E+00  0.87983826225E+03  0.87983826225E+03  0.00000000000E+00 0.  1.
         21   -1    0    0  504  502  0.00000000000E+00 -0.00000000000E+00 -0.97155609118E+02  0.97155609118E+02  0.00000000000E+00 0.  1.
         21    1    1    2  503  501  0.15855712885E+02  0.92416387748E+02  0.17094332356E+03  0.19497131129E+03  0.00000000000E+00 0.  1.
         21    1    1    2  504  505  0.89226241924E+01 -0.39116416379E+02 -0.55564640429E+02  0.68535658739E+02  0.00000000000E+00 0.  1.
         21    1    1    2  505  503  0.43737621874E+02  0.37807654520E+02  0.28252313938E+02  0.64347428468E+02  0.00000000000E+00 0.  1.
          2    1    1    2  501    0 -0.68515958952E+02 -0.91107625889E+02  0.63905165606E+03  0.64913947287E+03  0.00000000000E+00 0.  1.
<scales pt_clust_3="105.70905" pt_clust_4="40.12116" pt_clust_5="51.46357" pt_clust_6="14000.00000"></scales>
<clustering>
<clus scale="   40.121">  2  4  1 -1</clus>
<clus scale="   51.464">  2  5  1 -1</clus>
<clus scale="  105.709">  2  3  1 -1</clus>
<clus scale="   40.121">  2  3  1 -1</clus>
</clustering>
</event>
<event>
 6    0  0.2433432E+002  0.7876453E+02  0.7546771E-02  0.1332595E+00
          1   -1    0    0  503    0 -0.00000000000E+00  0.00000000000E+00  0.67684159250E+03  0.67684159250E+03  0.00000000000E+00 0. -1.
         21   -1    0    0  504  502  0.00000000000E+00 -0.00000000000E+00 -0.15996948985E+03  0.15996948985E+03  0.00000000000E+00 0. -1.
         21    1    1    2  503  502  0.92937741033E+02  0.26589676502E+02  0.31968647604E+03  0.33398185215E+03  0.00000000000E+00 0. -1.
         21    1    1    2  504  505  0.22145889083E+02 -0.40740793067E+02 -0.97512316382E+02  0.10797640700E+03  0.00000000000E+00 0. -1.
         21    1    1    2  505  501 -0.95643212093E+02  0.39213995736E+02  0.50711322323E+01  0.10349433735E+03  0.00000000000E+00 0. -1.
          1    1    1    2  501    0 -0.19440418023E+02 -0.25062879171E+02  0.28962681077E+03  0.29135848586E+03  0.00000000000E+00 0. -1.
<scales pt_clust_3="14000.00000" pt_clust_4="46.54495" pt_clust_5="78.76453" pt_clust_6="31.71873"></scales>
<clustering>
<clus scale="   31.719">  1  6  2 -1</clus>
<clus scale="   46.545">  2  4  1 -1</clus>
<clus scale="   78.765">  2  5  1 -1</clus>
<clus scale="   46.545">  2  3  1 -1</clus>
</clustering>
</event>
<event>
 6    0  0.2433432E+002  0.2392637E+03  0.7546771E-02  0.1120284E+00
          2   -1    0    0  505    0 -0.00000000000E+00  0.00000000000E+00  0.15747593634E+03  0.15747593634E+03  0.00000000000E+00 0.  1.
         21   -1    0    0  504  502  0.00000000000E+00 -0.00000000000E+00 -0.93086253107E+03  0.93086253107E+03  0.00000000000E+00 0. -1.
         21    1    1    2  503  502  0.19299315244E+03 -0.36975563104E+02 -0.33956100787E+03  0.39232031202E+03  0.00000000000E+00 0. -1.
         21    1    1    2  504  501 -0.63864555266E+01  0.60515764786E+02 -0.36171384933E+03  0.36679674672E+03  0.00000000000E+00 0. -1.
         21    1    1    2  505  503  0.23265827035E+02 -0.56487539045E+02 -0.97715770395E+02  0.11524110620E+03  0.00000000000E+00 0. -1.
          2    1    1    2  501    0 -0.20987252395E+03  0.32947337363E+02  0.25604032870E+02  0.21398030247E+03  0.00000000000E+00 0.  1.
<scales pt_clust_3="58.22423" pt_clust_4="60.85182" pt_clust_5="58.22423" pt_clust_6="215.27382"></scales>
<clustering>
<clus scale="   58.224">  3  5 -1 -1</clus>
<clus scale="   60.852">  2  4  1 -1</clus>
<clus scale="  215.274">  1  6  2 -1</clus>
<clus scale="   60.852">  2  3  1 -1</clus>
</clustering>
</event>
<event>
 6    0  0.2433432E+002  0.1186050E+03  0.7546771E-02  0.1245416E+00
          1   -1    0    0  503    0 -0.00000000000E+00  0.00000000000E+00  0.11065092235E+04  0.11065092235E+04  0.00000000000E+00 0.  1.
         21   -1    0    0  504  502  0.00000000000E+00 -0.00000000000E+00 -0.16658981010E+03  0.16658981010E+03  0.00000000000E+00 0. -1.
         21    1    1    2  503  502 -0.94649025764E+02 -0.12832472516E+03 -0.53234671777E+02  0.16810592924E+03  0.00000000000E+00 0. -1.
         21    1    1    2  504  505  0.67338657499E+02 -0.17140413969E+02  0.23633615351E+02  0.73395070402E+02  0.00000000000E+00 0. -1.
         21    1    1    2  505  501 -0.48264262448E+02  0.55780981378E+02  0.22179843023E+02  0.77025335765E+02  0.00000000000E+00 0. -1.
          1    1    1    2  501    0  0.75574630713E+02  0.89684157755E+02  0.94734062679E+03  0.95457269819E+03  0.00000000000E+00 0.  1.
<scales pt_clust_3="118.60501" pt_clust_4="69.48589" pt_clust_5="63.19700" pt_clust_6="14000.00000"></scales>
<clustering>
<clus scale="   69.486">  2  4  1 -1</clus>
<clus scale="   63.197">  2  5  1 -1</clus>
<clus scale="  118.605">  2  3  1 -1</clus>
<clus scale="   69.486">  2  3  1 -1</clus>
</clustering>
</event>
<event>
 6    0  0.2433432E+002  0.8865222E+02  0.7546771E-02  0.1306149E+00
          2   -1    0    0  503    0 -0.00000000000E+00  0.00000000000E+00  0.32785892473E+04  0.32785892473E+04  0.00000000000E+00 0. -1.
         21   -1    0    0  504  502  0.00000000000E+00 -0.00000000000E+00 -0.13771054925E+02  0.13771054925E+02  0.00000000000E+00 0. -1.
         21    1    1    2  503  505  0.46669888866E+02  0.19577142869E+02  0.51894650390E+03  0.52140849337E+03  0.00000000000E+00 0.  1.
         21    1    1    2  504  501 -0.56250755969E+02 -0.13793656147E+02  0.83620272129E+02  0.10171903661E+03  0.00000000000E+00 0. -1.
         21    1    1    2  505  502 -0.57492891757E+02  0.42795137712E+02  0.47147411810E+03  0.47689065880E+03  0.00000000000E+00 0. -1.
          2    1    1    2  501    0  0.67073758860E+02 -0.48578624435E+02  0.21907772982E+04  0.21923421134E+04  0.00000000000E+00 0. -1.
<scales pt_clust_3="50.60971" pt_clust_4="56.23850" pt_clust_5="88.65222" pt_clust_6="14000.00000"></scales>
<clustering>
<clus scale="   50.610">  1  3  2 -1</clus>
<clus scale="   56.239">  2  4  1 -1</clus>
<clus scale="   88.652">  2  5  1 -1</clus>
<clus scale="   56.239">  2  3  1 -1</clus>
</clustering>
</event>
<event>
 6    0  0.2433432E+002  0.2555477E+03  0.7546771E-02  0.1109848E+00
         21   -1    0    0  501  502  0.00000000000E+00  0.00000000000E+00  0.58640975207E+02  0.58640975207E+02  0.00000000000E+00 0. -1.
          1   -1    0    0  504    0 -0.00000000000E+00 -0.00000000000E+00 -0.18149291667E+04  0.18149291667E+04  0.00000000000E+00 0. -1.
         21    1    1    2  503  505  0.60346623327E+01  0.13816063599E+03 -0.55248726169E+03  0.56953222280E+03  0.00000000000E+00 0. -1.
         21    1    1    2  504  503 -0.17341460549E+02  0.99023317780E+02 -0.49936241095E+03  0.50938115512E+03  0.00000000000E+00 0.  1.
         21    1    1    2  505  502  0.23600979660E+02  0.50416647611E+02 -0.34500738775E+02  0.65491568718E+02  0.00000000000E+00 0.  1.
          1    1    1    2  501    0 -0.12294181443E+02 -0.28760060138E+03 -0.66993778009E+03  0.72916519528E+03  0.00000000000E+00 0. -1.
<scales pt_clust_3="30.53089" pt_clust_4="30.53089" pt_clust_5="55.66727" pt_clust_6="253.02639"></scales>
<clustering>
<clus scale="   30.531">  3  4 -1 -1</clus>
<clus scale="   55.667">  1  5  2 -1</clus>
<clus scale="  253.026">  1  6  2 -1</clus>
<clus scale="   55.667">  1  3  2 -1</clus>
</clustering>
</event>
<event>
 6    0  0.2433432E+002  0.1669803E+03  0.7546771E-02  0.1181034E+00
          1   -1    0    0  505    0 -0.00000000000E+00  0.00000000000E+00  0.22361747438E+04  0.22361747438E+04  0.00000000000E+00 0.  1.
         21   -1    0    0  504  502  0.00000000000E+00 -0.00000000000E+00 -0.12340805252E+03  0.12340805252E+03  0.00000000000E+00 0. -1.
         21    1    1    2  503  502 -0.14800771683E+03 -0.28295878444E-02 -0.59542693298E+02  0.15953562791E+03  0.00000000000E+00 0. -1.
         21    1    1    2  504  501 -0.36167056556E+02  0.41670477881E+02  0.82418715237E+02  0.99183311742E+02  0.00000000000E+00 0. -1.
         21    1    1    2  505  503  0.90685329293E+02 -0.38403706786E+02  0.59904152900E+03  0.60708271851E+03  0.00000000000E+00 0. -1.
          1    1    1    2  501    0  0.93489444090E+02 -0.32639415078E+01  0.14908491403E+04  0.14937811382E+04  0.00000000000E+00 0.  1.
<scales pt_clust_3="166.98033" pt_clust_4="55.17685" pt_clust_5="14000.00000" pt_clust_6="93.06863"></scales>
<clustering>
<clus scale="   55.177">  2  4  1 -1</clus>
<clus scale="   93.069">  1  6  2 -1</clus>
<clus scale="  166.980">  2  3  1 -1</clus>
<clus scale="   55.177">  2  3  1 -1</clus>
</clustering>
</event>
<event>
 6    0  0.2433432E+002  0.1302211E+03  0.7546771E-02  0.1227128E+00
         21   -1    0    0  505  502  0.00000000000E+00  0.00000000000E+00  0.26499645069E+02  0.26499645069E+02  0.00000000000E+00 0. -1.
          2   -1    0    0  503    0 -0.00000000000E+00 -0.00000000000E+00 -0.20846010096E+04  0.20846010096E+04  0.00000000000E+00 0.  1.
         21    1    1    2  503  502  0.18501126641E+02 -0.25912692488E+02 -0.52463341613E+03  0.52559868782E+03  0.00000000000E+00 0.  1.
         21    1    1    2  504  501  0.11506749906E+03  0.26769717837E+02 -0.28214778742E+03  0.30588318208E+03  0.00000000000E+00 0. -1.
         21    1    1    2  505  504  0.30798507795E+01  0.34969230729E+02 -0.20364903294E+02  0.40584009964E+02  0.00000000000E+00 0. -1.
          2    1    1    2  501    0 -0.13664847648E+03 -0.35826256079E+02 -0.12309552577E+04  0.12390347748E+04  0.00000000000E+00 0.  1.
<scales pt_clust_3="31.83959" pt_clust_4="14000.00000" pt_clust_5="34.63426" pt_clust_6="130.22112"></scales>
<clustering>
<clus scale="   31.840">  2  3  1 -1</clus>
<clus scale="   34.634">  1  5  2 -1</clus>
<clus scale="  130.221">  2  6  1 -1</clus>
<clus scale="   34.634">  1  3  2 -1</clus>
</clustering>
</event>
<event>
 6    0  0.2433432E+002  0.6284849E+02  0.7546771E-02  0.1386252E+00
         21   -1    0    0  504  502  0.00000000000E+00  0.00000000000E+00  0.48144166461E+03  0.48144166461E+03  0.00000000000E+00 0. -1.
          2   -1    0    0  503    0 -0.00000000000E+00 -0.00000000000E+00 -0.16754997907E+04  0.16754997907E+04  0.00000000000E+00 0. -1.
         21    1    1    2  503  505 -0.24543110146E+02  0.38909155381E+02 -0.24648064837E+02  0.52190168886E+02  0.00000000000E+00 0. -1.
         21    1    1    2  504  501  0.59362727833E+02 -0.12849151367E+03  0.38969529164E+03  0.41460393494E+03  0.00000000000E+00 0. -1.
         21    1    1    2  505  502 -0.92605035724E+01  0.32295824081E+02  0.60566635938E+02  0.69261060981E+02  0.00000000000E+00 0. -1.
          2    1    1    2  501    0 -0.25559114115E+02  0.57286534211E+02 -0.16196719888E+04  0.16208862905E+04  0.00000000000E+00 0. -1.
<scales pt_clust_3="47.07058" pt_clust_4="62.84849" pt_clust_5="33.59728" pt_clust_6="14000.00000"></scales>
<clustering>
<clus scale="   33.597">  1  5  2 -1</clus>
<clus scale="   47.071">  1  3  2 -1</clus>
<clus scale="   62.848">  1  4  2 -1</clus>
<clus scale="   33.597">  1  3  2 -1</clus>
</clustering>
</event>
<event>
 6    0  0.2433432E+002  0.9080009E+02  0.7546771E-02  0.1300926E+00
         21   -1    0    0  503  502  0.00000000000E+00  0.00000000000E+00  0.26856398217E+03  0.26856398217E+03  0.00000000000E+00 0.  1.
         -3   -1    0    0    0  501 -0.00000000000E+00 -0.00000000000E+00 -0.19728749075E+03  0.19728749075E+03  0.00000000000E+00 0.  1.
         21    1    1    2  503  505  0.36920530846E+01 -0.33633615907E+02  0.31899783047E+02  0.46502123967E+02  0.00000000000E+00 0.  1.
         21    1    1    2  504  502 -0.21958969054E+02  0.71151881046E+02  0.46425187633E+02  0.87750125612E+02  0.00000000000E+00 0. -1.
         21    1    1    2  505  501  0.10293561110E+03 -0.58263822904E+01  0.13092419650E+03  0.16664582801E+03  0.00000000000E+00 0.  1.
         -3    1    1    2    0  504 -0.84668695133E+02 -0.31691882848E+02 -0.13797267576E+03  0.16495339533E+03  0.00000000000E+00 0.  1.
<scales pt_clust_3="33.83565" pt_clust_4="64.77165" pt_clust_5="14000.00000" pt_clust_6="90.80009"></scales>
<clustering>
<clus scale="   33.836">  1  3  2 -1</clus>
<clus scale="   64.772">  1  4  2 -1</clus>
<clus scale="   90.800">  2  6  1 -1</clus>
<clus scale="   33.836">  1  3  2 -1</clus>
</clustering>
</event>
<event>
 6    0  0.2433432E+002  0.1333443E+03  0.7546771E-02  0.1222576E+00
         21   -1    0    0  504  502  0.00000000000E+00  0.00000000000E+00  0.59368523984E+03  0.59368523984E+03  0.00000000000E+00 0.  1.
          1   -1    0    0  505    0 -0.00000000000E+00 -0.00000000000E+00 -0.14932216460E+04  0.14932216460E+04  0.00000000000E+00 0. -1.
         21    1    1    2  503  501  0.15709543554E+03 -0.11111695373E+03  0.46782397226E+03  0.50585098823E+03  0.00000000000E+00 0.  1.
         21    1    1    2  504  503 -0.63188496428E+02 -0.59209466900E+01  0.49916266579E+02  0.80743280585E+02  0.00000000000E+00 0. -1.
         21    1    1    2  505  502  0.97444442035E+01  0.33735993050E+02  0.30457846236E+02  0.46483887716E+02  0.00000000000E+00 0.  1.
          1    1    1    2  501    0 -0.10365138331E+03  0.83301907367E+02 -0.14477344912E+04  0.14538287293E+04  0.00000000000E+00 0. -1.
<scales pt_clust_3="14000.00000" pt_clust_4="62.07259" pt_clust_5="35.11512" pt_clust_6="133.34427"></scales>
<clustering>
<clus scale="   35.115">  1  5  2 -1</clus>
<clus scale="   62.073">  1  4  2 -1</clus>
<clus scale="  133.344">  2  6  1 -1</clus>
<clus scale="   35.115">  1  3  2 -1</clus>
</clustering>
</event>
<event>
 6    0  0.2433432E+002  0.2442776E+03  0.7546771E-02  0.1116976E+00
          1   -1    0    0  504    0 -0.00000000000E+00  0.00000000000E+00  0.28985883967E+03  0.28985883967E+03  0.00000000000E+00 0. -1.
         21   -1    0    0  501  502  0.00000000000E+00 -0.00000000000E+00 -0.72507510316E+03  0.72507510316E+03  0.00000000000E+00 0. -1.
         21    1    1    2  503  505  0.58049508624E+02  0.43777007584E+02 -0.16212070381E+03  0.17767750124E+03  0.00000000000E+00 0. -1.
         21    1    1    2  504  503  0.46725722433E+01 -0.39280686788E+02 -0.17816257143E+02  0.43384609073E+02  0.00000000000E+00 0.  1.
         21    1    1    2  505  502  0.33619953368E+02  0.17015276404E+03 -0.46989355713E+03  0.50088144246E+03  0.00000000000E+00 0. -1.
          1    1    1    2  501    0 -0.96342034235E+02 -0.17464908484E+03  0.21461425458E+03  0.29299039005E+03  0.00000000000E+00 0. -1.
<scales pt_clust_3="53.63404" pt_clust_4="39.55762" pt_clust_5="53.63404" pt_clust_6="229.87082"></scales>
<clustering>
<clus scale="   39.558">  1  4  2 -1</clus>
<clus scale="   53.634">  3  5 -1 -1</clus>
<clus scale="  229.871">  1  6  2 -1</clus>
<clus scale="  244.278">  2  3  1 -1</clus>
</clustering>
</event>
<event>
 6    0  0.2433432E+002  0.8541069E+02  0.7546771E-02  0.1314362E+00
          2   -1    0    0  505    0 -0.00000000000E+00  0.00000000000E+00  0.67362094159E+03  0.67362094159E+03  0.00000000000E+00 0.  1.
         21   -1    0    0  504  502  0.00000000000E+00 -0.00000000000E+00 -0.12418327013E+03  0.12418327013E+03  0.00000000000E+00 0. -1.
         21    1    1    2  503  502 -0.60321229413E+02 -0.15056703072E+03  0.91299156956E+02  0.18613064637E+03  0.00000000000E+00 0. -1.
         21    1    1    2  504  501  0.27140994542E+02  0.68035921561E+02 -0.39093251950E+02  0.83028926017E+02  0.00000000000E+00 0. -1.
         21    1    1    2  505  503  0.36743571071E+02  0.42263425926E+02  0.38093900919E+02  0.67730587428E+02  0.00000000000E+00 0. -1.
          2    1    1    2  501    0 -0.35633362005E+01  0.40267683234E+02  0.45913786554E+03  0.46091405191E+03  0.00000000000E+00 0.  1.
<scales pt_clust_3="85.41069" pt_clust_4="14000.00000" pt_clust_5="63.36304" pt_clust_6="40.42504"></scales>
<clustering>
<clus scale="   40.425">  1  6  2 -1</clus>
<clus scale="   63.363">  1  5  2 -1</clus>
<clus scale="   85.411">  1  3  2 -1</clus>
<clus scale="   85.411">  2  3  1 -1</clus>
</clustering>
</event>
<event>
 6    0  0.2433432E+002  0.1171229E+03  0.7546771E-02  0.1247920E+00
         21   -1    0    0  505  502  0.00000000000E+00  0.00000000000E+00  0.52348623024E+03  0.52348623024E+03  0.00000000000E+00 0. -1.
         -4   -1    0    0    0  501 -0.00000000000E+00 -0.00000000000E+00 -0.20889385984E+04  0.20889385984E+04  0.00000000000E+00 0. -1.
         21    1    1    2  503  504  0.86142403657E+02  0.15775366209E+02 -0.52412652039E+02  0.10206106986E+03  0.00000000000E+00 0.  1.
         21    1    1    2  504  502  0.10765194321E+03  0.10181440532E+02  0.35784028004E+03  0.37382117199E+03  0.00000000000E+00 0. -1.
         21    1    1    2  505  501 -0.22256611005E+03 -0.39068043239E+02  0.36502304486E+02  0.22889823847E+03  0.00000000000E+00 0.  1.
         -4    1    1    2    0  503  0.28771763183E+02  0.13111236498E+02 -0.19073823006E+04  0.19076443483E+04  0.00000000000E+00 0. -1.
<scales pt_clust_3="100.68244" pt_clust_4="117.12289" pt_clust_5="14000.00000" pt_clust_6="31.61833"></scales>
<clustering>
<clus scale="   31.618">  2  6  1 -1</clus>
<clus scale="  100.682">  2  3  1 -1</clus>
<clus scale="  117.123">  1  4  2 -1</clus>
<clus scale="  117.123">  1  3  2 -1</clus>
</clustering>
</event>
<event>
 6    0  0.2433432E+002  0.6930220E+02  0.7546771E-02  0.1362482E+00
         21   -1    0    0  501  502  0.00000000000E+00  0.00000000000E+00  0.19997399290E+02  0.19997399290E+02  0.00000000000E+00 0. -1.
          1   -1    0    0  503    0 -0.00000000000E+00 -0.00000000000E+00 -0.15197230313E+04  0.15197230313E+04  0.00000000000E+00 0. -1.
         21    1    1    2  503  504 -0.41497456771E+02  0.56154298618E+02 -0.45645973260E+03  0.46176924070E+03  0.00000000000E+00 0. -1.
         21    1    1    2  504  505 -0.45207809806E+02 -0.66551167476E+02 -0.11040514268E+03  0.13660929504E+03  0.00000000000E+00 0. -1.
         21    1    1    2  505  502  0.15446266390E+02  0.32400893352E+02 -0.12516043658E+03  0.13020575993E+03  0.00000000000E+00 0. -1.
          1    1    1    2  501    0  0.71259000186E+02 -0.22004024494E+02 -0.80770032017E+03  0.81113613494E+03  0.00000000000E+00 0. -1.
<scales pt_clust_3="69.30220" pt_clust_4="54.00442" pt_clust_5="35.89436" pt_clust_6="14000.00000"></scales>
<clustering>
<clus scale="   35.894">  1  5  2 -1</clus>
<clus scale="   54.004">  1  4  2 -1</clus>
<clus scale="   69.302">  1  3  2 -1</clus>
<clus scale="   35.894">  1  3  2 -1</clus>
</clustering>
</event>
<event>
 6    0  0.2433432E+002  0.1454012E+03  0.7546771E-02  0.1206241E+00
          1   -1    0    0  503    0 -0.00000000000E+00  0.00000000000E+00  0.22060635532E+04  0.22060635532E+04  0.00000000000E+00 0.  1.
         21   -1    0    0  504  502  0.00000000000E+00 -0.00000000000E+00 -0.43385493341E+02  0.43385493341E+02  0.00000000000E+00 0. -1.
         21    1    1    2  503  502  0.54558587649E+02 -0.27213901475E+02  0.18653584316E+03  0.19624692788E+03  0.00000000000E+00 0. -1.
         21    1    1    2  504  505  0.80527776818E+02  0.46703337806E+02  0.24988443474E+02  0.96386445669E+02  0.00000000000E+00 0. -1.
         21    1    1    2  505  501 -0.65470070457E+02 -0.36136188757E+00  0.56455472773E+03  0.56833836868E+03  0.00000000000E+00 0.  1.
          1    1    1    2  501    0 -0.69616294010E+02 -0.19128074443E+02  0.13865990455E+04  0.13884773043E+04  0.00000000000E+00 0.  1.
<scales pt_clust_3="60.96914" pt_clust_4="132.82750" pt_clust_5="56.32482" pt_clust_6="56.32482"></scales>
<clustering>
<clus scale="   56.325">  5  6 -1 -1</clus>
<clus scale="   60.969">  2  3  1 -1</clus>
<clus scale="  132.828">  2  4  1 -1</clus>
<clus scale="   60.969">  2  3  1 -1</clus>
</clustering>
</event>
<event>
 6    0  0.2433432E+002  0.6885095E+02  0.7546771E-02  0.1364045E+00
          2   -1    0    0  504    0 -0.00000000000E+00  0.00000000000E+00  0.25855718862E+04  0.25855718862E+04  0.00000000000E+00 0. -1.
         21   -1    0    0  503  502  0.00000000000E+00 -0.00000000000E+00 -0.23259261284E+03  0.23259261284E+03  0.00000000000E+00 0. -1.
         21    1    1    2  503  505 -0.32833877465E+01  0.50924248224E+02 -0.18604149697E+03  0.19291318847E+03  0.00000000000E+00 0. -1.
         21    1    1    2  504  502  0.93684680031E+02 -0.54446206121E+02  0.98449980273E+02  0.14640221053E+03  0.00000000000E+00 0. -1.
         21    1    1    2  505  501 -0.52228378738E+02 -0.96285740342E+01  0.18197945227E+02  0.56139809351E+02  0.00000000000E+00 0. -1.
          2    1    1    2  501    0 -0.38172913547E+02  0.13150531931E+02  0.24223728448E+04  0.24227092907E+04  0.00000000000E+00 0. -1.
<scales pt_clust_3="51.36432" pt_clust_4="14000.00000" pt_clust_5="68.85095" pt_clust_6="40.37459"></scales>
<clustering>
<clus scale="   40.375">  1  6  2 -1</clus>
<clus scale="   51.364">  2  3  1 -1</clus>
<clus scale="   68.851">  2  5  1 -1</clus>
<clus scale="   51.364">  2  3  1 -1</clus>
</clustering>
</event>
<event>
 6    0  0.2433432E+002  0.8648881E+02  0.7546771E-02  0.1311584E+00
         21   -1    0    0  503  502  0.00000000000E+00  0.00000000000E+00  0.28944798338E+04  0.28944798338E+04  0.00000000000E+00 0.  1.
          2   -1    0    0  505    0 -0.00000000000E+00 -0.00000000000E+00 -0.12967988190E+03  0.12967988190E+03  0.00000000000E+00 0. -1.
         21    1    1    2  503  504 -0.27955305055E+02 -0.19007747727E+02  0.16642704752E+03  0.16982566267E+03  0.00000000000E+00 0.  1.
         21    1    1    2  504  501  0.67474872351E+02  0.32864232378E+02  0.43398721741E+03  0.44042913283E+03  0.00000000000E+00 0. -1.
         21    1    1    2  505  502 -0.22366135610E+02  0.71058080446E+02  0.22734229413E+04  0.22746431292E+04  0.00000000000E+00 0.  1.
          2    1    1    2  501    0 -0.17153431687E+02 -0.84914565097E+02 -0.10903725441E+03  0.13926179100E+03  0.00000000000E+00 0. -1.
<scales pt_clust_3="33.80523" pt_clust_4="69.69198" pt_clust_5="14000.00000" pt_clust_6="86.48881"></scales>
<clustering>
<clus scale="   33.805">  1  3  2 -1</clus>
<clus scale="   69.692">  1  4  2 -1</clus>
<clus scale="   86.489">  2  6  1 -1</clus>
<clus scale="   33.805">  1  3  2 -1</clus>
</clustering>
</event>
<event>
 6    0  0.2433432E+002  0.1096754E+03  0.7546771E-02  0.1261172E+00
         21   -1    0    0  504  502  0.00000000000E+00  0.00000000000E+00  0.22079977762E+03  0.22079977762E+03  0.00000000000E+00 0. -1.
          2   -1    0    0  503    0 -0.00000000000E+00 -0.00000000000E+00 -0.96104069761E+03  0.96104069761E+03  0.00000000000E+00 0. -1.
         21    1    1    2  503  505  0.37353275741E+02  0.29914077282E+02 -0.42821108568E+02  0.64216559914E+02  0.00000000000E+00 0. -1.
         21    1    1    2  504  501 -0.11968480266E+03 -0.37852773661E+02 -0.11502979761E+03  0.17026197109E+03  0.00000000000E+00 0. -1.
         21    1    1    2  505  502  0.10616811468E+03 -0.28240749812E+02  0.16526736554E+03  0.19845027245E+03  0.00000000000E+00 0. -1.
          2    1    1    2  501    0 -0.23836587764E+02  0.36179446191E+02 -0.74765737935E+03  0.74891167178E+03  0.00000000000E+00 0. -1.
<scales pt_clust_3="50.05442" pt_clust_4="14000.00000" pt_clust_5="109.67543" pt_clust_6="43.32592"></scales>
<clustering>
<clus scale="   43.326">  2  6  1 -1</clus>
<clus scale="   50.054">  2  3  1 -1</clus>
<clus scale="  109.675">  1  5  2 -1</clus>
<clus scale="  109.675">  1  3  2 -1</clus>
</clustering>
</event>
<event>
 6    0  0.2433432E+002  0.1007251E+03  0.7546771E-02  0.1278778E+00
         21   -1    0    0  504  502  0.00000000000E+00  0.00000000000E+00  0.63157966210E+03  0.63157966210E+03  0.00000000000E+00 0. -1.
         -2   -1    0    0    0  501 -0.00000000000E+00 -0.00000000000E+00 -0.21070139616E+03  0.21070139616E+03  0.00000000000E+00 0.  1.
         21    1    1    2  503  505  0.71274335772E+02 -0.72738216042E+02  0.23673493324E+03  0.25770973522E+03  0.00000000000E+00 0. -1.
         21    1    1    2  504  503  0.21975813081E+02  0.29197042453E+02  0.35876176952E+03  0.36061809566E+03  0.00000000000E+00 0. -1.
         21    1    1    2  505  501 -0.36132524572E+02 -0.19466530645E+02 -0.16147661502E+02  0.44105012405E+02  0.00000000000E+00 0. -1.
         -2    1    1    2    0  502 -0.57117624281E+02  0.63007704233E+02 -0.15847077532E+03  0.17984821497E+03  0.00000000000E+00 0.  1.
<scales pt_clust_3="100.72513" pt_clust_4="36.54318" pt_clust_5="39.34392" pt_clust_6="14000.00000"></scales>
<clustering>
<clus scale="   36.543">  1  4  2 -1</clus>
<clus scale="   39.344">  2  5  1 -1</clus>
<clus scale="  100.725">  1  3  2 -1</clus>
<clus scale="   36.543">  1  3  2 -1</clus>
</clustering>
</event>
<event>
 6    0  0.2433432E+002  0.6909711E+02  0.7546771E-02  0.1363191E+00
          1   -1    0    0  503    0 -0.00000000000E+00  0.00000000000E+00  0.24743084333E+03  0.24743084333E+03  0.00000000000E+00 0.  1.
         21   -1    0    0  505  502  0.00000000000E+00 -0.00000000000E+00 -0.14343492752E+04  0.14343492752E+04  0.00000000000E+00 0.  1.
         21    1    1    2  503  504 -0.16440417283E+02 -0.53576310750E+02 -0.69601634526E+02  0.89359363934E+02  0.00000000000E+00 0. -1.
         21    1    1    2  504  502  0.26011417027E+02 -0.63665583198E+02 -0.13211178639E+04  0.13229067656E+04  0.00000000000E+00 0.  1.
         21    1    1    2  505  501 -0.34604549434E+02  0.89985269105E+02  0.44885826342E+02  0.10634641933E+03  0.00000000000E+00 0.  1.
          1    1    1    2  501    0  0.25033549690E+02  0.27256624842E+02  0.15891524020E+03  0.16316756962E+03  0.00000000000E+00 0.  1.
<scales pt_clust_3="52.25429" pt_clust_4="69.09711" pt_clust_5="14000.00000" pt_clust_6="37.00814"></scales>
<clustering>
<clus scale="   37.008">  1  6  2 -1</clus>
<clus scale="   52.254">  1  3  2 -1</clus>
<clus scale="   69.097">  2  4  1 -1</clus>
<clus scale="   69.097">  2  3  1 -1</clus>
</clustering>
</event>
<event>
 6    0  0.2433432E+002  0.9821951E+02  0.7546771E-02  0.1284085E+00
          1   -1    0    0  503    0 -0.00000000000E+00  0.00000000000E+00  0.18720632970E+03  0.18720632970E+03  0.00000000000E+00 0.  1.
         21   -1    0    0  501  502  0.00000000000E+00 -0.00000000000E+00 -0.36400178709E+03  0.36400178709E+03  0.00000000000E+00 0. -1.
         21    1    1    2  503  505 -0.38987823493E+02  0.87615140683E+02 -0.42091284111E+02  0.10472888549E+03  0.00000000000E+00 0.  1.
         21    1    1    2  504  502 -0.20703627405E+02 -0.38612998848E+02 -0.16578740355E+03  0.17147905716E+03  0.00000000000E+00 0. -1.
         21    1    1    2  505  504 -0.38820868670E+02 -0.12922155559E+02 -0.99447079453E+02  0.10753494111E+03  0.00000000000E+00 0. -1.
          1    1    1    2  501    0  0.98512319568E+02 -0.36079986276E+02  0.13053030972E+03  0.16746523303E+03  0.00000000000E+00 0.  1.
<scales pt_clust_3="14000.00000" pt_clust_4="86.59954" pt_clust_5="34.84851" pt_clust_6="98.21951"></scales>
<clustering>
<clus scale="   34.849">  4  5 -1 -1</clus>
<clus scale="   86.600">  2  4  1 -1</clus>
<clus scale="   98.220">  1  6  2 -1</clus>
<clus scale="   86.600">  2  3  1 -1</clus>
</clustering>
</event>
<event>
 6    0  0.2433432E+002  0.9991104E+02  0.7546771E-02  0.1280483E+00
          2   -1    0    0  505    0 -0.00000000000E+00  0.00000000000E+00  0.33140244228E+03  0.33140244228E+03  0.00000000000E+00 0. -1.
         21   -1    0    0  503  502  0.00000000000E+00 -0.00000000000E+00 -0.16972960002E+04  0.16972960002E+04  0.00000000000E+00 0.  1.
         21    1    1    2  503  504 -0.82872386968E+02  0.10059671184E+03 -0.11126816603E+04  0.11202892520E+04  0.00000000000E+00 0.  1.
         21    1    1    2  504  501  0.94603109815E+02  0.12029218792E+02 -0.49277418988E+03  0.50191717714E+03  0.00000000000E+00 0. -1.
         21    1    1    2  505  502 -0.20942066961E+02 -0.28574614553E+02 -0.73831949088E+02  0.81891608066E+02  0.00000000000E+00 0.  1.
          2    1    1    2  501    0  0.92113441137E+01 -0.84051316080E+02  0.31339424135E+03  0.32460040528E+03  0.00000000000E+00 0. -1.
<scales pt_clust_3="99.91104" pt_clust_4="14000.00000" pt_clust_5="35.42709" pt_clust_6="84.64498"></scales>
<clustering>
<clus scale="   35.427">  2  5  1 -1</clus>
<clus scale="   84.645">  1  6  2 -1</clus>
<clus scale="   99.911">  2  3  1 -1</clus>
<clus scale="   35.427">  2  3  1 -1</clus>
</clustering>
</event>
<event>
 6    0  0.2433432E+002  0.1255883E+03  0.7546771E-02  0.1234153E+00
         21   -1    0    0  501  502  0.00000000000E+00  0.00000000000E+00  0.13125284874E+02  0.13125284874E+02  0.00000000000E+00 0. -1.
          2   -1    0    0  504    0 -0.00000000000E+00 -0.00000000000E+00 -0.26530702916E+04  0.26530702916E+04  0.00000000000E+00 0. -1.
         21    1    1    2  503  505  0.66948883106E+01  0.54135514760E+02 -0.46562530207E+03  0.46880955346E+03  0.00000000000E+00 0. -1.
         21    1    1    2  504  503 -0.32204629264E+02  0.95154322863E+02 -0.40199680030E+03  0.41435843271E+03  0.00000000000E+00 0. -1.
         21    1    1    2  505  502  0.29716928886E+02 -0.50608237248E+02 -0.22410114235E+03  0.23165839407E+03  0.00000000000E+00 0. -1.
          2    1    1    2  501    0 -0.42071879326E+01 -0.98681600375E+02 -0.15482217620E+04  0.15513691962E+04  0.00000000000E+00 0. -1.
<scales pt_clust_3="48.20484" pt_clust_4="48.20484" pt_clust_5="58.68807" pt_clust_6="107.20558"></scales>
<clustering>
<clus scale="   48.205">  3  4 -1 -1</clus>
<clus scale="   58.688">  1  5  2 -1</clus>
<clus scale="  107.206">  2  6  1 -1</clus>
<clus scale="   58.688">  1  3  2 -1</clus>
</clustering>
</event>
<event>
 6    0  0.2433432E+002  0.1036942E+03  0.7546771E-02  0.1272714E+00
         21   -1    0    0  504  502  0.00000000000E+00  0.00000000000E+00  0.37261031209E+02  0.37261031209E+02  0.00000000000E+00 0.  1.
          2   -1    0    0  505    0 -0.00000000000E+00 -0.00000000000E+00 -0.35484678546E+04  0.35484678546E+04  0.00000000000E+00 0. -1.
         21    1    1    2  503  502  0.13123438115E+03  0.31467579059E+02 -0.26030218854E+03  0.29320624257E+03  0.00000000000E+00 0.  1.
         21    1    1    2  504  501 -0.33012759183E+02 -0.46623193811E+02 -0.24139107651E+02  0.62018231095E+02  0.00000000000E+00 0.  1.
         21    1    1    2  505  503  0.23313711429E+02  0.21977962793E+02 -0.50220352961E+03  0.50322454744E+03  0.00000000000E+00 0. -1.
          2    1    1    2  501    0 -0.12153533339E+03 -0.68223480407E+01 -0.27245619976E+04  0.27272798647E+04  0.00000000000E+00 0. -1.
<scales pt_clust_3="103.69424" pt_clust_4="56.68344" pt_clust_5="32.03997" pt_clust_6="14000.00000"></scales>
<clustering>
<clus scale="   32.040">  2  5  1 -1</clus>
<clus scale="   56.683">  1  4  2 -1</clus>
<clus scale="  103.694">  1  3  2 -1</clus>
<clus scale="   56.683">  1  3  2 -1</clus>
</clustering>
</event>
<event>
 6    0  0.2433432E+002  0.5887570E+03  0.7546771E-02  0.9929010E-01
         21   -1    0    0  504  502  0.00000000000E+00  0.00000000000E+00  0.35995358564E+03  0.35995358564E+03  0.00000000000E+00 0.  1.
          1   -1    0    0  502    0 -0.00000000000E+00 -0.00000000000E+00 -0.20055252512E+04  0.20055252512E+04  0.00000000000E+00 0.  1.
         21    1    1    2  503  501  0.18143407340E+03 -0.51767404457E+03 -0.13216953855E+03  0.56424598034E+03  0.00000000000E+00 0.  1.
         21    1    1    2  504  505 -0.93629511678E+02  0.15652628288E+01  0.14186463469E+02  0.94711093598E+02  0.00000000000E+00 0. -1.
         21    1    1    2  505  503  0.21393584026E+02 -0.50994378974E+02  0.16708776927E+02  0.57769328807E+02  0.00000000000E+00 0. -1.
          1    1    1    2  501    0 -0.10919814575E+03  0.56710316071E+03 -0.15442973674E+04  0.16487524341E+04  0.00000000000E+00 0.  1.
<scales pt_clust_3="30.20348" pt_clust_4="93.64259" pt_clust_5="30.20348" pt_clust_6="581.02130"></scales>
<clustering>
<clus scale="   30.203">  3  5 -1 -1</clus>
<clus scale="   93.643">  1  4  2 -1</clus>
<clus scale="  581.021">  2  6  1 -1</clus>
<clus scale="   93.643">  1  3  2 -1</clus>
</clustering>
</event>
<event>
 6    0  0.2433432E+002  0.6541145E+02  0.7546771E-02  0.1376430E+00
         21   -1    0    0  503  502  0.00000000000E+00  0.00000000000E+00  0.81510511205E+03  0.81510511205E+03  0.00000000000E+00 0.  1.
         -1   -1    0    0    0  501 -0.00000000000E+00 -0.00000000000E+00 -0.38599818483E+03  0.38599818483E+03  0.00000000000E+00 0. -1.
         21    1    1    2  503  504 -0.41574107562E+02 -0.31191638966E+02  0.75190674381E+02  0.91405482739E+02  0.00000000000E+00 0.  1.
         21    1    1    2  504  505  0.43210237985E+02  0.48785819397E+02  0.42119892338E+03  0.42621087961E+03  0.00000000000E+00 0. -1.
         21    1    1    2  505  501  0.62332650975E+02 -0.31163288481E+02  0.30124597613E+03  0.30920163011E+03  0.00000000000E+00 0.  1.
         -1    1    1    2    0  502 -0.63968781398E+02  0.13569108049E+02 -0.36852864668E+03  0.37428530443E+03  0.00000000000E+00 0. -1.
<scales pt_clust_3="51.97427" pt_clust_4="36.19983" pt_clust_5="65.41145" pt_clust_6="14000.00000"></scales>
<clustering>
<clus scale="   51.974">  1  3  2 -1</clus>
<clus scale="   36.200">  1  4  2 -1</clus>
<clus scale="   65.411">  1  5  2 -1</clus>
<clus scale="   51.974">  1  3  2 -1</clus>
</clustering>
</event>
<event>
 6    0  0.2433432E+002  0.1441637E+03  0.7546771E-02  0.1207834E+00
          2   -1    0    0  504    0 -0.00000000000E+00  0.00000000000E+00  0.23711582708E+04  0.23711582708E+04  0.00000000000E+00 0. -1.
         21   -1    0    0  505  502  0.00000000000E+00 -0.00000000000E+00 -0.10917335175E+04  0.10917335175E+04  0.00000000000E+00 0.  1.
         21    1    1    2  503  502  0.96396172749E+02  0.68794723632E+02 -0.46891939713E+03  0.48364277843E+03  0.00000000000E+00 0.  1.
         21    1    1    2  504  503 -0.12062992539E+03 -0.33028062215E+02  0.34264514668E+03  0.36475762958E+03  0.00000000000E+00 0.  1.
         21    1    1    2  505  501  0.33323636303E+02 -0.27052976011E+01 -0.60378746539E+03  0.60471240002E+03  0.00000000000E+00 0.  1.
          2    1    1    2  501    0 -0.90898836600E+01 -0.33061363816E+02  0.20094864691E+04  0.20097789802E+04  0.00000000000E+00 0. -1.
<scales pt_clust_3="14000.00000" pt_clust_4="144.16369" pt_clust_5="33.43327" pt_clust_6="34.28632"></scales>
<clustering>
<clus scale="   33.433">  2  5  1 -1</clus>
<clus scale="   34.286">  1  6  2 -1</clus>
<clus scale="  144.164">  1  4  2 -1</clus>
<clus scale="   33.433">  2  3  1 -1</clus>
</clustering>
</event>
<event>
 6    0  0.2433432E+002  0.1173374E+03  0.7546771E-02  0.1247555E+00
          1   -1    0    0  504    0 -0.00000000000E+00  0.00000000000E+00  0.39441054281E+03  0.39441054281E+03  0.00000000000E+00 0. -1.
         21   -1    0    0  503  502  0.00000000000E+00 -0.00000000000E+00 -0.17066299290E+03  0.17066299290E+03  0.00000000000E+00 0. -1.
         21    1    1    2  503  501  0.46545637890E+02 -0.12342059955E+03  0.41037173219E+02  0.13814192117E+03  0.00000000000E+00 0.  1.
         21    1    1    2  504  505 -0.68194782799E+02 -0.30205189133E+02  0.51238025392E+02  0.90488767798E+02  0.00000000000E+00 0.  1.
         21    1    1    2  505  502  0.65488080855E+01  0.38141196314E+02 -0.83452877513E+02  0.91989241267E+02  0.00000000000E+00 0. -1.
          1    1    1    2  501    0  0.15100336824E+02  0.11548459237E+03  0.21492522882E+03  0.24445360547E+03  0.00000000000E+00 0. -1.
<scales pt_clust_3="14000.00000" pt_clust_4="69.92993" pt_clust_5="38.69932" pt_clust_6="117.33736"></scales>
<clustering>
<clus scale="   38.699">  2  5  1 -1</clus>
<clus scale="   69.930">  2  4  1 -1</clus>
<clus scale="  117.337">  1  6  2 -1</clus>
<clus scale="   38.699">  2  3  1 -1</clus>
</clustering>
</event>
<event>
 6    0  0.2433432E+002  0.1831883E+03  0.7546771E-02  0.1164753E+00
          2   -1    0    0  503    0 -0.00000000000E+00  0.00000000000E+00  0.24230024396E+04  0.24230024396E+04  0.00000000000E+00 0.  1.
         21   -1    0    0  504  502  0.00000000000E+00 -0.00000000000E+00 -0.17251419345E+03  0.17251419345E+03  0.00000000000E+00 0.  1.
         21    1    1    2  503  505  0.63637988429E+02  0.33556581303E+02  0.55604703709E+03  0.56068185737E+03  0.00000000000E+00 0.  1.
         21    1    1    2  504  501 -0.15180678649E+03  0.10479509507E+03  0.85343499076E+02  0.20325064627E+03  0.00000000000E+00 0.  1.
         21    1    1    2  505  502  0.83884018275E+02 -0.17195905669E+03 -0.28671559188E+02  0.19346447738E+03  0.00000000000E+00 0.  1.
          2    1    1    2  501    0  0.42847797816E+01  0.33607380321E+02  0.16377692692E+04  0.16381196521E+04  0.00000000000E+00 0.  1.
<scales pt_clust_3="88.02584" pt_clust_4="183.18833" pt_clust_5="14000.00000" pt_clust_6="33.87942"></scales>
<clustering>
<clus scale="   33.879">  1  6  2 -1</clus>
<clus scale="   88.026">  1  3  2 -1</clus>
<clus scale="  183.188">  1  4  2 -1</clus>
<clus scale="  183.188">  2  3  1 -1</clus>
</clustering>
</event>
<event>
 6    0  0.2433432E+002  0.1078950E+03  0.7546771E-02  0.1264518E+00
         -3   -1    0    0    0  501 -0.00000000000E+00  0.00000000000E+00  0.27923923716E+04  0.27923923716E+04  0.00000000000E+00 0.  1.
         21   -1    0    0  504  502  0.00000000000E+00 -0.00000000000E+00 -0.24841595239E+02  0.24841595239E+02  0.00000000000E+00 0.  1.
         21    1    1    2  503  502  0.68492116600E+02 -0.75999101970E+01  0.38520060310E+03  0.39131628295E+03  0.00000000000E+00 0.  1.
         21    1    1    2  504  505 -0.14401171007E+01  0.30239879876E+02 -0.93171025442E+00  0.30288485538E+02  0.00000000000E+00 0.  1.
         21    1    1    2  505  501 -0.73582220764E+02  0.88780650826E+02  0.78121758658E+03  0.78968174903E+03  0.00000000000E+00 0.  1.
         -3    1    1    2    0  503  0.65302212646E+01 -0.11142062050E+03  0.16020642970E+04  0.16059474493E+04  0.00000000000E+00 0.  1.
<scales pt_clust_3="68.05802" pt_clust_4="30.27415" pt_clust_5="14000.00000" pt_clust_6="107.89498"></scales>
<clustering>
<clus scale="   30.274">  2  4  1 -1</clus>
<clus scale="   68.058">  2  3  1 -1</clus>
<clus scale="  107.895">  1  6  2 -1</clus>
<clus scale="   30.274">  2  3  1 -1</clus>
</clustering>
</event>
<event>
 6    0  0.2433432E+002  0.1143998E+03  0.7546771E-02  0.1252632E+00
         21   -1    0    0  504  502  0.00000000000E+00  0.00000000000E+00  0.27752964066E+03  0.27752964066E+03  0.00000000000E+00 0.  1.
          2   -1    0    0  503    0 -0.00000000000E+00 -0.00000000000E+00 -0.51661243110E+03  0.51661243110E+03  0.00000000000E+00 0.  1.
         21    1    1    2  503  505 -0.21610989222E+02  0.25785379039E+02 -0.44807250979E+02  0.56032226153E+02  0.00000000000E+00 0. -1.
         21    1    1    2  504  501  0.11525393047E+03  0.23144207042E+02  0.24446297693E+03  0.27125867710E+03  0.00000000000E+00 0.  1.
         21    1    1    2  505  502 -0.81892248267E+02 -0.14428491774E+02 -0.11976353363E+03  0.14580063679E+03  0.00000000000E+00 0.  1.
          2    1    1    2  501    0 -0.11750692980E+02 -0.34501094307E+02 -0.31897498275E+03  0.32105053172E+03  0.00000000000E+00 0.  1.
<scales pt_clust_3="33.64403" pt_clust_4="114.39978" pt_clust_5="14000.00000" pt_clust_6="31.44921"></scales>
<clustering>
<clus scale="   33.644">  2  3  1 -1</clus>
<clus scale="   31.449">  2  6  1 -1</clus>
<clus scale="  114.400">  1  4  2 -1</clus>
<clus scale="  114.400">  1  3  2 -1</clus>
</clustering>
</event>
<event>
 6    0  0.2433432E+002  0.9223559E+02  0.7546771E-02  0.1297526E+00
          2   -1    0    0  505    0 -0.00000000000E+00  0.00000000000E+00  0.46298797774E+03  0.46298797774E+03  0.00000000000E+00 0. -1.
         21   -1    0    0  503  502  0.00000000000E+00 -0.00000000000E+00 -0.42880048062E+03  0.42880048062E+03  0.00000000000E+00 0. -1.
         21    1    1    2  503  501  0.81875452820E+02  0.77536257945E+02 -0.31813366101E+03  0.33752701720E+03  0.00000000000E+00 0. -1.
         21    1    1    2  504  502 -0.43421477470E+02  0.57644290974E+01 -0.68500430003E+02  0.81307824095E+02  0.00000000000E+00 0.  1.
         21    1    1    2  505  504 -0.45828256365E+02  0.51969371122E+01  0.34629551809E+01  0.46251803158E+02  0.00000000000E+00 0.  1.
          2    1    1    2  501    0  0.73742810155E+01 -0.88497624154E+02  0.41735863295E+03  0.42670181392E+03  0.00000000000E+00 0. -1.
<scales pt_clust_3="92.23559" pt_clust_4="43.80244" pt_clust_5="48.76956" pt_clust_6="14000.00000"></scales>
<clustering>
<clus scale="   43.802">  2  4  1 -1</clus>
<clus scale="   48.770">  1  5  2 -1</clus>
<clus scale="   92.236">  2  3  1 -1</clus>
<clus scale="   43.802">  2  3  1 -1</clus>
</clustering>
</event>
<event>
 6    0  0.2433432E+002  0.2551491E+03  0.7546771E-02  0.1110093E+00
          1   -1    0    0  505    0 -0.00000000000E+00  0.00000000000E+00  0.32353166757E+04  0.32353166757E+04  0.00000000000E+00 0.  1.
         21   -1    0    0  503  502  0.00000000000E+00 -0.00000000000E+00 -0.65211865219E+02  0.65211865219E+02  0.00000000000E+00 0.  1.
         21    1    1    2  503  501  0.19489454589E+03 -0.75370938696E+02  0.55234050272E+03  0.59054609758E+03  0.00000000000E+00 0. -1.
         21    1    1    2  504  502 -0.13242449444E+02 -0.62295310875E+02  0.18135170765E+03  0.19220954735E+03  0.00000000000E+00 0. -1.
         21    1    1    2  505  504 -0.17909408634E+03  0.29542600713E+03  0.77050955661E+03  0.84441470515E+03  0.00000000000E+00 0.  1.
          1    1    1    2  501    0 -0.25580101045E+01 -0.15775975756E+03  0.16659030435E+04  0.16733581908E+04  0.00000000000E+00 0.  1.
<scales pt_clust_3="14000.00000" pt_clust_4="63.68727" pt_clust_5="255.14910" pt_clust_6="161.67939"></scales>
<clustering>
<clus scale="   63.687">  2  4  1 -1</clus>
<clus scale="  161.679">  1  6  2 -1</clus>
<clus scale="  255.149">  1  5  2 -1</clus>
<clus scale="   63.687">  2  3  1 -1</clus>
</clustering>
</event>
<event>
 6    0  0.2433432E+002  0.7765957E+02  0.7546771E-02  0.1335828E+00
          2   -1    0    0  505    0 -0.00000000000E+00  0.00000000000E+00  0.14899932242E+03  0.14899932242E+03  0.00000000000E+00 0. -1.
         21   -1    0    0  503  502  0.00000000000E+00 -0.00000000000E+00 -0.17361352855E+03  0.17361352855E+03  0.00000000000E+00 0. -1.
         21    1    1    2  503  501  0.47608377995E+02 -0.52677891478E+01 -0.26505381896E+02  0.54743424512E+02  0.00000000000E+00 0. -1.
         21    1    1    2  504  502  0.63635080677E+01 -0.68088743167E+02 -0.72823638309E+02  0.99899216602E+02  0.00000000000E+00 0. -1.
         21    1    1    2  505  504 -0.63150366951E+02 -0.11120812409E+02  0.43309224439E+02  0.77377840731E+02  0.00000000000E+00 0. -1.
          2    1    1    2  501    0  0.91784808883E+01  0.84477344724E+02  0.31405589636E+02  0.90592369124E+02  0.00000000000E+00 0. -1.
<scales pt_clust_3="47.89893" pt_clust_4="77.65957" pt_clust_5="58.25891" pt_clust_6="14000.00000"></scales>
<clustering>
<clus scale="   47.899">  2  3  1 -1</clus>
<clus scale="   58.259">  1  5  2 -1</clus>
<clus scale="   77.660">  2  4  1 -1</clus>
<clus scale="   47.899">  2  3  1 -1</clus>
</clustering>
</event>
<event>
 6    0  0.2433432E+002  0.1465690E+03  0.7546771E-02  0.1204754E+00
          2   -1    0    0  503    0 -0.00000000000E+00  0.00000000000E+00  0.74580977371E+03  0.74580977371E+03  0.00000000000E+00 0.  1.
         21   -1    0    0  504  502  0.00000000000E+00 -0.00000000000E+00 -0.85561032022E+03  0.85561032022E+03  0.00000000000E+00 0. -1.
         21    1    1    2  503  502 -0.11330019924E+03 -0.88535162158E+02 -0.74824733201E+03  0.76193797644E+03  0.00000000000E+00 0. -1.
         21    1    1    2  504  505  0.22229939402E+02  0.49450746323E+02 -0.29522529608E+02  0.61734320051E+02  0.00000000000E+00 0. -1.
         21    1    1    2  505  501  0.61206926887E+01  0.94353666988E+02 -0.73771495780E+01  0.94839336190E+02  0.00000000000E+00 0. -1.
          2    1    1    2  501    0  0.84949567146E+02 -0.55269251153E+02  0.67534646468E+03  0.68290846124E+03  0.00000000000E+00 0.  1.
<scales pt_clust_3="140.75586" pt_clust_4="30.94755" pt_clust_5="30.94755" pt_clust_6="101.34653"></scales>
<clustering>
<clus scale="   30.948">  4  5 -1 -1</clus>
<clus scale="  101.347">  1  6  2 -1</clus>
<clus scale="  140.756">  2  3  1 -1</clus>
<clus scale="  140.756">  2  3  1 -1</clus>
</clustering>
</event>
<event>
 6    0  0.2433432E+002  0.1837563E+03  0.7546771E-02  0.1164216E+00
         21   -1    0    0  503  502  0.00000000000E+00  0.00000000000E+00  0.71009922530E+02  0.71009922530E+02  0.00000000000E+00 0.  1.
          2   -1    0    0  505    0 -0.00000000000E+00 -0.00000000000E+00 -0.14566584135E+04  0.14566584135E+04  0.00000000000E+00 0.  1.
         21    1    1    2  503  501  0.32276447680E+02  0.42298066201E+01 -0.58408157307E+02  0.66866831679E+02  0.00000000000E+00 0.  1.
         21    1    1    2  504  502  0.94478802630E+02 -0.14412141694E+03 -0.72594069980E+02  0.18699498914E+03  0.00000000000E+00 0.  1.
         21    1    1    2  505  504 -0.33559842551E+02 -0.66286558625E+01 -0.89923813011E+02  0.96210676419E+02  0.00000000000E+00 0.  1.
          2    1    1    2  501    0 -0.93195407759E+02  0.14652026619E+03 -0.11647224507E+04  0.11775958388E+04  0.00000000000E+00 0.  1.
<scales pt_clust_3="32.55242" pt_clust_4="183.75627" pt_clust_5="32.67930" pt_clust_6="14000.00000"></scales>
<clustering>
<clus scale="   32.552">  1  3  2 -1</clus>
<clus scale="   32.679">  2  5  1 -1</clus>
<clus scale="  183.756">  1  4  2 -1</clus>
<clus scale="   32.552">  1  3  2 -1</clus>
</clustering>
</event>
<event>
 6    0  0.2433432E+002  0.1078528E+03  0.7546771E-02  0.1264599E+00
          2   -1    0    0  505    0 -0.00000000000E+00  0.00000000000E+00  0.11269383931E+04  0.11269383931E+04  0.00000000000E+00 0. -1.
         21   -1    0    0  503  502  0.00000000000E+00 -0.00000000000E+00 -0.54666180890E+02  0.54666180890E+02  0.00000000000E+00 0.  1.
         21    1    1    2  503  504 -0.58545967338E+02  0.56359015739E+02  0.12091346617E+03  0.14568471179E+03  0.00000000000E+00 0.  1.
         21    1    1    2  504  501  0.21886316620E+02  0.46043283255E+02  0.20387749324E+03  0.21015476925E+03  0.00000000000E+00 0. -1.
         21    1    1    2  505  502  0.38471450678E+02 -0.13440889570E+03  0.87339407180E+02  0.16484530872E+03  0.00000000000E+00 0.  1.
          2    1    1    2  501    0 -0.18117999598E+01  0.32006596709E+02  0.66014184562E+03  0.66091978423E+03  0.00000000000E+00 0. -1.
<scales pt_clust_3="14000.00000" pt_clust_4="63.83148" pt_clust_5="107.85282" pt_clust_6="32.05784"></scales>
<clustering>
<clus scale="   32.058">  1  6  2 -1</clus>
<clus scale="   63.831">  1  4  2 -1</clus>
<clus scale="  107.853">  2  5  1 -1</clus>
<clus scale="  107.853">  2  3  1 -1</clus>
</clustering>
</event>
<event>
 6    0  0.2433432E+002  0.2597487E+03  0.7546771E-02  0.1107294E+00
         21   -1    0    0  505  502  0.00000000000E+00  0.00000000000E+00  0.33183946315E+03  0.33183946315E+03  0.00000000000E+00 0. -1.
          4   -1    0    0  504    0 -0.00000000000E+00 -0.00000000000E+00 -0.15025617032E+04  0.15025617032E+04  0.00000000000E+00 0.  1.
         21    1    1    2  503  501 -0.23023728498E+03  0.16302479261E+03  0.18689324723E+03  0.33840120605E+03  0.00000000000E+00 0. -1.
         21    1    1    2  504  502  0.31138073314E+02 -0.24700003650E+02  0.22633262030E+02  0.45737668723E+02  0.00000000000E+00 0. -1.
         21    1    1    2  505  503  0.69098210496E+01  0.35021629635E+02  0.92410923789E+01  0.36873540074E+02  0.00000000000E+00 0.  1.
          4    1    1    2  501    0  0.19218939061E+03 -0.17334641859E+03 -0.13894898417E+04  0.14133887515E+04  0.00000000000E+00 0.  1.
<scales pt_clust_3="14000.00000" pt_clust_4="38.09714" pt_clust_5="35.69678" pt_clust_6="259.74869"></scales>
<clustering>
<clus scale="   35.697">  1  5  2 -1</clus>
<clus scale="   38.097">  1  4  2 -1</clus>
<clus scale="  259.749">  2  6  1 -1</clus>
<clus scale="   35.697">  1  3  2 -1</clus>
</clustering>
</event>
<event>
 6    0  0.2433432E+002  0.1436784E+03  0.7546771E-02  0.1208463E+00
         -3   -1    0    0    0  501 -0.00000000000E+00  0.00000000000E+00  0.62239327624E+03  0.62239327624E+03  0.00000000000E+00 0. -1.
         21   -1    0    0  504  502  0.00000000000E+00 -0.00000000000E+00 -0.46225679858E+03  0.46225679858E+03  0.00000000000E+00 0.  1.
         21    1    1    2  503  505 -0.16894119573E+03  0.59640602398E+02 -0.26034343585E+03  0.31603296293E+03  0.00000000000E+00 0.  1.
         21    1    1    2  504  501  0.12030232899E+03  0.12433409886E+02  0.14375916671E+02  0.12179452788E+03  0.00000000000E+00 0.  1.
         21    1    1    2  505  502  0.26596678105E+02 -0.27375167338E+02 -0.11611688298E+03  0.12222893923E+03  0.00000000000E+00 0.  1.
         -3    1    1    2    0  503  0.22042188643E+02 -0.44698844947E+02  0.52222087982E+03  0.52459364478E+03  0.00000000000E+00 0. -1.
<scales pt_clust_3="143.67839" pt_clust_4="14000.00000" pt_clust_5="38.16783" pt_clust_6="49.96378"></scales>
<clustering>
<clus scale="   38.168">  2  5  1 -1</clus>
<clus scale="   49.964">  1  6  2 -1</clus>
<clus scale="  143.678">  2  3  1 -1</clus>
<clus scale="   38.168">  2  3  1 -1</clus>
</clustering>
</event>
<event>
 6    0  0.2433432E+002  0.1011468E+03  0.7546771E-02  0.1277903E+00
         21   -1    0    0  505  502  0.00000000000E+00  0.00000000000E+00  0.30359896688E+03  0.30359896688E+03  0.00000000000E+00 0.  1.
          2   -1    0    0  504    0 -0.00000000000E+00 -0.00000000000E+00 -0.86325642685E+03  0.86325642685E+03  0.00000000000E+00 0. -1.
         21    1    1    2  503  502  0.15734435975E+02  0.59983983172E+02 -0.66638816666E+01  0.62370329737E+02  0.00000000000E+00 0.  1.
         21    1    1    2  504  503 -0.20383613111E+02 -0.75135544336E+02 -0.68614400961E+02  0.10377272149E+03  0.00000000000E+00 0. -1.
         21    1    1    2  505  501 -0.50830557110E+02  0.60188913755E+02  0.25038250270E+03  0.26248399672E+03  0.00000000000E+00 0.  1.
          2    1    1    2  501    0  0.55479734246E+02 -0.45037352591E+02 -0.73476168005E+03  0.73822834578E+03  0.00000000000E+00 0. -1.
<scales pt_clust_3="62.01331" pt_clust_4="14000.00000" pt_clust_5="101.14685" pt_clust_6="71.29886"></scales>
<clustering>
<clus scale="   62.013">  1  3  2 -1</clus>
<clus scale="   71.299">  2  6  1 -1</clus>
<clus scale="  101.147">  1  5  2 -1</clus>
<clus scale="   62.013">  1  3  2 -1</clus>
</clustering>
</event>
<event>
 6    0  0.2433432E+002  0.1181602E+03  0.7546771E-02  0.1246163E+00
         21   -1    0    0  505  502  0.00000000000E+00  0.00000000000E+00  0.11989891639E+03  0.11989891639E+03  0.00000000000E+00 0. -1.
          1   -1    0    0  504    0 -0.00000000000E+00 -0.00000000000E+00 -0.87686999816E+03  0.87686999816E+03  0.00000000000E+00 0.  1.
         21    1    1    2  503  502  0.14079938972E+03 -0.10321500533E+03 -0.50909670801E+03  0.53819816385E+03  0.00000000000E+00 0.  1.
         21    1    1    2  504  503 -0.30417598210E+02 -0.15451406652E+02 -0.58718919472E+02  0.67910880957E+02  0.00000000000E+00 0. -1.
         21    1    1    2  505  501 -0.65904949900E+02  0.94336700286E+02  0.64545550333E+02  0.13194318289E+03  0.00000000000E+00 0. -1.
          1    1    1    2  501    0 -0.44476841605E+02  0.24329711696E+02 -0.25370100462E+03  0.25871668685E+03  0.00000000000E+00 0.  1.
<scales pt_clust_3="14000.00000" pt_clust_4="34.11710" pt_clust_5="118.16019" pt_clust_6="57.45343"></scales>
<clustering>
<clus scale="   34.117">  2  4  1 -1</clus>
<clus scale="   57.453">  2  6  1 -1</clus>
<clus scale="  118.160">  1  5  2 -1</clus>
<clus scale="  118.160">  1  3  2 -1</clus>
</clustering>
</event>
<event>
 6    0  0.2433432E+002  0.1817572E+03  0.7546771E-02  0.1166113E+00
         21   -1    0    0  501  502  0.00000000000E+00  0.00000000000E+00  0.80889581336E+02  0.80889581336E+02  0.00000000000E+00 0.  1.
          2   -1    0    0  504    0 -0.00000000000E+00 -0.00000000000E+00 -0.20309155844E+04  0.20309155844E+04  0.00000000000E+00 0.  1.
         21    1    1    2  503  505  0.11888029281E+03  0.31947920261E+02 -0.67414511868E+02  0.14034924309E+03  0.00000000000E+00 0.  1.
         21    1    1    2  504  503  0.85390870555E+02 -0.52171372948E+01 -0.87873809739E+02  0.12264022886E+03  0.00000000000E+00 0. -1.
         21    1    1    2  505  502 -0.32173203179E+02 -0.23877448472E+02  0.54355519941E+01  0.40432570705E+02  0.00000000000E+00 0.  1.
          2    1    1    2  501    0 -0.17209796018E+03 -0.28533344941E+01 -0.18001732335E+04  0.18083831231E+04  0.00000000000E+00 0.  1.
<scales pt_clust_3="44.71910" pt_clust_4="44.71910" pt_clust_5="40.06554" pt_clust_6="174.43597"></scales>
<clustering>
<clus scale="   40.066">  1  5  2 -1</clus>
<clus scale="   44.719">  3  4 -1 -1</clus>
<clus scale="  174.436">  2  6  1 -1</clus>
<clus scale="   40.066">  1  3  2 -1</clus>
</clustering>
</event>
<event>
 6    0  0.2433432E+002  0.8491699E+02  0.7546771E-02  0.1315650E+00
         21   -1    0    0  505  502  0.00000000000E+00  0.00000000000E+00  0.15403903516E+03  0.15403903516E+03  0.00000000000E+00 0. -1.
          2   -1    0    0  504    0 -0.00000000000E+00 -0.00000000000E+00 -0.19054962169E+04  0.19054962169E+04  0.00000000000E+00 0. -1.
         21    1    1    2  503  502 -0.52275744884E+02 -0.19673883931E+02  0.12064201642E+03  0.13294476799E+03  0.00000000000E+00 0. -1.
         21    1    1    2  504  503  0.73662464688E+02 -0.24822065195E+02 -0.17131898337E+03  0.18812891241E+03  0.00000000000E+00 0. -1.
         21    1    1    2  505  501 -0.10790887909E+02 -0.42171482635E+02 -0.90264974748E+01  0.44456212909E+02  0.00000000000E+00 0. -1.
          2    1    1    2  501    0 -0.10595831895E+02  0.86667431761E+02 -0.16917537173E+04  0.16940053587E+04  0.00000000000E+00 0. -1.
<scales pt_clust_3="14000.00000" pt_clust_4="77.97793" pt_clust_5="43.53019" pt_clust_6="84.91699"></scales>
<clustering>
<clus scale="   43.530">  1  5  2 -1</clus>
<clus scale="   77.978">  2  4  1 -1</clus>
<clus scale="   84.917">  2  6  1 -1</clus>
<clus scale="   43.530">  1  3  2 -1</clus>
</clustering>
</event>
<event>
 6    0  0.2433432E+002  0.1883057E+03  0.7546771E-02  0.1159998E+00
          1   -1    0    0  503    0 -0.00000000000E+00  0.00000000000E+00  0.14753351205E+04  0.14753351205E+04  0.00000000000E+00 0. -1.
         21   -1    0    0  505  502  0.00000000000E+00 -0.00000000000E+00 -0.94877565689E+03  0.94877565689E+03  0.00000000000E+00 0. -1.
         21    1    1    2  503  502  0.12239521928E+03 -0.11128818215E+03  0.17540146976E+02  0.16635295592E+03  0.00000000000E+00 0.  1.
         21    1    1    2  504  501 -0.13571411762E+03  0.19928082087E+03 -0.19916082580E+03  0.31272384274E+03  0.00000000000E+00 0. -1.
         21    1    1    2  505  504 -0.66782397031E+02  0.80998507697E+02 -0.60731028200E+03  0.61631682228E+03  0.00000000000E+00 0. -1.
          1    1    1    2  501    0  0.80101295366E+02 -0.16899114641E+03  0.13154904245E+04  0.13287171565E+04  0.00000000000E+00 0. -1.
<scales pt_clust_3="142.52105" pt_clust_4="14000.00000" pt_clust_5="104.97927" pt_clust_6="188.30572"></scales>
<clustering>
<clus scale="  104.979">  2  5  1 -1</clus>
<clus scale="  142.521">  2  3  1 -1</clus>
<clus scale="  188.306">  1  6  2 -1</clus>
<clus scale="  104.979">  2  3  1 -1</clus>
</clustering>
</event>
<event>
 6    0  0.2433432E+002  0.2237117E+03  0.7546771E-02  0.1131146E+00
         21   -1    0    0  504  502  0.00000000000E+00  0.00000000000E+00  0.25279063718E+03  0.25279063718E+03  0.00000000000E+00 0. -1.
          2   -1    0    0  505    0 -0.00000000000E+00 -0.00000000000E+00 -0.26051246048E+03  0.26051246048E+03  0.00000000000E+00 0.  1.
         21    1    1    2  503  502 -0.16381479035E+03 -0.12907306107E+03 -0.39611726004E+02  0.21228337068E+03  0.00000000000E+00 0. -1.
         21    1    1    2  504  501  0.54805058566E+01  0.50431249886E+02  0.50252092792E+02  0.71404619875E+02  0.00000000000E+00 0. -1.
         21    1    1    2  505  503 -0.16947672451E+01 -0.31785491728E+02  0.94523751253E+01  0.33204474336E+02  0.00000000000E+00 0.  1.
          2    1    1    2  501    0  0.16002905173E+03  0.11042730291E+03 -0.27814565212E+02  0.19641063277E+03  0.00000000000E+00 0.  1.
<scales pt_clust_3="30.47696" pt_clust_4="50.72817" pt_clust_5="30.47696" pt_clust_6="209.66911"></scales>
<clustering>
<clus scale="   30.477">  3  5 -1 -1</clus>
<clus scale="   50.728">  1  4  2 -1</clus>
<clus scale="  209.669">  2  6  1 -1</clus>
<clus scale="   50.728">  1  3  2 -1</clus>
</clustering>
</event>
<event>
 6    0  0.2433432E+002  0.1132347E+03  0.7546771E-02  0.1254694E+00
         -1   -1    0    0    0  501 -0.00000000000E+00  0.00000000000E+00  0.79439452540E+02  0.79439452540E+02  0.00000000000E+00 0.  1.
         21   -1    0    0  503  502  0.00000000000E+00 -0.00000000000E+00 -0.17109790864E+04  0.17109790864E+04  0.00000000000E+00 0.  1.
         21    1    1    2  503  504 -0.32658708443E+02  0.56609175441E+02 -0.11601924227E+04  0.11620316896E+04  0.00000000000E+00 0.  1.
         21    1    1    2  504  505  0.13790886134E+03 -0.34342746238E+02 -0.43200898004E+03  0.45478570458E+03  0.00000000000E+00 0.  1.
         21    1    1    2  505  501 -0.10679160388E+03 -0.57026955726E+02 -0.57864115195E+02  0.13418187719E+03  0.00000000000E+00 0.  1.
         -1    1    1    2    0  502  0.15414509840E+01  0.34760526523E+02  0.18525884062E+02  0.39419267568E+02  0.00000000000E+00 0.  1.
<scales pt_clust_3="65.88985" pt_clust_4="113.23465" pt_clust_5="14000.00000" pt_clust_6="34.79469"></scales>
<clustering>
<clus scale="   34.795">  1  6  2 -1</clus>
<clus scale="   65.890">  2  3  1 -1</clus>
<clus scale="  113.235">  2  4  1 -1</clus>
<clus scale="   65.890">  2  3  1 -1</clus>
</clustering>
</event>
<event>
 6    0  0.2433432E+002  0.2191427E+03  0.7546771E-02  0.1134524E+00
         21   -1    0    0  505  502  0.00000000000E+00  0.00000000000E+00  0.36897939920E+02  0.36897939920E+02  0.00000000000E+00 0. -1.
          2   -1    0    0  504    0 -0.00000000000E+00 -0.00000000000E+00 -0.37588635807E+04  0.37588635807E+04  0.00000000000E+00 0. -1.
         21    1    1    2  503  502 -0.28958347583E+02  0.10408129101E+03 -0.25531875130E+03  0.27723485675E+03  0.00000000000E+00 0. -1.
         21    1    1    2  504  503  0.15376049295E+02  0.14270164202E+03 -0.31791032380E+03  0.34880819301E+03  0.00000000000E+00 0. -1.
         21    1    1    2  505  501 -0.15076009979E+02 -0.17227102774E+03 -0.75097841633E+03  0.77063167263E+03  0.00000000000E+00 0. -1.
          2    1    1    2  501    0  0.28658308267E+02 -0.74511905295E+02 -0.23977581493E+04  0.23990867982E+04  0.00000000000E+00 0. -1.
<scales pt_clust_3="41.17193" pt_clust_4="41.17193" pt_clust_5="213.94274" pt_clust_6="79.83309"></scales>
<clustering>
<clus scale="   41.172">  3  4 -1 -1</clus>
<clus scale="   79.833">  2  6  1 -1</clus>
<clus scale="  213.943">  2  5  1 -1</clus>
<clus scale="  219.143">  1  3  2 -1</clus>
</clustering>
</event>
<event>
 6    0  0.2433432E+002  0.8154963E+02  0.7546771E-02  0.1324710E+00
         21   -1    0    0  505  502  0.00000000000E+00  0.00000000000E+00  0.35514293316E+03  0.35514293316E+03  0.00000000000E+00 0. -1.
          1   -1    0    0  503    0 -0.00000000000E+00 -0.00000000000E+00 -0.24776741059E+03  0.24776741059E+03  0.00000000000E+00 0.  1.
         21    1    1    2  503  502  0.14517037362E+02 -0.11143490241E+03 -0.25748238332E+02  0.11528856676E+03  0.00000000000E+00 0.  1.
         21    1    1    2  504  501  0.38156602704E+02  0.30213909071E+02  0.30768971795E+01  0.48767549943E+02  0.00000000000E+00 0.  1.
         21    1    1    2  505  504 -0.34254019272E+02  0.82048051909E+01  0.27407446293E+03  0.27632855063E+03  0.00000000000E+00 0. -1.
          1    1    1    2  501    0 -0.18419620794E+02  0.73016188147E+02 -0.14402759920E+03  0.16252567641E+03  0.00000000000E+00 0.  1.
<scales pt_clust_3="14000.00000" pt_clust_4="42.57216" pt_clust_5="35.22296" pt_clust_6="81.54963"></scales>
<clustering>
<clus scale="   35.223">  1  5  2 -1</clus>
<clus scale="   42.572">  1  4  2 -1</clus>
<clus scale="   81.550">  2  6  1 -1</clus>
<clus scale="   35.223">  1  3  2 -1</clus>
</clustering>
</event>
<event>
 6    0  0.2433432E+002  0.9892175E+02  0.7546771E-02  0.1282580E+00
         21   -1    0    0  505  502  0.00000000000E+00  0.00000000000E+00  0.90557733930E+02  0.90557733930E+02  0.00000000000E+00 0. -1.
          2   -1    0    0  504    0 -0.00000000000E+00 -0.00000000000E+00 -0.15735505771E+04  0.15735505771E+04  0.00000000000E+00 0. -1.
         21    1    1    2  503  502 -0.73825235244E+02  0.47952309330E+01 -0.19041360147E+02  0.76391969439E+02  0.00000000000E+00 0. -1.
         21    1    1    2  504  503 -0.43573863350E+02 -0.17245421278E+02 -0.11339861082E+03  0.12270016731E+03  0.00000000000E+00 0.  1.
         21    1    1    2  505  501  0.12036403888E+03  0.82581559195E+02 -0.38331770442E+02  0.15091898622E+03  0.00000000000E+00 0. -1.
          2    1    1    2  501    0 -0.29649402889E+01 -0.70131368850E+02 -0.13122211018E+04  0.13140971881E+04  0.00000000000E+00 0. -1.
<scales pt_clust_3="75.37253" pt_clust_4="46.86242" pt_clust_5="14000.00000" pt_clust_6="98.92175"></scales>
<clustering>
<clus scale="   46.862">  2  4  1 -1</clus>
<clus scale="   75.373">  1  3  2 -1</clus>
<clus scale="   98.922">  2  6  1 -1</clus>
<clus scale="   75.373">  1  3  2 -1</clus>
</clustering>
</event>
<event>
 6    0  0.2433432E+002  0.1314520E+03  0.7546771E-02  0.1225317E+00
          2   -1    0    0  503    0 -0.00000000000E+00  0.00000000000E+00  0.81792836238E+03  0.81792836238E+03  0.00000000000E+00 0.  1.
         21   -1    0    0  501  502  0.00000000000E+00 -0.00000000000E+00 -0.13985777887E+03  0.13985777887E+03  0.00000000000E+00 0. -1.
         21    1    1    2  503  505  0.31268700135E+02  0.32621844716E+02  0.20246821114E+03  0.20744949478E+03  0.00000000000E+00 0.  1.
         21    1    1    2  504  502 -0.95376535285E+01 -0.39231590594E+02 -0.11556721339E+03  0.12241676906E+03  0.00000000000E+00 0. -1.
         21    1    1    2  505  504  0.83905277998E+02  0.47376594462E+02  0.22850745211E+03  0.24799252620E+03  0.00000000000E+00 0.  1.
          2    1    1    2  501    0 -0.10563632460E+03 -0.40766848584E+02  0.36266213365E+03  0.37992735121E+03  0.00000000000E+00 0.  1.
<scales pt_clust_3="30.79818" pt_clust_4="40.37431" pt_clust_5="30.79818" pt_clust_6="123.51929"></scales>
<clustering>
<clus scale="   30.798">  3  5 -1 -1</clus>
<clus scale="   40.374">  2  4  1 -1</clus>
<clus scale="  123.519">  1  6  2 -1</clus>
<clus scale="   40.374">  2  3  1 -1</clus>
</clustering>
</event>
<event>
 6    0  0.2433432E+002  0.1062909E+03  0.7546771E-02  0.1267597E+00
          1   -1    0    0  504    0 -0.00000000000E+00  0.00000000000E+00  0.77616034368E+03  0.77616034368E+03  0.00000000000E+00 0.  1.
         21   -1    0    0  503  502  0.00000000000E+00 -0.00000000000E+00 -0.88075008843E+02  0.88075008843E+02  0.00000000000E+00 0.  1.
         21    1    1    2  503  501  0.29572897828E+02  0.18232156620E+02  0.43804386997E+02  0.55908784115E+02  0.00000000000E+00 0.  1.
         21    1    1    2  504  505  0.77910048344E+02 -0.38482233049E+02  0.75095712951E+01  0.87219559472E+02  0.00000000000E+00 0.  1.
         21    1    1    2  505  502 -0.42091292642E+02 -0.67736079225E+02  0.50110239687E+01  0.79905967902E+02  0.00000000000E+00 0.  1.
          1    1    1    2  501    0 -0.65391653530E+02  0.87986155654E+02  0.63176035257E+03  0.64120104103E+03  0.00000000000E+00 0.  1.
<scales pt_clust_3="34.74144" pt_clust_4="14000.00000" pt_clust_5="65.93319" pt_clust_6="106.29088"></scales>
<clustering>
<clus scale="   34.741">  2  3  1 -1</clus>
<clus scale="   65.933">  2  5  1 -1</clus>
<clus scale="  106.291">  1  6  2 -1</clus>
<clus scale="   34.741">  2  3  1 -1</clus>
</clustering>
</event>
<event>
 6    0  0.2433432E+002  0.8921807E+02  0.7546771E-02  0.1304756E+00
          1   -1    0    0  505    0 -0.00000000000E+00  0.00000000000E+00  0.46174075859E+02  0.46174075859E+02  0.00000000000E+00 0. -1.
         21   -1    0    0  504  502  0.00000000000E+00 -0.00000000000E+00 -0.13543530182E+04  0.13543530182E+04  0.00000000000E+00 0.  1.
         21    1    1    2  503  502 -0.49119464565E+02  0.28233236151E+02 -0.37131272089E+03  0.37561013580E+03  0.00000000000E+00 0.  1.
         21    1    1    2  504  501  0.87213811847E+02  0.25645396427E+02 -0.56000040810E+03  0.56733093729E+03  0.00000000000E+00 0.  1.
         21    1    1    2  505  503  0.50394303440E+02 -0.70012029724E+02 -0.35457549586E+03  0.36491787075E+03  0.00000000000E+00 0.  1.
          1    1    1    2  501    0 -0.88488650722E+02  0.16133397147E+02 -0.22290317480E+02  0.92668150211E+02  0.00000000000E+00 0. -1.
<scales pt_clust_3="56.65543" pt_clust_4="14000.00000" pt_clust_5="67.87807" pt_clust_6="89.21807"></scales>
<clustering>
<clus scale="   56.655">  2  3  1 -1</clus>
<clus scale="   67.878">  2  5  1 -1</clus>
<clus scale="   89.218">  1  6  2 -1</clus>
<clus scale="   56.655">  2  3  1 -1</clus>
</clustering>
</event>
<event>
 6    0  0.2433432E+002  0.2055842E+03  0.7546771E-02  0.1145111E+00
         21   -1    0    0  503  502  0.00000000000E+00  0.00000000000E+00  0.16571337087E+04  0.16571337087E+04  0.00000000000E+00 0.  1.
          1   -1    0    0  504    0 -0.00000000000E+00 -0.00000000000E+00 -0.36859016620E+02  0.36859016620E+02  0.00000000000E+00 0.  1.
         21    1    1    2  503  505 -0.96178778978E+02 -0.81435704950E+02  0.75865481210E+03  0.76905087965E+03  0.00000000000E+00 0.  1.
         21    1    1    2  504  502  0.10125396090E+03  0.16494303344E+03  0.44054947962E+03  0.48118854192E+03  0.00000000000E+00 0.  1.
         21    1    1    2  505  501 -0.45972751169E+02 -0.67872237800E+02  0.35604883355E+03  0.36536407375E+03  0.00000000000E+00 0.  1.
          1    1    1    2  501    0  0.40897569251E+02 -0.15635090686E+02  0.65021566830E+02  0.78389230028E+02  0.00000000000E+00 0.  1.
<scales pt_clust_3="34.53156" pt_clust_4="201.07637" pt_clust_5="34.53156" pt_clust_6="43.78433"></scales>
<clustering>
<clus scale="   34.532">  3  5 -1 -1</clus>
<clus scale="   43.784">  2  6  1 -1</clus>
<clus scale="  201.076">  2  4  1 -1</clus>
<clus scale="  205.584">  1  3  2 -1</clus>
</clustering>
</event>
<event>
 6    0  0.2433432E+002  0.1256942E+03  0.7546771E-02  0.1233988E+00
          2   -1    0    0  503    0 -0.00000000000E+00  0.00000000000E+00  0.17539350868E+04  0.17539350868E+04  0.00000000000E+00 0. -1.
         21   -1    0    0  505  502  0.00000000000E+00 -0.00000000000E+00 -0.63378449805E+03  0.63378449805E+03  0.00000000000E+00 0. -1.
         21    1    1    2  503  504 -0.11484265959E+03  0.61173638058E+02 -0.17485115008E+03  0.21795406658E+03  0.00000000000E+00 0. -1.
         21    1    1    2  504  502  0.57864167688E+02  0.32908176173E+02 -0.42071827345E+03  0.42595196393E+03  0.00000000000E+00 0. -1.
         21    1    1    2  505  501  0.18986426169E+02  0.26135496075E+02  0.10541564578E+02  0.33980481420E+02  0.00000000000E+00 0.  1.
          2    1    1    2  501    0  0.37992065728E+02 -0.12021731031E+03  0.17051784477E+04  0.17098330729E+04  0.00000000000E+00 0. -1.
<scales pt_clust_3="14000.00000" pt_clust_4="87.06564" pt_clust_5="32.30400" pt_clust_6="125.69416"></scales>
<clustering>
<clus scale="   32.304">  2  5  1 -1</clus>
<clus scale="   87.066">  2  4  1 -1</clus>
<clus scale="  125.694">  1  6  2 -1</clus>
<clus scale="   32.304">  2  3  1 -1</clus>
</clustering>
</event>
<event>
 6    0  0.2433432E+002  0.5979059E+02  0.7546771E-02  0.1398713E+00
          2   -1    0    0  504    0 -0.00000000000E+00  0.00000000000E+00  0.17041873863E+04  0.17041873863E+04  0.00000000000E+00 0.  1.
         21   -1    0    0  503  502  0.00000000000E+00 -0.00000000000E+00 -0.23153938057E+02  0.23153938057E+02  0.00000000000E+00 0.  1.
         21    1    1    2  503  501 -0.72837368826E+02 -0.10127174221E+01  0.27960027074E+03  0.28893358976E+03  0.00000000000E+00 0.  1.
         21    1    1    2  504  505  0.19764634022E+02 -0.82877151480E+02  0.16416013734E+03  0.18495354468E+03  0.00000000000E+00 0.  1.
         21    1    1    2  505  502  0.21146119750E+02  0.47369536972E+02  0.81149215066E+02  0.96313168981E+02  0.00000000000E+00 0.  1.
          2    1    1    2  501    0  0.31926615054E+02  0.36520331930E+02  0.11561238251E+04  0.11571410209E+04  0.00000000000E+00 0.  1.
<scales pt_clust_3="59.05557" pt_clust_4="14000.00000" pt_clust_5="59.79059" pt_clust_6="48.50818"></scales>
<clustering>
<clus scale="   48.508">  1  6  2 -1</clus>
<clus scale="   59.056">  1  3  2 -1</clus>
<clus scale="   59.791">  2  5  1 -1</clus>
<clus scale="   59.791">  2  3  1 -1</clus>
</clustering>
</event>
<event>
 6    0  0.2433432E+002  0.9443053E+02  0.7546771E-02  0.1292464E+00
         21   -1    0    0  504  502  0.00000000000E+00  0.00000000000E+00  0.16931206616E+04  0.16931206616E+04  0.00000000000E+00 0.  1.
          2   -1    0    0  502    0 -0.00000000000E+00 -0.00000000000E+00 -0.10775173388E+04  0.10775173388E+04  0.00000000000E+00 0. -1.
         21    1    1    2  503  501 -0.61535465079E+02 -0.74586983365E+02  0.11151598747E+03  0.14759961725E+03  0.00000000000E+00 0.  1.
         21    1    1    2  504  505 -0.60828783840E+01 -0.33193345174E+02  0.14350890525E+04  0.14354857673E+04  0.00000000000E+00 0.  1.
         21    1    1    2  505  503  0.42197108829E+02  0.16735621123E+02  0.12207494016E+03  0.13024195953E+03  0.00000000000E+00 0.  1.
          2    1    1    2  501    0  0.25421234634E+02  0.91044707416E+02 -0.10530766573E+04  0.10573106564E+04  0.00000000000E+00 0. -1.
<scales pt_clust_3="94.43053" pt_clust_4="33.74610" pt_clust_5="39.22385" pt_clust_6="14000.00000"></scales>
<clustering>
<clus scale="   33.746">  1  4  2 -1</clus>
<clus scale="   39.224">  1  5  2 -1</clus>
<clus scale="   94.431">  1  3  2 -1</clus>
<clus scale="   33.746">  1  3  2 -1</clus>
</clustering>
</event>
<event>
 6    0  0.2433432E+002  0.6751853E+02  0.7546771E-02  0.1368741E+00
         21   -1    0    0  503  502  0.00000000000E+00  0.00000000000E+00  0.14758625698E+03  0.14758625698E+03  0.00000000000E+00 0. -1.
          1   -1    0    0  504    0 -0.00000000000E+00 -0.00000000000E+00 -0.10962150073E+04  0.10962150073E+04  0.00000000000E+00 0. -1.
         21    1    1    2  503  501 -0.14279711897E+02 -0.86596945271E+02  0.96373469636E+02  0.13034871212E+03  0.00000000000E+00 0. -1.
         21    1    1    2  504  505 -0.68806105790E+02  0.18866364200E+02 -0.49901185256E+02  0.87065195010E+02  0.00000000000E+00 0.  1.
         21    1    1    2  505  502  0.23872131563E+02  0.33135063000E+02 -0.14417793196E+02  0.43309165612E+02  0.00000000000E+00 0.  1.
          1    1    1    2  501    0  0.59213686124E+02  0.34595518070E+02 -0.98068324151E+03  0.98307819153E+03  0.00000000000E+00 0. -1.
<scales pt_clust_3="58.69666" pt_clust_4="67.51853" pt_clust_5="40.83884" pt_clust_6="14000.00000"></scales>
<clustering>
<clus scale="   40.839">  1  5  2 -1</clus>
<clus scale="   58.697">  1  3  2 -1</clus>
<clus scale="   67.519">  1  4  2 -1</clus>
<clus scale="   40.839">  1  3  2 -1</clus>
</clustering>
</event>
<event>
 6    0  0.2433432E+002  0.1425981E+03  0.7546771E-02  0.1209875E+00
         21   -1    0    0  501  502  0.00000000000E+00  0.00000000000E+00  0.44010056603E+03  0.44010056603E+03  0.00000000000E+00 0.  1.
          1   -1    0    0  503    0 -0.00000000000E+00 -0.00000000000E+00 -0.17432741005E+04  0.17432741005E+04  0.00000000000E+00 0. -1.
         21    1    1    2  503  504 -0.89345563268E+02 -0.50028722261E+02  0.14619763071E+03  0.17849159631E+03  0.00000000000E+00 0.  1.
         21    1    1    2  504  505 -0.32704892409E+02 -0.57402867262E+02  0.62639501389E+02  0.91040684815E+02  0.00000000000E+00 0.  1.
         21    1    1    2  505  502  0.88460611033E+02  0.76156171583E+02  0.18362544124E+03  0.21758525880E+03  0.00000000000E+00 0.  1.
          1    1    1    2  501    0  0.33589844645E+02  0.31275417940E+02 -0.16956361078E+04  0.16962571266E+04  0.00000000000E+00 0. -1.
<scales pt_clust_3="40.93211" pt_clust_4="40.93211" pt_clust_5="133.18169" pt_clust_6="45.89585"></scales>
<clustering>
<clus scale="   40.932">  3  4 -1 -1</clus>
<clus scale="   45.896">  2  6  1 -1</clus>
<clus scale="  133.182">  1  5  2 -1</clus>
<clus scale="  133.182">  1  3  2 -1</clus>
</clustering>
</event>
<event>
 6    0  0.2433432E+002  0.1133966E+03  0.7546771E-02  0.1254406E+00
         21   -1    0    0  501  502  0.00000000000E+00  0.00000000000E+00  0.26807346370E+02  0.26807346370E+02  0.00000000000E+00 0. -1.
          2   -1    0    0  503    0 -0.00000000000E+00 -0.00000000000E+00 -0.21982217253E+04  0.21982217253E+04  0.00000000000E+00 0. -1.
         21    1    1    2  503  504  0.84877312985E+01  0.57413156834E+02 -0.29153816938E+03  0.29725883732E+03  0.00000000000E+00 0. -1.
         21    1    1    2  504  505  0.87451932091E+02  0.34886935811E+02 -0.16473000862E+04  0.16499886402E+04  0.00000000000E+00 0. -1.
         21    1    1    2  505  502 -0.73214208257E+02 -0.29022341686E+02 -0.86543309721E+02  0.11701436264E+03  0.00000000000E+00 0. -1.
          2    1    1    2  501    0 -0.22725455133E+02 -0.63277750958E+02 -0.14603281366E+03  0.16076723156E+03  0.00000000000E+00 0. -1.
<scales pt_clust_3="58.03716" pt_clust_4="113.39662" pt_clust_5="14000.00000" pt_clust_6="62.65662"></scales>
<clustering>
<clus scale="   58.037">  2  3  1 -1</clus>
<clus scale="   62.657">  1  6  2 -1</clus>
<clus scale="  113.397">  2  4  1 -1</clus>
<clus scale="   62.657">  1  3  2 -1</clus>
</clustering>
</event>
<event>
 6    0  0.2433432E+002  0.7736857E+02  0.7546771E-02  0.1336689E+00
          1   -1    0    0  503    0 -0.00000000000E+00  0.00000000000E+00  0.15680511401E+04  0.15680511401E+04  0.00000000000E+00 0. -1.
         21   -1    0    0  504  502  0.00000000000E+00 -0.00000000000E+00 -0.12425347457E+03  0.12425347457E+03  0.00000000000E+00 0. -1.
         21    1    1    2  503  502  0.48833099189E+02 -0.33769614387E+02 -0.29807965242E+02  0.66434729051E+02  0.00000000000E+00 0. -1.
         21    1    1    2  504  505  0.95169986112E+00 -0.30836939166E+02 -0.62110801138E+02  0.69351093486E+02  0.00000000000E+00 0. -1.
         21    1    1    2  505  501 -0.29025462634E+01  0.10127631368E+03  0.25458051846E+03  0.27400101618E+03  0.00000000000E+00 0. -1.
          1    1    1    2  501    0 -0.46882252786E+02 -0.36669760124E+02  0.12811359135E+04  0.12825177760E+04  0.00000000000E+00 0. -1.
<scales pt_clust_3="77.36857" pt_clust_4="30.85162" pt_clust_5="14000.00000" pt_clust_6="59.73606"></scales>
<clustering>
<clus scale="   30.852">  2  4  1 -1</clus>
<clus scale="   59.736">  1  6  2 -1</clus>
<clus scale="   77.369">  2  3  1 -1</clus>
<clus scale="   30.852">  2  3  1 -1</clus>
</clustering>
</event>
<event>
 6    0  0.2433432E+002  0.1188539E+03  0.7546771E-02  0.1245000E+00
         21   -1    0    0  503  502  0.00000000000E+00  0.00000000000E+00  0.11502587977E+04  0.11502587977E+04  0.00000000000E+00 0.  1.
          2   -1    0    0  504    0 -0.00000000000E+00 -0.00000000000E+00 -0.71907625619E+02  0.71907625619E+02  0.00000000000E+00 0.  1.
         21    1    1    2  503  501 -0.96612528088E+02  0.33968084624E+02  0.39329237882E+03  0.40640707006E+03  0.00000000000E+00 0.  1.
         21    1    1    2  504  505  0.13457810462E+03 -0.95810397919E+02  0.29484676740E+03  0.33797265398E+03  0.00000000000E+00 0.  1.
         21    1    1    2  505  502  0.25905006498E+02  0.47604080845E+02  0.40670646173E+03  0.41030155238E+03  0.00000000000E+00 0.  1.
          2    1    1    2  501    0 -0.63870583026E+02  0.14238232450E+02 -0.16494435856E+02  0.67485146911E+02  0.00000000000E+00 0.  1.
<scales pt_clust_3="118.85386" pt_clust_4="14000.00000" pt_clust_5="54.19611" pt_clust_6="64.95000"></scales>
<clustering>
<clus scale="   54.196">  1  5  2 -1</clus>
<clus scale="   64.950">  2  6  1 -1</clus>
<clus scale="  118.854">  1  3  2 -1</clus>
<clus scale="   54.196">  1  3  2 -1</clus>
</clustering>
</event>
<event>
 6    0  0.2433432E+002  0.1387797E+03  0.7546771E-02  0.1214980E+00
          1   -1    0    0  505    0 -0.00000000000E+00  0.00000000000E+00  0.12932825826E+04  0.12932825826E+04  0.00000000000E+00 0. -1.
         21   -1    0    0  504  502  0.00000000000E+00 -0.00000000000E+00 -0.31183730229E+03  0.31183730229E+03  0.00000000000E+00 0. -1.
         21    1    1    2  503  502  0.38174406155E+02  0.44045886600E+02 -0.17641705255E+03  0.18579639890E+03  0.00000000000E+00 0. -1.
         21    1    1    2  504  501  0.60584310319E+02 -0.16872114913E+03  0.20304798628E+02  0.18041499291E+03  0.00000000000E+00 0. -1.
         21    1    1    2  505  503  0.33675836876E+01  0.32237229489E+02 -0.41035906368E+02  0.52292687791E+02  0.00000000000E+00 0. -1.
          1    1    1    2  501    0 -0.10212630016E+03  0.92438033041E+02  0.11785934406E+04  0.11866158053E+04  0.00000000000E+00 0. -1.
<scales pt_clust_3="96.95681" pt_clust_4="138.77969" pt_clust_5="32.12443" pt_clust_6="14000.00000"></scales>
<clustering>
<clus scale="   32.124">  3  5 -1 -1</clus>
<clus scale="   96.957">  2  3  1 -1</clus>
<clus scale="  138.780">  2  4  1 -1</clus>
<clus scale="   96.957">  2  3  1 -1</clus>
</clustering>
</event>
<event>
 6    0  0.2433432E+002  0.1563623E+03  0.7546771E-02  0.1192866E+00
         21   -1    0    0  505  502  0.00000000000E+00  0.00000000000E+00  0.47447763399E+03  0.47447763399E+03  0.00000000000E+00 0.  1.
         -4   -1    0    0    0  501 -0.00000000000E+00 -0.00000000000E+00 -0.22348130208E+03  0.22348130208E+03  0.00000000000E+00 0.  1.
         21    1    1    2  503  501  0.28570876945E+02 -0.24520562489E+03  0.16728837210E+03  0.29820713092E+03  0.00000000000E+00 0.  1.
         21    1    1    2  504  502 -0.27942963250E+02  0.97391401007E+02  0.10926105791E+03  0.14900964050E+03  0.00000000000E+00 0. -1.
         21    1    1    2  505  503  0.68754613969E+02  0.56049252204E+02  0.60244437485E+02  0.10722923045E+03  0.00000000000E+00 0.  1.
         -4    1    1    2    0  504 -0.69382527664E+02  0.91764971684E+02 -0.85797535587E+02  0.14351293421E+03  0.00000000000E+00 0.  1.
<scales pt_clust_3="14000.00000" pt_clust_4="156.36226" pt_clust_5="88.70578" pt_clust_6="115.46756"></scales>
<clustering>
<clus scale="   88.706">  1  5  2 -1</clus>
<clus scale="  115.468">  2  6  1 -1</clus>
<clus scale="  156.362">  1  4  2 -1</clus>
<clus scale="   88.706">  1  3  2 -1</clus>
</clustering>
</event>
<event>
 6    0  0.2433432E+002  0.1010718E+03  0.7546771E-02  0.1278058E+00
         21   -1    0    0  503  502  0.00000000000E+00  0.00000000000E+00  0.40622403389E+03  0.40622403389E+03  0.00000000000E+00 0. -1.
          2   -1    0    0  504    0 -0.00000000000E+00 -0.00000000000E+00 -0.73712564733E+03  0.73712564733E+03  0.00000000000E+00 0.  1.
         21    1    1    2  503  501  0.39209205507E+02 -0.10972723147E+03  0.34555211888E+03  0.36466929400E+03  0.00000000000E+00 0. -1.
         21    1    1    2  504  505 -0.83301357273E+01  0.51199308210E+02 -0.66674572218E+02  0.84476380740E+02  0.00000000000E+00 0.  1.
         21    1    1    2  505  502  0.34540068376E+02  0.38398005721E+02  0.23850493878E+02  0.56888216926E+02  0.00000000000E+00 0.  1.
          2    1    1    2  501    0 -0.65419138155E+02  0.20129917544E+02 -0.63362965398E+03  0.63731578956E+03  0.00000000000E+00 0.  1.
<scales pt_clust_3="14000.00000" pt_clust_4="52.66876" pt_clust_5="51.64710" pt_clust_6="101.07177"></scales>
<clustering>
<clus scale="   51.647">  1  5  2 -1</clus>
<clus scale="   52.669">  2  4  1 -1</clus>
<clus scale="  101.072">  2  6  1 -1</clus>
<clus scale="   51.647">  1  3  2 -1</clus>
</clustering>
</event>
<event>
 6    0  0.2433432E+002  0.1299672E+03  0.7546771E-02  0.1227504E+00
         21   -1    0    0  504  502  0.00000000000E+00  0.00000000000E+00  0.57753865668E+03  0.57753865668E+03  0.00000000000E+00 0.  1.
          3   -1    0    0  503    0 -0.00000000000E+00 -0.00000000000E+00 -0.33361724080E+03  0.33361724080E+03  0.00000000000E+00 0.  1.
         21    1    1    2  503  502  0.28438853198E+02 -0.11439389121E+03  0.21928637987E+03  0.24896033241E+03  0.00000000000E+00 0.  1.
         21    1    1    2  504  505 -0.57254212404E+02  0.13596746348E+03  0.24612411953E+03  0.28695344253E+03  0.00000000000E+00 0. -1.
         21    1    1    2  505  501  0.81750130111E+02  0.41111953634E+02  0.40969357411E+02  0.10025848967E+03  0.00000000000E+00 0.  1.
          3    1    1    2  501    0 -0.52934770905E+02 -0.62685525904E+02 -0.26245844093E+03  0.27498363287E+03  0.00000000000E+00 0.  1.
<scales pt_clust_3="14000.00000" pt_clust_4="129.96725" pt_clust_5="58.90614" pt_clust_6="82.04612"></scales>
<clustering>
<clus scale="   82.046">  2  6  1 -1</clus>
<clus scale="   58.906">  2  5  1 -1</clus>
<clus scale="  129.967">  2  4  1 -1</clus>
<clus scale="  129.967">  1  3  2 -1</clus>
</clustering>
</event>
<event>
 6    0  0.2433432E+002  0.8876916E+02  0.7546771E-02  0.1305860E+00
          2   -1    0    0  504    0 -0.00000000000E+00  0.00000000000E+00  0.28264325540E+04  0.28264325540E+04  0.00000000000E+00 0.  1.
         21   -1    0    0  501  502  0.00000000000E+00 -0.00000000000E+00 -0.47118935104E+02  0.47118935104E+02  0.00000000000E+00 0.  1.
         21    1    1    2  503  505  0.11150946825E+03  0.34142345517E+02  0.28624744038E+03  0.30909166664E+03  0.00000000000E+00 0.  1.
         21    1    1    2  504  503  0.44852747958E+02 -0.75806799461E+02  0.21168382441E+03  0.22927817463E+03  0.00000000000E+00 0.  1.
         21    1    1    2  505  502 -0.81173218862E+02  0.29835960945E+02  0.44972946605E+02  0.97477392006E+02  0.00000000000E+00 0.  1.
          2    1    1    2  501    0 -0.75188997347E+02  0.11828492999E+02  0.22364094075E+04  0.22377042559E+04  0.00000000000E+00 0.  1.
<scales pt_clust_3="14000.00000" pt_clust_4="73.31506" pt_clust_5="88.76916" pt_clust_6="76.11372"></scales>
<clustering>
<clus scale="   76.114">  1  6  2 -1</clus>
<clus scale="   73.315">  1  4  2 -1</clus>
<clus scale="   88.769">  2  5  1 -1</clus>
<clus scale="   88.769">  2  3  1 -1</clus>
</clustering>
</event>
<event>
 6    0  0.2433432E+002  0.1083177E+03  0.7546771E-02  0.1263717E+00
         21   -1    0    0  505  502  0.00000000000E+00  0.00000000000E+00  0.11172895404E+03  0.11172895404E+03  0.00000000000E+00 0. -1.
          2   -1    0    0  502    0 -0.00000000000E+00 -0.00000000000E+00 -0.30411090565E+04  0.30411090565E+04  0.00000000000E+00 0.  1.
         21    1    1    2  503  504  0.30210629718E+02 -0.36201747558E+02  0.27274028882E+02  0.54471289004E+02  0.00000000000E+00 0. -1.
         21    1    1    2  504  501  0.33751217303E+02  0.71039144573E+02 -0.40789530951E+03  0.41540857989E+03  0.00000000000E+00 0.  1.
         21    1    1    2  505  503 -0.64080888450E+01 -0.62652824503E+02  0.51841736393E+02  0.81572088689E+02  0.00000000000E+00 0. -1.
          2    1    1    2  501    0 -0.57553758176E+02  0.27815427488E+02 -0.26006005582E+04  0.26013860530E+04  0.00000000000E+00 0.  1.
<scales pt_clust_3="37.81206" pt_clust_4="99.11115" pt_clust_5="37.81206" pt_clust_6="63.92287"></scales>
<clustering>
<clus scale="   37.812">  3  5 -1 -1</clus>
<clus scale="   63.923">  2  6  1 -1</clus>
<clus scale="   99.111">  2  4  1 -1</clus>
<clus scale="  108.318">  1  3  2 -1</clus>
</clustering>
</event>
<event>
 6    0  0.2433432E+002  0.1002793E+03  0.7546771E-02  0.1279710E+00
         21   -1    0    0  501  502  0.00000000000E+00  0.00000000000E+00  0.57726721256E+03  0.57726721256E+03  0.00000000000E+00 0. -1.
          3   -1    0    0  503    0 -0.00000000000E+00 -0.00000000000E+00 -0.13840792236E+03  0.13840792236E+03  0.00000000000E+00 0.  1.
         21    1    1    2  503  505  0.29086509279E+02  0.26334610059E+02  0.42936304261E+00  0.39239279576E+02  0.00000000000E+00 0. -1.
         21    1    1    2  504  502  0.40840346478E+02 -0.91376442141E+02  0.49459286562E+03  0.50461836154E+03  0.00000000000E+00 0. -1.
         21    1    1    2  505  504 -0.29806297685E+02  0.98905303573E+02 -0.13519684271E+02  0.10417992282E+03  0.00000000000E+00 0. -1.
          3    1    1    2  501    0 -0.40120558072E+02 -0.33863471491E+02 -0.42643254189E+02  0.67637570988E+02  0.00000000000E+00 0.  1.
<scales pt_clust_3="39.23693" pt_clust_4="100.27933" pt_clust_5="14000.00000" pt_clust_6="34.33761"></scales>
<clustering>
<clus scale="   39.237">  2  3  1 -1</clus>
<clus scale="   34.338">  2  6  1 -1</clus>
<clus scale="  100.279">  1  4  2 -1</clus>
<clus scale="  100.279">  1  3  2 -1</clus>
</clustering>
</event>
<event>
 6    0  0.2433432E+002  0.8230799E+02  0.7546771E-02  0.1322626E+00
          1   -1    0    0  504    0 -0.00000000000E+00  0.00000000000E+00  0.33368908920E+04  0.33368908920E+04  0.00000000000E+00 0.  1.
         21   -1    0    0  505  502  0.00000000000E+00 -0.00000000000E+00 -0.13522555170E+03  0.13522555170E+03  0.00000000000E+00 0. -1.
         21    1    1    2  503  501  0.33361763591E+01 -0.87085365383E+02  0.13449138930E+03  0.16025893027E+03  0.00000000000E+00 0. -1.
         21    1    1    2  504  502  0.66595525276E+02  0.36110960687E+02  0.10707911785E+03  0.13116746146E+03  0.00000000000E+00 0. -1.
         21    1    1    2  505  503 -0.82639257882E+02 -0.13258510524E+02 -0.94018448922E+02  0.12587495296E+03  0.00000000000E+00 0. -1.
          1    1    1    2  501    0  0.12707556248E+02  0.64232915221E+02  0.30541132820E+04  0.30548150990E+04  0.00000000000E+00 0.  1.
<scales pt_clust_3="54.48691" pt_clust_4="82.30799" pt_clust_5="14000.00000" pt_clust_6="65.47785"></scales>
<clustering>
<clus scale="   65.478">  1  6  2 -1</clus>
<clus scale="   54.487">  1  3  2 -1</clus>
<clus scale="   82.308">  1  4  2 -1</clus>
<clus scale="   82.308">  2  3  1 -1</clus>
</clustering>
</event>
<event>
 6    0  0.2433432E+002  0.1123159E+03  0.7546771E-02  0.1256340E+00
          2   -1    0    0  503    0 -0.00000000000E+00  0.00000000000E+00  0.32178614124E+03  0.32178614124E+03  0.00000000000E+00 0. -1.
         21   -1    0    0  501  502  0.00000000000E+00 -0.00000000000E+00 -0.42066147213E+03  0.42066147213E+03  0.00000000000E+00 0. -1.
         21    1    1    2  503  504  0.14055970556E+02 -0.51630225684E+02  0.29806261014E+02  0.61250826183E+02  0.00000000000E+00 0.  1.
         21    1    1    2  504  505  0.15800577559E+03  0.41465965648E+02  0.21158308263E+03  0.26730628927E+03  0.00000000000E+00 0. -1.
         21    1    1    2  505  502 -0.10988354893E+03 -0.11292407984E+02 -0.32913811939E+03  0.34717980132E+03  0.00000000000E+00 0. -1.
          2    1    1    2  501    0 -0.62178197219E+02  0.21456668021E+02 -0.11126555137E+02  0.66710696602E+02  0.00000000000E+00 0. -1.
<scales pt_clust_3="53.50935" pt_clust_4="14000.00000" pt_clust_5="112.31594" pt_clust_6="62.90271"></scales>
<clustering>
<clus scale="   53.509">  1  3  2 -1</clus>
<clus scale="   62.903">  1  6  2 -1</clus>
<clus scale="  112.316">  2  5  1 -1</clus>
<clus scale="  112.316">  2  3  1 -1</clus>
</clustering>
</event>
<event>
 6    0  0.2433432E+002  0.7568583E+02  0.7546771E-02  0.1341760E+00
         21   -1    0    0  505  502  0.00000000000E+00  0.00000000000E+00  0.10059049923E+02  0.10059049923E+02  0.00000000000E+00 0. -1.
          2   -1    0    0  503    0 -0.00000000000E+00 -0.00000000000E+00 -0.29178212547E+04  0.29178212547E+04  0.00000000000E+00 0. -1.
         21    1    1    2  503  502  0.81478409184E+02 -0.22959446059E+02 -0.10726332136E+04  0.10759683444E+04  0.00000000000E+00 0.  1.
         21    1    1    2  504  501 -0.76036863848E+02  0.64574022135E+02 -0.68054663825E+03  0.68781911564E+03  0.00000000000E+00 0. -1.
         21    1    1    2  505  504  0.23495295000E+02 -0.53110374863E+02 -0.18262135961E+03  0.19163324814E+03  0.00000000000E+00 0. -1.
          2    1    1    2  501    0 -0.28936840336E+02  0.11495798787E+02 -0.97196099336E+03  0.97245959645E+03  0.00000000000E+00 0. -1.
<scales pt_clust_3="14000.00000" pt_clust_4="75.68583" pt_clust_5="55.97754" pt_clust_6="31.13670"></scales>
<clustering>
<clus scale="   31.137">  2  6  1 -1</clus>
<clus scale="   55.978">  1  5  2 -1</clus>
<clus scale="   75.686">  1  4  2 -1</clus>
<clus scale="   55.978">  1  3  2 -1</clus>
</clustering>
</event>
<event>
 6    0  0.2433432E+002  0.1681680E+03  0.7546771E-02  0.1179772E+00
         21   -1    0    0  501  502  0.00000000000E+00  0.00000000000E+00  0.20006496159E+03  0.20006496159E+03  0.00000000000E+00 0.  1.
          2   -1    0    0  503    0 -0.00000000000E+00 -0.00000000000E+00 -0.13213060680E+04  0.13213060680E+04  0.00000000000E+00 0.  1.
         21    1    1    2  503  504  0.79929715363E+02  0.39716549308E+02  0.26512624362E+02  0.93107910177E+02  0.00000000000E+00 0.  1.
         21    1    1    2  504  505  0.56699170413E+02  0.40559576742E+02 -0.74081743726E+01  0.70105322470E+02  0.00000000000E+00 0.  1.
         21    1    1    2  505  502 -0.12360500747E+03 -0.12107075638E+03  0.39551228616E+02  0.17748415593E+03  0.00000000000E+00 0.  1.
          2    1    1    2  501    0 -0.13023878303E+02  0.40794630328E+02 -0.11798967851E+04  0.11806736410E+04  0.00000000000E+00 0.  1.
<scales pt_clust_3="30.12471" pt_clust_4="30.12471" pt_clust_5="164.67727" pt_clust_6="42.82316"></scales>
<clustering>
<clus scale="   30.125">  3  4 -1 -1</clus>
<clus scale="   42.823">  2  6  1 -1</clus>
<clus scale="  164.677">  1  5  2 -1</clus>
<clus scale="  164.677">  1  3  2 -1</clus>
</clustering>
</event>
<event>
 6    0  0.2433432E+002  0.5910846E+02  0.7546771E-02  0.1401612E+00
         21   -1    0    0  504  502  0.00000000000E+00  0.00000000000E+00  0.81113196718E+03  0.81113196718E+03  0.00000000000E+00 0. -1.
          1   -1    0    0  503    0 -0.00000000000E+00 -0.00000000000E+00 -0.20445756103E+04  0.20445756103E+04  0.00000000000E+00 0.  1.
         21    1    1    2  503  502  0.74337181835E+01  0.84040080942E+02  0.51552662436E+03  0.52238462439E+03  0.00000000000E+00 0. -1.
         21    1    1    2  504  505  0.49988774227E+02  0.13745225914E+02  0.24343997249E+03  0.24889923461E+03  0.00000000000E+00 0. -1.
         21    1    1    2  505  501 -0.38415333916E+02 -0.41836316748E+02  0.27878490749E+02  0.63271048082E+02  0.00000000000E+00 0.  1.
          1    1    1    2  501    0 -0.19007158495E+02 -0.55948990108E+02 -0.20202887308E+04  0.20211526704E+04  0.00000000000E+00 0.  1.
<scales pt_clust_3="59.10846" pt_clust_4="51.84408" pt_clust_5="53.30016" pt_clust_6="14000.00000"></scales>
<clustering>
<clus scale="   51.844">  1  4  2 -1</clus>
<clus scale="   53.300">  1  5  2 -1</clus>
<clus scale="   59.108">  1  3  2 -1</clus>
<clus scale="   51.844">  1  3  2 -1</clus>
</clustering>
</event>
<event>
 6    0  0.2433432E+002  0.2078731E+03  0.7546771E-02  0.1143261E+00
         21   -1    0    0  505  502  0.00000000000E+00  0.00000000000E+00  0.66515353842E+03  0.66515353842E+03  0.00000000000E+00 0.  1.
          2   -1    0    0  502    0 -0.00000000000E+00 -0.00000000000E+00 -0.26352999419E+03  0.26352999419E+03  0.00000000000E+00 0.  1.
         21    1    1    2  503  501 -0.62519560406E+02 -0.33083032875E+02 -0.92392496637E+01  0.71334046794E+02  0.00000000000E+00 0.  1.
         21    1    1    2  504  503 -0.11867608006E+03 -0.81686580918E+01  0.42533030400E+02  0.12633209263E+03  0.00000000000E+00 0. -1.
         21    1    1    2  505  504  0.14922767436E+03  0.14557080860E+03  0.51072121034E+03  0.55163023285E+03  0.00000000000E+00 0.  1.
          2    1    1    2  501    0  0.31967966102E+02 -0.10431911763E+03 -0.14239144684E+03  0.17938716034E+03  0.00000000000E+00 0.  1.
<scales pt_clust_3="45.16014" pt_clust_4="45.16014" pt_clust_5="199.45261" pt_clust_6="109.10742"></scales>
<clustering>
<clus scale="   45.160">  3  4 -1 -1</clus>
<clus scale="  109.107">  2  6  1 -1</clus>
<clus scale="  199.453">  1  5  2 -1</clus>
<clus scale="  199.453">  1  3  2 -1</clus>
</clustering>
</event>
<event>
 6    0  0.2433432E+002  0.6875592E+02  0.7546771E-02  0.1364375E+00
         21   -1    0    0  505  502  0.00000000000E+00  0.00000000000E+00  0.86937559282E+02  0.86937559282E+02  0.00000000000E+00 0. -1.
         -2   -1    0    0    0  501 -0.00000000000E+00 -0.00000000000E+00 -0.78598858918E+03  0.78598858918E+03  0.00000000000E+00 0.  1.
         21    1    1    2  503  502 -0.16041617346E+02 -0.31150684257E+02  0.27356370642E+02  0.44453004752E+02  0.00000000000E+00 0. -1.
         21    1    1    2  504  501  0.50465724826E+02  0.59377627460E+02 -0.12204910452E+03  0.14480495827E+03  0.00000000000E+00 0.  1.
         21    1    1    2  505  504 -0.51159825831E+02  0.41940804946E+02  0.83939532432E+01  0.66684461081E+02  0.00000000000E+00 0. -1.
         -2    1    1    2    0  503  0.16735718350E+02 -0.70167748150E+02 -0.61275224926E+03  0.61698372436E+03  0.00000000000E+00 0.  1.
<scales pt_clust_3="35.03853" pt_clust_4="68.75592" pt_clust_5="65.77203" pt_clust_6="14000.00000"></scales>
<clustering>
<clus scale="   35.039">  1  3  2 -1</clus>
<clus scale="   65.772">  1  5  2 -1</clus>
<clus scale="   68.756">  1  4  2 -1</clus>
<clus scale="   35.039">  1  3  2 -1</clus>
</clustering>
</event>
<event>
 6    0  0.2433432E+002  0.8491589E+02  0.7546771E-02  0.1315653E+00
         21   -1    0    0  504  502  0.00000000000E+00  0.00000000000E+00  0.20111081980E+03  0.20111081980E+03  0.00000000000E+00 0. -1.
          2   -1    0    0  503    0 -0.00000000000E+00 -0.00000000000E+00 -0.25020300594E+04  0.25020300594E+04  0.00000000000E+00 0. -1.
         21    1    1    2  503  502 -0.75693213493E+02 -0.18999144645E+02  0.66649690517E+02  0.10262851121E+03  0.00000000000E+00 0. -1.
         21    1    1    2  504  505  0.99357785057E+02 -0.33062508385E+02  0.68931037355E+02  0.12536581202E+03  0.00000000000E+00 0. -1.
         21    1    1    2  505  501  0.20199742161E+02  0.59044198850E+02 -0.31805061090E+02  0.70041479940E+02  0.00000000000E+00 0. -1.
          2    1    1    2  501    0 -0.43864313725E+02 -0.69825458202E+01 -0.24046949064E+04  0.24051050760E+04  0.00000000000E+00 0. -1.
<scales pt_clust_3="84.91589" pt_clust_4="14000.00000" pt_clust_5="55.45400" pt_clust_6="44.41660"></scales>
<clustering>
<clus scale="   44.417">  2  6  1 -1</clus>
<clus scale="   55.454">  2  5  1 -1</clus>
<clus scale="   84.916">  1  3  2 -1</clus>
<clus scale="   84.916">  1  3  2 -1</clus>
</clustering>
</event>
<event>
 6    0  0.2433432E+002  0.1098943E+03  0.7546771E-02  0.1260766E+00
         21   -1    0    0  503  502  0.00000000000E+00  0.00000000000E+00  0.18614914492E+03  0.18614914492E+03  0.00000000000E+00 0. -1.
          2   -1    0    0  504    0 -0.00000000000E+00 -0.00000000000E+00 -0.38495288534E+03  0.38495288534E+03  0.00000000000E+00 0.  1.
         21    1    1    2  503  501  0.14048572321E+02  0.11153666162E+03  0.21252833812E+02  0.11440923134E+03  0.00000000000E+00 0. -1.
         21    1    1    2  504  505  0.37069438176E+02 -0.61803677991E+02 -0.23331188737E+02  0.75750790278E+02  0.00000000000E+00 0.  1.
         21    1    1    2  505  502 -0.51242398965E+02 -0.98472657056E+02  0.55459513606E+02  0.12409031102E+03  0.00000000000E+00 0. -1.
          2    1    1    2  501    0  0.12438846691E+00  0.48739673425E+02 -0.25218489910E+03  0.25685169762E+03  0.00000000000E+00 0.  1.
<scales pt_clust_3="109.89426" pt_clust_4="57.02467" pt_clust_5="14000.00000" pt_clust_6="48.73983"></scales>
<clustering>
<clus scale="   48.740">  2  6  1 -1</clus>
<clus scale="   57.025">  2  4  1 -1</clus>
<clus scale="  109.894">  2  3  1 -1</clus>
<clus scale="  109.894">  1  3  2 -1</clus>
</clustering>
</event>
<event>
 6    0  0.2433432E+002  0.1731576E+03  0.7546771E-02  0.1174594E+00
         -4   -1    0    0    0  501 -0.00000000000E+00  0.00000000000E+00  0.64288133347E+03  0.64288133347E+03  0.00000000000E+00 0. -1.
         21   -1    0    0  503  502  0.00000000000E+00 -0.00000000000E+00 -0.39674218127E+03  0.39674218127E+03  0.00000000000E+00 0.  1.
         21    1    1    2  503  501 -0.51457780041E+02 -0.16582238702E+03 -0.91054270110E+02  0.19605062425E+03  0.00000000000E+00 0.  1.
         21    1    1    2  504  502 -0.58125653395E+01  0.17691529898E+03 -0.15561781618E+03  0.23568986750E+03  0.00000000000E+00 0.  1.
         21    1    1    2  505  504  0.11269983459E+03 -0.92280241704E+02  0.49558528083E+02  0.15386014244E+03  0.00000000000E+00 0.  1.
         -4    1    1    2    0  505 -0.55429489204E+02  0.81187329744E+02  0.44325271041E+03  0.45402288056E+03  0.00000000000E+00 0. -1.
<scales pt_clust_3="173.15764" pt_clust_4="14000.00000" pt_clust_5="97.35828" pt_clust_6="98.30468"></scales>
<clustering>
<clus scale="   98.305">  1  6  2 -1</clus>
<clus scale="   97.358">  1  5  2 -1</clus>
<clus scale="  173.158">  1  3  2 -1</clus>
<clus scale="  173.158">  2  3  1 -1</clus>
</clustering>
</event>
<event>
 6    0  0.2433432E+002  0.1501322E+03  0.7546771E-02  0.1200311E+00
          2   -1    0    0  505    0 -0.00000000000E+00  0.00000000000E+00  0.77668349868E+03  0.77668349868E+03  0.00000000000E+00 0.  1.
         21   -1    0    0  504  502  0.00000000000E+00 -0.00000000000E+00 -0.23392193596E+03  0.23392193596E+03  0.00000000000E+00 0.  1.
         21    1    1    2  503  501  0.10259371485E+03  0.36430946732E+02  0.35573437671E+02  0.11453450866E+03  0.00000000000E+00 0.  1.
         21    1    1    2  504  503  0.52188387091E+01  0.10928985460E+03 -0.49762914762E+02  0.12019923578E+03  0.00000000000E+00 0.  1.
         21    1    1    2  505  502 -0.16341255111E+03 -0.15141232886E+03  0.67909622963E+01  0.22287995056E+03  0.00000000000E+00 0.  1.
          2    1    1    2  501    0  0.55599997551E+02  0.56915275193E+01  0.55016007752E+03  0.55299173964E+03  0.00000000000E+00 0.  1.
<scales pt_clust_3="14000.00000" pt_clust_4="111.05581" pt_clust_5="150.13218" pt_clust_6="55.89055"></scales>
<clustering>
<clus scale="   55.891">  1  6  2 -1</clus>
<clus scale="  111.056">  2  4  1 -1</clus>
<clus scale="  150.132">  2  5  1 -1</clus>
<clus scale="  111.056">  2  3  1 -1</clus>
</clustering>
</event>
<event>
 6    0  0.2433432E+002  0.1178875E+03  0.7546771E-02  0.1246623E+00
          1   -1    0    0  502    0 -0.00000000000E+00  0.00000000000E+00  0.21404379271E+03  0.21404379271E+03  0.00000000000E+00 0.  1.
         21   -1    0    0  503  502  0.00000000000E+00 -0.00000000000E+00 -0.38674127903E+03  0.38674127903E+03  0.00000000000E+00 0.  1.
         21    1    1    2  503  505  0.10825108602E+03 -0.52841393901E+02 -0.26943370559E+03  0.29513561670E+03  0.00000000000E+00 0.  1.
         21    1    1    2  504  501 -0.11532842513E+01 -0.53468704541E+02 -0.11978150533E+02  0.54806099296E+02  0.00000000000E+00 0. -1.
         21    1    1    2  505  504 -0.82049124215E+02  0.77141514769E+02 -0.21865099035E+02  0.11472120397E+03  0.00000000000E+00 0.  1.
          1    1    1    2  501    0 -0.25048677554E+02  0.29168583672E+02  0.13057946884E+03  0.13612215178E+03  0.00000000000E+00 0.  1.
<scales pt_clust_3="117.88754" pt_clust_4="46.38863" pt_clust_5="14000.00000" pt_clust_6="38.44792"></scales>
<clustering>
<clus scale="   38.448">  1  6  2 -1</clus>
<clus scale="   46.389">  1  4  2 -1</clus>
<clus scale="  117.888">  2  3  1 -1</clus>
<clus scale="  117.888">  2  3  1 -1</clus>
</clustering>
</event>
<event>
 6    0  0.2433432E+002  0.1121124E+03  0.7546771E-02  0.1256707E+00
          2   -1    0    0  504    0 -0.00000000000E+00  0.00000000000E+00  0.14419988338E+04  0.14419988338E+04  0.00000000000E+00 0. -1.
         21   -1    0    0  505  502  0.00000000000E+00 -0.00000000000E+00 -0.12515380582E+04  0.12515380582E+04  0.00000000000E+00 0. -1.
         21    1    1    2  503  502  0.87813343920E+01  0.11853305683E+03 -0.96002839870E+03  0.96735811554E+03  0.00000000000E+00 0. -1.
         21    1    1    2  504  503  0.61481269773E+02 -0.54005737281E+02 -0.17513260210E+02  0.83685604947E+02  0.00000000000E+00 0. -1.
         21    1    1    2  505  501 -0.91766364769E+02 -0.33758251539E+02 -0.22690744778E+03  0.24707827729E+03  0.00000000000E+00 0. -1.
          2    1    1    2  501    0  0.21503760604E+02 -0.30769068010E+02  0.13949098823E+04  0.13954148943E+04  0.00000000000E+00 0. -1.
<scales pt_clust_3="14000.00000" pt_clust_4="112.11236" pt_clust_5="96.03916" pt_clust_6="37.53861"></scales>
<clustering>
<clus scale="   37.539">  1  6  2 -1</clus>
<clus scale="   96.039">  1  5  2 -1</clus>
<clus scale="  112.112">  1  4  2 -1</clus>
<clus scale="  112.112">  2  3  1 -1</clus>
</clustering>
</event>
<event>
 6    0  0.2433432E+002  0.8478700E+02  0.7546771E-02  0.1315990E+00
          2   -1    0    0  504    0 -0.00000000000E+00  0.00000000000E+00  0.59422931613E+03  0.59422931613E+03  0.00000000000E+00 0.  1.
         21   -1    0    0  505  502  0.00000000000E+00 -0.00000000000E+00 -0.23822191896E+03  0.23822191896E+03  0.00000000000E+00 0.  1.
         21    1    1    2  503  502  0.30709635780E+02  0.41400391266E+02 -0.12727068396E+03  0.13731314985E+03  0.00000000000E+00 0.  1.
         21    1    1    2  504  503 -0.38942906536E+02 -0.10843330543E+03  0.16945111126E+03  0.20490976258E+03  0.00000000000E+00 0.  1.
         21    1    1    2  505  501 -0.44054122003E+02  0.73717589073E+01 -0.78306911060E+02  0.90150323430E+02  0.00000000000E+00 0.  1.
          2    1    1    2  501    0  0.52287392759E+02  0.59661155252E+02  0.39213388093E+03  0.40007799922E+03  0.00000000000E+00 0.  1.
<scales pt_clust_3="48.26378" pt_clust_4="84.78700" pt_clust_5="44.66664" pt_clust_6="14000.00000"></scales>
<clustering>
<clus scale="   44.667">  2  5  1 -1</clus>
<clus scale="   48.264">  2  3  1 -1</clus>
<clus scale="   84.787">  2  4  1 -1</clus>
<clus scale="   44.667">  2  3  1 -1</clus>
</clustering>
</event>
<event>
 6    0  0.2433432E+002  0.1335622E+03  0.7546771E-02  0.1222264E+00
         21   -1    0    0  504  502  0.00000000000E+00  0.00000000000E+00  0.42927905919E+03  0.42927905919E+03  0.00000000000E+00 0. -1.
         -2   -1    0    0    0  501 -0.00000000000E+00 -0.00000000000E+00 -0.95617041524E+02  0.95617041524E+02  0.00000000000E+00 0. -1.
         21    1    1    2  503  501  0.59434521901E+02 -0.75361121738E+01  0.29341990951E+02  0.66709877929E+02  0.00000000000E+00 0. -1.
         21    1    1    2  504  503  0.43619842315E+02 -0.13142293024E+03  0.14177867336E+03  0.19818140542E+03  0.00000000000E+00 0. -1.
         21    1    1    2  505  502 -0.25434015773E+02  0.16751418745E+02  0.95917282733E+02  0.10063609847E+03  0.00000000000E+00 0. -1.
         -2    1    1    2    0  505 -0.77620348443E+02  0.12220762367E+03  0.66624070618E+02  0.15936871889E+03  0.00000000000E+00 0. -1.
<scales pt_clust_3="55.97756" pt_clust_4="14000.00000" pt_clust_5="30.45487" pt_clust_6="133.56216"></scales>
<clustering>
<clus scale="   30.455">  1  5  2 -1</clus>
<clus scale="   55.978">  2  3  1 -1</clus>
<clus scale="  133.562">  2  6  1 -1</clus>
<clus scale="   30.455">  1  3  2 -1</clus>
</clustering>
</event>
<event>
 6    0  0.2433432E+002  0.1326308E+03  0.7546771E-02  0.1223604E+00
          2   -1    0    0  503    0 -0.00000000000E+00  0.00000000000E+00  0.54477799566E+03  0.54477799566E+03  0.00000000000E+00 0. -1.
         21   -1    0    0  505  502  0.00000000000E+00 -0.00000000000E+00 -0.29234278520E+03  0.29234278520E+03  0.00000000000E+00 0.  1.
         21    1    1    2  503  502  0.48582461112E+02 -0.55509769477E+02 -0.16623397880E+03  0.18186623035E+03  0.00000000000E+00 0.  1.
         21    1    1    2  504  501  0.21634541853E+02  0.64761476534E+02 -0.41264059914E+02  0.79779852623E+02  0.00000000000E+00 0.  1.
         21    1    1    2  505  504  0.50300146245E+02  0.31797146830E+02 -0.31838472861E+02  0.67489640782E+02  0.00000000000E+00 0.  1.
          2    1    1    2  501    0 -0.12051714921E+03 -0.41048853887E+02  0.49177172203E+03  0.50798505711E+03  0.00000000000E+00 0. -1.
<scales pt_clust_3="73.76713" pt_clust_4="40.11209" pt_clust_5="40.11209" pt_clust_6="125.47813"></scales>
<clustering>
<clus scale="   40.112">  4  5 -1 -1</clus>
<clus scale="   73.767">  2  3  1 -1</clus>
<clus scale="  125.478">  1  6  2 -1</clus>
<clus scale="   73.767">  2  3  1 -1</clus>
</clustering>
</event>
<event>
 6    0  0.2433432E+002  0.1261471E+03  0.7546771E-02  0.1233287E+00
         -1   -1    0    0    0  501 -0.00000000000E+00  0.00000000000E+00  0.47168796854E+03  0.47168796854E+03  0.00000000000E+00 0. -1.
         21   -1    0    0  505  502  0.00000000000E+00 -0.00000000000E+00 -0.53558162348E+03  0.53558162348E+03  0.00000000000E+00 0.  1.
         21    1    1    2  503  501  0.41165710637E+02 -0.58247839485E+02 -0.16816402651E+02  0.73281770823E+02  0.00000000000E+00 0.  1.
         21    1    1    2  504  502  0.50196984188E+02 -0.39545802497E+02 -0.16256898789E+03  0.17467765610E+03  0.00000000000E+00 0.  1.
         21    1    1    2  505  503  0.24485624562E+02  0.39283054772E+02 -0.31052822881E+03  0.31395936853E+03  0.00000000000E+00 0.  1.
         -1    1    1    2    0  504 -0.11584831939E+03  0.58510587209E+02  0.42601996441E+03  0.44535079656E+03  0.00000000000E+00 0. -1.
<scales pt_clust_3="68.25069" pt_clust_4="126.14715" pt_clust_5="46.28935" pt_clust_6="14000.00000"></scales>
<clustering>
<clus scale="   46.289">  2  5  1 -1</clus>
<clus scale="   68.251">  2  3  1 -1</clus>
<clus scale="  126.147">  2  4  1 -1</clus>
<clus scale="   46.289">  2  3  1 -1</clus>
</clustering>
</event>
<event>
 6    0  0.2433432E+002  0.1125447E+03  0.7546771E-02  0.1255929E+00
         21   -1    0    0  504  502  0.00000000000E+00  0.00000000000E+00  0.72881245923E+02  0.72881245923E+02  0.00000000000E+00 0.  1.
          2   -1    0    0  503    0 -0.00000000000E+00 -0.00000000000E+00 -0.92258996006E+03  0.92258996006E+03  0.00000000000E+00 0. -1.
         21    1    1    2  503  505 -0.12604509014E+03 -0.59669562623E+02 -0.58508549797E+02  0.15123184801E+03  0.00000000000E+00 0.  1.
         21    1    1    2  504  501  0.12702731925E+03  0.10112705412E+02 -0.29361167035E+03  0.32007189757E+03  0.00000000000E+00 0.  1.
         21    1    1    2  505  502  0.33343372564E+02  0.31342320550E+02 -0.29450045521E+02  0.54418992389E+02  0.00000000000E+00 0.  1.
          2    1    1    2  501    0 -0.34325601671E+02  0.18214536661E+02 -0.46813844847E+03  0.46974846802E+03  0.00000000000E+00 0. -1.
<scales pt_clust_3="112.54472" pt_clust_4="14000.00000" pt_clust_5="44.73221" pt_clust_6="38.85893"></scales>
<clustering>
<clus scale="   38.859">  2  6  1 -1</clus>
<clus scale="   44.732">  1  5  2 -1</clus>
<clus scale="  112.545">  1  3  2 -1</clus>
<clus scale="   44.732">  1  3  2 -1</clus>
</clustering>
</event>
<event>
 6    0  0.2433432E+002  0.1738697E+03  0.7546771E-02  0.1173871E+00
         -1   -1    0    0    0  501 -0.00000000000E+00  0.00000000000E+00  0.90237415715E+02  0.90237415715E+02  0.00000000000E+00 0. -1.
         21   -1    0    0  505  502  0.00000000000E+00 -0.00000000000E+00 -0.69375241509E+03  0.69375241509E+03  0.00000000000E+00 0. -1.
         21    1    1    2  503  502  0.83990946325E+01 -0.86302753062E+02 -0.47516321689E+02  0.98876239833E+02  0.00000000000E+00 0. -1.
         21    1    1    2  504  503  0.18924008393E+01 -0.10661536099E+03 -0.13195783745E+03  0.16965637991E+03  0.00000000000E+00 0. -1.
         21    1    1    2  505  501 -0.26315043242E+02  0.15609855673E+03 -0.44344960057E+03  0.47085750409E+03  0.00000000000E+00 0. -1.
         -1    1    1    2    0  504  0.16023547770E+02  0.36819557323E+02  0.19408760328E+02  0.44599706973E+02  0.00000000000E+00 0. -1.
<scales pt_clust_3="44.11367" pt_clust_4="44.11367" pt_clust_5="166.29845" pt_clust_6="40.15512"></scales>
<clustering>
<clus scale="   40.155">  1  6  2 -1</clus>
<clus scale="   44.114">  3  4 -1 -1</clus>
<clus scale="  166.298">  2  5  1 -1</clus>
<clus scale="  166.298">  2  3  1 -1</clus>
</clustering>
</event>
<event>
 6    0  0.2433432E+002  0.1131201E+03  0.7546771E-02  0.1254899E+00
         21   -1    0    0  504  502  0.00000000000E+00  0.00000000000E+00  0.45642688768E+02  0.45642688768E+02  0.00000000000E+00 0. -1.
          2   -1    0    0  505    0 -0.00000000000E+00 -0.00000000000E+00 -0.17841394075E+04  0.17841394075E+04  0.00000000000E+00 0. -1.
         21    1    1    2  503  502  0.18876018931E+02  0.10660778529E+03 -0.90445187738E+02  0.14107393792E+03  0.00000000000E+00 0. -1.
         21    1    1    2  504  501 -0.72161547017E+02 -0.11350240010E+03 -0.32516585769E+03  0.35188480886E+03  0.00000000000E+00 0. -1.
         21    1    1    2  505  503  0.13320761563E+02  0.84697896114E+02 -0.36421375277E+03  0.37416952575E+03  0.00000000000E+00 0.  1.
          2    1    1    2  501    0  0.39964766522E+02 -0.77803281306E+02 -0.95867192050E+03  0.96265382370E+03  0.00000000000E+00 0. -1.
<scales pt_clust_3="113.12014" pt_clust_4="14000.00000" pt_clust_5="85.73900" pt_clust_6="53.04612"></scales>
<clustering>
<clus scale="   85.739">  2  5  1 -1</clus>
<clus scale="   53.046">  2  6  1 -1</clus>
<clus scale="  113.120">  1  3  2 -1</clus>
<clus scale="  113.120">  1  3  2 -1</clus>
</clustering>
</event>
<event>
 6    0  0.2433432E+002  0.1009178E+03  0.7546771E-02  0.1278378E+00
         21   -1    0    0  503  502  0.00000000000E+00  0.00000000000E+00  0.17836277774E+03  0.17836277774E+03  0.00000000000E+00 0. -1.
          2   -1    0    0  505    0 -0.00000000000E+00 -0.00000000000E+00 -0.21731439407E+04  0.21731439407E+04  0.00000000000E+00 0. -1.
         21    1    1    2  503  501  0.68815622588E+02  0.82455521494E+01 -0.30855067361E+01  0.69376504627E+02  0.00000000000E+00 0. -1.
         21    1    1    2  504  502 -0.10973946956E+03 -0.81702287387E+02  0.10210276019E+03  0.17071317636E+03  0.00000000000E+00 0. -1.
         21    1    1    2  505  504  0.10846868993E+02  0.49363735786E+02 -0.65404187634E+02  0.82656764622E+02  0.00000000000E+00 0. -1.
          2    1    1    2  501    0  0.30076977984E+02  0.24092999451E+02 -0.20283942288E+04  0.20287602729E+04  0.00000000000E+00 0. -1.
<scales pt_clust_3="100.91778" pt_clust_4="14000.00000" pt_clust_5="67.05271" pt_clust_6="38.53696"></scales>
<clustering>
<clus scale="   38.537">  2  6  1 -1</clus>
<clus scale="   67.053">  2  5  1 -1</clus>
<clus scale="  100.918">  2  3  1 -1</clus>
<clus scale="  100.918">  1  3  2 -1</clus>
</clustering>
</event>
<event>
 6    0  0.2433432E+002  0.1206325E+03  0.7546771E-02  0.1242057E+00
          2   -1    0    0  505    0 -0.00000000000E+00  0.00000000000E+00  0.15221265030E+04  0.15221265030E+04  0.00000000000E+00 0.  1.
         21   -1    0    0  501  502  0.00000000000E+00 -0.00000000000E+00 -0.43675011211E+02  0.43675011211E+02  0.00000000000E+00 0. -1.
         21    1    1    2  503  504 -0.15462929804E+02  0.58251309395E+02  0.10883529320E+02  0.61243517656E+02  0.00000000000E+00 0. -1.
         21    1    1    2  504  502  0.19565930450E+02  0.50282767847E+02  0.12630605560E+03  0.13734774137E+03  0.00000000000E+00 0. -1.
         21    1    1    2  505  503  0.10623013585E+03  0.29127386222E+01  0.46122972499E+03  0.47331404482E+03  0.00000000000E+00 0. -1.
          2    1    1    2  501    0 -0.11033313649E+03 -0.11144681586E+03  0.88003218189E+03  0.89389621038E+03  0.00000000000E+00 0.  1.
<scales pt_clust_3="91.47118" pt_clust_4="53.95537" pt_clust_5="14000.00000" pt_clust_6="120.63248"></scales>
<clustering>
<clus scale="   53.955">  2  4  1 -1</clus>
<clus scale="   91.471">  2  3  1 -1</clus>
<clus scale="  120.632">  2  6  1 -1</clus>
<clus scale="   53.955">  2  3  1 -1</clus>
</clustering>
</event>
<event>
 6    0  0.2433432E+002  0.1112465E+03  0.7546771E-02  0.1258279E+00
         21   -1    0    0  504  502  0.00000000000E+00  0.00000000000E+00  0.20799068573E+03  0.20799068573E+03  0.00000000000E+00 0.  1.
          2   -1    0    0  505    0 -0.00000000000E+00 -0.00000000000E+00 -0.75381435736E+03  0.75381435736E+03  0.00000000000E+00 0. -1.
         21    1    1    2  503  502 -0.11304760158E+03  0.15030256584E+02  0.53777205577E+02  0.12608590990E+03  0.00000000000E+00 0.  1.
         21    1    1    2  504  501  0.80323810371E+02 -0.94621130267E+02  0.75464452311E+02  0.14525824028E+03  0.00000000000E+00 0.  1.
         21    1    1    2  505  503  0.16993512596E+02  0.54028617677E+02 -0.10248297261E+03  0.11709240229E+03  0.00000000000E+00 0.  1.
          2    1    1    2  501    0  0.15730278615E+02  0.25562256006E+02 -0.57258235691E+03  0.57336849063E+03  0.00000000000E+00 0. -1.
<scales pt_clust_3="111.24655" pt_clust_4="14000.00000" pt_clust_5="74.44064" pt_clust_6="30.01451"></scales>
<clustering>
<clus scale="   30.015">  2  6  1 -1</clus>
<clus scale="   74.441">  2  5  1 -1</clus>
<clus scale="  111.247">  2  3  1 -1</clus>
<clus scale="  111.247">  1  3  2 -1</clus>
</clustering>
</event>
<event>
 6    0  0.2433432E+002  0.1701759E+03  0.7546771E-02  0.1177665E+00
          2   -1    0    0  503    0 -0.00000000000E+00  0.00000000000E+00  0.58796901300E+04  0.58796901300E+04  0.00000000000E+00 0.  1.
         21   -1    0    0  504  502  0.00000000000E+00 -0.00000000000E+00 -0.32191601979E+02  0.32191601979E+02  0.00000000000E+00 0.  1.
         21    1    1    2  503  502  0.31251550974E+02 -0.52916393492E+02  0.18981460262E+03  0.19951538162E+03  0.00000000000E+00 0. -1.
         21    1    1    2  504  505  0.48643568473E+02  0.56421199011E+02  0.65830145838E+02  0.99414066171E+02  0.00000000000E+00 0.  1.
         21    1    1    2  505  501  0.70588517728E+02  0.95641265705E+02  0.38391106737E+03  0.40189264511E+03  0.00000000000E+00 0. -1.
          2    1    1    2  501    0 -0.15048363718E+03 -0.99146071223E+02  0.52079427122E+04  0.52110596391E+04  0.00000000000E+00 0.  1.
<scales pt_clust_3="61.45571" pt_clust_4="71.93144" pt_clust_5="14000.00000" pt_clust_6="170.17591"></scales>
<clustering>
<clus scale="   61.456">  2  3  1 -1</clus>
<clus scale="   71.931">  2  4  1 -1</clus>
<clus scale="  170.176">  1  6  2 -1</clus>
<clus scale="   61.456">  2  3  1 -1</clus>
</clustering>
</event>
<event>
 6    0  0.2433432E+002  0.1100581E+03  0.7546771E-02  0.1260462E+00
          2   -1    0    0  504    0 -0.00000000000E+00  0.00000000000E+00  0.82036816295E+03  0.82036816295E+03  0.00000000000E+00 0. -1.
         21   -1    0    0  501  502  0.00000000000E+00 -0.00000000000E+00 -0.93690080498E+02  0.93690080498E+02  0.00000000000E+00 0. -1.
         21    1    1    2  503  505 -0.50452813668E+02 -0.64876857756E+02  0.95734745120E+01  0.82741431541E+02  0.00000000000E+00 0. -1.
         21    1    1    2  504  503  0.14473294664E+02 -0.40454668010E+02  0.57091764809E+01  0.43343409168E+02  0.00000000000E+00 0. -1.
         21    1    1    2  505  502  0.41061566072E+02  0.11976036837E+02 -0.22374573633E+02  0.48271101208E+02  0.00000000000E+00 0. -1.
          2    1    1    2  501    0 -0.50820470679E+01  0.93355488929E+02  0.73377000509E+03  0.73970230153E+03  0.00000000000E+00 0. -1.
<scales pt_clust_3="41.37522" pt_clust_4="41.37522" pt_clust_5="42.77239" pt_clust_6="94.01183"></scales>
<clustering>
<clus scale="   41.375">  3  4 -1 -1</clus>
<clus scale="   42.772">  2  5  1 -1</clus>
<clus scale="   94.012">  1  6  2 -1</clus>
<clus scale="   42.772">  2  3  1 -1</clus>
</clustering>
</event>
<event>
 6    0  0.2433432E+002  0.8586625E+02  0.7546771E-02  0.1313183E+00
          1   -1    0    0  504    0 -0.00000000000E+00  0.00000000000E+00  0.48251209968E+03  0.48251209968E+03  0.00000000000E+00 0. -1.
         21   -1    0    0  503  502  0.00000000000E+00 -0.00000000000E+00 -0.15078590240E+03  0.15078590240E+03  0.00000000000E+00 0. -1.
         21    1    1    2  503  501  0.99737433442E+02  0.46195715939E+02  0.18334775298E+03  0.21377090149E+03  0.00000000000E+00 0. -1.
         21    1    1    2  504  505 -0.53931549055E+02 -0.52387255374E+02  0.15530440137E+03  0.17254707645E+03  0.00000000000E+00 0. -1.
         21    1    1    2  505  502 -0.50379421539E+02 -0.68375341168E+02 -0.97675197976E+02  0.12943615296E+03  0.00000000000E+00 0. -1.
          1    1    1    2  501    0  0.45735371515E+01  0.74566880603E+02  0.90749240912E+02  0.11754387118E+03  0.00000000000E+00 0. -1.
<scales pt_clust_3="85.86625" pt_clust_4="55.69625" pt_clust_5="14000.00000" pt_clust_6="74.70701"></scales>
<clustering>
<clus scale="   74.707">  1  6  2 -1</clus>
<clus scale="   55.696">  1  4  2 -1</clus>
<clus scale="   85.866">  1  3  2 -1</clus>
<clus scale="   85.866">  2  3  1 -1</clus>
</clustering>
</event>
<event>
 6    0  0.2433432E+002  0.1265313E+03  0.7546771E-02  0.1232695E+00
         21   -1    0    0  505  502  0.00000000000E+00  0.00000000000E+00  0.15760510115E+03  0.15760510115E+03  0.00000000000E+00 0.  1.
          2   -1    0    0  504    0 -0.00000000000E+00 -0.00000000000E+00 -0.50511200174E+03  0.50511200174E+03  0.00000000000E+00 0.  1.
         21    1    1    2  503  501  0.62058106829E+02 -0.40407721823E+02 -0.18771619085E+02  0.76396114359E+02  0.00000000000E+00 0.  1.
         21    1    1    2  504  502 -0.87738877204E+02  0.66227460774E+02  0.67473513871E+02  0.12898396105E+03  0.00000000000E+00 0.  1.
         21    1    1    2  505  503  0.30270137500E+02 -0.74141271115E+02 -0.26349106302E+02  0.84305899614E+02  0.00000000000E+00 0.  1.
          2    1    1    2  501    0 -0.45893671249E+01  0.48321532165E+02 -0.36985968907E+03  0.37303112787E+03  0.00000000000E+00 0.  1.
<scales pt_clust_3="44.51895" pt_clust_4="117.75773" pt_clust_5="44.51895" pt_clust_6="48.53898"></scales>
<clustering>
<clus scale="   44.519">  3  5 -1 -1</clus>
<clus scale="   48.539">  2  6  1 -1</clus>
<clus scale="  117.758">  1  4  2 -1</clus>
<clus scale="  117.758">  1  3  2 -1</clus>
</clustering>
</event>
<event>
 6    0  0.2433432E+002  0.8079352E+02  0.7546771E-02  0.1326815E+00
          2   -1    0    0  505    0 -0.00000000000E+00  0.00000000000E+00  0.52714463541E+03  0.52714463541E+03  0.00000000000E+00 0. -1.
         21   -1    0    0  503  502  0.00000000000E+00 -0.00000000000E+00 -0.48536582344E+03  0.48536582344E+03  0.00000000000E+00 0.  1.
         21    1    1    2  503  501  0.23531942696E+02  0.38167313044E+02 -0.91863950843E+02  0.10222270578E+03  0.00000000000E+00 0.  1.
         21    1    1    2  504  502 -0.98073918418E+02 -0.67248000634E+02 -0.36087732951E+03  0.37996477997E+03  0.00000000000E+00 0.  1.
         21    1    1    2  505  504  0.27003743789E+02  0.37782359573E+02  0.15629347482E+02  0.48999850778E+02  0.00000000000E+00 0.  1.
          2    1    1    2  501    0  0.47538231933E+02 -0.87016719831E+01  0.47889074484E+03  0.48132312233E+03  0.00000000000E+00 0. -1.
<scales pt_clust_3="44.83856" pt_clust_4="80.79352" pt_clust_5="48.36270" pt_clust_6="14000.00000"></scales>
<clustering>
<clus scale="   44.839">  2  3  1 -1</clus>
<clus scale="   48.363">  1  5  2 -1</clus>
<clus scale="   80.794">  2  4  1 -1</clus>
<clus scale="   44.839">  2  3  1 -1</clus>
</clustering>
</event>
<event>
 6    0  0.2433432E+002  0.1120078E+03  0.7546771E-02  0.1256896E+00
         21   -1    0    0  503  502  0.00000000000E+00  0.00000000000E+00  0.23271529362E+03  0.23271529362E+03  0.00000000000E+00 0. -1.
         -1   -1    0    0    0  501 -0.00000000000E+00 -0.00000000000E+00 -0.10417592415E+04  0.10417592415E+04  0.00000000000E+00 0.  1.
         21    1    1    2  503  501 -0.27730570292E+02 -0.11911204440E+02  0.19514249107E+02  0.35939772372E+02  0.00000000000E+00 0. -1.
         21    1    1    2  504  505 -0.12007872035E+02 -0.64595021617E+02  0.78131605595E+02  0.10208454144E+03  0.00000000000E+00 0. -1.
         21    1    1    2  505  502  0.48228062092E+02 -0.36899786861E+02  0.10343544503E+03  0.11994345140E+03  0.00000000000E+00 0. -1.
         -1    1    1    2    0  504 -0.84896197648E+01  0.11340601292E+03 -0.10101252476E+04  0.10165067699E+04  0.00000000000E+00 0.  1.
<scales pt_clust_3="30.18048" pt_clust_4="112.00783" pt_clust_5="54.58502" pt_clust_6="14000.00000"></scales>
<clustering>
<clus scale="   30.180">  1  3  2 -1</clus>
<clus scale="   54.585">  1  5  2 -1</clus>
<clus scale="  112.008">  1  4  2 -1</clus>
<clus scale="   30.180">  1  3  2 -1</clus>
</clustering>
</event>
<event>
 6    0  0.2433432E+002  0.1178637E+03  0.7546771E-02  0.1246663E+00
         21   -1    0    0  503  502  0.00000000000E+00  0.00000000000E+00  0.35373462146E+03  0.35373462146E+03  0.00000000000E+00 0.  1.
         -2   -1    0    0    0  501 -0.00000000000E+00 -0.00000000000E+00 -0.47664351688E+03  0.47664351688E+03  0.00000000000E+00 0.  1.
         21    1    1    2  503  505 -0.34874200301E+00 -0.10177471973E+03 -0.43036375983E+03  0.44223430551E+03  0.00000000000E+00 0.  1.
         21    1    1    2  504  502 -0.10583815379E+01  0.34541860199E+02  0.22111172737E+03  0.22379601484E+03  0.00000000000E+00 0.  1.
         21    1    1    2  505  501 -0.26691425988E+02 -0.19735292742E+02 -0.67667327307E+01  0.33877760739E+02  0.00000000000E+00 0.  1.
         -2    1    1    2    0  504  0.28098549529E+02  0.86968152268E+02  0.93109869767E+02  0.13047005726E+03  0.00000000000E+00 0.  1.
<scales pt_clust_3="117.86372" pt_clust_4="34.50255" pt_clust_5="33.19509" pt_clust_6="14000.00000"></scales>
<clustering>
<clus scale="   33.195">  2  5  1 -1</clus>
<clus scale="   34.503">  1  4  2 -1</clus>
<clus scale="  117.864">  2  3  1 -1</clus>
<clus scale="   34.503">  1  3  2 -1</clus>
</clustering>
</event>
<event>
 6    0  0.2433432E+002  0.3015060E+03  0.7546771E-02  0.1084490E+00
         21   -1    0    0  503  502  0.00000000000E+00  0.00000000000E+00  0.80959722961E+02  0.80959722961E+02  0.00000000000E+00 0.  1.
          2   -1    0    0  505    0 -0.00000000000E+00 -0.00000000000E+00 -0.29512196428E+04  0.29512196428E+04  0.00000000000E+00 0.  1.
         21    1    1    2  503  504  0.42352096406E+02 -0.17899710642E+03 -0.19355076102E+03  0.26701228674E+03  0.00000000000E+00 0.  1.
         21    1    1    2  504  501  0.23355074574E+02 -0.71104844585E+02 -0.22306105248E+03  0.23528194058E+03  0.00000000000E+00 0. -1.
         21    1    1    2  505  502 -0.84311991457E+02  0.30148062909E+03 -0.61191894744E+03  0.68734553164E+03  0.00000000000E+00 0.  1.
          2    1    1    2  501    0  0.18604820477E+02 -0.51378678090E+02 -0.18417291589E+04  0.18425396068E+04  0.00000000000E+00 0.  1.
<scales pt_clust_3="72.35434" pt_clust_4="72.35434" pt_clust_5="281.14084" pt_clust_6="54.64346"></scales>
<clustering>
<clus scale="   54.643">  2  6  1 -1</clus>
<clus scale="   72.354">  3  4 -1 -1</clus>
<clus scale="  281.141">  2  5  1 -1</clus>
<clus scale="  301.506">  1  3  2 -1</clus>
</clustering>
</event>
<event>
 6    0  0.2433432E+002  0.1446374E+03  0.7546771E-02  0.1207222E+00
          2   -1    0    0  504    0 -0.00000000000E+00  0.00000000000E+00  0.10690016076E+04  0.10690016076E+04  0.00000000000E+00 0.  1.
         21   -1    0    0  503  502  0.00000000000E+00 -0.00000000000E+00 -0.52171287105E+02  0.52171287105E+02  0.00000000000E+00 0. -1.
         21    1    1    2  503  501  0.39481885548E+02  0.64322084670E+02  0.82216483368E+02  0.11160510741E+03  0.00000000000E+00 0. -1.
         21    1    1    2  504  505 -0.13616909346E+03 -0.34852540041E+01  0.32932471424E+03  0.35638313150E+03  0.00000000000E+00 0. -1.
         21    1    1    2  505  502 -0.56021649319E+02 -0.70436981957E+02  0.18081962482E+03  0.20197903441E+03  0.00000000000E+00 0. -1.
          2    1    1    2  501    0  0.15270885723E+03  0.96001512908E+01  0.42446949803E+03  0.45120562135E+03  0.00000000000E+00 0.  1.
<scales pt_clust_3="75.47284" pt_clust_4="14000.00000" pt_clust_5="68.89803" pt_clust_6="144.63741"></scales>
<clustering>
<clus scale="   75.473">  2  3  1 -1</clus>
<clus scale="   68.898">  2  5  1 -1</clus>
<clus scale="  144.637">  1  6  2 -1</clus>
<clus scale="   75.473">  2  3  1 -1</clus>
</clustering>
</event>
<event>
 6    0  0.2433432E+002  0.8066988E+02  0.7546771E-02  0.1327161E+00
          2   -1    0    0  503    0 -0.00000000000E+00  0.00000000000E+00  0.32273803586E+04  0.32273803586E+04  0.00000000000E+00 0. -1.
         21   -1    0    0  501  502  0.00000000000E+00 -0.00000000000E+00 -0.20534177363E+03  0.20534177363E+03  0.00000000000E+00 0. -1.
         21    1    1    2  503  505  0.37005934580E+02  0.72939287359E+02  0.32563023083E+03  0.33574488241E+03  0.00000000000E+00 0.  1.
         21    1    1    2  504  502 -0.80353575485E+01 -0.85974227869E+02 -0.16190438805E+03  0.18349159571E+03  0.00000000000E+00 0. -1.
         21    1    1    2  505  504 -0.55139217735E+02  0.53809167226E+02  0.26820281026E+02  0.81578718329E+02  0.00000000000E+00 0. -1.
          2    1    1    2  501    0  0.26168640704E+02 -0.40774226716E+02  0.28314924612E+04  0.28319069358E+04  0.00000000000E+00 0. -1.
<scales pt_clust_3="70.54574" pt_clust_4="80.66988" pt_clust_5="14000.00000" pt_clust_6="48.44931"></scales>
<clustering>
<clus scale="   48.449">  1  6  2 -1</clus>
<clus scale="   70.546">  1  3  2 -1</clus>
<clus scale="   80.670">  2  4  1 -1</clus>
<clus scale="   80.670">  2  3  1 -1</clus>
</clustering>
</event>
<event>
 6    0  0.2433432E+002  0.1201290E+03  0.7546771E-02  0.1242884E+00
          2   -1    0    0  505    0 -0.00000000000E+00  0.00000000000E+00  0.24712093460E+04  0.24712093460E+04  0.00000000000E+00 0. -1.
         21   -1    0    0  501  502  0.00000000000E+00 -0.00000000000E+00 -0.29409733244E+02  0.29409733244E+02  0.00000000000E+00 0.  1.
         21    1    1    2  503  502 -0.99843240573E+02  0.34933100542E+02  0.20355962026E+03  0.22940251350E+03  0.00000000000E+00 0.  1.
         21    1    1    2  504  503  0.69220670606E+02  0.14230920229E+02  0.15494440441E+03  0.17029911564E+03  0.00000000000E+00 0.  1.
         21    1    1    2  505  504  0.52662479259E+02 -0.21822963768E+02  0.85189828019E+02  0.10250309882E+03  0.00000000000E+00 0.  1.
          2    1    1    2  501    0 -0.22039909292E+02 -0.27341057003E+02  0.19981057601E+04  0.19984143513E+04  0.00000000000E+00 0. -1.
<scales pt_clust_3="112.19409" pt_clust_4="40.65830" pt_clust_5="40.65830" pt_clust_6="35.11824"></scales>
<clustering>
<clus scale="   35.118">  1  6  2 -1</clus>
<clus scale="   40.658">  4  5 -1 -1</clus>
<clus scale="  112.194">  2  3  1 -1</clus>
<clus scale="  112.194">  2  3  1 -1</clus>
</clustering>
</event>
<event>
 6    0  0.2433432E+002  0.1670579E+03  0.7546771E-02  0.1180951E+00
         21   -1    0    0  504  502  0.00000000000E+00  0.00000000000E+00  0.17065687539E+03  0.17065687539E+03  0.00000000000E+00 0.  1.
          1   -1    0    0  505    0 -0.00000000000E+00 -0.00000000000E+00 -0.37076936150E+04  0.37076936150E+04  0.00000000000E+00 0. -1.
         21    1    1    2  503  502 -0.12857180181E+03  0.36848285954E+02  0.36305854224E+02  0.13858794843E+03  0.00000000000E+00 0.  1.
         21    1    1    2  504  501  0.98689537783E+02 -0.44768066399E+02 -0.58194739030E+02  0.12300582217E+03  0.00000000000E+00 0.  1.
         21    1    1    2  505  503 -0.35828821479E+02  0.55588459662E+02  0.28618189250E+02  0.72060960666E+02  0.00000000000E+00 0.  1.
          1    1    1    2  501    0  0.65711085509E+02 -0.47668679217E+02 -0.35437660440E+04  0.35446957591E+04  0.00000000000E+00 0. -1.
<scales pt_clust_3="47.61834" pt_clust_4="152.71752" pt_clust_5="47.61834" pt_clust_6="81.18035"></scales>
<clustering>
<clus scale="   47.618">  3  5 -1 -1</clus>
<clus scale="   81.180">  2  6  1 -1</clus>
<clus scale="  152.718">  2  4  1 -1</clus>
<clus scale="  167.058">  1  3  2 -1</clus>
</clustering>
</event>
<event>
 6    0  0.2433432E+002  0.1133107E+03  0.7546771E-02  0.1254559E+00
         -4   -1    0    0    0  501 -0.00000000000E+00  0.00000000000E+00  0.19255567100E+03  0.19255567100E+03  0.00000000000E+00 0.  1.
         21   -1    0    0  505  502  0.00000000000E+00 -0.00000000000E+00 -0.69280215032E+03  0.69280215032E+03  0.00000000000E+00 0.  1.
         21    1    1    2  503  502  0.98241431094E+02 -0.37294306205E+02  0.21993988484E+02  0.10735911507E+03  0.00000000000E+00 0.  1.
         21    1    1    2  504  501  0.32222937211E+02 -0.30508106708E+02 -0.39479120043E+02  0.59394134195E+02  0.00000000000E+00 0.  1.
         21    1    1    2  505  504 -0.10510006234E+03  0.44176691321E+02 -0.59257895738E+03  0.60344628915E+03  0.00000000000E+00 0.  1.
         -4    1    1    2    0  503 -0.25364305963E+02  0.23625721591E+02  0.10981760962E+03  0.11515828290E+03  0.00000000000E+00 0.  1.
<scales pt_clust_3="113.31068" pt_clust_4="40.06346" pt_clust_5="14000.00000" pt_clust_6="34.66299"></scales>
<clustering>
<clus scale="   34.663">  1  6  2 -1</clus>
<clus scale="   40.063">  1  4  2 -1</clus>
<clus scale="  113.311">  1  3  2 -1</clus>
<clus scale="  113.311">  2  3  1 -1</clus>
</clustering>
</event>
<event>
 6    0  0.2433432E+002  0.7579500E+02  0.7546771E-02  0.1341427E+00
         -4   -1    0    0    0  501 -0.00000000000E+00  0.00000000000E+00  0.14469328128E+03  0.14469328128E+03  0.00000000000E+00 0.  1.
         21   -1    0    0  504  502  0.00000000000E+00 -0.00000000000E+00 -0.42140064157E+03  0.42140064157E+03  0.00000000000E+00 0. -1.
         21    1    1    2  503  505  0.10296910499E+03 -0.21236485894E+02 -0.14315691178E+03  0.17761623323E+03  0.00000000000E+00 0. -1.
         21    1    1    2  504  501 -0.69544604657E+02  0.95341419621E+01 -0.56756020335E+02  0.90269583715E+02  0.00000000000E+00 0.  1.
         21    1    1    2  505  502  0.40227837443E+02  0.11595008026E+02 -0.17246328679E+03  0.17747199330E+03  0.00000000000E+00 0. -1.
         -4    1    1    2    0  503 -0.73652337773E+02  0.10733590621E+00  0.95668858611E+02  0.12073611261E+03  0.00000000000E+00 0.  1.
<scales pt_clust_3="14000.00000" pt_clust_4="58.99296" pt_clust_5="41.86554" pt_clust_6="75.79500"></scales>
<clustering>
<clus scale="   41.866">  2  5  1 -1</clus>
<clus scale="   58.993">  2  4  1 -1</clus>
<clus scale="   75.795">  1  6  2 -1</clus>
<clus scale="   41.866">  2  3  1 -1</clus>
</clustering>
</event>
<event>
 6    0  0.2433432E+002  0.4265337E+03  0.7546771E-02  0.1034961E+00
          2   -1    0    0  502    0 -0.00000000000E+00  0.00000000000E+00  0.93412059913E+03  0.93412059913E+03  0.00000000000E+00 0.  1.
         21   -1    0    0  505  502  0.00000000000E+00 -0.00000000000E+00 -0.13314259887E+04  0.13314259887E+04  0.00000000000E+00 0. -1.
         21    1    1    2  503  504  0.17853797511E+03  0.24380061682E+03 -0.86584895669E+03  0.91706540940E+03  0.00000000000E+00 0. -1.
         21    1    1    2  504  501 -0.20143286617E+03 -0.31101385896E+03  0.17623545057E+02  0.37096550969E+03  0.00000000000E+00 0. -1.
         21    1    1    2  505  503  0.85047997995E+02  0.96511294737E+02 -0.24579440141E+03  0.27742112346E+03  0.00000000000E+00 0. -1.
          2    1    1    2  501    0 -0.62153106939E+02 -0.29298052591E+02  0.69671442343E+03  0.70009454533E+03  0.00000000000E+00 0.  1.
<scales pt_clust_3="49.50629" pt_clust_4="419.73046" pt_clust_5="49.50629" pt_clust_6="68.71233"></scales>
<clustering>
<clus scale="   49.506">  3  5 -1 -1</clus>
<clus scale="   68.712">  1  6  2 -1</clus>
<clus scale="  419.730">  1  4  2 -1</clus>
<clus scale="  426.534">  2  3  1 -1</clus>
</clustering>
</event>
<event>
 6    0  0.2433432E+002  0.1280858E+03  0.7546771E-02  0.1230324E+00
          1   -1    0    0  503    0 -0.00000000000E+00  0.00000000000E+00  0.58643246583E+03  0.58643246583E+03  0.00000000000E+00 0. -1.
         21   -1    0    0  504  502  0.00000000000E+00 -0.00000000000E+00 -0.15350662674E+03  0.15350662674E+03  0.00000000000E+00 0. -1.
         21    1    1    2  503  505  0.42072787867E+02 -0.12522657445E+02  0.98483010768E+02  0.10782318785E+03  0.00000000000E+00 0. -1.
         21    1    1    2  504  501 -0.97027250775E+02 -0.60257756324E+02 -0.10996497167E+03  0.15854835094E+03  0.00000000000E+00 0. -1.
         21    1    1    2  505  502  0.92340173130E+02  0.53691190978E+02  0.21188565850E+03  0.23728671231E+03  0.00000000000E+00 0. -1.
          1    1    1    2  501    0 -0.37385710222E+02  0.19089222790E+02  0.23252214150E+03  0.23628084146E+03  0.00000000000E+00 0. -1.
<scales pt_clust_3="35.17351" pt_clust_4="115.73912" pt_clust_5="35.17351" pt_clust_6="41.97725"></scales>
<clustering>
<clus scale="   35.174">  3  5 -1 -1</clus>
<clus scale="   41.977">  1  6  2 -1</clus>
<clus scale="  115.739">  2  4  1 -1</clus>
<clus scale="  115.739">  2  3  1 -1</clus>
</clustering>
</event>
<event>
 6    0  0.2433432E+002  0.1283661E+03  0.7546771E-02  0.1229901E+00
          2   -1    0    0  505    0 -0.00000000000E+00  0.00000000000E+00  0.61573915978E+03  0.61573915978E+03  0.00000000000E+00 0.  1.
         21   -1    0    0  503  502  0.00000000000E+00 -0.00000000000E+00 -0.15615299624E+03  0.15615299624E+03  0.00000000000E+00 0.  1.
         21    1    1    2  503  501 -0.14555889754E+02 -0.65986044088E+02 -0.16323472621E+01  0.67592133407E+02  0.00000000000E+00 0. -1.
         21    1    1    2  504  502 -0.37319208966E+02  0.73781896316E+01 -0.57796661906E+02  0.69192594745E+02  0.00000000000E+00 0.  1.
         21    1    1    2  505  504 -0.35039360346E+02 -0.30873506846E+02 -0.40524136662E+02  0.61831511793E+02  0.00000000000E+00 0.  1.
          2    1    1    2  501    0  0.86914459066E+02  0.89481361303E+02  0.55953930937E+03  0.57327591607E+03  0.00000000000E+00 0.  1.
<scales pt_clust_3="67.57242" pt_clust_4="37.34992" pt_clust_5="37.34992" pt_clust_6="121.51256"></scales>
<clustering>
<clus scale="   37.350">  4  5 -1 -1</clus>
<clus scale="   67.572">  2  3  1 -1</clus>
<clus scale="  121.513">  1  6  2 -1</clus>
<clus scale="   67.572">  2  3  1 -1</clus>
</clustering>
</event>
<event>
 6    0  0.2433432E+002  0.1451038E+03  0.7546771E-02  0.1206622E+00
         21   -1    0    0  505  502  0.00000000000E+00  0.00000000000E+00  0.37127151099E+02  0.37127151099E+02  0.00000000000E+00 0. -1.
          1   -1    0    0  503    0 -0.00000000000E+00 -0.00000000000E+00 -0.17256969925E+04  0.17256969925E+04  0.00000000000E+00 0.  1.
         21    1    1    2  503  502 -0.62474558760E+01  0.37811832986E+02 -0.52589433439E+02  0.65072374539E+02  0.00000000000E+00 0. -1.
         21    1    1    2  504  501  0.67098115755E+02 -0.25851897072E+02 -0.13155383849E+03  0.14992294735E+03  0.00000000000E+00 0. -1.
         21    1    1    2  505  504  0.74366251915E+02 -0.14350179832E+02 -0.58783089954E+02  0.95873451746E+02  0.00000000000E+00 0. -1.
          1    1    1    2  501    0 -0.13521691179E+03  0.23902439180E+01 -0.14456434796E+04  0.14519553700E+04  0.00000000000E+00 0.  1.
<scales pt_clust_3="38.32448" pt_clust_4="49.05423" pt_clust_5="49.05423" pt_clust_6="135.99916"></scales>
<clustering>
<clus scale="   38.324">  1  3  2 -1</clus>
<clus scale="   49.054">  4  5 -1 -1</clus>
<clus scale="  135.999">  2  6  1 -1</clus>
<clus scale="   38.324">  1  3  2 -1</clus>
</clustering>
</event>
<event>
 6    0  0.2433432E+002  0.1435780E+03  0.7546771E-02  0.1208594E+00
          1   -1    0    0  504    0 -0.00000000000E+00  0.00000000000E+00  0.39793497814E+03  0.39793497814E+03  0.00000000000E+00 0.  1.
         21   -1    0    0  505  502  0.00000000000E+00 -0.00000000000E+00 -0.35422454800E+03  0.35422454800E+03  0.00000000000E+00 0.  1.
         21    1    1    2  503  501 -0.66952768828E+02  0.11153777176E+03 -0.16308677293E+03  0.20861601877E+03  0.00000000000E+00 0.  1.
         21    1    1    2  504  502  0.40352031071E+02  0.59432862454E+02 -0.61291173481E+02  0.94430712683E+02  0.00000000000E+00 0.  1.
         21    1    1    2  505  503 -0.22907321931E+02 -0.34860317473E+02 -0.69899481951E+02  0.81399783227E+02  0.00000000000E+00 0.  1.
          1    1    1    2  501    0  0.49508059688E+02 -0.13611031674E+03  0.33798785850E+03  0.36771301145E+03  0.00000000000E+00 0.  1.
<scales pt_clust_3="14000.00000" pt_clust_4="60.17985" pt_clust_5="41.71315" pt_clust_6="143.57795"></scales>
<clustering>
<clus scale="   41.713">  2  5  1 -1</clus>
<clus scale="   60.180">  2  4  1 -1</clus>
<clus scale="  143.578">  1  6  2 -1</clus>
<clus scale="   41.713">  2  3  1 -1</clus>
</clustering>
</event>
<event>
 6    0  0.2433432E+002  0.1603357E+03  0.7546771E-02  0.1188318E+00
         21   -1    0    0  504  502  0.00000000000E+00  0.00000000000E+00  0.99879564738E+03  0.99879564738E+03  0.00000000000E+00 0. -1.
          1   -1    0    0  502    0 -0.00000000000E+00 -0.00000000000E+00 -0.90970767181E+02  0.90970767181E+02  0.00000000000E+00 0. -1.
         21    1    1    2  503  505  0.85648456703E+02  0.87873753107E+02  0.45242083824E+03  0.46876654051E+03  0.00000000000E+00 0. -1.
         21    1    1    2  504  503  0.25869435417E+02 -0.41347926065E+02  0.30319108193E+03  0.30708909268E+03  0.00000000000E+00 0. -1.
         21    1    1    2  505  501  0.71668638709E+01  0.48367199540E+02  0.15438086732E+03  0.16193888391E+03  0.00000000000E+00 0. -1.
          1    1    1    2  501    0 -0.11868475599E+03 -0.94893026582E+02 -0.21679072886E+01  0.15197189747E+03  0.00000000000E+00 0. -1.
<scales pt_clust_3="30.95493" pt_clust_4="48.77375" pt_clust_5="30.95493" pt_clust_6="152.65249"></scales>
<clustering>
<clus scale="   30.955">  3  5 -1 -1</clus>
<clus scale="   48.774">  1  4  2 -1</clus>
<clus scale="  152.652">  2  6  1 -1</clus>
<clus scale="   48.774">  1  3  2 -1</clus>
</clustering>
</event>
<event>
 6    0  0.2433432E+002  0.1047978E+03  0.7546771E-02  0.1270519E+00
          1   -1    0    0  505    0 -0.00000000000E+00  0.00000000000E+00  0.42738004272E+03  0.42738004272E+03  0.00000000000E+00 0. -1.
         21   -1    0    0  504  502  0.00000000000E+00 -0.00000000000E+00 -0.34357310362E+03  0.34357310362E+03  0.00000000000E+00 0. -1.
         21    1    1    2  503  502 -0.22369370014E+02 -0.27842512924E+02 -0.12298805930E+03  0.12806895397E+03  0.00000000000E+00 0. -1.
         21    1    1    2  504  501 -0.28041176610E+02  0.20295684724E+02 -0.94662670196E+02  0.10079307284E+03  0.00000000000E+00 0. -1.
         21    1    1    2  505  503  0.10647564728E+02 -0.91005379813E+02 -0.94793004326E+02  0.13183726127E+03  0.00000000000E+00 0. -1.
          1    1    1    2  501    0  0.39762981897E+02  0.98552208013E+02  0.39625067292E+03  0.41025385826E+03  0.00000000000E+00 0. -1.
<scales pt_clust_3="40.63846" pt_clust_4="34.61535" pt_clust_5="14000.00000" pt_clust_6="104.79778"></scales>
<clustering>
<clus scale="   34.615">  2  4  1 -1</clus>
<clus scale="   40.638">  2  3  1 -1</clus>
<clus scale="  104.798">  1  6  2 -1</clus>
<clus scale="   34.615">  2  3  1 -1</clus>
</clustering>
</event>
<event>
 6    0  0.2433432E+002  0.1251519E+03  0.7546771E-02  0.1234832E+00
         -2   -1    0    0    0  501 -0.00000000000E+00  0.00000000000E+00  0.77655525049E+03  0.77655525049E+03  0.00000000000E+00 0. -1.
         21   -1    0    0  503  502  0.00000000000E+00 -0.00000000000E+00 -0.85119318975E+03  0.85119318975E+03  0.00000000000E+00 0.  1.
         21    1    1    2  503  504 -0.81096158445E+01  0.30432777533E+02 -0.21469995193E+02  0.38116669727E+02  0.00000000000E+00 0. -1.
         21    1    1    2  504  501  0.11108295170E+03 -0.11534932834E+03 -0.22645115516E+03  0.27735359269E+03  0.00000000000E+00 0.  1.
         21    1    1    2  505  502 -0.60495248820E+02  0.70172594667E+02 -0.56504082796E+03  0.57258624279E+03  0.00000000000E+00 0.  1.
         -2    1    1    2    0  505 -0.42478087033E+02  0.14743956144E+02  0.73832403904E+03  0.73969193503E+03  0.00000000000E+00 0. -1.
<scales pt_clust_3="31.49476" pt_clust_4="14000.00000" pt_clust_5="125.15194" pt_clust_6="44.97881"></scales>
<clustering>
<clus scale="   31.495">  2  3  1 -1</clus>
<clus scale="   44.979">  1  6  2 -1</clus>
<clus scale="  125.152">  2  5  1 -1</clus>
<clus scale="   31.495">  2  3  1 -1</clus>
</clustering>
</event>
<event>
 6    0  0.2433432E+002  0.1158721E+03  0.7546771E-02  0.1250066E+00
          2   -1    0    0  503    0 -0.00000000000E+00  0.00000000000E+00  0.11782807064E+04  0.11782807064E+04  0.00000000000E+00 0.  1.
         21   -1    0    0  501  502  0.00000000000E+00 -0.00000000000E+00 -0.59601395140E+02  0.59601395140E+02  0.00000000000E+00 0.  1.
         21    1    1    2  503  505  0.13026845164E+03  0.12023708163E+02  0.68976198178E+03  0.70205842389E+03  0.00000000000E+00 0.  1.
         21    1    1    2  504  502 -0.32431356655E+02 -0.15590220713E+02 -0.34414921865E+02  0.49791914237E+02  0.00000000000E+00 0.  1.
         21    1    1    2  505  504 -0.67904640633E+01  0.45869575478E+02  0.15140778429E+03  0.15834912535E+03  0.00000000000E+00 0. -1.
          2    1    1    2  501    0 -0.91046630926E+02 -0.42303062928E+02  0.31192446708E+03  0.32768263808E+03  0.00000000000E+00 0.  1.
<scales pt_clust_3="14000.00000" pt_clust_4="35.98399" pt_clust_5="44.77442" pt_clust_6="115.87210"></scales>
<clustering>
<clus scale="   35.984">  2  4  1 -1</clus>
<clus scale="   44.774">  2  5  1 -1</clus>
<clus scale="  115.872">  2  6  1 -1</clus>
<clus scale="   35.984">  2  3  1 -1</clus>
</clustering>
</event>
<event>
 6    0  0.2433432E+002  0.1082163E+03  0.7546771E-02  0.1263909E+00
          2   -1    0    0  503    0 -0.00000000000E+00  0.00000000000E+00  0.67187325287E+02  0.67187325287E+02  0.00000000000E+00 0.  1.
         21   -1    0    0  504  502  0.00000000000E+00 -0.00000000000E+00 -0.80361977379E+03  0.80361977379E+03  0.00000000000E+00 0.  1.
         21    1    1    2  503  502 -0.11144485154E+02  0.44653234216E+02 -0.10984689772E+03  0.11909849627E+03  0.00000000000E+00 0.  1.
         21    1    1    2  504  505  0.76075629482E+02 -0.44879421038E+01 -0.41325474011E+03  0.42022270673E+03  0.00000000000E+00 0.  1.
         21    1    1    2  505  501 -0.13563534472E+03  0.32995049219E+02 -0.17237903028E+03  0.22181106846E+03  0.00000000000E+00 0.  1.
          2    1    1    2  501    0  0.70704200389E+02 -0.73160341332E+02 -0.40951780388E+02  0.10967482762E+03  0.00000000000E+00 0.  1.
<scales pt_clust_3="46.02294" pt_clust_4="72.90021" pt_clust_5="108.21634" pt_clust_6="14000.00000"></scales>
<clustering>
<clus scale="   46.023">  2  3  1 -1</clus>
<clus scale="   72.900">  2  4  1 -1</clus>
<clus scale="  108.216">  2  5  1 -1</clus>
<clus scale="   46.023">  2  3  1 -1</clus>
</clustering>
</event>
<event>
 6    0  0.2433432E+002  0.1604409E+03  0.7546771E-02  0.1188200E+00
          2   -1    0    0  504    0 -0.00000000000E+00  0.00000000000E+00  0.29281145753E+04  0.29281145753E+04  0.00000000000E+00 0. -1.
         21   -1    0    0  503  502  0.00000000000E+00 -0.00000000000E+00 -0.68743984119E+02  0.68743984119E+02  0.00000000000E+00 0.  1.
         21    1    1    2  503  501  0.15676618746E+02  0.27259486394E+02 -0.56090482018E+02  0.64303795742E+02  0.00000000000E+00 0.  1.
         21    1    1    2  504  505  0.38162718472E+02  0.90158660163E+02  0.73471703979E+03  0.74121124225E+03  0.00000000000E+00 0.  1.
         21    1    1    2  505  502 -0.93206504188E+01  0.45465321193E+02  0.46538678838E+03  0.46769523491E+03  0.00000000000E+00 0.  1.
          2    1    1    2  501    0 -0.44518686799E+02 -0.16288346775E+03  0.17153572450E+04  0.17236482865E+04  0.00000000000E+00 0. -1.
<scales pt_clust_3="31.44576" pt_clust_4="30.63645" pt_clust_5="30.63645" pt_clust_6="154.14710"></scales>
<clustering>
<clus scale="   30.636">  4  5 -1 -1</clus>
<clus scale="   31.446">  2  3  1 -1</clus>
<clus scale="  154.147">  1  6  2 -1</clus>
<clus scale="   31.446">  2  3  1 -1</clus>
</clustering>
</event>
<event>
 6    0  0.2433432E+002  0.7666388E+02  0.7546771E-02  0.1338795E+00
          2   -1    0    0  504    0 -0.00000000000E+00  0.00000000000E+00  0.18417537848E+04  0.18417537848E+04  0.00000000000E+00 0. -1.
         21   -1    0    0  503  502  0.00000000000E+00 -0.00000000000E+00 -0.10864547490E+03  0.10864547490E+03  0.00000000000E+00 0. -1.
         21    1    1    2  503  501  0.34197839299E+02  0.26956724739E+02  0.46647972745E+02  0.63813717824E+02  0.00000000000E+00 0. -1.
         21    1    1    2  504  505 -0.37352164925E+02 -0.13068002381E+03  0.25861302425E+02  0.13835194184E+03  0.00000000000E+00 0. -1.
         21    1    1    2  505  502 -0.48128544114E+02  0.47673040118E+02 -0.16250020210E+02  0.69664472075E+02  0.00000000000E+00 0.  1.
          2    1    1    2  501    0  0.51282869741E+02  0.56050258955E+02  0.16768490550E+04  0.16785691280E+04  0.00000000000E+00 0. -1.
<scales pt_clust_3="43.54489" pt_clust_4="14000.00000" pt_clust_5="68.03506" pt_clust_6="76.66388"></scales>
<clustering>
<clus scale="   43.545">  2  3  1 -1</clus>
<clus scale="   68.035">  2  5  1 -1</clus>
<clus scale="   76.664">  1  6  2 -1</clus>
<clus scale="   43.545">  2  3  1 -1</clus>
</clustering>
</event>
<event>
 6    0  0.2433432E+002  0.1283819E+03  0.7546771E-02  0.1229877E+00
         21   -1    0    0  504  502  0.00000000000E+00  0.00000000000E+00  0.91979536961E+02  0.91979536961E+02  0.00000000000E+00 0. -1.
          2   -1    0    0  502    0 -0.00000000000E+00 -0.00000000000E+00 -0.82645486258E+03  0.82645486258E+03  0.00000000000E+00 0. -1.
         21    1    1    2  503  501  0.32675373665E+02  0.40306918931E+02 -0.13299446917E+02  0.53564942324E+02  0.00000000000E+00 0. -1.
         21    1    1    2  504  505 -0.26182148868E+02  0.29705105392E+02 -0.73898262528E+01  0.40280364171E+02  0.00000000000E+00 0. -1.
         21    1    1    2  505  503  0.50873251709E+02  0.36520222690E+02  0.31112874021E+02  0.69927286052E+02  0.00000000000E+00 0. -1.
          2    1    1    2  501    0 -0.57366476506E+02 -0.10653224701E+03 -0.74489892647E+03  0.75466180699E+03  0.00000000000E+00 0. -1.
<scales pt_clust_3="41.35142" pt_clust_4="39.59669" pt_clust_5="41.35142" pt_clust_6="120.13197"></scales>
<clustering>
<clus scale="   39.597">  1  4  2 -1</clus>
<clus scale="   41.351">  3  5 -1 -1</clus>
<clus scale="  120.132">  2  6  1 -1</clus>
<clus scale="   39.597">  1  3  2 -1</clus>
</clustering>
</event>
<event>
 6    0  0.2433432E+002  0.8033677E+02  0.7546771E-02  0.1328098E+00
         21   -1    0    0  503  502  0.00000000000E+00  0.00000000000E+00  0.23472446663E+03  0.23472446663E+03  0.00000000000E+00 0. -1.
          1   -1    0    0  505    0 -0.00000000000E+00 -0.00000000000E+00 -0.13744197777E+04  0.13744197777E+04  0.00000000000E+00 0. -1.
         21    1    1    2  503  501 -0.29863400937E+02  0.52033701788E+02  0.30006799481E+02  0.67080077909E+02  0.00000000000E+00 0.  1.
         21    1    1    2  504  502  0.80614105390E+02 -0.72227088746E+02  0.10200215511E+03  0.14872735453E+03  0.00000000000E+00 0. -1.
         21    1    1    2  505  504 -0.69823877991E+02 -0.19742548043E+02  0.38665280633E+02  0.82220107440E+02  0.00000000000E+00 0. -1.
          1    1    1    2  501    0  0.19073173539E+02  0.39935935002E+02 -0.13103695463E+04  0.13111167044E+04  0.00000000000E+00 0. -1.
<scales pt_clust_3="14000.00000" pt_clust_4="80.33677" pt_clust_5="63.59260" pt_clust_6="44.25681"></scales>
<clustering>
<clus scale="   44.257">  2  6  1 -1</clus>
<clus scale="   63.593">  2  5  1 -1</clus>
<clus scale="   80.337">  2  4  1 -1</clus>
<clus scale="   80.337">  1  3  2 -1</clus>
</clustering>
</event>
<event>
 6    0  0.2433432E+002  0.1018435E+03  0.7546771E-02  0.1276466E+00
          2   -1    0    0  503    0 -0.00000000000E+00  0.00000000000E+00  0.11345292700E+04  0.11345292700E+04  0.00000000000E+00 0.  1.
         21   -1    0    0  501  502  0.00000000000E+00 -0.00000000000E+00 -0.20065892997E+03  0.20065892997E+03  0.00000000000E+00 0.  1.
         21    1    1    2  503  504 -0.45554860182E+02 -0.12960635214E+02  0.15306030910E+03  0.16022072766E+03  0.00000000000E+00 0. -1.
         21    1    1    2  504  505 -0.20099827795E+02  0.45304631804E+02  0.20752131086E+03  0.21335793213E+03  0.00000000000E+00 0.  1.
         21    1    1    2  505  502  0.86633094227E+02  0.54818718693E+02 -0.17777299366E+03  0.20521603790E+03  0.00000000000E+00 0.  1.
          2    1    1    2  501    0 -0.20978406250E+02 -0.87162715284E+02  0.75106171374E+03  0.75639350229E+03  0.00000000000E+00 0.  1.
<scales pt_clust_3="47.36268" pt_clust_4="51.97853" pt_clust_5="101.84355" pt_clust_6="14000.00000"></scales>
<clustering>
<clus scale="   47.363">  1  3  2 -1</clus>
<clus scale="   51.979">  1  4  2 -1</clus>
<clus scale="  101.844">  2  5  1 -1</clus>
<clus scale="  101.844">  2  3  1 -1</clus>
</clustering>
</event>
<event>
 6    0  0.3742316E+002  0.9744757E+02  0.7546771E-02  0.1285757E+00
          2   -1    0    0  503    0 -0.00000000000E+00  0.00000000000E+00  0.23183854025E+04  0.23183854025E+04  0.00000000000E+00 0. -1.
         21   -1    0    0  505  502  0.00000000000E+00 -0.00000000000E+00 -0.14954937400E+03  0.14954937400E+03  0.00000000000E+00 0.  1.
         21    1    1    2  503  502 -0.13044515837E+03  0.61819129052E+02 -0.79399822628E+02  0.16474791620E+03  0.00000000000E+00 0.  1.
         21    1    1    2  504  501  0.18575293942E+02 -0.32210385219E+02 -0.43319354447E+01  0.37434157205E+02  0.00000000000E+00 0.  1.
         21    1    1    2  505  504  0.14734307515E+02 -0.32243897046E+02  0.51392437117E+02  0.62433575162E+02  0.00000000000E+00 0.  1.
          2    1    1    2  501    0  0.97135556912E+02  0.26351532127E+01  0.22011753495E+04  0.22033191280E+04  0.00000000000E+00 0. -1.
<scales pt_clust_3="97.44757" pt_clust_4="42.30263" pt_clust_5="35.45093" pt_clust_6="14000.00000"></scales>
<clustering>
<clus scale="   35.451">  2  5  1 -1</clus>
<clus scale="   42.303">  2  4  1 -1</clus>
<clus scale="   97.448">  2  3  1 -1</clus>
<clus scale="   35.451">  2  3  1 -1</clus>
</clustering>
</event>
<event>
 6    0  0.2433432E+002  0.8998619E+02  0.7546771E-02  0.1302885E+00
          2   -1    0    0  503    0 -0.00000000000E+00  0.00000000000E+00  0.26650170067E+04  0.26650170067E+04  0.00000000000E+00 0. -1.
         21   -1    0    0  505  502  0.00000000000E+00 -0.00000000000E+00 -0.28123145816E+02  0.28123145816E+02  0.00000000000E+00 0. -1.
         21    1    1    2  503  504  0.28290613375E+02  0.31642104188E+02  0.24816103519E+03  0.25176473333E+03  0.00000000000E+00 0. -1.
         21    1    1    2  504  502  0.16228196732E+02 -0.29357888864E+02 -0.43215923152E+01  0.33821829753E+02  0.00000000000E+00 0. -1.
         21    1    1    2  505  501 -0.11579523834E+03 -0.47748981835E+02  0.62219017547E+03  0.63467244854E+03  0.00000000000E+00 0. -1.
          2    1    1    2  501    0  0.71276428231E+02  0.45464766511E+02  0.17708642425E+04  0.17728811409E+04  0.00000000000E+00 0. -1.
<scales pt_clust_3="40.73221" pt_clust_4="33.54460" pt_clust_5="14000.00000" pt_clust_6="89.98619"></scales>
<clustering>
<clus scale="   33.545">  2  4  1 -1</clus>
<clus scale="   40.732">  2  3  1 -1</clus>
<clus scale="   89.986">  1  6  2 -1</clus>
<clus scale="   33.545">  2  3  1 -1</clus>
</clustering>
</event>
<event>
 6    0  0.2433432E+002  0.1822540E+03  0.7546771E-02  0.1165639E+00
          1   -1    0    0  503    0 -0.00000000000E+00  0.00000000000E+00  0.20924764851E+04  0.20924764851E+04  0.00000000000E+00 0. -1.
         21   -1    0    0  505  502  0.00000000000E+00 -0.00000000000E+00 -0.37618787979E+02  0.37618787979E+02  0.00000000000E+00 0. -1.
         21    1    1    2  503  504 -0.15804424437E+03  0.50743431021E+02  0.35599694491E+03  0.39279346196E+03  0.00000000000E+00 0. -1.
         21    1    1    2  504  502 -0.11292154403E+02  0.30871164701E+02  0.30485277993E+02  0.44831838412E+02  0.00000000000E+00 0. -1.
         21    1    1    2  505  501 -0.21424030304E+02 -0.83653978488E+02  0.35725576957E+03  0.36754409543E+03  0.00000000000E+00 0. -1.
          1    1    1    2  501    0  0.19076042908E+03  0.20393827654E+01  0.13111197046E+04  0.13249258772E+04  0.00000000000E+00 0. -1.
<scales pt_clust_3="182.25402" pt_clust_4="32.87159" pt_clust_5="81.83450" pt_clust_6="14000.00000"></scales>
<clustering>
<clus scale="   32.872">  2  4  1 -1</clus>
<clus scale="   81.834">  2  5  1 -1</clus>
<clus scale="  182.254">  2  3  1 -1</clus>
<clus scale="   32.872">  2  3  1 -1</clus>
</clustering>
</event>
<event>
 6    0  0.2433432E+002  0.1589822E+03  0.7546771E-02  0.1189851E+00
          3   -1    0    0  505    0 -0.00000000000E+00  0.00000000000E+00  0.80678164510E+03  0.80678164510E+03  0.00000000000E+00 0. -1.
         21   -1    0    0  503  502  0.00000000000E+00 -0.00000000000E+00 -0.90615807182E+02  0.90615807182E+02  0.00000000000E+00 0. -1.
         21    1    1    2  503  501 -0.55224608309E+02  0.15406579129E+02 -0.21105174277E+02  0.61094585886E+02  0.00000000000E+00 0. -1.
         21    1    1    2  504  502 -0.23225766840E+02 -0.20500319399E+02  0.29449550591E+01  0.31118677688E+02  0.00000000000E+00 0. -1.
         21    1    1    2  505  504 -0.11449363488E+03 -0.17775543469E+01  0.14334310386E+03  0.18346443130E+03  0.00000000000E+00 0. -1.
          3    1    1    2  501    0  0.19294401002E+03  0.68712946174E+01  0.59098295327E+03  0.62171975740E+03  0.00000000000E+00 0. -1.
<scales pt_clust_3="67.84064" pt_clust_4="30.97901" pt_clust_5="14000.00000" pt_clust_6="158.98221"></scales>
<clustering>
<clus scale="   30.979">  2  4  1 -1</clus>
<clus scale="   67.841">  2  3  1 -1</clus>
<clus scale="  158.982">  1  6  2 -1</clus>
<clus scale="   30.979">  2  3  1 -1</clus>
</clustering>
</event>
<event>
 6    0  0.2433432E+002  0.1629866E+03  0.7546771E-02  0.1185366E+00
          2   -1    0    0  505    0 -0.00000000000E+00  0.00000000000E+00  0.18301923127E+04  0.18301923127E+04  0.00000000000E+00 0.  1.
         21   -1    0    0  504  502  0.00000000000E+00 -0.00000000000E+00 -0.39428198532E+03  0.39428198532E+03  0.00000000000E+00 0.  1.
         21    1    1    2  503  502 -0.59761944808E+02 -0.12300194362E+02 -0.20963126970E+03  0.21833014923E+03  0.00000000000E+00 0.  1.
         21    1    1    2  504  501  0.75507353664E+01  0.11394801950E+03 -0.64914336115E+02  0.13135842488E+03  0.00000000000E+00 0.  1.
         21    1    1    2  505  503 -0.61369887117E+02  0.19845652802E+02 -0.64992154487E+02  0.91564693658E+02  0.00000000000E+00 0.  1.
          2    1    1    2  501    0  0.11358109656E+03 -0.12149347794E+03  0.17754480877E+04  0.17832210303E+04  0.00000000000E+00 0.  1.
<scales pt_clust_3="61.01463" pt_clust_4="14000.00000" pt_clust_5="88.51242" pt_clust_6="162.98663"></scales>
<clustering>
<clus scale="   61.015">  2  3  1 -1</clus>
<clus scale="   88.512">  2  5  1 -1</clus>
<clus scale="  162.987">  1  6  2 -1</clus>
<clus scale="   61.015">  2  3  1 -1</clus>
</clustering>
</event>
<event>
 6    0  0.2433432E+002  0.9823071E+02  0.7546771E-02  0.1284061E+00
          1   -1    0    0  504    0 -0.00000000000E+00  0.00000000000E+00  0.37982333438E+03  0.37982333438E+03  0.00000000000E+00 0. -1.
         21   -1    0    0  501  502  0.00000000000E+00 -0.00000000000E+00 -0.99506021786E+02  0.99506021786E+02  0.00000000000E+00 0. -1.
         21    1    1    2  503  505  0.70805899512E+02  0.23587767006E+02 -0.22211166282E+02  0.77866514406E+02  0.00000000000E+00 0. -1.
         21    1    1    2  504  503  0.38574246076E+02  0.37744454542E+02  0.30371037984E+02  0.61927508082E+02  0.00000000000E+00 0. -1.
         21    1    1    2  505  502 -0.39037303393E+02 -0.40261301823E+02 -0.15985332519E+01  0.56102039082E+02  0.00000000000E+00 0. -1.
          1    1    1    2  501    0 -0.70342842195E+02 -0.21070919725E+02  0.27375597415E+03  0.28343329460E+03  0.00000000000E+00 0. -1.
<scales pt_clust_3="52.07542" pt_clust_4="52.07542" pt_clust_5="56.07926" pt_clust_6="76.80589"></scales>
<clustering>
<clus scale="   52.075">  3  4 -1 -1</clus>
<clus scale="   56.079">  2  5  1 -1</clus>
<clus scale="   76.806">  1  6  2 -1</clus>
<clus scale="   56.079">  2  3  1 -1</clus>
</clustering>
</event>
<event>
 6    0  0.2433432E+002  0.6494123E+02  0.7546771E-02  0.1378193E+00
          2   -1    0    0  505    0 -0.00000000000E+00  0.00000000000E+00  0.18220742171E+04  0.18220742171E+04  0.00000000000E+00 0. -1.
         21   -1    0    0  504  502  0.00000000000E+00 -0.00000000000E+00 -0.11216628614E+02  0.11216628614E+02  0.00000000000E+00 0.  1.
         21    1    1    2  503  502 -0.37818997951E+02  0.28330518835E+02  0.24516087376E+03  0.24967328436E+03  0.00000000000E+00 0.  1.
         21    1    1    2  504  501  0.28282122914E+02  0.36863092045E+02  0.16085094675E+03  0.16742697842E+03  0.00000000000E+00 0.  1.
         21    1    1    2  505  503 -0.21786636783E+02 -0.11079525581E+03  0.68716435729E+03  0.69637999697E+03  0.00000000000E+00 0.  1.
          2    1    1    2  501    0  0.31323511821E+02  0.45601644931E+02  0.71768141071E+03  0.71981058598E+03  0.00000000000E+00 0. -1.
<scales pt_clust_3="48.92172" pt_clust_4="46.46252" pt_clust_5="14000.00000" pt_clust_6="64.94123"></scales>
<clustering>
<clus scale="   46.463">  2  4  1 -1</clus>
<clus scale="   48.922">  2  3  1 -1</clus>
<clus scale="   64.941">  1  6  2 -1</clus>
<clus scale="   46.463">  2  3  1 -1</clus>
</clustering>
</event>
<event>
 6    0  0.2433432E+002  0.7989281E+02  0.7546771E-02  0.1329356E+00
          2   -1    0    0  503    0 -0.00000000000E+00  0.00000000000E+00  0.23817518786E+04  0.23817518786E+04  0.00000000000E+00 0.  1.
         21   -1    0    0  505  502  0.00000000000E+00 -0.00000000000E+00 -0.76432605491E+02  0.76432605491E+02  0.00000000000E+00 0. -1.
         21    1    1    2  503  504 -0.30291503424E+02 -0.43007504151E+02  0.13656302815E+02  0.54348092879E+02  0.00000000000E+00 0. -1.
         21    1    1    2  504  502  0.64418669476E+02  0.10987738793E+03  0.25026160127E+02  0.12980413725E+03  0.00000000000E+00 0. -1.
         21    1    1    2  505  501 -0.12505954425E+02 -0.33795754102E+02  0.88747341088E+02  0.95784353846E+02  0.00000000000E+00 0. -1.
          2    1    1    2  501    0 -0.21621211626E+02 -0.33074129679E+02  0.21778894690E+04  0.21782479001E+04  0.00000000000E+00 0.  1.
<scales pt_clust_3="79.89281" pt_clust_4="14000.00000" pt_clust_5="36.03543" pt_clust_6="39.60059"></scales>
<clustering>
<clus scale="   36.035">  2  5  1 -1</clus>
<clus scale="   39.601">  1  6  2 -1</clus>
<clus scale="   79.893">  1  3  2 -1</clus>
<clus scale="   36.035">  2  3  1 -1</clus>
</clustering>
</event>
<event>
 6    0  0.2433432E+002  0.8911913E+02  0.7546771E-02  0.1304999E+00
          2   -1    0    0  503    0 -0.00000000000E+00  0.00000000000E+00  0.64928569677E+03  0.64928569677E+03  0.00000000000E+00 0.  1.
         21   -1    0    0  505  502  0.00000000000E+00 -0.00000000000E+00 -0.72349290552E+02  0.72349290552E+02  0.00000000000E+00 0. -1.
         21    1    1    2  503  502 -0.56291192835E+01 -0.10678737626E+03  0.22324776009E+03  0.24753745797E+03  0.00000000000E+00 0. -1.
         21    1    1    2  504  501  0.19931733771E+02  0.65999368668E+02  0.67139343355E+02  0.96233477033E+02  0.00000000000E+00 0. -1.
         21    1    1    2  505  504  0.14175868464E+02  0.56749250431E+02 -0.25716347398E+02  0.63896503775E+02  0.00000000000E+00 0. -1.
          2    1    1    2  501    0 -0.28478482952E+02 -0.15961242843E+02  0.31226565017E+03  0.31396754855E+03  0.00000000000E+00 0.  1.
<scales pt_clust_3="89.11913" pt_clust_4="14000.00000" pt_clust_5="57.23762" pt_clust_6="32.64637"></scales>
<clustering>
<clus scale="   32.646">  1  6  2 -1</clus>
<clus scale="   57.238">  2  5  1 -1</clus>
<clus scale="   89.119">  2  3  1 -1</clus>
<clus scale="   57.238">  2  3  1 -1</clus>
</clustering>
</event>
<event>
 6    0  0.2433432E+002  0.8124046E+02  0.7546771E-02  0.1325568E+00
          2   -1    0    0  504    0 -0.00000000000E+00  0.00000000000E+00  0.83354837309E+03  0.83354837309E+03  0.00000000000E+00 0.  1.
         21   -1    0    0  503  502  0.00000000000E+00 -0.00000000000E+00 -0.43254533350E+03  0.43254533350E+03  0.00000000000E+00 0. -1.
         21    1    1    2  503  505 -0.14969366323E+02  0.47524569473E+02 -0.20850511710E+03  0.21437595595E+03  0.00000000000E+00 0. -1.
         21    1    1    2  504  502  0.39344612307E+02 -0.38230884878E+02 -0.86722278049E+02  0.10261750624E+03  0.00000000000E+00 0. -1.
         21    1    1    2  505  501 -0.73650681394E+02  0.55144765196E+02 -0.10737960355E+03  0.14140631972E+03  0.00000000000E+00 0. -1.
          2    1    1    2  501    0  0.49275435411E+02 -0.64438449791E+02  0.80361003829E+03  0.80769392469E+03  0.00000000000E+00 0.  1.
<scales pt_clust_3="49.82636" pt_clust_4="37.47678" pt_clust_5="14000.00000" pt_clust_6="81.24046"></scales>
<clustering>
<clus scale="   49.826">  2  3  1 -1</clus>
<clus scale="   37.477">  2  4  1 -1</clus>
<clus scale="   81.240">  1  6  2 -1</clus>
<clus scale="   49.826">  2  3  1 -1</clus>
</clustering>
</event>
<event>
 6    0  0.2433432E+002  0.1408183E+03  0.7546771E-02  0.1212232E+00
         21   -1    0    0  503  502  0.00000000000E+00  0.00000000000E+00  0.10946340477E+04  0.10946340477E+04  0.00000000000E+00 0.  1.
          2   -1    0    0  505    0 -0.00000000000E+00 -0.00000000000E+00 -0.99320331364E+03  0.99320331364E+03  0.00000000000E+00 0.  1.
         21    1    1    2  503  501  0.48679082129E+02 -0.76894624825E+01  0.30491612343E+02  0.57952733270E+02  0.00000000000E+00 0.  1.
         21    1    1    2  504  502  0.11381475612E+03 -0.88106914867E+02  0.81916381516E+03  0.83171268069E+03  0.00000000000E+00 0.  1.
         21    1    1    2  505  504 -0.10718201131E+03  0.45176736917E+02  0.20837410545E+03  0.23863924432E+03  0.00000000000E+00 0.  1.
          2    1    1    2  501    0 -0.55311826941E+02  0.50619640432E+02 -0.95659879889E+03  0.95953270305E+03  0.00000000000E+00 0.  1.
<scales pt_clust_3="49.28266" pt_clust_4="14000.00000" pt_clust_5="140.81830" pt_clust_6="74.92091"></scales>
<clustering>
<clus scale="   49.283">  1  3  2 -1</clus>
<clus scale="   74.921">  2  6  1 -1</clus>
<clus scale="  140.818">  2  5  1 -1</clus>
<clus scale="   49.283">  1  3  2 -1</clus>
</clustering>
</event>
<event>
 6    0  0.2433432E+002  0.1130871E+03  0.7546771E-02  0.1254958E+00
          1   -1    0    0  502    0 -0.00000000000E+00  0.00000000000E+00  0.35611567988E+03  0.35611567988E+03  0.00000000000E+00 0.  1.
         21   -1    0    0  504  502  0.00000000000E+00 -0.00000000000E+00 -0.53228981469E+03  0.53228981469E+03  0.00000000000E+00 0.  1.
         21    1    1    2  503  501  0.49079122909E+02  0.11335674791E+02 -0.23518475807E+02  0.55591155166E+02  0.00000000000E+00 0.  1.
         21    1    1    2  504  505 -0.93432115264E+02  0.58750073744E+02 -0.32186838780E+03  0.34026517658E+03  0.00000000000E+00 0.  1.
         21    1    1    2  505  503  0.90588627506E+02 -0.80168700880E+02 -0.13696454515E+03  0.18273644043E+03  0.00000000000E+00 0.  1.
          1    1    1    2  501    0 -0.46235635151E+02  0.10082952345E+02  0.30617727393E+03  0.30981272240E+03  0.00000000000E+00 0.  1.
<scales pt_clust_3="36.73830" pt_clust_4="113.08709" pt_clust_5="14000.00000" pt_clust_6="47.32230"></scales>
<clustering>
<clus scale="   47.322">  1  6  2 -1</clus>
<clus scale="   36.738">  1  3  2 -1</clus>
<clus scale="  113.087">  2  4  1 -1</clus>
<clus scale="  113.087">  2  3  1 -1</clus>
</clustering>
</event>
<event>
 6    0  0.2433432E+002  0.1383459E+03  0.7546771E-02  0.1215572E+00
         21   -1    0    0  504  502  0.00000000000E+00  0.00000000000E+00  0.27640182158E+03  0.27640182158E+03  0.00000000000E+00 0. -1.
          2   -1    0    0  502    0 -0.00000000000E+00 -0.00000000000E+00 -0.92653383744E+03  0.92653383744E+03  0.00000000000E+00 0. -1.
         21    1    1    2  503  505  0.26516450008E+02 -0.65192393992E+02 -0.94908441921E+01  0.71015818512E+02  0.00000000000E+00 0. -1.
         21    1    1    2  504  503 -0.62732038697E+02  0.10680694537E+03  0.20913657904E+03  0.24306612464E+03  0.00000000000E+00 0. -1.
         21    1    1    2  505  501  0.40653643886E+02 -0.75709931601E+02 -0.77222305748E+02  0.11553353197E+03  0.00000000000E+00 0. -1.
          2    1    1    2  501    0 -0.44380551968E+01  0.34095380224E+02 -0.77255544496E+03  0.77332018390E+03  0.00000000000E+00 0. -1.
<scales pt_clust_3="52.13129" pt_clust_4="127.37109" pt_clust_5="52.13129" pt_clust_6="34.38301"></scales>
<clustering>
<clus scale="   34.383">  2  6  1 -1</clus>
<clus scale="   52.131">  3  5 -1 -1</clus>
<clus scale="  127.371">  1  4  2 -1</clus>
<clus scale="  127.371">  1  3  2 -1</clus>
</clustering>
</event>
<event>
 6    0  0.2433432E+002  0.1211940E+03  0.7546771E-02  0.1241140E+00
         21   -1    0    0  503  502  0.00000000000E+00  0.00000000000E+00  0.87328327983E+03  0.87328327983E+03  0.00000000000E+00 0. -1.
          3   -1    0    0  504    0 -0.00000000000E+00 -0.00000000000E+00 -0.30372808090E+02  0.30372808090E+02  0.00000000000E+00 0. -1.
         21    1    1    2  503  501  0.27251888672E+01  0.31044893933E+02  0.11775722234E+03  0.12181122898E+03  0.00000000000E+00 0.  1.
         21    1    1    2  504  505 -0.20937341505E+02 -0.27877118807E+02  0.84359604856E+02  0.91280057810E+02  0.00000000000E+00 0.  1.
         21    1    1    2  505  502 -0.75291671412E+02 -0.55140106957E+02  0.52374606829E+03  0.53199549926E+03  0.00000000000E+00 0. -1.
          3    1    1    2  501    0  0.93503824050E+02  0.51972331830E+02  0.11704757625E+03  0.15856930187E+03  0.00000000000E+00 0. -1.
<scales pt_clust_3="31.16428" pt_clust_4="30.73157" pt_clust_5="30.73157" pt_clust_6="110.27222"></scales>
<clustering>
<clus scale="   30.732">  4  5 -1 -1</clus>
<clus scale="   31.164">  1  3  2 -1</clus>
<clus scale="  110.272">  2  6  1 -1</clus>
<clus scale="   31.164">  1  3  2 -1</clus>
</clustering>
</event>
<event>
 6    0  0.2433432E+002  0.1260089E+03  0.7546771E-02  0.1233501E+00
         21   -1    0    0  503  502  0.00000000000E+00  0.00000000000E+00  0.86609487127E+03  0.86609487127E+03  0.00000000000E+00 0.  1.
          4   -1    0    0  502    0 -0.00000000000E+00 -0.00000000000E+00 -0.17064823198E+03  0.17064823198E+03  0.00000000000E+00 0.  1.
         21    1    1    2  503  504 -0.49818904930E+02 -0.14617956572E+01  0.44998165106E+03  0.45273341651E+03  0.00000000000E+00 0.  1.
         21    1    1    2  504  505 -0.80902265645E+02 -0.30624509911E+02  0.24422202051E+03  0.25908962251E+03  0.00000000000E+00 0. -1.
         21    1    1    2  505  501  0.16723706734E+03  0.31960072778E+02  0.11498923471E+03  0.20545609517E+03  0.00000000000E+00 0.  1.
          4    1    1    2  501    0 -0.36515896765E+02  0.12623279003E+00 -0.11374626698E+03  0.11946396906E+03  0.00000000000E+00 0.  1.
<scales pt_clust_3="50.76952" pt_clust_4="14000.00000" pt_clust_5="126.00886" pt_clust_6="36.51611"></scales>
<clustering>
<clus scale="   36.516">  2  6  1 -1</clus>
<clus scale="   50.770">  1  3  2 -1</clus>
<clus scale="  126.009">  2  5  1 -1</clus>
<clus scale="   50.770">  1  3  2 -1</clus>
</clustering>
</event>
<event>
 6    0  0.2433432E+002  0.7644102E+02  0.7546771E-02  0.1339466E+00
         21   -1    0    0  504  502  0.00000000000E+00  0.00000000000E+00  0.16082370027E+03  0.16082370027E+03  0.00000000000E+00 0. -1.
          2   -1    0    0  503    0 -0.00000000000E+00 -0.00000000000E+00 -0.10186524685E+04  0.10186524685E+04  0.00000000000E+00 0. -1.
         21    1    1    2  503  505  0.53948606334E+02 -0.32974776572E+02  0.58930079814E+01  0.63502090977E+02  0.00000000000E+00 0. -1.
         21    1    1    2  504  501 -0.36588569377E+02  0.72970146840E+02  0.24191107665E+01  0.81665279255E+02  0.00000000000E+00 0. -1.
         21    1    1    2  505  502  0.62192874818E+00 -0.76686162838E+02  0.66056895389E+02  0.10121594635E+03  0.00000000000E+00 0. -1.
          2    1    1    2  501    0 -0.17981965706E+02  0.36690792570E+02 -0.93219778238E+03  0.93309285220E+03  0.00000000000E+00 0. -1.
<scales pt_clust_3="52.20028" pt_clust_4="14000.00000" pt_clust_5="76.44102" pt_clust_6="40.86032"></scales>
<clustering>
<clus scale="   40.860">  2  6  1 -1</clus>
<clus scale="   52.200">  2  3  1 -1</clus>
<clus scale="   76.441">  1  5  2 -1</clus>
<clus scale="   76.441">  1  3  2 -1</clus>
</clustering>
</event>
<event>
 6    0  0.2433432E+002  0.1400134E+03  0.7546771E-02  0.1213311E+00
         21   -1    0    0  505  502  0.00000000000E+00  0.00000000000E+00  0.17159076261E+03  0.17159076261E+03  0.00000000000E+00 0.  1.
          2   -1    0    0  504    0 -0.00000000000E+00 -0.00000000000E+00 -0.39946103349E+03  0.39946103349E+03  0.00000000000E+00 0.  1.
         21    1    1    2  503  502  0.74756692421E+02 -0.21439550779E+02  0.36188878878E+01  0.77854439494E+02  0.00000000000E+00 0. -1.
         21    1    1    2  504  503  0.74835506641E+02  0.40545191805E+02 -0.11000054871E+03  0.13908409812E+03  0.00000000000E+00 0.  1.
         21    1    1    2  505  501 -0.62606761868E+01 -0.12541185644E+03  0.18998980508E+02  0.12699720888E+03  0.00000000000E+00 0.  1.
          2    1    1    2  501    0 -0.14333152288E+03  0.10630621541E+03 -0.14048759058E+03  0.22711604961E+03  0.00000000000E+00 0.  1.
<scales pt_clust_3="77.77029" pt_clust_4="91.48320" pt_clust_5="14000.00000" pt_clust_6="140.01339"></scales>
<clustering>
<clus scale="   77.770">  1  3  2 -1</clus>
<clus scale="   91.483">  2  4  1 -1</clus>
<clus scale="  140.013">  2  6  1 -1</clus>
<clus scale="   77.770">  1  3  2 -1</clus>
</clustering>
</event>
<event>
 6    0  0.2433432E+002  0.1026241E+03  0.7546771E-02  0.1274873E+00
          2   -1    0    0  503    0 -0.00000000000E+00  0.00000000000E+00  0.60948378132E+03  0.60948378132E+03  0.00000000000E+00 0. -1.
         21   -1    0    0  504  502  0.00000000000E+00 -0.00000000000E+00 -0.15658006772E+03  0.15658006772E+03  0.00000000000E+00 0.  1.
         21    1    1    2  503  502 -0.96906925451E+02  0.16833783226E+01  0.37997623689E+02  0.10410382015E+03  0.00000000000E+00 0.  1.
         21    1    1    2  504  505  0.91843652661E+02 -0.65718356052E+02 -0.32706804247E+02  0.11757505645E+03  0.00000000000E+00 0.  1.
         21    1    1    2  505  501  0.47729088072E+02  0.82764943431E+02  0.12018126711E+01  0.95548658091E+02  0.00000000000E+00 0.  1.
          2    1    1    2  501    0 -0.42665815281E+02 -0.18729965702E+02  0.44641108148E+03  0.44883631435E+03  0.00000000000E+00 0. -1.
<scales pt_clust_3="14000.00000" pt_clust_4="102.62414" pt_clust_5="84.72420" pt_clust_6="46.59596"></scales>
<clustering>
<clus scale="   46.596">  1  6  2 -1</clus>
<clus scale="   84.724">  1  5  2 -1</clus>
<clus scale="  102.624">  2  4  1 -1</clus>
<clus scale="  102.624">  2  3  1 -1</clus>
</clustering>
</event>
<event>
 6    0  0.5866498E+002  0.1135942E+03  0.7546771E-02  0.1254055E+00
          2   -1    0    0  505    0 -0.00000000000E+00  0.00000000000E+00  0.24071714662E+04  0.24071714662E+04  0.00000000000E+00 0. -1.
         21   -1    0    0  504  502  0.00000000000E+00 -0.00000000000E+00 -0.29594996840E+03  0.29594996840E+03  0.00000000000E+00 0. -1.
         21    1    1    2  503  502  0.20683437005E+02 -0.47107604928E+02  0.69166757227E+02  0.86203081811E+02  0.00000000000E+00 0.  1.
         21    1    1    2  504  501 -0.11018292553E+03  0.44876299936E+02 -0.26288354386E+03  0.28855141138E+03  0.00000000000E+00 0. -1.
         21    1    1    2  505  503 -0.14581530074E+02 -0.43670238119E+02  0.41232246006E+02  0.61804601992E+02  0.00000000000E+00 0.  1.
          2    1    1    2  501    0  0.10408101860E+03  0.45901543112E+02  0.22637060384E+04  0.22665623394E+04  0.00000000000E+00 0. -1.
<scales pt_clust_3="98.58161" pt_clust_4="14000.00000" pt_clust_5="35.90358" pt_clust_6="113.59415"></scales>
<clustering>
<clus scale="   35.904">  3  5 -1 -1</clus>
<clus scale="   98.582">  2  3  1 -1</clus>
<clus scale="  113.594">  1  6  2 -1</clus>
<clus scale="   98.582">  2  3  1 -1</clus>
</clustering>
</event>
<event>
 6    0  0.2433432E+002  0.2546622E+03  0.7546771E-02  0.1110393E+00
         21   -1    0    0  501  502  0.00000000000E+00  0.00000000000E+00  0.58371303322E+02  0.58371303322E+02  0.00000000000E+00 0. -1.
          2   -1    0    0  505    0 -0.00000000000E+00 -0.00000000000E+00 -0.18387391885E+04  0.18387391885E+04  0.00000000000E+00 0.  1.
         21    1    1    2  503  504  0.14031327357E+03  0.38733110703E+02 -0.29929420602E+03  0.33281389749E+03  0.00000000000E+00 0. -1.
         21    1    1    2  504  502  0.70024782404E+02  0.64477118828E+02 -0.22935370691E+03  0.24832215341E+03  0.00000000000E+00 0. -1.
         21    1    1    2  505  503 -0.21857639521E+03 -0.14542402354E+03 -0.51552181641E+03  0.57852098524E+03  0.00000000000E+00 0. -1.
          2    1    1    2  501    0  0.82383392407E+01  0.42213794011E+02 -0.73619815588E+03  0.73745345573E+03  0.00000000000E+00 0.  1.
<scales pt_clust_3="47.73717" pt_clust_4="47.73717" pt_clust_5="247.98544" pt_clust_6="43.01017"></scales>
<clustering>
<clus scale="   43.010">  2  6  1 -1</clus>
<clus scale="   47.737">  3  4 -1 -1</clus>
<clus scale="  247.985">  2  5  1 -1</clus>
<clus scale="  254.662">  1  3  2 -1</clus>
</clustering>
</event>
<event>
 6    0  0.2433432E+002  0.1181135E+03  0.7546771E-02  0.1246242E+00
         21   -1    0    0  505  502  0.00000000000E+00  0.00000000000E+00  0.11096471262E+04  0.11096471262E+04  0.00000000000E+00 0. -1.
         -2   -1    0    0    0  501 -0.00000000000E+00 -0.00000000000E+00 -0.67295486682E+02  0.67295486682E+02  0.00000000000E+00 0. -1.
         21    1    1    2  503  502 -0.68110729697E+01  0.81511903897E+02  0.26923213904E+03  0.28138323668E+03  0.00000000000E+00 0. -1.
         21    1    1    2  504  503 -0.20635870961E+02  0.65225438499E+02  0.48511957018E+03  0.48991957949E+03  0.00000000000E+00 0. -1.
         21    1    1    2  505  501 -0.50659225209E+02 -0.82910389396E+02  0.28886466792E+03  0.30476759365E+03  0.00000000000E+00 0. -1.
         -2    1    1    2    0  504  0.78106169140E+02 -0.63826953000E+02 -0.86473758058E+00  0.10087220310E+03  0.00000000000E+00 0. -1.
<scales pt_clust_3="54.69154" pt_clust_4="54.69154" pt_clust_5="97.16218" pt_clust_6="101.85504"></scales>
<clustering>
<clus scale="   54.692">  3  4 -1 -1</clus>
<clus scale="   97.162">  1  5  2 -1</clus>
<clus scale="  101.855">  2  6  1 -1</clus>
<clus scale="   97.162">  1  3  2 -1</clus>
</clustering>
</event>
<event>
 6    0  0.2433432E+002  0.1239933E+03  0.7546771E-02  0.1236651E+00
         21   -1    0    0  503  502  0.00000000000E+00  0.00000000000E+00  0.16039696515E+04  0.16039696515E+04  0.00000000000E+00 0.  1.
          4   -1    0    0  504    0 -0.00000000000E+00 -0.00000000000E+00 -0.41098131005E+03  0.41098131005E+03  0.00000000000E+00 0.  1.
         21    1    1    2  503  501  0.42902511539E+02 -0.25008389388E+02  0.24110563016E+03  0.24616654917E+03  0.00000000000E+00 0. -1.
         21    1    1    2  504  505  0.11657021782E+03  0.60821179519E+02  0.96593414609E+03  0.97484183647E+03  0.00000000000E+00 0.  1.
         21    1    1    2  505  502 -0.39800799199E+02 -0.35300044357E+01  0.37936436827E+03  0.38146282710E+03  0.00000000000E+00 0.  1.
          4    1    1    2  501    0 -0.11967193016E+03 -0.32282785695E+02 -0.39341580303E+03  0.41247974883E+03  0.00000000000E+00 0.  1.
<scales pt_clust_3="43.41064" pt_clust_4="123.99326" pt_clust_5="39.95703" pt_clust_6="14000.00000"></scales>
<clustering>
<clus scale="   39.957">  1  5  2 -1</clus>
<clus scale="   43.411">  1  3  2 -1</clus>
<clus scale="  123.993">  1  4  2 -1</clus>
<clus scale="   39.957">  1  3  2 -1</clus>
</clustering>
</event>
<event>
 6    0  0.2433432E+002  0.2537566E+03  0.7546771E-02  0.1110954E+00
          1   -1    0    0  503    0 -0.00000000000E+00  0.00000000000E+00  0.73109977728E+03  0.73109977728E+03  0.00000000000E+00 0. -1.
         21   -1    0    0  504  502  0.00000000000E+00 -0.00000000000E+00 -0.97432096601E+03  0.97432096601E+03  0.00000000000E+00 0.  1.
         21    1    1    2  503  505  0.49161831874E+01 -0.14887968832E+03  0.15333201996E+03  0.21377567401E+03  0.00000000000E+00 0.  1.
         21    1    1    2  504  501 -0.41448643196E+02 -0.66371511448E+01 -0.35362182763E+02  0.54886480738E+02  0.00000000000E+00 0.  1.
         21    1    1    2  505  502 -0.68926482051E+01  0.27302856174E+03 -0.87046314886E+03  0.91230378583E+03  0.00000000000E+00 0.  1.
          1    1    1    2  501    0  0.43425108213E+02 -0.11751172227E+03  0.50927212293E+03  0.52445480271E+03  0.00000000000E+00 0. -1.
<scales pt_clust_3="14000.00000" pt_clust_4="41.97668" pt_clust_5="253.75656" pt_clust_6="125.21261"></scales>
<clustering>
<clus scale="   41.977">  2  4  1 -1</clus>
<clus scale="  125.213">  1  6  2 -1</clus>
<clus scale="  253.757">  2  5  1 -1</clus>
<clus scale="   41.977">  2  3  1 -1</clus>
</clustering>
</event>
<event>
 6    0  0.2433432E+002  0.8802260E+02  0.7546771E-02  0.1307712E+00
         21   -1    0    0  505  502  0.00000000000E+00  0.00000000000E+00  0.50368728272E+02  0.50368728272E+02  0.00000000000E+00 0. -1.
          2   -1    0    0  503    0 -0.00000000000E+00 -0.00000000000E+00 -0.87264037914E+03  0.87264037914E+03  0.00000000000E+00 0. -1.
         21    1    1    2  503  504  0.28921749032E+02 -0.15433543493E+03 -0.30254600221E+03  0.34086650978E+03  0.00000000000E+00 0. -1.
         21    1    1    2  504  502 -0.53817887786E+02  0.54692024696E+02 -0.51782822420E+02  0.92569127191E+02  0.00000000000E+00 0. -1.
         21    1    1    2  505  501  0.53295539076E+02  0.47884998630E+02 -0.15046054903E+03  0.16664862554E+03  0.00000000000E+00 0. -1.
          2    1    1    2  501    0 -0.28399400322E+02  0.51758411599E+02 -0.31748227722E+03  0.32292484490E+03  0.00000000000E+00 0. -1.
<scales pt_clust_3="14000.00000" pt_clust_4="88.02260" pt_clust_5="77.29402" pt_clust_6="59.03778"></scales>
<clustering>
<clus scale="   59.038">  2  6  1 -1</clus>
<clus scale="   77.294">  2  5  1 -1</clus>
<clus scale="   88.023">  1  4  2 -1</clus>
<clus scale="   88.023">  1  3  2 -1</clus>
</clustering>
</event>
<event>
 6    0  0.2433432E+002  0.1254290E+03  0.7546771E-02  0.1234400E+00
         21   -1    0    0  505  502  0.00000000000E+00  0.00000000000E+00  0.19569428269E+02  0.19569428269E+02  0.00000000000E+00 0. -1.
          1   -1    0    0  504    0 -0.00000000000E+00 -0.00000000000E+00 -0.17215458773E+04  0.17215458773E+04  0.00000000000E+00 0. -1.
         21    1    1    2  503  502  0.57350891552E+02  0.34289644851E+02 -0.21922944621E+03  0.22918650613E+03  0.00000000000E+00 0. -1.
         21    1    1    2  504  503  0.44172114892E+02  0.63756112059E+02 -0.34277852886E+03  0.35144435891E+03  0.00000000000E+00 0. -1.
         21    1    1    2  505  501 -0.96852030022E+01 -0.31207399067E+02 -0.28891801620E+02  0.43616981951E+02  0.00000000000E+00 0. -1.
          1    1    1    2  501    0 -0.91837803442E+02 -0.66838357844E+02 -0.11110766723E+04  0.11168674586E+04  0.00000000000E+00 0. -1.
<scales pt_clust_3="34.28702" pt_clust_4="34.28702" pt_clust_5="32.67575" pt_clust_6="119.88777"></scales>
<clustering>
<clus scale="   32.676">  1  5  2 -1</clus>
<clus scale="   34.287">  3  4 -1 -1</clus>
<clus scale="  119.888">  2  6  1 -1</clus>
<clus scale="   32.676">  1  3  2 -1</clus>
</clustering>
</event>
<event>
 6    0  0.2433432E+002  0.1234474E+03  0.7546771E-02  0.1237516E+00
         21   -1    0    0  504  502  0.00000000000E+00  0.00000000000E+00  0.60933821073E+03  0.60933821073E+03  0.00000000000E+00 0. -1.
          2   -1    0    0  502    0 -0.00000000000E+00 -0.00000000000E+00 -0.27492909864E+03  0.27492909864E+03  0.00000000000E+00 0. -1.
         21    1    1    2  503  505 -0.10219579799E+03  0.11132548238E+02  0.40023938321E+03  0.41323053932E+03  0.00000000000E+00 0. -1.
         21    1    1    2  504  503 -0.30995465437E+02 -0.47838971449E+02  0.10912044909E+03  0.12311197536E+03  0.00000000000E+00 0. -1.
         21    1    1    2  505  501  0.98306839711E+02  0.70787922700E+02  0.39950914052E+02  0.12755877182E+03  0.00000000000E+00 0. -1.
          2    1    1    2  501    0  0.34884423711E+02 -0.34081499489E+02 -0.21490163427E+03  0.22036602287E+03  0.00000000000E+00 0. -1.
<scales pt_clust_3="14000.00000" pt_clust_4="58.47095" pt_clust_5="123.44744" pt_clust_6="48.76958"></scales>
<clustering>
<clus scale="   48.770">  2  6  1 -1</clus>
<clus scale="   58.471">  1  4  2 -1</clus>
<clus scale="  123.447">  2  5  1 -1</clus>
<clus scale="   58.471">  1  3  2 -1</clus>
</clustering>
</event>
<event>
 6    0  0.2433432E+002  0.1190005E+03  0.7546771E-02  0.1244755E+00
         -2   -1    0    0    0  501 -0.00000000000E+00  0.00000000000E+00  0.59836705106E+02  0.59836705106E+02  0.00000000000E+00 0.  1.
         21   -1    0    0  501  502  0.00000000000E+00 -0.00000000000E+00 -0.98537420930E+03  0.98537420930E+03  0.00000000000E+00 0.  1.
         21    1    1    2  503  504  0.46614756131E+02  0.68822799175E+02 -0.18668973224E+03  0.20435892273E+03  0.00000000000E+00 0.  1.
         21    1    1    2  504  502 -0.25092169837E+02 -0.26348043178E+02 -0.65730587874E+03  0.65831212551E+03  0.00000000000E+00 0.  1.
         21    1    1    2  505  503  0.35250011543E+01  0.54143008170E+02 -0.59114073814E+02  0.80239421045E+02  0.00000000000E+00 0.  1.
         -2    1    1    2    0  505 -0.25047587448E+02 -0.96617764167E+02 -0.22427819404E+02  0.10230044513E+03  0.00000000000E+00 0.  1.
<scales pt_clust_3="48.08474" pt_clust_4="36.38456" pt_clust_5="48.08474" pt_clust_6="105.91981"></scales>
<clustering>
<clus scale="   36.385">  2  4  1 -1</clus>
<clus scale="   48.085">  3  5 -1 -1</clus>
<clus scale="  105.920">  1  6  2 -1</clus>
<clus scale="   36.385">  2  3  1 -1</clus>
</clustering>
</event>
<event>
 6    0  0.2433432E+002  0.6101097E+02  0.7546771E-02  0.1393637E+00
         21   -1    0    0  505  502  0.00000000000E+00  0.00000000000E+00  0.49836280415E+02  0.49836280415E+02  0.00000000000E+00 0. -1.
          2   -1    0    0  503    0 -0.00000000000E+00 -0.00000000000E+00 -0.16117967608E+04  0.16117967608E+04  0.00000000000E+00 0. -1.
         21    1    1    2  503  502 -0.23766654394E+02 -0.78544572763E+02 -0.76036468958E+02  0.11187335868E+03  0.00000000000E+00 0. -1.
         21    1    1    2  504  501 -0.20972835674E+02  0.73290671973E+02 -0.16928705535E+03  0.18565960666E+03  0.00000000000E+00 0. -1.
         21    1    1    2  505  504  0.27952487511E+02  0.46727802851E+02 -0.83954323804E+01  0.55093669347E+02  0.00000000000E+00 0. -1.
          2    1    1    2  501    0  0.16787002557E+02 -0.41473902061E+02 -0.13082415237E+04  0.13090064065E+04  0.00000000000E+00 0. -1.
<scales pt_clust_3="14000.00000" pt_clust_4="50.26378" pt_clust_5="61.01097" pt_clust_6="44.74246"></scales>
<clustering>
<clus scale="   44.742">  2  6  1 -1</clus>
<clus scale="   50.264">  2  4  1 -1</clus>
<clus scale="   61.011">  1  5  2 -1</clus>
<clus scale="   61.011">  1  3  2 -1</clus>
</clustering>
</event>
<event>
 6    0  0.2433432E+002  0.1553200E+03  0.7546771E-02  0.1194084E+00
          1   -1    0    0  505    0 -0.00000000000E+00  0.00000000000E+00  0.14534032382E+04  0.14534032382E+04  0.00000000000E+00 0.  1.
         21   -1    0    0  503  502  0.00000000000E+00 -0.00000000000E+00 -0.21535537426E+03  0.21535537426E+03  0.00000000000E+00 0. -1.
         21    1    1    2  503  504 -0.77083174460E+02  0.29000199164E+02 -0.12101506822E+03  0.14638126271E+03  0.00000000000E+00 0. -1.
         21    1    1    2  504  501 -0.23897259643E+02  0.42481591512E+02 -0.57751285562E+02  0.75570997214E+02  0.00000000000E+00 0. -1.
         21    1    1    2  505  502 -0.23979523972E+01  0.36218690491E+02  0.18863135345E+02  0.40906742618E+02  0.00000000000E+00 0. -1.
          1    1    1    2  501    0  0.10337838650E+03 -0.10770048117E+03  0.13979510824E+04  0.14058996099E+04  0.00000000000E+00 0.  1.
<scales pt_clust_3="34.39317" pt_clust_4="34.39317" pt_clust_5="36.29799" pt_clust_6="148.74677"></scales>
<clustering>
<clus scale="   34.393">  3  4 -1 -1</clus>
<clus scale="   36.298">  2  5  1 -1</clus>
<clus scale="  148.747">  1  6  2 -1</clus>
<clus scale="   36.298">  2  3  1 -1</clus>
</clustering>
</event>
<event>
 6    0  0.2433432E+002  0.1262647E+03  0.7546771E-02  0.1233106E+00
         21   -1    0    0  505  502  0.00000000000E+00  0.00000000000E+00  0.22259911862E+03  0.22259911862E+03  0.00000000000E+00 0. -1.
          2   -1    0    0  503    0 -0.00000000000E+00 -0.00000000000E+00 -0.16354975260E+04  0.16354975260E+04  0.00000000000E+00 0. -1.
         21    1    1    2  503  504  0.15414935384E+02 -0.36832183826E+02 -0.89394358321E+02  0.97905981931E+02  0.00000000000E+00 0.  1.
         21    1    1    2  504  502  0.96542309661E+02  0.84447924426E+02  0.19518765786E+03  0.23355960968E+03  0.00000000000E+00 0. -1.
         21    1    1    2  505  501 -0.61812634478E+02 -0.48638561045E+02 -0.45431762910E+03  0.46107593682E+03  0.00000000000E+00 0.  1.
          2    1    1    2  501    0 -0.50144610567E+02  0.10228204446E+01 -0.10643740778E+04  0.10655551162E+04  0.00000000000E+00 0. -1.
<scales pt_clust_3="39.92781" pt_clust_4="126.26474" pt_clust_5="14000.00000" pt_clust_6="46.43550"></scales>
<clustering>
<clus scale="   39.928">  2  3  1 -1</clus>
<clus scale="   46.436">  2  6  1 -1</clus>
<clus scale="  126.265">  1  4  2 -1</clus>
<clus scale="  126.265">  1  3  2 -1</clus>
</clustering>
</event>
<event>
 6    0  0.2433432E+002  0.1300045E+03  0.7546771E-02  0.1227449E+00
         21   -1    0    0  503  502  0.00000000000E+00  0.00000000000E+00  0.14865839982E+02  0.14865839982E+02  0.00000000000E+00 0.  1.
          2   -1    0    0  505    0 -0.00000000000E+00 -0.00000000000E+00 -0.20955071694E+04  0.20955071694E+04  0.00000000000E+00 0.  1.
         21    1    1    2  503  504 -0.70465631728E+02  0.45108177371E+00 -0.23923108085E+03  0.24939350187E+03  0.00000000000E+00 0.  1.
         21    1    1    2  504  501 -0.32028490918E+02 -0.28092404013E+02 -0.25346326780E+03  0.25701874546E+03  0.00000000000E+00 0. -1.
         21    1    1    2  505  502  0.13613819212E+03  0.22826119268E+02 -0.61000777612E+03  0.62543115209E+03  0.00000000000E+00 0.  1.
          2    1    1    2  501    0 -0.33644069477E+02  0.48152029719E+01 -0.97793920464E+03  0.97852960996E+03  0.00000000000E+00 0.  1.
<scales pt_clust_3="38.77052" pt_clust_4="38.77052" pt_clust_5="120.26888" pt_clust_6="33.98690"></scales>
<clustering>
<clus scale="   33.987">  2  6  1 -1</clus>
<clus scale="   38.771">  3  4 -1 -1</clus>
<clus scale="  120.269">  2  5  1 -1</clus>
<clus scale="  130.004">  1  3  2 -1</clus>
</clustering>
</event>
<event>
 6    0  0.2433432E+002  0.9259643E+02  0.7546771E-02  0.1296683E+00
         -1   -1    0    0    0  501 -0.00000000000E+00  0.00000000000E+00  0.70980351191E+02  0.70980351191E+02  0.00000000000E+00 0.  1.
         21   -1    0    0  504  502  0.00000000000E+00 -0.00000000000E+00 -0.13063814440E+04  0.13063814440E+04  0.00000000000E+00 0. -1.
         21    1    1    2  503  501  0.17735707438E+02  0.28678219419E+02 -0.33515653069E+02  0.47542555548E+02  0.00000000000E+00 0.  1.
         21    1    1    2  504  503 -0.25420234937E+02  0.77042042061E+02 -0.35864069911E+03  0.36770207458E+03  0.00000000000E+00 0. -1.
         21    1    1    2  505  502  0.96154569064E+02 -0.12881889087E+03 -0.85495404207E+03  0.86993472276E+03  0.00000000000E+00 0. -1.
         -1    1    1    2    0  505 -0.88470041565E+02  0.23098629390E+02  0.11709301425E+02  0.92182442331E+02  0.00000000000E+00 0.  1.
<scales pt_clust_3="33.71937" pt_clust_4="82.68304" pt_clust_5="92.59643" pt_clust_6="14000.00000"></scales>
<clustering>
<clus scale="   33.719">  1  3  2 -1</clus>
<clus scale="   82.683">  2  4  1 -1</clus>
<clus scale="   92.596">  2  5  1 -1</clus>
<clus scale="   82.683">  2  3  1 -1</clus>
</clustering>
</event>
<event>
 6    0  0.2433432E+002  0.1357357E+03  0.7546771E-02  0.1219185E+00
         -3   -1    0    0    0  501 -0.00000000000E+00  0.00000000000E+00  0.46811864081E+03  0.46811864081E+03  0.00000000000E+00 0. -1.
         21   -1    0    0  505  502  0.00000000000E+00 -0.00000000000E+00 -0.83463277977E+03  0.83463277977E+03  0.00000000000E+00 0. -1.
         21    1    1    2  503  501  0.37414167313E+02 -0.25360151176E+02 -0.90126732990E+01  0.46088886550E+02  0.00000000000E+00 0.  1.
         21    1    1    2  504  502 -0.10956803215E+03 -0.19341647316E+02 -0.26471480881E+03  0.28714662281E+03  0.00000000000E+00 0. -1.
         21    1    1    2  505  503 -0.10741462908E+02 -0.53812196966E+02 -0.52022334194E+03  0.52310941214E+03  0.00000000000E+00 0. -1.
         -3    1    1    2    0  504  0.82895327744E+02  0.98513995458E+02  0.42743668509E+03  0.44640649908E+03  0.00000000000E+00 0. -1.
<scales pt_clust_3="45.19908" pt_clust_4="14000.00000" pt_clust_5="54.93026" pt_clust_6="135.73565"></scales>
<clustering>
<clus scale="   45.199">  1  3  2 -1</clus>
<clus scale="   54.930">  2  5  1 -1</clus>
<clus scale="  135.736">  1  6  2 -1</clus>
<clus scale="   54.930">  2  3  1 -1</clus>
</clustering>
</event>
<event>
 6    0  0.2433432E+002  0.1529826E+03  0.7546771E-02  0.1196855E+00
         21   -1    0    0  504  502  0.00000000000E+00  0.00000000000E+00  0.14037963684E+03  0.14037963684E+03  0.00000000000E+00 0. -1.
          2   -1    0    0  505    0 -0.00000000000E+00 -0.00000000000E+00 -0.28377217895E+04  0.28377217895E+04  0.00000000000E+00 0. -1.
         21    1    1    2  503  501  0.10108991200E+03 -0.15012628954E+03 -0.34792076918E+03  0.39218099743E+03  0.00000000000E+00 0.  1.
         21    1    1    2  504  503 -0.11191001943E+03  0.11749506089E+03 -0.10618669628E+03  0.19391894247E+03  0.00000000000E+00 0. -1.
         21    1    1    2  505  502  0.46590448464E+02 -0.22005145300E+01  0.66775219671E+02  0.81452084776E+02  0.00000000000E+00 0. -1.
          2    1    1    2  501    0 -0.35770341037E+02  0.34831743175E+02 -0.23100099068E+04  0.23105494016E+04  0.00000000000E+00 0. -1.
<scales pt_clust_3="152.98264" pt_clust_4="14000.00000" pt_clust_5="46.64239" pt_clust_6="49.78566"></scales>
<clustering>
<clus scale="   46.642">  1  5  2 -1</clus>
<clus scale="   49.786">  2  6  1 -1</clus>
<clus scale="  152.983">  2  3  1 -1</clus>
<clus scale="   46.642">  1  3  2 -1</clus>
</clustering>
</event>
<event>
 6    0  0.2433432E+002  0.1174562E+03  0.7546771E-02  0.1247353E+00
         21   -1    0    0  504  502  0.00000000000E+00  0.00000000000E+00  0.51062604504E+02  0.51062604504E+02  0.00000000000E+00 0.  1.
          2   -1    0    0  505    0 -0.00000000000E+00 -0.00000000000E+00 -0.31119080390E+04  0.31119080390E+04  0.00000000000E+00 0. -1.
         21    1    1    2  503  502  0.29566750757E+02  0.81015517408E+01  0.12727824687E+02  0.33193755620E+02  0.00000000000E+00 0.  1.
         21    1    1    2  504  501 -0.41309627627E+01  0.94801133039E+02 -0.89310920719E+02  0.13031024610E+03  0.00000000000E+00 0.  1.
         21    1    1    2  505  503  0.33738175047E+02  0.10530396412E+01 -0.38198712333E+02  0.50975631157E+02  0.00000000000E+00 0.  1.
          2    1    1    2  501    0 -0.59173963041E+02 -0.10395572442E+03 -0.29460636262E+04  0.29484910107E+04  0.00000000000E+00 0. -1.
<scales pt_clust_3="30.65661" pt_clust_4="117.45625" pt_clust_5="40.56309" pt_clust_6="14000.00000"></scales>
<clustering>
<clus scale="   30.657">  1  3  2 -1</clus>
<clus scale="   40.563">  1  5  2 -1</clus>
<clus scale="  117.456">  1  4  2 -1</clus>
<clus scale="   30.657">  1  3  2 -1</clus>
</clustering>
</event>
<event>
 6    0  0.2433432E+002  0.9288631E+02  0.7546771E-02  0.1296009E+00
         21   -1    0    0  501  502  0.00000000000E+00  0.00000000000E+00  0.16155005986E+03  0.16155005986E+03  0.00000000000E+00 0. -1.
          2   -1    0    0  503    0 -0.00000000000E+00 -0.00000000000E+00 -0.30943816630E+03  0.30943816630E+03  0.00000000000E+00 0. -1.
         21    1    1    2  503  504 -0.87755958368E+02 -0.29002134559E+02 -0.53494327986E+02  0.10678892810E+03  0.00000000000E+00 0. -1.
         21    1    1    2  504  505 -0.86200743461E+00 -0.63258665036E+02  0.30884774178E+02  0.70400788596E+02  0.00000000000E+00 0. -1.
         21    1    1    2  505  502  0.18490535129E+02  0.27325461958E+02  0.69445098426E+02  0.76884344674E+02  0.00000000000E+00 0.  1.
          2    1    1    2  501    0  0.70127430673E+02  0.64935337637E+02 -0.19472365106E+03  0.21691416480E+03  0.00000000000E+00 0. -1.
<scales pt_clust_3="14000.00000" pt_clust_4="48.58658" pt_clust_5="32.99365" pt_clust_6="92.88631"></scales>
<clustering>
<clus scale="   32.994">  1  5  2 -1</clus>
<clus scale="   48.587">  1  4  2 -1</clus>
<clus scale="   92.886">  2  6  1 -1</clus>
<clus scale="   32.994">  1  3  2 -1</clus>
</clustering>
</event>
<event>
 6    0  0.2433432E+002  0.1010401E+03  0.7546771E-02  0.1278124E+00
         21   -1    0    0  504  502  0.00000000000E+00  0.00000000000E+00  0.75888711998E+02  0.75888711998E+02  0.00000000000E+00 0.  1.
          1   -1    0    0  505    0 -0.00000000000E+00 -0.00000000000E+00 -0.43506237444E+03  0.43506237444E+03  0.00000000000E+00 0. -1.
         21    1    1    2  503  502 -0.31698021615E+02  0.10406173580E+03 -0.18706664065E+02  0.11037911357E+03  0.00000000000E+00 0.  1.
         21    1    1    2  504  501  0.58772825987E+02 -0.69550661127E+02 -0.11050968436E+03  0.14319193370E+03  0.00000000000E+00 0. -1.
         21    1    1    2  505  503 -0.57444197743E+02 -0.29813525756E+02 -0.73499959198E+02  0.97933274092E+02  0.00000000000E+00 0. -1.
          1    1    1    2  501    0  0.30369393371E+02 -0.46975489128E+01 -0.15645735481E+03  0.15944676508E+03  0.00000000000E+00 0. -1.
<scales pt_clust_3="101.04007" pt_clust_4="14000.00000" pt_clust_5="57.32735" pt_clust_6="30.73056"></scales>
<clustering>
<clus scale="   30.731">  2  6  1 -1</clus>
<clus scale="   57.327">  2  5  1 -1</clus>
<clus scale="  101.040">  1  3  2 -1</clus>
<clus scale="  101.040">  1  3  2 -1</clus>
</clustering>
</event>
<event>
 6    0  0.2433432E+002  0.1357375E+03  0.7546771E-02  0.1219182E+00
         21   -1    0    0  505  502  0.00000000000E+00  0.00000000000E+00  0.51924873889E+02  0.51924873889E+02  0.00000000000E+00 0.  1.
         -1   -1    0    0    0  501 -0.00000000000E+00 -0.00000000000E+00 -0.83057142864E+03  0.83057142864E+03  0.00000000000E+00 0. -1.
         21    1    1    2  503  501  0.51405141858E+02 -0.23646244684E+02 -0.70415277466E+02  0.90332412774E+02  0.00000000000E+00 0.  1.
         21    1    1    2  504  503  0.54006760773E+02  0.20242798010E+02 -0.53922814370E+02  0.78956766588E+02  0.00000000000E+00 0.  1.
         21    1    1    2  505  504  0.23280100080E+02  0.50581647889E+02 -0.12687638991E+02  0.57109039092E+02  0.00000000000E+00 0.  1.
         -1    1    1    2    0  502 -0.12869200271E+03 -0.47178201215E+02 -0.64162082392E+03  0.65609808407E+03  0.00000000000E+00 0. -1.
<scales pt_clust_3="45.12520" pt_clust_4="45.12520" pt_clust_5="55.68183" pt_clust_6="127.86342"></scales>
<clustering>
<clus scale="   45.125">  3  4 -1 -1</clus>
<clus scale="   55.682">  1  5  2 -1</clus>
<clus scale="  127.863">  2  6  1 -1</clus>
<clus scale="   55.682">  1  3  2 -1</clus>
</clustering>
</event>
<event>
 6    0  0.2433432E+002  0.1058828E+03  0.7546771E-02  0.1268390E+00
         21   -1    0    0  504  502  0.00000000000E+00  0.00000000000E+00  0.31125039642E+03  0.31125039642E+03  0.00000000000E+00 0.  1.
          2   -1    0    0  503    0 -0.00000000000E+00 -0.00000000000E+00 -0.24745789151E+03  0.24745789151E+03  0.00000000000E+00 0.  1.
         21    1    1    2  503  502 -0.57019345779E+02  0.20659067309E+02  0.28519679087E+02  0.67017721166E+02  0.00000000000E+00 0.  1.
         21    1    1    2  504  505 -0.20710086799E+02  0.10951033316E+03  0.11655680712E+03  0.16126658070E+03  0.00000000000E+00 0.  1.
         21    1    1    2  505  501  0.74243710524E+02 -0.79616552024E+02  0.96551564971E+02  0.14550989178E+03  0.00000000000E+00 0. -1.
          2    1    1    2  501    0  0.34857220530E+01 -0.50552848447E+02 -0.17783554627E+03  0.18491409427E+03  0.00000000000E+00 0.  1.
<scales pt_clust_3="56.31748" pt_clust_4="105.88282" pt_clust_5="14000.00000" pt_clust_6="50.67288"></scales>
<clustering>
<clus scale="   50.673">  2  6  1 -1</clus>
<clus scale="   56.317">  2  3  1 -1</clus>
<clus scale="  105.883">  1  4  2 -1</clus>
<clus scale="  105.883">  1  3  2 -1</clus>
</clustering>
</event>
<event>
 6    0  0.2433432E+002  0.5392050E+02  0.7546771E-02  0.1425274E+00
         21   -1    0    0  503  502  0.00000000000E+00  0.00000000000E+00  0.24475280059E+04  0.24475280059E+04  0.00000000000E+00 0. -1.
          1   -1    0    0  504    0 -0.00000000000E+00 -0.00000000000E+00 -0.31967780503E+04  0.31967780503E+04  0.00000000000E+00 0. -1.
         21    1    1    2  503  501 -0.18536216040E+02  0.68213329184E+02 -0.21923094304E+03  0.23034508019E+03  0.00000000000E+00 0.  1.
         21    1    1    2  504  505 -0.58068994999E+02  0.17393625613E+02 -0.89473859640E+03  0.89678966446E+03  0.00000000000E+00 0.  1.
         21    1    1    2  505  502  0.43767076194E+02 -0.21505139732E+02  0.24400770944E+04  0.24405643312E+04  0.00000000000E+00 0. -1.
          1    1    1    2  501    0  0.32838134845E+02 -0.64101815065E+02 -0.20753575994E+04  0.20766069804E+04  0.00000000000E+00 0. -1.
<scales pt_clust_3="53.92050" pt_clust_4="53.78640" pt_clust_5="48.76503" pt_clust_6="14000.00000"></scales>
<clustering>
<clus scale="   48.765">  1  5  2 -1</clus>
<clus scale="   53.786">  2  4  1 -1</clus>
<clus scale="   53.921">  1  3  2 -1</clus>
<clus scale="   48.765">  1  3  2 -1</clus>
</clustering>
</event>
<event>
 6    0  0.2433432E+002  0.1748450E+03  0.7546771E-02  0.1172887E+00
         21   -1    0    0  503  502  0.00000000000E+00  0.00000000000E+00  0.10934856862E+04  0.10934856862E+04  0.00000000000E+00 0.  1.
         -2   -1    0    0    0  501 -0.00000000000E+00 -0.00000000000E+00 -0.50866726057E+02  0.50866726057E+02  0.00000000000E+00 0. -1.
         21    1    1    2  503  501 -0.74606618413E+01  0.45317514864E+02  0.20940581247E+03  0.21438314515E+03  0.00000000000E+00 0.  1.
         21    1    1    2  504  502  0.75156605151E+02  0.16848038240E+02  0.31632253164E+03  0.32556461066E+03  0.00000000000E+00 0.  1.
         21    1    1    2  505  504  0.98010328639E+02 -0.15322878587E+02  0.35302255378E+03  0.36669570301E+03  0.00000000000E+00 0.  1.
         -2    1    1    2    0  505 -0.16570627195E+03 -0.46842674516E+02  0.16386806226E+03  0.23770895344E+03  0.00000000000E+00 0. -1.
<scales pt_clust_3="45.92754" pt_clust_4="30.68101" pt_clust_5="30.68101" pt_clust_6="171.34294"></scales>
<clustering>
<clus scale="   30.681">  4  5 -1 -1</clus>
<clus scale="   45.928">  1  3  2 -1</clus>
<clus scale="  171.343">  2  6  1 -1</clus>
<clus scale="   45.928">  1  3  2 -1</clus>
</clustering>
</event>
<event>
 6    0  0.2433432E+002  0.1053464E+03  0.7546771E-02  0.1269439E+00
         -3   -1    0    0    0  501 -0.00000000000E+00  0.00000000000E+00  0.58023105168E+02  0.58023105168E+02  0.00000000000E+00 0. -1.
         21   -1    0    0  503  502  0.00000000000E+00 -0.00000000000E+00 -0.82257027431E+03  0.82257027431E+03  0.00000000000E+00 0. -1.
         21    1    1    2  503  504 -0.11327955854E+02  0.59339875614E+02 -0.68447576989E+02  0.91294108338E+02  0.00000000000E+00 0. -1.
         21    1    1    2  504  501 -0.24771852053E+02 -0.17340539993E+02 -0.36886711499E+02  0.47696629509E+02  0.00000000000E+00 0. -1.
         21    1    1    2  505  502 -0.93607608779E+01 -0.10916177335E+03 -0.65092215712E+03  0.66007845840E+03  0.00000000000E+00 0. -1.
         -3    1    1    2    0  505  0.45460568784E+02  0.67162437727E+02 -0.82907235342E+01  0.81524183236E+02  0.00000000000E+00 0. -1.
<scales pt_clust_3="58.03187" pt_clust_4="30.23804" pt_clust_5="105.34643" pt_clust_6="14000.00000"></scales>
<clustering>
<clus scale="   30.238">  1  4  2 -1</clus>
<clus scale="   58.032">  1  3  2 -1</clus>
<clus scale="  105.346">  2  5  1 -1</clus>
<clus scale="  105.346">  2  3  1 -1</clus>
</clustering>
</event>
<event>
 6    0  0.2433432E+002  0.6370411E+02  0.7546771E-02  0.1382913E+00
         21   -1    0    0  505  502  0.00000000000E+00  0.00000000000E+00  0.14847955015E+03  0.14847955015E+03  0.00000000000E+00 0.  1.
          1   -1    0    0  503    0 -0.00000000000E+00 -0.00000000000E+00 -0.45143674423E+03  0.45143674423E+03  0.00000000000E+00 0.  1.
         21    1    1    2  503  504 -0.56376670019E+02 -0.16508094832E+02 -0.36800382059E+03  0.37266292825E+03  0.00000000000E+00 0.  1.
         21    1    1    2  504  502  0.48611817576E+02 -0.38214696482E+02  0.21269925904E+02  0.65390225441E+02  0.00000000000E+00 0.  1.
         21    1    1    2  505  501  0.64392842579E+02  0.26942469452E+02  0.64933163191E+02  0.95334414130E+02  0.00000000000E+00 0.  1.
          1    1    1    2  501    0 -0.56627990135E+02  0.27780321862E+02 -0.21156462573E+02  0.66528726563E+02  0.00000000000E+00 0.  1.
<scales pt_clust_3="58.74390" pt_clust_4="54.13954" pt_clust_5="14000.00000" pt_clust_6="63.70411"></scales>
<clustering>
<clus scale="   58.744">  2  3  1 -1</clus>
<clus scale="   54.140">  2  4  1 -1</clus>
<clus scale="   63.704">  2  6  1 -1</clus>
<clus scale="   63.704">  1  3  2 -1</clus>
</clustering>
</event>
<event>
 6    0  0.2433432E+002  0.1336428E+03  0.7546771E-02  0.1222148E+00
         21   -1    0    0  501  502  0.00000000000E+00  0.00000000000E+00  0.17382498099E+03  0.17382498099E+03  0.00000000000E+00 0.  1.
          1   -1    0    0  505    0 -0.00000000000E+00 -0.00000000000E+00 -0.14844391206E+03  0.14844391206E+03  0.00000000000E+00 0.  1.
         21    1    1    2  503  504  0.51457643547E+02 -0.31224578708E+02  0.10895090282E+02  0.61168344650E+02  0.00000000000E+00 0.  1.
         21    1    1    2  504  502  0.13108344767E+02 -0.61764241731E+02  0.46943501222E+02  0.78678730074E+02  0.00000000000E+00 0.  1.
         21    1    1    2  505  503 -0.18891700554E+02 -0.34275657795E+02 -0.26136004548E+02  0.47061744558E+02  0.00000000000E+00 0.  1.
          1    1    1    2  501    0 -0.45674287760E+02  0.12726447823E+03 -0.63215180260E+01  0.13536007378E+03  0.00000000000E+00 0.  1.
<scales pt_clust_3="55.51220" pt_clust_4="55.51220" pt_clust_5="39.13716" pt_clust_6="120.26717"></scales>
<clustering>
<clus scale="   39.137">  2  5  1 -1</clus>
<clus scale="   55.512">  3  4 -1 -1</clus>
<clus scale="  120.267">  2  6  1 -1</clus>
<clus scale="  133.643">  1  3  2 -1</clus>
</clustering>
</event>
<event>
 6    0  0.2433432E+002  0.7160246E+02  0.7546771E-02  0.1354727E+00
         21   -1    0    0  505  502  0.00000000000E+00  0.00000000000E+00  0.17468903117E+03  0.17468903117E+03  0.00000000000E+00 0. -1.
          2   -1    0    0  503    0 -0.00000000000E+00 -0.00000000000E+00 -0.47297570422E+03  0.47297570422E+03  0.00000000000E+00 0.  1.
         21    1    1    2  503  504 -0.40078444224E+02 -0.51894432510E+02 -0.59834989816E+02  0.88766772067E+02  0.00000000000E+00 0. -1.
         21    1    1    2  504  502 -0.16731171086E+02  0.10812375669E+03  0.85539435658E+02  0.13888007020E+03  0.00000000000E+00 0. -1.
         21    1    1    2  505  501  0.19008575437E+02 -0.37279318852E+02  0.37422896562E+02  0.56138638577E+02  0.00000000000E+00 0. -1.
          2    1    1    2  501    0  0.37801039873E+02 -0.18950005327E+02 -0.36141401546E+03  0.36387925454E+03  0.00000000000E+00 0.  1.
<scales pt_clust_3="14000.00000" pt_clust_4="71.60246" pt_clust_5="41.84583" pt_clust_6="42.61043"></scales>
<clustering>
<clus scale="   41.846">  1  5  2 -1</clus>
<clus scale="   42.610">  2  6  1 -1</clus>
<clus scale="   71.602">  1  4  2 -1</clus>
<clus scale="   41.846">  1  3  2 -1</clus>
</clustering>
</event>
<event>
 6    0  0.2433432E+002  0.1376429E+03  0.7546771E-02  0.1216536E+00
          2   -1    0    0  504    0 -0.00000000000E+00  0.00000000000E+00  0.62365871710E+03  0.62365871710E+03  0.00000000000E+00 0.  1.
         21   -1    0    0  503  502  0.00000000000E+00 -0.00000000000E+00 -0.32010428391E+03  0.32010428391E+03  0.00000000000E+00 0.  1.
         21    1    1    2  503  505  0.39314066381E+02  0.27257805544E+01 -0.72259726524E+02  0.82307312994E+02  0.00000000000E+00 0.  1.
         21    1    1    2  504  502  0.34582177863E+02 -0.25808519886E+02 -0.14240264863E+02  0.45439980940E+02  0.00000000000E+00 0. -1.
         21    1    1    2  505  501  0.42398472665E+02  0.72811537555E+02 -0.19764767212E+03  0.21485751739E+03  0.00000000000E+00 0.  1.
          2    1    1    2  501    0 -0.11629471691E+03 -0.49728798223E+02  0.58770209671E+03  0.60115818969E+03  0.00000000000E+00 0.  1.
<scales pt_clust_3="37.91862" pt_clust_4="43.15098" pt_clust_5="37.91862" pt_clust_6="125.98203"></scales>
<clustering>
<clus scale="   37.919">  3  5 -1 -1</clus>
<clus scale="   43.151">  2  4  1 -1</clus>
<clus scale="  125.982">  1  6  2 -1</clus>
<clus scale="   43.151">  2  3  1 -1</clus>
</clustering>
</event>
<event>
 6    0  0.2433432E+002  0.1093012E+03  0.7546771E-02  0.1261869E+00
          2   -1    0    0  504    0 -0.00000000000E+00  0.00000000000E+00  0.10125944257E+04  0.10125944257E+04  0.00000000000E+00 0. -1.
         21   -1    0    0  505  502  0.00000000000E+00 -0.00000000000E+00 -0.23591732701E+02  0.23591732701E+02  0.00000000000E+00 0. -1.
         21    1    1    2  503  502  0.10147761193E+02  0.85230110923E+02  0.53450853829E+03  0.54135619177E+03  0.00000000000E+00 0. -1.
         21    1    1    2  504  503 -0.46296374383E+02  0.18656903018E+02  0.28251131528E+03  0.28688687243E+03  0.00000000000E+00 0. -1.
         21    1    1    2  505  501  0.38484314275E+02 -0.55863205022E+02  0.87238005837E+02  0.11050886744E+03  0.00000000000E+00 0. -1.
          2    1    1    2  501    0 -0.23357010848E+01 -0.48023808919E+02  0.84744833563E+02  0.97434226729E+02  0.00000000000E+00 0. -1.
<scales pt_clust_3="101.90073" pt_clust_4="49.91427" pt_clust_5="33.28386" pt_clust_6="33.28386"></scales>
<clustering>
<clus scale="   33.284">  5  6 -1 -1</clus>
<clus scale="   49.914">  1  4  2 -1</clus>
<clus scale="  101.901">  1  3  2 -1</clus>
<clus scale="  109.301">  2  3  1 -1</clus>
</clustering>
</event>
<event>
 6    0  0.2433432E+002  0.7363478E+02  0.7546771E-02  0.1348152E+00
          2   -1    0    0  505    0 -0.00000000000E+00  0.00000000000E+00  0.26114102181E+04  0.26114102181E+04  0.00000000000E+00 0.  1.
         21   -1    0    0  504  502  0.00000000000E+00 -0.00000000000E+00 -0.22790240762E+02  0.22790240762E+02  0.00000000000E+00 0.  1.
         21    1    1    2  503  502  0.11565757763E+02 -0.34586560612E+02  0.31328932548E+02  0.48078050525E+02  0.00000000000E+00 0.  1.
         21    1    1    2  504  501 -0.18240220570E+02  0.76282679791E+02  0.23234445196E+03  0.24522580868E+03  0.00000000000E+00 0.  1.
         21    1    1    2  505  503 -0.61199505945E+02 -0.68116567991E+02  0.27877851757E+03  0.29343262978E+03  0.00000000000E+00 0.  1.
          2    1    1    2  501    0  0.67873968752E+02  0.26420448813E+02  0.20461680753E+04  0.20474639699E+04  0.00000000000E+00 0.  1.
<scales pt_clust_3="36.46912" pt_clust_4="62.21887" pt_clust_5="73.63478" pt_clust_6="14000.00000"></scales>
<clustering>
<clus scale="   36.469">  2  3  1 -1</clus>
<clus scale="   62.219">  2  4  1 -1</clus>
<clus scale="   73.635">  2  5  1 -1</clus>
<clus scale="   36.469">  2  3  1 -1</clus>
</clustering>
</event>
<event>
 6    0  0.2433432E+002  0.7357871E+02  0.7546771E-02  0.1348330E+00
          2   -1    0    0  504    0 -0.00000000000E+00  0.00000000000E+00  0.15120569065E+04  0.15120569065E+04  0.00000000000E+00 0. -1.
         21   -1    0    0  503  502  0.00000000000E+00 -0.00000000000E+00 -0.13083422229E+03  0.13083422229E+03  0.00000000000E+00 0. -1.
         21    1    1    2  503  501 -0.28701207278E+02 -0.90487365897E+02  0.38904177988E+02  0.10259267884E+03  0.00000000000E+00 0. -1.
         21    1    1    2  504  505 -0.32323487634E+02 -0.28643396631E+02  0.35496332183E+03  0.35758105636E+03  0.00000000000E+00 0. -1.
         21    1    1    2  505  502 -0.11257016389E+02  0.33968396996E+02 -0.91420143001E+02  0.98174410917E+02  0.00000000000E+00 0. -1.
          2    1    1    2  501    0  0.72281711301E+02  0.85162365532E+02  0.10787753274E+04  0.10845429826E+04  0.00000000000E+00 0. -1.
<scales pt_clust_3="73.57871" pt_clust_4="42.69304" pt_clust_5="35.78509" pt_clust_6="14000.00000"></scales>
<clustering>
<clus scale="   35.785">  2  5  1 -1</clus>
<clus scale="   42.693">  1  4  2 -1</clus>
<clus scale="   73.579">  2  3  1 -1</clus>
<clus scale="   35.785">  2  3  1 -1</clus>
</clustering>
</event>
<event>
 6    0  0.2433432E+002  0.1672430E+03  0.7546771E-02  0.1180754E+00
          1   -1    0    0  504    0 -0.00000000000E+00  0.00000000000E+00  0.26744821320E+03  0.26744821320E+03  0.00000000000E+00 0.  1.
         21   -1    0    0  505  502  0.00000000000E+00 -0.00000000000E+00 -0.42850712548E+03  0.42850712548E+03  0.00000000000E+00 0. -1.
         21    1    1    2  503  502 -0.41556353375E+02 -0.27644124972E+02 -0.90017190954E+02  0.10292824111E+03  0.00000000000E+00 0. -1.
         21    1    1    2  504  503 -0.32618834717E+02  0.22737447468E+03 -0.14580673854E+03  0.27207121332E+03  0.00000000000E+00 0. -1.
         21    1    1    2  505  501  0.39476073088E+02 -0.46140243775E+02 -0.79823040461E+02  0.10029456730E+03  0.00000000000E+00 0. -1.
          1    1    1    2  501    0  0.34699115004E+02 -0.15359010593E+03  0.15458805767E+03  0.22066131695E+03  0.00000000000E+00 0.  1.
<scales pt_clust_3="49.91120" pt_clust_4="167.24305" pt_clust_5="60.60167" pt_clust_6="14000.00000"></scales>
<clustering>
<clus scale="   49.911">  2  3  1 -1</clus>
<clus scale="   60.602">  2  5  1 -1</clus>
<clus scale="  167.243">  2  4  1 -1</clus>
<clus scale="   49.911">  2  3  1 -1</clus>
</clustering>
</event>
<event>
 6    0  0.2433432E+002  0.1234299E+03  0.7546771E-02  0.1237544E+00
         -2   -1    0    0    0  501 -0.00000000000E+00  0.00000000000E+00  0.17220710165E+03  0.17220710165E+03  0.00000000000E+00 0.  1.
         21   -1    0    0  505  502  0.00000000000E+00 -0.00000000000E+00 -0.71495329696E+03  0.71495329696E+03  0.00000000000E+00 0.  1.
         21    1    1    2  503  502  0.73120755481E+02 -0.41105344675E+02  0.99562894174E+01  0.84471426778E+02  0.00000000000E+00 0.  1.
         21    1    1    2  504  501 -0.11495956858E+03  0.24422001447E+02 -0.55360480652E+03  0.56594206273E+03  0.00000000000E+00 0.  1.
         21    1    1    2  505  504 -0.70986818176E+01  0.29714055617E+02 -0.11035512545E+03  0.11450576447E+03  0.00000000000E+00 0.  1.
         -2    1    1    2    0  503  0.48937494915E+02 -0.13030712389E+02  0.11125744724E+03  0.12224114463E+03  0.00000000000E+00 0.  1.
<scales pt_clust_3="123.42987" pt_clust_4="14000.00000" pt_clust_5="30.55023" pt_clust_6="50.51103"></scales>
<clustering>
<clus scale="   30.550">  2  5  1 -1</clus>
<clus scale="   50.511">  1  6  2 -1</clus>
<clus scale="  123.430">  1  3  2 -1</clus>
<clus scale="   30.550">  2  3  1 -1</clus>
</clustering>
</event>
<event>
 6    0  0.2433432E+002  0.1519495E+03  0.7546771E-02  0.1198098E+00
         21   -1    0    0  504  502  0.00000000000E+00  0.00000000000E+00  0.22877150102E+03  0.22877150102E+03  0.00000000000E+00 0.  1.
         -4   -1    0    0    0  501 -0.00000000000E+00 -0.00000000000E+00 -0.28528304751E+03  0.28528304751E+03  0.00000000000E+00 0.  1.
         21    1    1    2  503  501  0.50615692953E+02  0.14294736005E+03  0.30092696683E+02  0.15460099130E+03  0.00000000000E+00 0.  1.
         21    1    1    2  504  503 -0.44162570638E+02 -0.14623119776E+03  0.29386650312E+01  0.15278262858E+03  0.00000000000E+00 0.  1.
         21    1    1    2  505  502 -0.26197620790E+01  0.34181479952E+02  0.51702165708E+02  0.62035076077E+02  0.00000000000E+00 0.  1.
         -4    1    1    2    0  505 -0.38333602357E+01 -0.30897642242E+02 -0.14124507391E+03  0.14463585258E+03  0.00000000000E+00 0.  1.
<scales pt_clust_3="151.94948" pt_clust_4="14000.00000" pt_clust_5="33.17494" pt_clust_6="31.13453"></scales>
<clustering>
<clus scale="   31.135">  2  6  1 -1</clus>
<clus scale="   33.175">  1  5  2 -1</clus>
<clus scale="  151.949">  2  3  1 -1</clus>
<clus scale="   33.175">  1  3  2 -1</clus>
</clustering>
</event>
<event>
 6    0  0.2433432E+002  0.9695531E+02  0.7546771E-02  0.1286832E+00
          1   -1    0    0  503    0 -0.00000000000E+00  0.00000000000E+00  0.13119694695E+04  0.13119694695E+04  0.00000000000E+00 0.  1.
         21   -1    0    0  505  502  0.00000000000E+00 -0.00000000000E+00 -0.70923920455E+03  0.70923920455E+03  0.00000000000E+00 0. -1.
         21    1    1    2  503  502 -0.10067023369E+03  0.51384797674E+02 -0.43182263912E+03  0.44636944904E+03  0.00000000000E+00 0. -1.
         21    1    1    2  504  501  0.69074944966E+02 -0.18018359467E+02 -0.60918601275E+02  0.93846072274E+02  0.00000000000E+00 0. -1.
         21    1    1    2  505  504 -0.11945756947E+02 -0.44249995705E+02 -0.18963897411E+03  0.19509921510E+03  0.00000000000E+00 0.  1.
          1    1    1    2  501    0  0.43541045669E+02  0.10883557499E+02  0.12851104794E+04  0.12858939376E+04  0.00000000000E+00 0.  1.
<scales pt_clust_3="96.95531" pt_clust_4="14000.00000" pt_clust_5="43.76685" pt_clust_6="44.88067"></scales>
<clustering>
<clus scale="   44.881">  1  6  2 -1</clus>
<clus scale="   43.767">  2  5  1 -1</clus>
<clus scale="   96.955">  2  3  1 -1</clus>
<clus scale="   43.767">  2  3  1 -1</clus>
</clustering>
</event>
<event>
 6    0  0.2433432E+002  0.8271657E+02  0.7546771E-02  0.1321514E+00
          1   -1    0    0  503    0 -0.00000000000E+00  0.00000000000E+00  0.17999099574E+04  0.17999099574E+04  0.00000000000E+00 0.  1.
         21   -1    0    0  504  502  0.00000000000E+00 -0.00000000000E+00 -0.39127009991E+03  0.39127009991E+03  0.00000000000E+00 0.  1.
         21    1    1    2  503  505  0.16323201297E+02 -0.72966978734E+02 -0.10895194096E+03  0.13214065357E+03  0.00000000000E+00 0.  1.
         21    1    1    2  504  501 -0.98266319965E+02  0.55195707519E+02 -0.42886688015E+02  0.12059064548E+03  0.00000000000E+00 0.  1.
         21    1    1    2  505  502  0.45591835756E+02  0.20642029111E+02 -0.18547805719E+03  0.19211147429E+03  0.00000000000E+00 0.  1.
          1    1    1    2  501    0  0.36351282912E+02 -0.28707578964E+01  0.17459565436E+04  0.17463372839E+04  0.00000000000E+00 0.  1.
<scales pt_clust_3="82.71657" pt_clust_4="14000.00000" pt_clust_5="52.02828" pt_clust_6="36.46446"></scales>
<clustering>
<clus scale="   36.464">  1  6  2 -1</clus>
<clus scale="   52.028">  2  5  1 -1</clus>
<clus scale="   82.717">  2  3  1 -1</clus>
<clus scale="   52.028">  2  3  1 -1</clus>
</clustering>
</event>
<event>
 6    0  0.2433432E+002  0.6619200E+02  0.7546771E-02  0.1373543E+00
         21   -1    0    0  503  502  0.00000000000E+00  0.00000000000E+00  0.17037608020E+03  0.17037608020E+03  0.00000000000E+00 0. -1.
          1   -1    0    0  504    0 -0.00000000000E+00 -0.00000000000E+00 -0.10253913916E+04  0.10253913916E+04  0.00000000000E+00 0.  1.
         21    1    1    2  503  501 -0.74750185445E+02  0.51151468647E+02 -0.14634683432E+03  0.17210885766E+03  0.00000000000E+00 0.  1.
         21    1    1    2  504  505  0.69678955665E+02 -0.25254828671E+02 -0.17321972432E+03  0.18840922516E+03  0.00000000000E+00 0.  1.
         21    1    1    2  505  502  0.43094374370E+02 -0.31382258814E+02  0.14460122531E+03  0.15411517003E+03  0.00000000000E+00 0. -1.
          1    1    1    2  501    0 -0.38023144590E+02  0.54856188379E+01 -0.68004997810E+03  0.68113421897E+03  0.00000000000E+00 0.  1.
<scales pt_clust_3="66.19200" pt_clust_4="14000.00000" pt_clust_5="52.84211" pt_clust_6="38.41681"></scales>
<clustering>
<clus scale="   38.417">  2  6  1 -1</clus>
<clus scale="   52.842">  1  5  2 -1</clus>
<clus scale="   66.192">  1  3  2 -1</clus>
<clus scale="   52.842">  1  3  2 -1</clus>
</clustering>
</event>
<event>
 6    0  0.2433432E+002  0.1147462E+03  0.7546771E-02  0.1252025E+00
          1   -1    0    0  503    0 -0.00000000000E+00  0.00000000000E+00  0.29617872944E+04  0.29617872944E+04  0.00000000000E+00 0.  1.
         21   -1    0    0  505  502  0.00000000000E+00 -0.00000000000E+00 -0.93975439612E+02  0.93975439612E+02  0.00000000000E+00 0.  1.
         21    1    1    2  503  502 -0.44557824245E+02 -0.79987931956E+02  0.34656236437E+02  0.97900580611E+02  0.00000000000E+00 0.  1.
         21    1    1    2  504  501  0.61424804228E+02  0.56184251266E+02  0.67751285468E+03  0.68260775334E+03  0.00000000000E+00 0.  1.
         21    1    1    2  505  504 -0.45408915298E+02 -0.70048192134E+01 -0.50751852494E+02  0.68460116947E+02  0.00000000000E+00 0.  1.
          1    1    1    2  501    0  0.28541935315E+02  0.30808499903E+02  0.22063946161E+04  0.22067942831E+04  0.00000000000E+00 0.  1.
<scales pt_clust_3="14000.00000" pt_clust_4="114.74618" pt_clust_5="45.56126" pt_clust_6="41.99769"></scales>
<clustering>
<clus scale="   41.998">  1  6  2 -1</clus>
<clus scale="   45.561">  2  5  1 -1</clus>
<clus scale="  114.746">  1  4  2 -1</clus>
<clus scale="   45.561">  2  3  1 -1</clus>
</clustering>
</event>
<event>
 6    0  0.2433432E+002  0.8877440E+02  0.7546771E-02  0.1305847E+00
          2   -1    0    0  503    0 -0.00000000000E+00  0.00000000000E+00  0.83151005357E+03  0.83151005357E+03  0.00000000000E+00 0. -1.
         21   -1    0    0  505  502  0.00000000000E+00 -0.00000000000E+00 -0.87653127947E+02  0.87653127947E+02  0.00000000000E+00 0. -1.
         21    1    1    2  503  504  0.44025960154E+02 -0.98012330996E+02  0.21671273362E+03  0.24188656661E+03  0.00000000000E+00 0. -1.
         21    1    1    2  504  502  0.32313293284E+02 -0.35412002626E+02 -0.11781471485E+02  0.49365594529E+02  0.00000000000E+00 0.  1.
         21    1    1    2  505  501 -0.17975687839E+02  0.11103818011E+03  0.31723832679E+02  0.11687174318E+03  0.00000000000E+00 0. -1.
          2    1    1    2  501    0 -0.58363565600E+02  0.22386153516E+02  0.50720183081E+03  0.51103927719E+03  0.00000000000E+00 0. -1.
<scales pt_clust_3="88.77440" pt_clust_4="47.93912" pt_clust_5="14000.00000" pt_clust_6="61.07337"></scales>
<clustering>
<clus scale="   47.939">  2  4  1 -1</clus>
<clus scale="   61.073">  1  6  2 -1</clus>
<clus scale="   88.774">  1  3  2 -1</clus>
<clus scale="   47.939">  2  3  1 -1</clus>
</clustering>
</event>
<event>
 6    0  0.2433432E+002  0.1160594E+03  0.7546771E-02  0.1249743E+00
         21   -1    0    0  504  502  0.00000000000E+00  0.00000000000E+00  0.36833833952E+02  0.36833833952E+02  0.00000000000E+00 0.  1.
          2   -1    0    0  505    0 -0.00000000000E+00 -0.00000000000E+00 -0.23855456147E+04  0.23855456147E+04  0.00000000000E+00 0.  1.
         21    1    1    2  503  501  0.60867997883E+02 -0.10861280150E+03 -0.90925762080E+03  0.91774237932E+03  0.00000000000E+00 0.  1.
         21    1    1    2  504  503 -0.10685036317E+03  0.49200959762E+02 -0.81415194855E+02  0.14306001714E+03  0.00000000000E+00 0.  1.
         21    1    1    2  505  502  0.30763768597E+02  0.31401807921E+00 -0.25463960320E+03  0.25649139475E+03  0.00000000000E+00 0.  1.
          2    1    1    2  501    0  0.15218596690E+02  0.59097823660E+02 -0.11033993619E+04  0.11050856574E+04  0.00000000000E+00 0.  1.
<scales pt_clust_3="14000.00000" pt_clust_4="116.05943" pt_clust_5="30.76537" pt_clust_6="66.95692"></scales>
<clustering>
<clus scale="   30.765">  2  5  1 -1</clus>
<clus scale="   66.957">  2  6  1 -1</clus>
<clus scale="  116.059">  1  4  2 -1</clus>
<clus scale="  116.059">  1  3  2 -1</clus>
</clustering>
</event>
<event>
 6    0  0.2433432E+002  0.8849138E+02  0.7546771E-02  0.1306547E+00
         21   -1    0    0  504  502  0.00000000000E+00  0.00000000000E+00  0.16530755504E+03  0.16530755504E+03  0.00000000000E+00 0.  1.
          2   -1    0    0  503    0 -0.00000000000E+00 -0.00000000000E+00 -0.24698979507E+03  0.24698979507E+03  0.00000000000E+00 0.  1.
         21    1    1    2  503  505  0.49433471358E+02  0.12101412544E+02 -0.27344181655E+02  0.57773839638E+02  0.00000000000E+00 0.  1.
         21    1    1    2  504  501 -0.68933703516E+02 -0.29691726730E+02  0.96330574206E+02  0.12211893237E+03  0.00000000000E+00 0.  1.
         21    1    1    2  505  502  0.73009052850E+02 -0.10690928941E+02 -0.41804671890E+01  0.73905981257E+02  0.00000000000E+00 0.  1.
          2    1    1    2  501    0 -0.53508820692E+02  0.28281243127E+02 -0.14648816539E+03  0.15849859685E+03  0.00000000000E+00 0.  1.
<scales pt_clust_3="30.53259" pt_clust_4="80.49294" pt_clust_5="30.53259" pt_clust_6="60.52291"></scales>
<clustering>
<clus scale="   30.533">  3  5 -1 -1</clus>
<clus scale="   60.523">  2  6  1 -1</clus>
<clus scale="   80.493">  1  4  2 -1</clus>
<clus scale="   80.493">  1  3  2 -1</clus>
</clustering>
</event>
<event>
 6    0  0.2433432E+002  0.8508193E+02  0.7546771E-02  0.1315218E+00
         -2   -1    0    0    0  501 -0.00000000000E+00  0.00000000000E+00  0.19151621936E+04  0.19151621936E+04  0.00000000000E+00 0. -1.
         21   -1    0    0  503  502  0.00000000000E+00 -0.00000000000E+00 -0.44931218968E+02  0.44931218968E+02  0.00000000000E+00 0. -1.
         21    1    1    2  503  504  0.30232113968E+02 -0.31573084662E+02 -0.25604439543E+02  0.50659922171E+02  0.00000000000E+00 0. -1.
         21    1    1    2  504  501 -0.62330080711E+01 -0.33453932955E+02  0.16858768293E+03  0.17198785671E+03  0.00000000000E+00 0. -1.
         21    1    1    2  505  502  0.63143160275E+02  0.64086566125E+02  0.58492604542E+03  0.59180454988E+03  0.00000000000E+00 0. -1.
         -2    1    1    2    0  505 -0.87142266173E+02  0.94045149171E+00  0.11423216858E+04  0.11456410838E+04  0.00000000000E+00 0. -1.
<scales pt_clust_3="43.85614" pt_clust_4="34.02963" pt_clust_5="85.08193" pt_clust_6="14000.00000"></scales>
<clustering>
<clus scale="   34.030">  1  4  2 -1</clus>
<clus scale="   43.856">  2  3  1 -1</clus>
<clus scale="   85.082">  2  5  1 -1</clus>
<clus scale="   43.856">  2  3  1 -1</clus>
</clustering>
</event>
<event>
 6    0  0.2433432E+002  0.8562613E+02  0.7546771E-02  0.1313803E+00
         21   -1    0    0  503  502  0.00000000000E+00  0.00000000000E+00  0.97512548289E+02  0.97512548289E+02  0.00000000000E+00 0. -1.
          2   -1    0    0  505    0 -0.00000000000E+00 -0.00000000000E+00 -0.61034167182E+03  0.61034167182E+03  0.00000000000E+00 0.  1.
         21    1    1    2  503  501 -0.21669828438E+02 -0.13239099742E+03 -0.37488382919E+02  0.13929227013E+03  0.00000000000E+00 0. -1.
         21    1    1    2  504  502 -0.10907107049E+02  0.37586177331E+02  0.21977924694E+02  0.44885575460E+02  0.00000000000E+00 0. -1.
         21    1    1    2  505  504  0.47472958923E+02  0.13651361362E+02 -0.55836980774E+02  0.74550720438E+02  0.00000000000E+00 0. -1.
          2    1    1    2  501    0 -0.14896023436E+02  0.81153458730E+02 -0.44148168454E+03  0.44912565409E+03  0.00000000000E+00 0.  1.
<scales pt_clust_3="14000.00000" pt_clust_4="39.13676" pt_clust_5="49.71246" pt_clust_6="85.62613"></scales>
<clustering>
<clus scale="   39.137">  1  4  2 -1</clus>
<clus scale="   49.712">  1  5  2 -1</clus>
<clus scale="   85.626">  2  6  1 -1</clus>
<clus scale="   39.137">  1  3  2 -1</clus>
</clustering>
</event>
<event>
 6    0  0.2433432E+002  0.7889167E+02  0.7546771E-02  0.1332226E+00
         21   -1    0    0  504  502  0.00000000000E+00  0.00000000000E+00  0.10580398522E+03  0.10580398522E+03  0.00000000000E+00 0.  1.
          2   -1    0    0  503    0 -0.00000000000E+00 -0.00000000000E+00 -0.61673940354E+03  0.61673940354E+03  0.00000000000E+00 0. -1.
         21    1    1    2  503  505  0.33762778808E+02  0.18109087537E+02 -0.84767560393E+02  0.93023672145E+02  0.00000000000E+00 0.  1.
         21    1    1    2  504  501  0.57618335558E+01  0.64799014895E+02  0.63363108677E+02  0.90812964925E+02  0.00000000000E+00 0.  1.
         21    1    1    2  505  502 -0.74637518778E+02 -0.10850828988E+03 -0.16422110006E+03  0.21050742953E+03  0.00000000000E+00 0. -1.
          2    1    1    2  501    0  0.35112906414E+02  0.25600187449E+02 -0.32530986654E+03  0.32819932216E+03  0.00000000000E+00 0. -1.
<scales pt_clust_3="38.31272" pt_clust_4="65.60674" pt_clust_5="78.89167" pt_clust_6="14000.00000"></scales>
<clustering>
<clus scale="   38.313">  2  3  1 -1</clus>
<clus scale="   65.607">  1  4  2 -1</clus>
<clus scale="   78.892">  1  5  2 -1</clus>
<clus scale="   65.607">  1  3  2 -1</clus>
</clustering>
</event>
<event>
 6    0  0.2433432E+002  0.1895087E+03  0.7546771E-02  0.1158905E+00
         21   -1    0    0  503  502  0.00000000000E+00  0.00000000000E+00  0.52374251251E+03  0.52374251251E+03  0.00000000000E+00 0. -1.
          2   -1    0    0  504    0 -0.00000000000E+00 -0.00000000000E+00 -0.60093409535E+03  0.60093409535E+03  0.00000000000E+00 0. -1.
         21    1    1    2  503  501  0.50429311560E+02  0.13256915747E+03  0.10092917505E+03  0.17408157672E+03  0.00000000000E+00 0. -1.
         21    1    1    2  504  505  0.52230852241E+02  0.68029633314E+01  0.16150774755E+03  0.16987964785E+03  0.00000000000E+00 0. -1.
         21    1    1    2  505  502 -0.78819858522E+01  0.31738916595E+02  0.20211298900E+03  0.20474165392E+03  0.00000000000E+00 0.  1.
          2    1    1    2  501    0 -0.94778177949E+02 -0.17111103739E+03 -0.54174149444E+03  0.57597372937E+03  0.00000000000E+00 0. -1.
<scales pt_clust_3="189.50865" pt_clust_4="53.46013" pt_clust_5="32.70297" pt_clust_6="14000.00000"></scales>
<clustering>
<clus scale="   32.703">  1  5  2 -1</clus>
<clus scale="   53.460">  1  4  2 -1</clus>
<clus scale="  189.509">  1  3  2 -1</clus>
<clus scale="   32.703">  1  3  2 -1</clus>
</clustering>
</event>
<event>
 6    0  0.2433432E+002  0.1103104E+03  0.7546771E-02  0.1259996E+00
         21   -1    0    0  505  502  0.00000000000E+00  0.00000000000E+00  0.10482916160E+03  0.10482916160E+03  0.00000000000E+00 0.  1.
         -1   -1    0    0    0  501 -0.00000000000E+00 -0.00000000000E+00 -0.53565513747E+03  0.53565513747E+03  0.00000000000E+00 0.  1.
         21    1    1    2  503  501 -0.19861629985E+02  0.44803749569E+02 -0.88501076324E+02  0.10116472128E+03  0.00000000000E+00 0.  1.
         21    1    1    2  504  502 -0.56030910786E+02 -0.40925151032E+02  0.47592604604E+02  0.84139092957E+02  0.00000000000E+00 0.  1.
         21    1    1    2  505  503 -0.76775557107E+02  0.11979420811E+02 -0.95172925222E+02  0.12286528553E+03  0.00000000000E+00 0. -1.
         -1    1    1    2    0  504  0.15266809788E+03 -0.15858019348E+02 -0.29474457892E+03  0.33231519931E+03  0.00000000000E+00 0.  1.
<scales pt_clust_3="49.00878" pt_clust_4="68.98337" pt_clust_5="14000.00000" pt_clust_6="110.31041"></scales>
<clustering>
<clus scale="   49.009">  2  3  1 -1</clus>
<clus scale="   68.983">  1  4  2 -1</clus>
<clus scale="  110.310">  2  6  1 -1</clus>
<clus scale="   68.983">  1  3  2 -1</clus>
</clustering>
</event>
<event>
 6    0  0.2433432E+002  0.1313724E+03  0.7546771E-02  0.1225433E+00
         21   -1    0    0  504  502  0.00000000000E+00  0.00000000000E+00  0.64100714122E+02  0.64100714122E+02  0.00000000000E+00 0. -1.
          1   -1    0    0  503    0 -0.00000000000E+00 -0.00000000000E+00 -0.20673446402E+04  0.20673446402E+04  0.00000000000E+00 0. -1.
         21    1    1    2  503  502  0.14164517387E+03  0.40965373769E+02 -0.59493838407E+03  0.61293816815E+03  0.00000000000E+00 0. -1.
         21    1    1    2  504  505 -0.83561720116E+02 -0.21410704961E+00 -0.28470924906E+01  0.83610482872E+02  0.00000000000E+00 0. -1.
         21    1    1    2  505  501 -0.28769922907E+02 -0.31868862588E+02 -0.17121725745E+02  0.46222141439E+02  0.00000000000E+00 0.  1.
          1    1    1    2  501    0 -0.29313530850E+02 -0.88824041317E+01 -0.13883367238E+04  0.13886745619E+04  0.00000000000E+00 0. -1.
<scales pt_clust_3="120.20259" pt_clust_4="38.11375" pt_clust_5="38.11375" pt_clust_6="30.62973"></scales>
<clustering>
<clus scale="   30.630">  2  6  1 -1</clus>
<clus scale="   38.114">  4  5 -1 -1</clus>
<clus scale="  120.203">  2  3  1 -1</clus>
<clus scale="  131.372">  1  3  2 -1</clus>
</clustering>
</event>
<event>
 6    0  0.2433432E+002  0.1306196E+03  0.7546771E-02  0.1226539E+00
          1   -1    0    0  503    0 -0.00000000000E+00  0.00000000000E+00  0.85203577456E+03  0.85203577456E+03  0.00000000000E+00 0.  1.
         21   -1    0    0  505  502  0.00000000000E+00 -0.00000000000E+00 -0.19707853804E+03  0.19707853804E+03  0.00000000000E+00 0.  1.
         21    1    1    2  503  502 -0.23292981483E+02  0.31503448774E+02  0.34943135247E+02  0.52498123508E+02  0.00000000000E+00 0.  1.
         21    1    1    2  504  501  0.93494894106E+02 -0.29999198012E+02 -0.10999469635E+03  0.14744517737E+03  0.00000000000E+00 0.  1.
         21    1    1    2  505  504  0.10251896451E+02 -0.30583972552E+02 -0.52706987466E+02  0.61794071606E+02  0.00000000000E+00 0.  1.
          1    1    1    2  501    0 -0.80453809074E+02  0.29079721790E+02  0.78271578509E+03  0.78737694012E+03  0.00000000000E+00 0.  1.
<scales pt_clust_3="39.17946" pt_clust_4="30.73495" pt_clust_5="30.73495" pt_clust_6="119.10489"></scales>
<clustering>
<clus scale="   30.735">  4  5 -1 -1</clus>
<clus scale="   39.179">  1  3  2 -1</clus>
<clus scale="  119.105">  1  6  2 -1</clus>
<clus scale="  130.620">  2  3  1 -1</clus>
</clustering>
</event>
<event>
 6    0  0.2433432E+002  0.1352886E+03  0.7546771E-02  0.1219813E+00
         21   -1    0    0  501  502  0.00000000000E+00  0.00000000000E+00  0.27330901299E+03  0.27330901299E+03  0.00000000000E+00 0.  1.
          1   -1    0    0  504    0 -0.00000000000E+00 -0.00000000000E+00 -0.45787720549E+03  0.45787720549E+03  0.00000000000E+00 0. -1.
         21    1    1    2  503  502  0.52039872585E+02 -0.12117679994E+03  0.23807578475E+03  0.27216179833E+03  0.00000000000E+00 0.  1.
         21    1    1    2  504  505  0.10008894113E+02  0.58975779360E+02 -0.13722641486E+03  0.14969772693E+03  0.00000000000E+00 0.  1.
         21    1    1    2  505  503 -0.10550220787E+02  0.39509256494E+02 -0.38805724981E+02  0.56375285353E+02  0.00000000000E+00 0.  1.
          1    1    1    2  501    0 -0.51498545912E+02  0.22691764085E+02 -0.24661183742E+03  0.25295140787E+03  0.00000000000E+00 0. -1.
<scales pt_clust_3="128.54503" pt_clust_4="34.87527" pt_clust_5="34.87527" pt_clust_6="56.27625"></scales>
<clustering>
<clus scale="   34.875">  4  5 -1 -1</clus>
<clus scale="   56.276">  2  6  1 -1</clus>
<clus scale="  128.545">  1  3  2 -1</clus>
<clus scale="  128.545">  1  3  2 -1</clus>
</clustering>
</event>
<event>
 6    0  0.2433432E+002  0.9632702E+02  0.7546771E-02  0.1288215E+00
         21   -1    0    0  503  502  0.00000000000E+00  0.00000000000E+00  0.33529094772E+03  0.33529094772E+03  0.00000000000E+00 0. -1.
          2   -1    0    0  504    0 -0.00000000000E+00 -0.00000000000E+00 -0.31244495579E+03  0.31244495579E+03  0.00000000000E+00 0. -1.
         21    1    1    2  503  501 -0.34933589587E+02 -0.91280954052E+02  0.83043203968E+02  0.12825264902E+03  0.00000000000E+00 0. -1.
         21    1    1    2  504  505  0.31950890817E+02  0.10479982634E+03  0.83112036053E+02  0.13751899346E+03  0.00000000000E+00 0. -1.
         21    1    1    2  505  502 -0.89899472471E+01  0.40191173902E+02  0.11276175840E+03  0.12004733970E+03  0.00000000000E+00 0. -1.
          2    1    1    2  501    0  0.11972646018E+02 -0.53710046194E+02 -0.25607100650E+03  0.26191692134E+03  0.00000000000E+00 0. -1.
<scales pt_clust_3="14000.00000" pt_clust_4="96.32702" pt_clust_5="41.18434" pt_clust_6="54.47833"></scales>
<clustering>
<clus scale="   41.184">  1  5  2 -1</clus>
<clus scale="   54.478">  2  6  1 -1</clus>
<clus scale="   96.327">  2  4  1 -1</clus>
<clus scale="   41.184">  1  3  2 -1</clus>
</clustering>
</event>
<event>
 6    0  0.2433432E+002  0.1077516E+03  0.7546771E-02  0.1264791E+00
          2   -1    0    0  504    0 -0.00000000000E+00  0.00000000000E+00  0.11033857870E+03  0.11033857870E+03  0.00000000000E+00 0. -1.
         21   -1    0    0  501  502  0.00000000000E+00 -0.00000000000E+00 -0.31257017928E+03  0.31257017928E+03  0.00000000000E+00 0. -1.
         21    1    1    2  503  502 -0.39914248679E+02 -0.94611531213E+02 -0.23007795501E+03  0.25195307989E+03  0.00000000000E+00 0. -1.
         21    1    1    2  504  505  0.48435696184E+02  0.50134998318E+02  0.68025471939E+01  0.70041483204E+02  0.00000000000E+00 0. -1.
         21    1    1    2  505  503  0.32529222299E+02 -0.48685544010E+01 -0.13844299893E+01  0.32920658738E+02  0.00000000000E+00 0.  1.
          2    1    1    2  501    0 -0.41050669804E+02  0.49345087296E+02  0.22428237223E+02  0.67993536137E+02  0.00000000000E+00 0. -1.
<scales pt_clust_3="98.19846" pt_clust_4="30.46831" pt_clust_5="30.46831" pt_clust_6="64.18797"></scales>
<clustering>
<clus scale="   30.468">  4  5 -1 -1</clus>
<clus scale="   64.188">  1  6  2 -1</clus>
<clus scale="   98.198">  2  3  1 -1</clus>
<clus scale="   98.198">  2  3  1 -1</clus>
</clustering>
</event>
<event>
 6    0  0.2433432E+002  0.2173135E+03  0.7546771E-02  0.1135902E+00
         21   -1    0    0  503  502  0.00000000000E+00  0.00000000000E+00  0.12781386906E+03  0.12781386906E+03  0.00000000000E+00 0.  1.
          1   -1    0    0  502    0 -0.00000000000E+00 -0.00000000000E+00 -0.11877306938E+04  0.11877306938E+04  0.00000000000E+00 0. -1.
         21    1    1    2  503  504 -0.20153421445E+02  0.54992966432E+02 -0.14498906862E+02  0.60337426637E+02  0.00000000000E+00 0.  1.
         21    1    1    2  504  505  0.22709297177E+02  0.15176468104E+03 -0.13475447561E+01  0.15346024393E+03  0.00000000000E+00 0.  1.
         21    1    1    2  505  501  0.20639327719E+02 -0.22798442892E+03 -0.43229811874E+03  0.48916719549E+03  0.00000000000E+00 0.  1.
          1    1    1    2  501    0 -0.23195203451E+02  0.21226781446E+02 -0.61177225440E+03  0.61257969683E+03  0.00000000000E+00 0. -1.
<scales pt_clust_3="32.36353" pt_clust_4="32.36353" pt_clust_5="211.00252" pt_clust_6="31.44191"></scales>
<clustering>
<clus scale="   31.442">  2  6  1 -1</clus>
<clus scale="   32.364">  3  4 -1 -1</clus>
<clus scale="  211.003">  2  5  1 -1</clus>
<clus scale="  217.313">  1  3  2 -1</clus>
</clustering>
</event>
<event>
 6    0  0.2433432E+002  0.9144661E+02  0.7546771E-02  0.1299386E+00
          2   -1    0    0  503    0 -0.00000000000E+00  0.00000000000E+00  0.89798348170E+03  0.89798348170E+03  0.00000000000E+00 0.  1.
         21   -1    0    0  504  502  0.00000000000E+00 -0.00000000000E+00 -0.78150605868E+03  0.78150605868E+03  0.00000000000E+00 0.  1.
         21    1    1    2  503  505 -0.38264956811E+02 -0.24679300991E+02  0.44477620954E+02  0.63651658131E+02  0.00000000000E+00 0.  1.
         21    1    1    2  504  501  0.59113561502E+02 -0.69974824205E+02 -0.76041871355E+03  0.76591612405E+03  0.00000000000E+00 0.  1.
         21    1    1    2  505  502 -0.56965094125E+02 -0.12355557837E+02  0.25750993904E+03  0.26402471562E+03  0.00000000000E+00 0.  1.
          2    1    1    2  501    0  0.36116489434E+02  0.10700968303E+03  0.57490857658E+03  0.58589704257E+03  0.00000000000E+00 0.  1.
<scales pt_clust_3="45.53323" pt_clust_4="91.44661" pt_clust_5="71.63207" pt_clust_6="14000.00000"></scales>
<clustering>
<clus scale="   45.533">  1  3  2 -1</clus>
<clus scale="   71.632">  1  5  2 -1</clus>
<clus scale="   91.447">  2  4  1 -1</clus>
<clus scale="   91.447">  2  3  1 -1</clus>
</clustering>
</event>
<event>
 6    0  0.2433432E+002  0.1544416E+03  0.7546771E-02  0.1195119E+00
         21   -1    0    0  503  502  0.00000000000E+00  0.00000000000E+00  0.13497372289E+03  0.13497372289E+03  0.00000000000E+00 0.  1.
          2   -1    0    0  505    0 -0.00000000000E+00 -0.00000000000E+00 -0.28489153754E+04  0.28489153754E+04  0.00000000000E+00 0. -1.
         21    1    1    2  503  504 -0.45194641693E+02 -0.25923634710E+02  0.88147609545E+02  0.10239429448E+03  0.00000000000E+00 0.  1.
         21    1    1    2  504  501 -0.59665234781E+02 -0.58454540464E+02 -0.14909759744E+03  0.17090045963E+03  0.00000000000E+00 0. -1.
         21    1    1    2  505  502 -0.57755845680E+02  0.20332300316E+02 -0.10252903574E+02  0.62082704339E+02  0.00000000000E+00 0. -1.
          2    1    1    2  501    0  0.16261572215E+03  0.64045874858E+02 -0.26427387610E+04  0.26485116398E+04  0.00000000000E+00 0. -1.
<scales pt_clust_3="52.10173" pt_clust_4="154.44157" pt_clust_5="87.32207" pt_clust_6="14000.00000"></scales>
<clustering>
<clus scale="   52.102">  1  3  2 -1</clus>
<clus scale="   87.322">  1  5  2 -1</clus>
<clus scale="  154.442">  1  4  2 -1</clus>
<clus scale="   52.102">  1  3  2 -1</clus>
</clustering>
</event>
<event>
 6    0  0.2433432E+002  0.8355111E+02  0.7546771E-02  0.1319266E+00
         -2   -1    0    0    0  501 -0.00000000000E+00  0.00000000000E+00  0.24586754883E+03  0.24586754883E+03  0.00000000000E+00 0. -1.
         21   -1    0    0  503  502  0.00000000000E+00 -0.00000000000E+00 -0.32315278218E+03  0.32315278218E+03  0.00000000000E+00 0. -1.
         21    1    1    2  503  504  0.19312267869E+02  0.72551996208E+02  0.31578456613E+02  0.81449093095E+02  0.00000000000E+00 0. -1.
         21    1    1    2  504  501 -0.29813564740E+02  0.60766630382E+01  0.40438662987E+02  0.50606915934E+02  0.00000000000E+00 0.  1.
         21    1    1    2  505  502 -0.55939739809E+02 -0.64393057653E+02 -0.27834703830E+03  0.29112333142E+03  0.00000000000E+00 0. -1.
         -2    1    1    2    0  505  0.66441036681E+02 -0.14235601593E+02  0.12904468536E+03  0.14584099056E+03  0.00000000000E+00 0. -1.
<scales pt_clust_3="14000.00000" pt_clust_4="30.42654" pt_clust_5="83.55111" pt_clust_6="47.07692"></scales>
<clustering>
<clus scale="   30.427">  1  4  2 -1</clus>
<clus scale="   47.077">  1  6  2 -1</clus>
<clus scale="   83.551">  2  5  1 -1</clus>
<clus scale="   83.551">  2  3  1 -1</clus>
</clustering>
</event>
<event>
 6    0  0.2433432E+002  0.1738049E+03  0.7546771E-02  0.1173937E+00
          1   -1    0    0  503    0 -0.00000000000E+00  0.00000000000E+00  0.17403732538E+04  0.17403732538E+04  0.00000000000E+00 0. -1.
         21   -1    0    0  504  502  0.00000000000E+00 -0.00000000000E+00 -0.72100123936E+02  0.72100123936E+02  0.00000000000E+00 0. -1.
         21    1    1    2  503  502 -0.14854844297E+03 -0.11357014394E+02  0.65152614832E+02  0.16260530404E+03  0.00000000000E+00 0. -1.
         21    1    1    2  504  505  0.11848772510E+03 -0.19323176886E+02  0.52000270454E+03  0.53368112098E+03  0.00000000000E+00 0. -1.
         21    1    1    2  505  501  0.11798578075E+03 -0.44632624270E+02  0.31377935115E+03  0.33818663016E+03  0.00000000000E+00 0. -1.
          1    1    1    2  501    0 -0.87925062887E+02  0.75312815549E+02  0.76933845930E+03  0.77800032251E+03  0.00000000000E+00 0. -1.
<scales pt_clust_3="158.92556" pt_clust_4="68.64169" pt_clust_5="68.64169" pt_clust_6="115.77062"></scales>
<clustering>
<clus scale="   68.642">  4  5 -1 -1</clus>
<clus scale="  115.771">  1  6  2 -1</clus>
<clus scale="  158.926">  2  3  1 -1</clus>
<clus scale="  158.926">  2  3  1 -1</clus>
</clustering>
</event>
<event>
 6    0  0.2433432E+002  0.1114438E+03  0.7546771E-02  0.1257919E+00
          2   -1    0    0  503    0 -0.00000000000E+00  0.00000000000E+00  0.70296839396E+03  0.70296839396E+03  0.00000000000E+00 0.  1.
         21   -1    0    0  505  502  0.00000000000E+00 -0.00000000000E+00 -0.27620083911E+02  0.27620083911E+02  0.00000000000E+00 0.  1.
         21    1    1    2  503  504  0.33744880062E+02  0.58188744718E+02  0.17434322634E+03  0.18686949327E+03  0.00000000000E+00 0.  1.
         21    1    1    2  504  502  0.52533108216E+02  0.26254248520E+02  0.79365546233E+02  0.98731468910E+02  0.00000000000E+00 0.  1.
         21    1    1    2  505  501 -0.78104655213E+02 -0.25586104977E+02  0.26515383832E+03  0.27759961079E+03  0.00000000000E+00 0.  1.
          2    1    1    2  501    0 -0.81733330655E+01 -0.58856888261E+02  0.15648569915E+03  0.16738790490E+03  0.00000000000E+00 0.  1.
<scales pt_clust_3="47.87552" pt_clust_4="47.87552" pt_clust_5="98.96699" pt_clust_6="59.42169"></scales>
<clustering>
<clus scale="   47.876">  3  4 -1 -1</clus>
<clus scale="   59.422">  1  6  2 -1</clus>
<clus scale="   98.967">  1  5  2 -1</clus>
<clus scale="  111.444">  2  3  1 -1</clus>
</clustering>
</event>
<event>
 6    0  0.2433432E+002  0.1435161E+03  0.7546771E-02  0.1208675E+00
          1   -1    0    0  505    0 -0.00000000000E+00  0.00000000000E+00  0.54438710616E+03  0.54438710616E+03  0.00000000000E+00 0.  1.
         21   -1    0    0  504  502  0.00000000000E+00 -0.00000000000E+00 -0.79316153997E+03  0.79316153997E+03  0.00000000000E+00 0.  1.
         21    1    1    2  503  501 -0.49069786367E+01  0.36909788349E+02 -0.76577259345E+02  0.85149794857E+02  0.00000000000E+00 0. -1.
         21    1    1    2  504  503  0.39854019806E+02  0.84263646260E+02 -0.38112016412E+03  0.39235351977E+03  0.00000000000E+00 0.  1.
         21    1    1    2  505  502 -0.39512526673E+02  0.13088142972E+02 -0.31573228675E+03  0.31846415206E+03  0.00000000000E+00 0.  1.
          1    1    1    2  501    0  0.45654855033E+01 -0.13426157758E+03  0.52465527640E+03  0.54158117945E+03  0.00000000000E+00 0.  1.
<scales pt_clust_3="32.33959" pt_clust_4="32.33959" pt_clust_5="41.62378" pt_clust_6="134.08457"></scales>
<clustering>
<clus scale="   32.340">  3  4 -1 -1</clus>
<clus scale="   41.624">  2  5  1 -1</clus>
<clus scale="  134.085">  1  6  2 -1</clus>
<clus scale="   41.624">  2  3  1 -1</clus>
</clustering>
</event>
<event>
 6    0  0.2433432E+002  0.1473205E+03  0.7546771E-02  0.1203805E+00
          2   -1    0    0  504    0 -0.00000000000E+00  0.00000000000E+00  0.16701422192E+04  0.16701422192E+04  0.00000000000E+00 0.  1.
         21   -1    0    0  503  502  0.00000000000E+00 -0.00000000000E+00 -0.20447660292E+03  0.20447660292E+03  0.00000000000E+00 0. -1.
         21    1    1    2  503  505 -0.99562034758E+01 -0.65725796005E+02  0.33362139053E+03  0.34017971495E+03  0.00000000000E+00 0. -1.
         21    1    1    2  504  502  0.69865154546E+02  0.12615351885E+03 -0.17186208963E+03  0.22434889790E+03  0.00000000000E+00 0. -1.
         21    1    1    2  505  501 -0.33593163009E+02 -0.31569925502E+02  0.19047665924E+03  0.19597581103E+03  0.00000000000E+00 0. -1.
          2    1    1    2  501    0 -0.26315788062E+02 -0.28857797344E+02  0.11134296561E+04  0.11141143982E+04  0.00000000000E+00 0.  1.
<scales pt_clust_3="31.39138" pt_clust_4="142.41615" pt_clust_5="31.39138" pt_clust_6="39.05500"></scales>
<clustering>
<clus scale="   31.391">  3  5 -1 -1</clus>
<clus scale="   39.055">  1  6  2 -1</clus>
<clus scale="  142.416">  2  4  1 -1</clus>
<clus scale="  142.416">  2  3  1 -1</clus>
</clustering>
</event>
<event>
 6    0  0.2433432E+002  0.1348637E+03  0.7546771E-02  0.1220412E+00
         21   -1    0    0  503  502  0.00000000000E+00  0.00000000000E+00  0.95025278899E+03  0.95025278899E+03  0.00000000000E+00 0.  1.
          1   -1    0    0  504    0 -0.00000000000E+00 -0.00000000000E+00 -0.27720391756E+04  0.27720391756E+04  0.00000000000E+00 0.  1.
         21    1    1    2  503  501  0.13742874108E+02 -0.89797852130E+02  0.18355560842E+03  0.20480522996E+03  0.00000000000E+00 0.  1.
         21    1    1    2  504  505  0.18576912909E+02  0.34456164133E+02 -0.23038021714E+03  0.23368220597E+03  0.00000000000E+00 0.  1.
         21    1    1    2  505  502  0.40675206688E+02 -0.34678196715E+02  0.75214485774E+03  0.75404173412E+03  0.00000000000E+00 0.  1.
          1    1    1    2  501    0 -0.72994993705E+02  0.90019884713E+02 -0.25271066357E+04  0.25297627946E+04  0.00000000000E+00 0.  1.
<scales pt_clust_3="134.86373" pt_clust_4="39.14497" pt_clust_5="53.44831" pt_clust_6="14000.00000"></scales>
<clustering>
<clus scale="   39.145">  2  4  1 -1</clus>
<clus scale="   53.448">  1  5  2 -1</clus>
<clus scale="  134.864">  1  3  2 -1</clus>
<clus scale="   53.448">  1  3  2 -1</clus>
</clustering>
</event>
<event>
 6    0  0.2433432E+002  0.2057229E+03  0.7546771E-02  0.1144998E+00
         21   -1    0    0  505  502  0.00000000000E+00  0.00000000000E+00  0.24338265305E+03  0.24338265305E+03  0.00000000000E+00 0. -1.
          4   -1    0    0  504    0 -0.00000000000E+00 -0.00000000000E+00 -0.21318763211E+04  0.21318763211E+04  0.00000000000E+00 0.  1.
         21    1    1    2  503  501 -0.16576287455E+03 -0.11255730817E+03 -0.59606852454E+03  0.62884351325E+03  0.00000000000E+00 0. -1.
         21    1    1    2  504  502  0.40876353099E+02 -0.21244944784E+02 -0.55271424922E+02  0.71952444951E+02  0.00000000000E+00 0. -1.
         21    1    1    2  505  503  0.15550869849E+03  0.13549288809E+03  0.16981053292E+03  0.26716454690E+03  0.00000000000E+00 0. -1.
          4    1    1    2  501    0 -0.30622177036E+02 -0.16906351426E+01 -0.14069642515E+04  0.14072984690E+04  0.00000000000E+00 0.  1.
<scales pt_clust_3="14000.00000" pt_clust_4="43.77264" pt_clust_5="205.72289" pt_clust_6="30.66881"></scales>
<clustering>
<clus scale="   30.669">  2  6  1 -1</clus>
<clus scale="   43.773">  2  4  1 -1</clus>
<clus scale="  205.723">  1  5  2 -1</clus>
<clus scale="  205.723">  1  3  2 -1</clus>
</clustering>
</event>
<event>
 6    0  0.2433432E+002  0.9625806E+02  0.7546771E-02  0.1288368E+00
          2   -1    0    0  505    0 -0.00000000000E+00  0.00000000000E+00  0.40239802484E+04  0.40239802484E+04  0.00000000000E+00 0.  1.
         21   -1    0    0  504  502  0.00000000000E+00 -0.00000000000E+00 -0.22698123111E+02  0.22698123111E+02  0.00000000000E+00 0. -1.
         21    1    1    2  503  501 -0.52053785758E+02 -0.25432987743E+02  0.35705667168E+03  0.36172627810E+03  0.00000000000E+00 0.  1.
         21    1    1    2  504  503  0.53849844126E+02  0.18022407502E+02  0.46771502943E+02  0.73567563315E+02  0.00000000000E+00 0. -1.
         21    1    1    2  505  502  0.17889068540E+02  0.10091010813E+03  0.41396736211E+03  0.42646435442E+03  0.00000000000E+00 0. -1.
          2    1    1    2  501    0 -0.19685126907E+02 -0.93499527885E+02  0.31834865885E+04  0.31849201756E+04  0.00000000000E+00 0.  1.
<scales pt_clust_3="43.84159" pt_clust_4="56.78567" pt_clust_5="14000.00000" pt_clust_6="96.25806"></scales>
<clustering>
<clus scale="   56.786">  2  4  1 -1</clus>
<clus scale="   43.842">  2  3  1 -1</clus>
<clus scale="   96.258">  1  6  2 -1</clus>
<clus scale="   56.786">  2  3  1 -1</clus>
</clustering>
</event>
<event>
 6    0  0.2433432E+002  0.1209147E+03  0.7546771E-02  0.1241596E+00
          2   -1    0    0  504    0 -0.00000000000E+00  0.00000000000E+00  0.52093088447E+03  0.52093088447E+03  0.00000000000E+00 0. -1.
         21   -1    0    0  505  502  0.00000000000E+00 -0.00000000000E+00 -0.19764934528E+04  0.19764934528E+04  0.00000000000E+00 0.  1.
         21    1    1    2  503  501  0.51287536383E+02  0.60587072151E+02 -0.48072321257E+03  0.48723301592E+03  0.00000000000E+00 0.  1.
         21    1    1    2  504  502  0.18765148005E+02 -0.46941366022E+02 -0.11142760958E+03  0.12235904053E+03  0.00000000000E+00 0. -1.
         21    1    1    2  505  503  0.35961478590E+02  0.45933300219E+02 -0.13677734487E+04  0.13690169112E+04  0.00000000000E+00 0.  1.
          2    1    1    2  501    0 -0.10601416298E+03 -0.59579006349E+02  0.50436170256E+03  0.51881536963E+03  0.00000000000E+00 0. -1.
<scales pt_clust_3="14000.00000" pt_clust_4="50.55317" pt_clust_5="51.05687" pt_clust_6="120.91468"></scales>
<clustering>
<clus scale="   50.553">  2  4  1 -1</clus>
<clus scale="   51.057">  2  5  1 -1</clus>
<clus scale="  120.915">  1  6  2 -1</clus>
<clus scale="   50.553">  2  3  1 -1</clus>
</clustering>
</event>
<event>
 6    0  0.2433432E+002  0.1829985E+03  0.7546771E-02  0.1164932E+00
          1   -1    0    0  505    0 -0.00000000000E+00  0.00000000000E+00  0.10752736847E+04  0.10752736847E+04  0.00000000000E+00 0.  1.
         21   -1    0    0  504  502  0.00000000000E+00 -0.00000000000E+00 -0.32536338332E+03  0.32536338332E+03  0.00000000000E+00 0. -1.
         21    1    1    2  503  502 -0.34361212066E+02 -0.64005236111E+02 -0.19214314085E+03  0.20541750100E+03  0.00000000000E+00 0. -1.
         21    1    1    2  504  501 -0.13662814565E+03 -0.25902841924E+02 -0.68522310757E+02  0.15502746362E+03  0.00000000000E+00 0. -1.
         21    1    1    2  505  503  0.13161594298E+03  0.11761811490E+03  0.56269260027E+03  0.58972853060E+03  0.00000000000E+00 0.  1.
          1    1    1    2  501    0  0.39373414738E+02 -0.27710036862E+02  0.44788315269E+03  0.45046357277E+03  0.00000000000E+00 0.  1.
<scales pt_clust_3="72.70861" pt_clust_4="14000.00000" pt_clust_5="182.99849" pt_clust_6="48.14677"></scales>
<clustering>
<clus scale="   48.147">  1  6  2 -1</clus>
<clus scale="   72.709">  2  3  1 -1</clus>
<clus scale="  182.998">  1  5  2 -1</clus>
<clus scale="   72.709">  2  3  1 -1</clus>
</clustering>
</event>
<event>
 6    0  0.2433432E+002  0.1152692E+03  0.7546771E-02  0.1251112E+00
         21   -1    0    0  505  502  0.00000000000E+00  0.00000000000E+00  0.17275620800E+03  0.17275620800E+03  0.00000000000E+00 0. -1.
          1   -1    0    0  503    0 -0.00000000000E+00 -0.00000000000E+00 -0.99533103852E+03  0.99533103852E+03  0.00000000000E+00 0. -1.
         21    1    1    2  503  504  0.99266987725E+01 -0.33518625182E+02 -0.11837366691E+03  0.12342756013E+03  0.00000000000E+00 0. -1.
         21    1    1    2  504  502  0.49154349658E+02 -0.74965718823E+02 -0.83859389812E+03  0.84337164706E+03  0.00000000000E+00 0. -1.
         21    1    1    2  505  501 -0.62454559078E+01  0.60349192912E+02  0.11025846037E+03  0.12584895267E+03  0.00000000000E+00 0. -1.
          1    1    1    2  501    0 -0.52835592522E+02  0.48135151093E+02  0.24134274146E+02  0.75439086663E+02  0.00000000000E+00 0. -1.
<scales pt_clust_3="34.95765" pt_clust_4="115.26918" pt_clust_5="60.36520" pt_clust_6="14000.00000"></scales>
<clustering>
<clus scale="   34.958">  2  3  1 -1</clus>
<clus scale="   60.365">  1  5  2 -1</clus>
<clus scale="  115.269">  2  4  1 -1</clus>
<clus scale="   60.365">  1  3  2 -1</clus>
</clustering>
</event>
<event>
 6    0  0.2433432E+002  0.1296501E+03  0.7546771E-02  0.1227976E+00
          1   -1    0    0  504    0 -0.00000000000E+00  0.00000000000E+00  0.66606946615E+03  0.66606946615E+03  0.00000000000E+00 0.  1.
         21   -1    0    0  503  502  0.00000000000E+00 -0.00000000000E+00 -0.26766051003E+03  0.26766051003E+03  0.00000000000E+00 0.  1.
         21    1    1    2  503  505 -0.52655203275E+02 -0.18236713374E+01  0.36995812652E+02  0.64378461949E+02  0.00000000000E+00 0.  1.
         21    1    1    2  504  502  0.25564705039E+02 -0.86591150863E+02 -0.21633672710E+03  0.23442090573E+03  0.00000000000E+00 0.  1.
         21    1    1    2  505  501 -0.87424539536E+02  0.58283629584E+02  0.10876505923E+03  0.15122787342E+03  0.00000000000E+00 0.  1.
          1    1    1    2  501    0  0.11451503777E+03  0.30131192616E+02  0.46898481135E+03  0.48370273508E+03  0.00000000000E+00 0.  1.
<scales pt_clust_3="34.90546" pt_clust_4="90.28611" pt_clust_5="34.90546" pt_clust_6="119.91397"></scales>
<clustering>
<clus scale="   34.905">  3  5 -1 -1</clus>
<clus scale="   90.286">  2  4  1 -1</clus>
<clus scale="  119.914">  1  6  2 -1</clus>
<clus scale="   90.286">  2  3  1 -1</clus>
</clustering>
</event>
<event>
 6    0  0.2433432E+002  0.9167177E+02  0.7546771E-02  0.1298853E+00
          2   -1    0    0  505    0 -0.00000000000E+00  0.00000000000E+00  0.13000469311E+04  0.13000469311E+04  0.00000000000E+00 0. -1.
         21   -1    0    0  503  502  0.00000000000E+00 -0.00000000000E+00 -0.14706303017E+03  0.14706303017E+03  0.00000000000E+00 0.  1.
         21    1    1    2  503  504 -0.10996201096E+02 -0.28688673314E+02 -0.18986726059E+02  0.36117200632E+02  0.00000000000E+00 0. -1.
         21    1    1    2  504  501 -0.83367994198E+02  0.95576475619E+02  0.43144534519E+03  0.44970009010E+03  0.00000000000E+00 0.  1.
         21    1    1    2  505  502  0.60885371226E+02 -0.47337710478E+02 -0.96409041072E+02  0.12346088637E+03  0.00000000000E+00 0.  1.
          2    1    1    2  501    0  0.33478824067E+02 -0.19550091828E+02  0.83693432292E+03  0.83783178421E+03  0.00000000000E+00 0. -1.
<scales pt_clust_3="30.72387" pt_clust_4="91.67177" pt_clust_5="14000.00000" pt_clust_6="38.78786"></scales>
<clustering>
<clus scale="   30.724">  2  3  1 -1</clus>
<clus scale="   38.788">  1  6  2 -1</clus>
<clus scale="   91.672">  1  4  2 -1</clus>
<clus scale="   30.724">  2  3  1 -1</clus>
</clustering>
</event>
<event>
 6    0  0.2433432E+002  0.9786164E+02  0.7546771E-02  0.1284858E+00
         21   -1    0    0  503  502  0.00000000000E+00  0.00000000000E+00  0.13465152874E+03  0.13465152874E+03  0.00000000000E+00 0.  1.
          2   -1    0    0  505    0 -0.00000000000E+00 -0.00000000000E+00 -0.76992310230E+03  0.76992310230E+03  0.00000000000E+00 0.  1.
         21    1    1    2  503  504  0.61896591285E+02  0.50908529594E+02  0.79604781599E+02  0.11295923004E+03  0.00000000000E+00 0.  1.
         21    1    1    2  504  501 -0.12264792691E+03  0.46959331564E+02 -0.26061147763E+03  0.29183220362E+03  0.00000000000E+00 0.  1.
         21    1    1    2  505  502  0.49667234178E+02 -0.55024392317E+02 -0.42093851181E+02  0.85243241421E+02  0.00000000000E+00 0. -1.
          2    1    1    2  501    0  0.11084101451E+02 -0.42843468840E+02 -0.41217102634E+03  0.41453995595E+03  0.00000000000E+00 0.  1.
<scales pt_clust_3="79.29250" pt_clust_4="97.86164" pt_clust_5="14000.00000" pt_clust_6="44.25404"></scales>
<clustering>
<clus scale="   44.254">  2  6  1 -1</clus>
<clus scale="   79.293">  1  3  2 -1</clus>
<clus scale="   97.862">  2  4  1 -1</clus>
<clus scale="   79.293">  1  3  2 -1</clus>
</clustering>
</event>
<event>
 6    0  0.2433432E+002  0.2165470E+03  0.7546771E-02  0.1136484E+00
         21   -1    0    0  503  502  0.00000000000E+00  0.00000000000E+00  0.17094865313E+03  0.17094865313E+03  0.00000000000E+00 0. -1.
          2   -1    0    0  504    0 -0.00000000000E+00 -0.00000000000E+00 -0.60882441370E+03  0.60882441370E+03  0.00000000000E+00 0. -1.
         21    1    1    2  503  501 -0.22215863192E+02 -0.26644175170E+02  0.62489871764E+02  0.71473356720E+02  0.00000000000E+00 0. -1.
         21    1    1    2  504  505  0.20811716353E+03  0.37240246964E+01 -0.23136439979E+03  0.31121713900E+03  0.00000000000E+00 0. -1.
         21    1    1    2  505  502  0.36742040135E+02 -0.34782633058E+02 -0.11625263589E+02  0.51912963981E+02  0.00000000000E+00 0. -1.
          2    1    1    2  501    0 -0.22264334047E+03  0.57702783532E+02 -0.25737596895E+03  0.34516960712E+03  0.00000000000E+00 0. -1.
<scales pt_clust_3="34.69087" pt_clust_4="216.54697" pt_clust_5="51.45683" pt_clust_6="14000.00000"></scales>
<clustering>
<clus scale="   34.691">  1  3  2 -1</clus>
<clus scale="   51.457">  1  5  2 -1</clus>
<clus scale="  216.547">  2  4  1 -1</clus>
<clus scale="   34.691">  1  3  2 -1</clus>
</clustering>
</event>
<event>
 6    0  0.2433432E+002  0.1210883E+03  0.7546771E-02  0.1241312E+00
         21   -1    0    0  504  502  0.00000000000E+00  0.00000000000E+00  0.26923780785E+03  0.26923780785E+03  0.00000000000E+00 0. -1.
          1   -1    0    0  505    0 -0.00000000000E+00 -0.00000000000E+00 -0.73687889628E+03  0.73687889628E+03  0.00000000000E+00 0. -1.
         21    1    1    2  503  501  0.62051826871E+02 -0.47386873428E+02  0.10443486957E+03  0.13039396832E+03  0.00000000000E+00 0. -1.
         21    1    1    2  504  503  0.54307636870E+02  0.73319292680E+01  0.77244280678E+02  0.94708793185E+02  0.00000000000E+00 0. -1.
         21    1    1    2  505  502 -0.63172536506E+01  0.38741941703E+02  0.55319977712E+02  0.67831745331E+02  0.00000000000E+00 0. -1.
          1    1    1    2  501    0 -0.11004221009E+03  0.13130024569E+01 -0.70464021639E+03  0.71318219729E+03  0.00000000000E+00 0. -1.
<scales pt_clust_3="47.34032" pt_clust_4="47.34032" pt_clust_5="39.25361" pt_clust_6="110.19234"></scales>
<clustering>
<clus scale="   39.254">  1  5  2 -1</clus>
<clus scale="   47.340">  3  4 -1 -1</clus>
<clus scale="  110.192">  2  6  1 -1</clus>
<clus scale="   39.254">  1  3  2 -1</clus>
</clustering>
</event>
<event>
 6    0  0.2433432E+002  0.1680471E+03  0.7546771E-02  0.1179900E+00
         21   -1    0    0  504  502  0.00000000000E+00  0.00000000000E+00  0.72555889641E+02  0.72555889641E+02  0.00000000000E+00 0.  1.
          1   -1    0    0  505    0 -0.00000000000E+00 -0.00000000000E+00 -0.21018781746E+04  0.21018781746E+04  0.00000000000E+00 0.  1.
         21    1    1    2  503  502  0.10730944001E+01  0.16251027454E+03 -0.31023840499E+02  0.16544854046E+03  0.00000000000E+00 0.  1.
         21    1    1    2  504  501 -0.19576053019E+02 -0.83757005068E+02 -0.10246110723E+04  0.10282151075E+04  0.00000000000E+00 0.  1.
         21    1    1    2  505  503  0.49716668859E+01 -0.49685665062E+02 -0.19077024147E+03  0.19719702791E+03  0.00000000000E+00 0.  1.
          1    1    1    2  501    0  0.13531291733E+02 -0.29067604410E+02 -0.78291713069E+03  0.78357338840E+03  0.00000000000E+00 0.  1.
<scales pt_clust_3="159.95752" pt_clust_4="31.44981" pt_clust_5="49.93378" pt_clust_6="31.44981"></scales>
<clustering>
<clus scale="   31.450">  4  6 -1 -1</clus>
<clus scale="   49.934">  2  5  1 -1</clus>
<clus scale="  159.958">  1  3  2 -1</clus>
<clus scale="  159.958">  1  3  2 -1</clus>
</clustering>
</event>
<event>
 6    0  0.2433432E+002  0.1014201E+03  0.7546771E-02  0.1277338E+00
          2   -1    0    0  505    0 -0.00000000000E+00  0.00000000000E+00  0.22387347873E+04  0.22387347873E+04  0.00000000000E+00 0. -1.
         21   -1    0    0  503  502  0.00000000000E+00 -0.00000000000E+00 -0.37037213806E+02  0.37037213806E+02  0.00000000000E+00 0.  1.
         21    1    1    2  503  504 -0.46953896144E+02 -0.52085521565E+02  0.79427817882E+02  0.10595446273E+03  0.00000000000E+00 0.  1.
         21    1    1    2  504  501  0.25378950901E+02 -0.66034703542E+02  0.74380074256E+02  0.10265022488E+03  0.00000000000E+00 0. -1.
         21    1    1    2  505  502  0.63929893710E+02  0.22567414878E+02  0.13166735025E+03  0.14809662604E+03  0.00000000000E+00 0.  1.
          2    1    1    2  501    0 -0.42354948467E+02  0.95552810229E+02  0.19162223311E+04  0.19190706875E+04  0.00000000000E+00 0. -1.
<scales pt_clust_3="45.23745" pt_clust_4="101.42005" pt_clust_5="67.79616" pt_clust_6="14000.00000"></scales>
<clustering>
<clus scale="   67.796">  2  5  1 -1</clus>
<clus scale="   45.237">  2  3  1 -1</clus>
<clus scale="  101.420">  2  4  1 -1</clus>
<clus scale="   67.796">  2  3  1 -1</clus>
</clustering>
</event>
<event>
 6    0  0.2433432E+002  0.7211721E+02  0.7546771E-02  0.1353038E+00
         21   -1    0    0  503  502  0.00000000000E+00  0.00000000000E+00  0.19796325666E+03  0.19796325666E+03  0.00000000000E+00 0.  1.
         -3   -1    0    0    0  501 -0.00000000000E+00 -0.00000000000E+00 -0.50325045008E+03  0.50325045008E+03  0.00000000000E+00 0.  1.
         21    1    1    2  503  505  0.53045963831E+02  0.31043515540E+02 -0.23299924260E+03  0.24096933661E+03  0.00000000000E+00 0.  1.
         21    1    1    2  504  502  0.37305367064E+02 -0.61306016412E+02  0.17024711307E+03  0.18475442504E+03  0.00000000000E+00 0.  1.
         21    1    1    2  505  501 -0.28174310150E+02 -0.28028455635E+02 -0.43202121932E+02  0.58701017173E+02  0.00000000000E+00 0.  1.
         -3    1    1    2    0  504 -0.62177020745E+02  0.58290956507E+02 -0.19933294196E+03  0.21678892793E+03  0.00000000000E+00 0.  1.
<scales pt_clust_3="41.63215" pt_clust_4="72.11721" pt_clust_5="39.74149" pt_clust_6="14000.00000"></scales>
<clustering>
<clus scale="   39.741">  2  5  1 -1</clus>
<clus scale="   41.632">  2  3  1 -1</clus>
<clus scale="   72.117">  1  4  2 -1</clus>
<clus scale="   72.117">  1  3  2 -1</clus>
</clustering>
</event>
<event>
 6    0  0.2433432E+002  0.2220453E+03  0.7546771E-02  0.1132367E+00
         21   -1    0    0  503  502  0.00000000000E+00  0.00000000000E+00  0.33014670299E+03  0.33014670299E+03  0.00000000000E+00 0.  1.
          1   -1    0    0  504    0 -0.00000000000E+00 -0.00000000000E+00 -0.22906001842E+04  0.22906001842E+04  0.00000000000E+00 0. -1.
         21    1    1    2  503  501 -0.12632418101E+03  0.11783110485E+03  0.24846231304E+03  0.30261442295E+03  0.00000000000E+00 0.  1.
         21    1    1    2  504  505 -0.67177311210E+02 -0.12951366680E+03 -0.15658258475E+03  0.21402029548E+03  0.00000000000E+00 0. -1.
         21    1    1    2  505  502  0.55525282290E+01 -0.97870144604E+02 -0.10121652848E+03  0.14090486653E+03  0.00000000000E+00 0. -1.
          1    1    1    2  501    0  0.18794896399E+03  0.10955270655E+03 -0.19511166811E+04  0.19632073023E+04  0.00000000000E+00 0. -1.
<scales pt_clust_3="172.74828" pt_clust_4="51.90934" pt_clust_5="51.90934" pt_clust_6="212.82307"></scales>
<clustering>
<clus scale="   51.909">  4  5 -1 -1</clus>
<clus scale="  172.748">  1  3  2 -1</clus>
<clus scale="  212.823">  2  6  1 -1</clus>
<clus scale="  172.748">  1  3  2 -1</clus>
</clustering>
</event>
<event>
 6    0  0.2433432E+002  0.1414972E+03  0.7546771E-02  0.1211328E+00
          2   -1    0    0  503    0 -0.00000000000E+00  0.00000000000E+00  0.28692340063E+04  0.28692340063E+04  0.00000000000E+00 0. -1.
         21   -1    0    0  505  502  0.00000000000E+00 -0.00000000000E+00 -0.43744234079E+02  0.43744234079E+02  0.00000000000E+00 0. -1.
         21    1    1    2  503  502  0.32591642371E+02 -0.26819239671E+02  0.78961276178E+03  0.79074003335E+03  0.00000000000E+00 0. -1.
         21    1    1    2  504  501  0.13159593668E+03  0.46618610725E+02  0.20117922459E+03  0.24487520459E+03  0.00000000000E+00 0. -1.
         21    1    1    2  505  504 -0.22559635115E+02  0.43450786953E+02  0.15196836537E+02  0.51262577619E+02  0.00000000000E+00 0. -1.
          2    1    1    2  501    0 -0.14162794393E+03 -0.63250158008E+02  0.18195009493E+04  0.18261004248E+04  0.00000000000E+00 0. -1.
<scales pt_clust_3="42.20766" pt_clust_4="141.49717" pt_clust_5="48.33849" pt_clust_6="14000.00000"></scales>
<clustering>
<clus scale="   42.208">  1  3  2 -1</clus>
<clus scale="   48.338">  2  5  1 -1</clus>
<clus scale="  141.497">  2  4  1 -1</clus>
<clus scale="   48.338">  2  3  1 -1</clus>
</clustering>
</event>
<event>
 6    0  0.2433432E+002  0.9810583E+02  0.7546771E-02  0.1284330E+00
          2   -1    0    0  505    0 -0.00000000000E+00  0.00000000000E+00  0.13951700470E+04  0.13951700470E+04  0.00000000000E+00 0. -1.
         21   -1    0    0  501  502  0.00000000000E+00 -0.00000000000E+00 -0.10443667390E+04  0.10443667390E+04  0.00000000000E+00 0. -1.
         21    1    1    2  503  504 -0.38508270703E+02  0.47433384275E+02 -0.10208223623E+02  0.61943689637E+02  0.00000000000E+00 0.  1.
         21    1    1    2  504  502  0.32619691247E+02 -0.27908931012E+02 -0.97030385861E+03  0.97125307244E+03  0.00000000000E+00 0. -1.
         21    1    1    2  505  503 -0.13565909895E+01  0.68011826421E+02 -0.39962424310E+01  0.68142635888E+02  0.00000000000E+00 0.  1.
          2    1    1    2  501    0  0.72451704455E+01 -0.87536279683E+02  0.13353116327E+04  0.13381973880E+04  0.00000000000E+00 0. -1.
<scales pt_clust_3="40.25109" pt_clust_4="42.92962" pt_clust_5="40.25109" pt_clust_6="88.43570"></scales>
<clustering>
<clus scale="   40.251">  3  5 -1 -1</clus>
<clus scale="   42.930">  2  4  1 -1</clus>
<clus scale="   88.436">  1  6  2 -1</clus>
<clus scale="   42.930">  2  3  1 -1</clus>
</clustering>
</event>
<event>
 6    0  0.2433432E+002  0.6279237E+03  0.7546771E-02  0.9849109E-01
          2   -1    0    0  505    0 -0.00000000000E+00  0.00000000000E+00  0.23000601008E+04  0.23000601008E+04  0.00000000000E+00 0. -1.
         21   -1    0    0  504  502  0.00000000000E+00 -0.00000000000E+00 -0.38282340592E+03  0.38282340592E+03  0.00000000000E+00 0. -1.
         21    1    1    2  503  501  0.21504818655E+03  0.27315695098E+03  0.57525415993E+02  0.35237709332E+03  0.00000000000E+00 0. -1.
         21    1    1    2  504  503  0.13591829222E+03  0.22184210102E+03  0.13342805378E+02  0.26051051879E+03  0.00000000000E+00 0. -1.
         21    1    1    2  505  502 -0.71888199873E+01  0.32548197960E+02 -0.56528474989E+02  0.65624178531E+02  0.00000000000E+00 0.  1.
          2    1    1    2  501    0 -0.34377765878E+03 -0.52754724996E+03  0.19028969485E+04  0.20043717161E+04  0.00000000000E+00 0. -1.
<scales pt_clust_3="42.60154" pt_clust_4="42.60154" pt_clust_5="33.33263" pt_clust_6="626.00385"></scales>
<clustering>
<clus scale="   33.333">  2  5  1 -1</clus>
<clus scale="   42.602">  3  4 -1 -1</clus>
<clus scale="  626.004">  1  6  2 -1</clus>
<clus scale="   33.333">  2  3  1 -1</clus>
</clustering>
</event>
<event>
 6    0  0.2433432E+002  0.1026314E+03  0.7546771E-02  0.1274858E+00
         21   -1    0    0  503  502  0.00000000000E+00  0.00000000000E+00  0.13073617019E+03  0.13073617019E+03  0.00000000000E+00 0. -1.
          2   -1    0    0  505    0 -0.00000000000E+00 -0.00000000000E+00 -0.17924126561E+04  0.17924126561E+04  0.00000000000E+00 0. -1.
         21    1    1    2  503  504  0.47811155905E+02  0.16279413208E+02  0.21887165273E+02  0.55045198947E+02  0.00000000000E+00 0.  1.
         21    1    1    2  504  501 -0.80338120975E+02 -0.69884347517E+02 -0.78677064027E+02  0.13239379182E+03  0.00000000000E+00 0.  1.
         21    1    1    2  505  502  0.47065538162E+02 -0.50655273485E+02  0.44980015948E+02  0.82488323107E+02  0.00000000000E+00 0. -1.
          2    1    1    2  501    0 -0.14538573092E+02  0.10426020779E+03 -0.16498666031E+04  0.16532215124E+04  0.00000000000E+00 0. -1.
<scales pt_clust_3="50.50669" pt_clust_4="102.63143" pt_clust_5="89.26176" pt_clust_6="14000.00000"></scales>
<clustering>
<clus scale="   50.507">  1  3  2 -1</clus>
<clus scale="   89.262">  1  5  2 -1</clus>
<clus scale="  102.631">  1  4  2 -1</clus>
<clus scale="   50.507">  1  3  2 -1</clus>
</clustering>
</event>
<event>
 6    0  0.2433432E+002  0.9566267E+02  0.7546771E-02  0.1289691E+00
         21   -1    0    0  504  502  0.00000000000E+00  0.00000000000E+00  0.98073889699E+02  0.98073889699E+02  0.00000000000E+00 0. -1.
          1   -1    0    0  503    0 -0.00000000000E+00 -0.00000000000E+00 -0.77090816750E+03  0.77090816750E+03  0.00000000000E+00 0.  1.
         21    1    1    2  503  505 -0.67693464593E+02 -0.36180827549E+02 -0.61176088101E+02  0.98152795101E+02  0.00000000000E+00 0. -1.
         21    1    1    2  504  501 -0.55451591031E+02 -0.68543190220E+01  0.53823533407E+02  0.77581140656E+02  0.00000000000E+00 0. -1.
         21    1    1    2  505  502  0.27998276654E+02  0.12994627155E+02 -0.13523936137E+02  0.33699564969E+02  0.00000000000E+00 0. -1.
          1    1    1    2  501    0  0.95146778970E+02  0.30040519416E+02 -0.65195778697E+03  0.65954855647E+03  0.00000000000E+00 0.  1.
<scales pt_clust_3="14000.00000" pt_clust_4="34.66158" pt_clust_5="30.86687" pt_clust_6="95.66267"></scales>
<clustering>
<clus scale="   30.867">  1  5  2 -1</clus>
<clus scale="   34.662">  1  4  2 -1</clus>
<clus scale="   95.663">  2  6  1 -1</clus>
<clus scale="   30.867">  1  3  2 -1</clus>
</clustering>
</event>
<event>
 6    0  0.2433432E+002  0.2435425E+03  0.7546771E-02  0.1117455E+00
         21   -1    0    0  503  502  0.00000000000E+00  0.00000000000E+00  0.53416113895E+02  0.53416113895E+02  0.00000000000E+00 0. -1.
          2   -1    0    0  505    0 -0.00000000000E+00 -0.00000000000E+00 -0.20436473563E+04  0.20436473563E+04  0.00000000000E+00 0.  1.
         21    1    1    2  503  501 -0.53981257466E+02  0.11121490418E+02 -0.14521263196E+02  0.56995883988E+02  0.00000000000E+00 0. -1.
         21    1    1    2  504  502 -0.11142646457E+03 -0.44790393558E+02 -0.20814849245E+03  0.24030778446E+03  0.00000000000E+00 0. -1.
         21    1    1    2  505  504 -0.42715326710E+02 -0.79020217380E+02 -0.29738866029E+03  0.31065866986E+03  0.00000000000E+00 0. -1.
          2    1    1    2  501    0  0.20812304875E+03  0.11268912052E+03 -0.14701728265E+04  0.14891011319E+04  0.00000000000E+00 0.  1.
<scales pt_clust_3="55.11500" pt_clust_4="76.18489" pt_clust_5="76.18489" pt_clust_6="224.51163"></scales>
<clustering>
<clus scale="   55.115">  1  3  2 -1</clus>
<clus scale="   76.185">  4  5 -1 -1</clus>
<clus scale="  224.512">  2  6  1 -1</clus>
<clus scale="   55.115">  1  3  2 -1</clus>
</clustering>
</event>
<event>
 6    0  0.2433432E+002  0.2124581E+03  0.7546771E-02  0.1139634E+00
          1   -1    0    0  504    0 -0.00000000000E+00  0.00000000000E+00  0.12074090720E+04  0.12074090720E+04  0.00000000000E+00 0.  1.
         21   -1    0    0  505  502  0.00000000000E+00 -0.00000000000E+00 -0.36665369852E+03  0.36665369852E+03  0.00000000000E+00 0.  1.
         21    1    1    2  503  502  0.48996231353E+01 -0.56278145226E+02  0.31440120699E+02  0.64650731833E+02  0.00000000000E+00 0. -1.
         21    1    1    2  504  503 -0.76024367621E+02  0.16415892555E+03 -0.11070751808E+03  0.21209434663E+03  0.00000000000E+00 0.  1.
         21    1    1    2  505  501 -0.90722656468E+02  0.34393865953E+02 -0.16483230633E+03  0.19126742436E+03  0.00000000000E+00 0.  1.
          1    1    1    2  501    0  0.16184740095E+03 -0.14227464628E+03  0.10848550772E+04  0.11060502677E+04  0.00000000000E+00 0.  1.
<scales pt_clust_3="56.49103" pt_clust_4="212.45809" pt_clust_5="88.41886" pt_clust_6="14000.00000"></scales>
<clustering>
<clus scale="   56.491">  2  3  1 -1</clus>
<clus scale="   88.419">  2  5  1 -1</clus>
<clus scale="  212.458">  2  4  1 -1</clus>
<clus scale="   56.491">  2  3  1 -1</clus>
</clustering>
</event>
<event>
 6    0  0.2433432E+002  0.1493881E+03  0.7546771E-02  0.1201227E+00
         21   -1    0    0  503  502  0.00000000000E+00  0.00000000000E+00  0.13528178733E+03  0.13528178733E+03  0.00000000000E+00 0.  1.
          1   -1    0    0  504    0 -0.00000000000E+00 -0.00000000000E+00 -0.18354528477E+04  0.18354528477E+04  0.00000000000E+00 0.  1.
         21    1    1    2  503  501  0.11673227260E+03  0.85492198899E+01 -0.34749151379E+03  0.36667405796E+03  0.00000000000E+00 0.  1.
         21    1    1    2  504  505 -0.58464052055E+02  0.15043044290E+02  0.91379884888E+01  0.61056051279E+02  0.00000000000E+00 0. -1.
         21    1    1    2  505  502 -0.69249079586E+02  0.55324417720E+02  0.67535297909E+02  0.11143268229E+03  0.00000000000E+00 0.  1.
          1    1    1    2  501    0  0.10980859040E+02 -0.78916681900E+02 -0.14293528330E+04  0.14315718435E+04  0.00000000000E+00 0.  1.
<scales pt_clust_3="140.37615" pt_clust_4="42.17290" pt_clust_5="42.17290" pt_clust_6="79.67699"></scales>
<clustering>
<clus scale="   42.173">  4  5 -1 -1</clus>
<clus scale="   79.677">  2  6  1 -1</clus>
<clus scale="  140.376">  2  3  1 -1</clus>
<clus scale="  149.388">  1  3  2 -1</clus>
</clustering>
</event>
<event>
 6    0  0.2433432E+002  0.1058954E+03  0.7546771E-02  0.1268365E+00
          1   -1    0    0  503    0 -0.00000000000E+00  0.00000000000E+00  0.14832078824E+03  0.14832078824E+03  0.00000000000E+00 0. -1.
         21   -1    0    0  504  502  0.00000000000E+00 -0.00000000000E+00 -0.39154123701E+03  0.39154123701E+03  0.00000000000E+00 0. -1.
         21    1    1    2  503  505  0.57389943168E+02 -0.93246014811E+02 -0.11160603962E+03  0.15634683539E+03  0.00000000000E+00 0. -1.
         21    1    1    2  504  501 -0.92329103206E+02  0.57430472178E+02 -0.81635343779E+02  0.13596783365E+03  0.00000000000E+00 0. -1.
         21    1    1    2  505  502  0.56135666698E+02  0.63962137837E+02 -0.13269470345E+03  0.15763962851E+03  0.00000000000E+00 0. -1.
          1    1    1    2  501    0 -0.21196506661E+02 -0.28146595204E+02  0.82715638093E+02  0.89907727706E+02  0.00000000000E+00 0. -1.
<scales pt_clust_3="14000.00000" pt_clust_4="105.89543" pt_clust_5="78.03656" pt_clust_6="35.23525"></scales>
<clustering>
<clus scale="   35.235">  1  6  2 -1</clus>
<clus scale="   78.037">  2  5  1 -1</clus>
<clus scale="  105.895">  1  4  2 -1</clus>
<clus scale="   78.037">  2  3  1 -1</clus>
</clustering>
</event>
<event>
 6    0  0.2433432E+002  0.1536568E+03  0.7546771E-02  0.1196050E+00
          1   -1    0    0  504    0 -0.00000000000E+00  0.00000000000E+00  0.86722621028E+03  0.86722621028E+03  0.00000000000E+00 0. -1.
         21   -1    0    0  503  502  0.00000000000E+00 -0.00000000000E+00 -0.23322704934E+03  0.23322704934E+03  0.00000000000E+00 0. -1.
         21    1    1    2  503  505 -0.59290857774E+02 -0.13026271931E+03  0.33617654012E+02  0.14701676271E+03  0.00000000000E+00 0. -1.
         21    1    1    2  504  502  0.33520737260E+02  0.34593782385E+02 -0.15859565942E+03  0.16574966906E+03  0.00000000000E+00 0. -1.
         21    1    1    2  505  501  0.55013809997E+01 -0.38520015782E+02  0.39220568859E+02  0.55247713350E+02  0.00000000000E+00 0. -1.
          1    1    1    2  501    0  0.20268739514E+02  0.13418895270E+03  0.71975659748E+03  0.73243911450E+03  0.00000000000E+00 0. -1.
<scales pt_clust_3="33.89030" pt_clust_4="48.17021" pt_clust_5="33.89030" pt_clust_6="139.23297"></scales>
<clustering>
<clus scale="   33.890">  3  5 -1 -1</clus>
<clus scale="   48.170">  2  4  1 -1</clus>
<clus scale="  139.233">  1  6  2 -1</clus>
<clus scale="   48.170">  2  3  1 -1</clus>
</clustering>
</event>
<event>
 6    0  0.2433432E+002  0.1760617E+03  0.7546771E-02  0.1171670E+00
          2   -1    0    0  505    0 -0.00000000000E+00  0.00000000000E+00  0.28240944028E+04  0.28240944028E+04  0.00000000000E+00 0.  1.
         21   -1    0    0  504  502  0.00000000000E+00 -0.00000000000E+00 -0.12955596501E+03  0.12955596501E+03  0.00000000000E+00 0.  1.
         21    1    1    2  503  502  0.60250511967E+01 -0.44192113280E+02  0.56235160808E+02  0.71774908075E+02  0.00000000000E+00 0.  1.
         21    1    1    2  504  501  0.14317508081E+03  0.67002140219E+02  0.50935392984E+02  0.16608071778E+03  0.00000000000E+00 0.  1.
         21    1    1    2  505  503 -0.20404789584E+03 -0.30611069975E+02  0.10264256322E+03  0.23045189777E+03  0.00000000000E+00 0.  1.
          2    1    1    2  501    0  0.54847763831E+02  0.78010430359E+01  0.24847253208E+04  0.24853428442E+04  0.00000000000E+00 0.  1.
<scales pt_clust_3="44.60094" pt_clust_4="14000.00000" pt_clust_5="176.06165" pt_clust_6="55.39922"></scales>
<clustering>
<clus scale="   44.601">  2  3  1 -1</clus>
<clus scale="   55.399">  1  6  2 -1</clus>
<clus scale="  176.062">  1  5  2 -1</clus>
<clus scale="   44.601">  2  3  1 -1</clus>
</clustering>
</event>
<event>
 6    0  0.2433432E+002  0.1105240E+03  0.7546771E-02  0.1259603E+00
         -2   -1    0    0    0  501 -0.00000000000E+00  0.00000000000E+00  0.14530324574E+03  0.14530324574E+03  0.00000000000E+00 0. -1.
         21   -1    0    0  503  502  0.00000000000E+00 -0.00000000000E+00 -0.55063886827E+03  0.55063886827E+03  0.00000000000E+00 0. -1.
         21    1    1    2  503  501  0.13205730867E+02  0.67943299269E+02 -0.77474648489E+02  0.10388938541E+03  0.00000000000E+00 0. -1.
         21    1    1    2  504  505  0.54164418942E+01 -0.13343409111E+03 -0.35628670343E+03  0.38049206241E+03  0.00000000000E+00 0. -1.
         21    1    1    2  505  502 -0.27226564300E+02 -0.21769568656E+02 -0.70938089619E+02  0.79040574908E+02  0.00000000000E+00 0. -1.
         -2    1    1    2    0  504  0.86043915391E+01  0.87260360492E+02  0.99363819009E+02  0.13252009129E+03  0.00000000000E+00 0. -1.
<scales pt_clust_3="69.21476" pt_clust_4="32.65616" pt_clust_5="32.65616" pt_clust_6="90.16761"></scales>
<clustering>
<clus scale="   32.656">  4  5 -1 -1</clus>
<clus scale="   69.215">  2  3  1 -1</clus>
<clus scale="   90.168">  1  6  2 -1</clus>
<clus scale="   69.215">  2  3  1 -1</clus>
</clustering>
</event>
<event>
 6    0  0.2433432E+002  0.2186744E+03  0.7546771E-02  0.1134875E+00
          2   -1    0    0  502    0 -0.00000000000E+00  0.00000000000E+00  0.21212612806E+04  0.21212612806E+04  0.00000000000E+00 0.  1.
         21   -1    0    0  503  502  0.00000000000E+00 -0.00000000000E+00 -0.66176257293E+03  0.66176257293E+03  0.00000000000E+00 0.  1.
         21    1    1    2  503  504 -0.65583738649E+02  0.68792341444E+02 -0.85301414907E+02  0.12771039269E+03  0.00000000000E+00 0.  1.
         21    1    1    2  504  505 -0.13506538373E+03  0.48189631528E+02 -0.50687483439E+03  0.52677034484E+03  0.00000000000E+00 0.  1.
         21    1    1    2  505  501  0.13903820153E+03 -0.13559432340E+03  0.21111070348E+03  0.28685391952E+03  0.00000000000E+00 0.  1.
          2    1    1    2  501    0  0.61610920852E+02  0.18612350428E+02  0.18405642535E+04  0.18416891964E+04  0.00000000000E+00 0.  1.
<scales pt_clust_3="92.94876" pt_clust_4="218.67441" pt_clust_5="14000.00000" pt_clust_6="64.36090"></scales>
<clustering>
<clus scale="   64.361">  1  6  2 -1</clus>
<clus scale="   92.949">  2  3  1 -1</clus>
<clus scale="  218.674">  2  4  1 -1</clus>
<clus scale="   92.949">  2  3  1 -1</clus>
</clustering>
</event>
<event>
 6    0  0.2433432E+002  0.1042373E+03  0.7546771E-02  0.1271630E+00
          1   -1    0    0  505    0 -0.00000000000E+00  0.00000000000E+00  0.30434804965E+03  0.30434804965E+03  0.00000000000E+00 0.  1.
         21   -1    0    0  504  502  0.00000000000E+00 -0.00000000000E+00 -0.19488080916E+03  0.19488080916E+03  0.00000000000E+00 0. -1.
         21    1    1    2  503  502 -0.18207582096E+02  0.51364416390E+02 -0.96274167913E+02  0.11062791114E+03  0.00000000000E+00 0. -1.
         21    1    1    2  504  501  0.55297649006E+02 -0.14832671770E+03  0.17219773864E+02  0.15923305493E+03  0.00000000000E+00 0. -1.
         21    1    1    2  505  503 -0.85400261718E+01  0.43073071564E+02  0.16590182423E+02  0.46940980963E+02  0.00000000000E+00 0. -1.
          1    1    1    2  501    0 -0.28550040738E+02  0.53889229751E+02  0.17193145212E+03  0.18242691177E+03  0.00000000000E+00 0.  1.
<scales pt_clust_3="55.64033" pt_clust_4="14000.00000" pt_clust_5="43.91152" pt_clust_6="104.23726"></scales>
<clustering>
<clus scale="   43.912">  1  5  2 -1</clus>
<clus scale="   55.640">  2  3  1 -1</clus>
<clus scale="  104.237">  1  6  2 -1</clus>
<clus scale="   55.640">  2  3  1 -1</clus>
</clustering>
</event>
<event>
 6    0  0.2433432E+002  0.1374555E+03  0.7546771E-02  0.1216794E+00
         21   -1    0    0  504  502  0.00000000000E+00  0.00000000000E+00  0.43982586838E+03  0.43982586838E+03  0.00000000000E+00 0.  1.
         -1   -1    0    0    0  501 -0.00000000000E+00 -0.00000000000E+00 -0.53412898047E+03  0.53412898047E+03  0.00000000000E+00 0.  1.
         21    1    1    2  503  505 -0.82385108582E+02  0.37043834486E+02  0.18880387412E+03  0.20929991561E+03  0.00000000000E+00 0.  1.
         21    1    1    2  504  501  0.85705484835E+02  0.27677956203E+02 -0.13992864150E+02  0.91144388952E+02  0.00000000000E+00 0. -1.
         21    1    1    2  505  502 -0.55361310654E+02 -0.43775135120E+01  0.19492390148E+03  0.20268044975E+03  0.00000000000E+00 0.  1.
         -1    1    1    2    0  503  0.52040934401E+02 -0.60344277177E+02 -0.46403802354E+03  0.47083009455E+03  0.00000000000E+00 0.  1.
<scales pt_clust_3="38.72819" pt_clust_4="128.27458" pt_clust_5="38.72819" pt_clust_6="79.68495"></scales>
<clustering>
<clus scale="   38.728">  3  5 -1 -1</clus>
<clus scale="   79.685">  2  6  1 -1</clus>
<clus scale="  128.275">  2  4  1 -1</clus>
<clus scale="  137.456">  1  3  2 -1</clus>
</clustering>
</event>
<event>
 6    0  0.2433432E+002  0.6943093E+02  0.7546771E-02  0.1362039E+00
         21   -1    0    0  504  502  0.00000000000E+00  0.00000000000E+00  0.58012293279E+03  0.58012293279E+03  0.00000000000E+00 0. -1.
         -1   -1    0    0    0  501 -0.00000000000E+00 -0.00000000000E+00 -0.57410907357E+02  0.57410907357E+02  0.00000000000E+00 0. -1.
         21    1    1    2  503  501  0.45750229310E+02 -0.21337233052E+02  0.36244902925E+02  0.62145426093E+02  0.00000000000E+00 0. -1.
         21    1    1    2  504  503 -0.76050583028E+02 -0.40312920458E+01  0.94487317182E+02  0.12135812953E+03  0.00000000000E+00 0.  1.
         21    1    1    2  505  502  0.69459082384E+01 -0.55029959077E+02  0.36025387902E+03  0.36449883317E+03  0.00000000000E+00 0. -1.
         -1    1    1    2    0  505  0.23354445480E+02  0.80398484175E+02  0.31725926308E+02  0.89531451353E+02  0.00000000000E+00 0. -1.
<scales pt_clust_3="50.48129" pt_clust_4="14000.00000" pt_clust_5="56.78730" pt_clust_6="69.43093"></scales>
<clustering>
<clus scale="   50.481">  2  3  1 -1</clus>
<clus scale="   56.787">  1  5  2 -1</clus>
<clus scale="   69.431">  2  6  1 -1</clus>
<clus scale="   56.787">  1  3  2 -1</clus>
</clustering>
</event>
<event>
 6    0  0.2433432E+002  0.1564441E+03  0.7546771E-02  0.1192771E+00
         -3   -1    0    0    0  501 -0.00000000000E+00  0.00000000000E+00  0.24435001616E+02  0.24435001616E+02  0.00000000000E+00 0. -1.
         21   -1    0    0  504  502  0.00000000000E+00 -0.00000000000E+00 -0.18263760854E+04  0.18263760854E+04  0.00000000000E+00 0. -1.
         21    1    1    2  503  501  0.42268530542E+02 -0.41332291998E+01 -0.51952013414E+02  0.67102339420E+02  0.00000000000E+00 0.  1.
         21    1    1    2  504  505 -0.11938248644E+03 -0.25644646443E+02 -0.82656855732E+03  0.83553899126E+03  0.00000000000E+00 0. -1.
         21    1    1    2  505  503  0.11053676117E+03  0.43509154110E+02 -0.28551102269E+03  0.30923771785E+03  0.00000000000E+00 0. -1.
         -3    1    1    2    0  502 -0.33422805275E+02 -0.13731278468E+02 -0.63790949037E+03  0.63893203850E+03  0.00000000000E+00 0. -1.
<scales pt_clust_3="31.92409" pt_clust_4="147.05153" pt_clust_5="31.92409" pt_clust_6="36.13353"></scales>
<clustering>
<clus scale="   31.924">  3  5 -1 -1</clus>
<clus scale="   36.134">  2  6  1 -1</clus>
<clus scale="  147.052">  2  4  1 -1</clus>
<clus scale="   36.134">  2  3  1 -1</clus>
</clustering>
</event>
<event>
 6    0  0.2433432E+002  0.7814826E+02  0.7546771E-02  0.1334390E+00
         21   -1    0    0  505  502  0.00000000000E+00  0.00000000000E+00  0.35591632078E+03  0.35591632078E+03  0.00000000000E+00 0. -1.
          1   -1    0    0  504    0 -0.00000000000E+00 -0.00000000000E+00 -0.84392434314E+03  0.84392434314E+03  0.00000000000E+00 0.  1.
         21    1    1    2  503  502 -0.34855184394E+02  0.32594231302E+02  0.13849216703E+03  0.14648326908E+03  0.00000000000E+00 0. -1.
         21    1    1    2  504  503  0.81036403048E+02 -0.93083733162E+02  0.18839503774E+03  0.22522027050E+03  0.00000000000E+00 0. -1.
         21    1    1    2  505  501 -0.79141088710E+02  0.58090639447E+02 -0.39780461729E+03  0.40973936576E+03  0.00000000000E+00 0.  1.
          1    1    1    2  501    0  0.32959870056E+02  0.23988624119E+01 -0.41709060983E+03  0.41839775858E+03  0.00000000000E+00 0.  1.
<scales pt_clust_3="47.51093" pt_clust_4="14000.00000" pt_clust_5="78.14826" pt_clust_6="33.04705"></scales>
<clustering>
<clus scale="   33.047">  2  6  1 -1</clus>
<clus scale="   47.511">  1  3  2 -1</clus>
<clus scale="   78.148">  2  5  1 -1</clus>
<clus scale="   47.511">  1  3  2 -1</clus>
</clustering>
</event>
<event>
 6    0  0.2433432E+002  0.2902525E+03  0.7546771E-02  0.1090217E+00
         21   -1    0    0  505  502  0.00000000000E+00  0.00000000000E+00  0.72526193240E+03  0.72526193240E+03  0.00000000000E+00 0. -1.
          2   -1    0    0  503    0 -0.00000000000E+00 -0.00000000000E+00 -0.17526873349E+04  0.17526873349E+04  0.00000000000E+00 0.  1.
         21    1    1    2  503  504  0.43389193861E+02 -0.79396750298E+02  0.12710762136E+03  0.15602183664E+03  0.00000000000E+00 0.  1.
         21    1    1    2  504  502  0.67976719922E+01 -0.15692178693E+03  0.76155277144E+02  0.17455738825E+03  0.00000000000E+00 0. -1.
         21    1    1    2  505  501 -0.42161976948E+02  0.29446866686E+03  0.40949429548E+03  0.50613733916E+03  0.00000000000E+00 0. -1.
          2    1    1    2  501    0 -0.80248889057E+01 -0.58150129634E+02 -0.16401825965E+04  0.16412327032E+04  0.00000000000E+00 0.  1.
<scales pt_clust_3="71.31787" pt_clust_4="71.31787" pt_clust_5="273.21218" pt_clust_6="58.70125"></scales>
<clustering>
<clus scale="   58.701">  2  6  1 -1</clus>
<clus scale="   71.318">  3  4 -1 -1</clus>
<clus scale="  273.212">  1  5  2 -1</clus>
<clus scale="  273.212">  1  3  2 -1</clus>
</clustering>
</event>
<event>
 6    0  0.2625147E+002  0.1348846E+03  0.7546771E-02  0.1220383E+00
         -1   -1    0    0    0  501 -0.00000000000E+00  0.00000000000E+00  0.12182514410E+04  0.12182514410E+04  0.00000000000E+00 0. -1.
         21   -1    0    0  503  502  0.00000000000E+00 -0.00000000000E+00 -0.10519124027E+04  0.10519124027E+04  0.00000000000E+00 0.  1.
         21    1    1    2  503  504 -0.58354090659E+02 -0.30917905007E+02 -0.72783432405E+03  0.73082413754E+03  0.00000000000E+00 0.  1.
         21    1    1    2  504  501 -0.63162594507E+02 -0.81306638822E+02 -0.25301706625E+03  0.27316280617E+03  0.00000000000E+00 0.  1.
         21    1    1    2  505  502  0.55418794075E+02 -0.59084785289E+01 -0.41699030944E+02  0.69605761521E+02  0.00000000000E+00 0.  1.
         -1    1    1    2    0  505  0.66097891091E+02  0.11813302236E+03  0.11888894596E+04  0.11965711384E+04  0.00000000000E+00 0. -1.
<scales pt_clust_3="39.47600" pt_clust_4="134.88457" pt_clust_5="55.73287" pt_clust_6="14000.00000"></scales>
<clustering>
<clus scale="   55.733">  2  5  1 -1</clus>
<clus scale="   39.476">  2  3  1 -1</clus>
<clus scale="  134.885">  2  4  1 -1</clus>
<clus scale="   55.733">  2  3  1 -1</clus>
</clustering>
</event>
<event>
 6    0  0.2433432E+002  0.1004712E+03  0.7546771E-02  0.1279308E+00
          1   -1    0    0  504    0 -0.00000000000E+00  0.00000000000E+00  0.32957462068E+03  0.32957462068E+03  0.00000000000E+00 0.  1.
         21   -1    0    0  503  502  0.00000000000E+00 -0.00000000000E+00 -0.71249812569E+03  0.71249812569E+03  0.00000000000E+00 0.  1.
         21    1    1    2  503  501  0.15051072907E+02  0.14820253939E+03 -0.36779311565E+03  0.39681520057E+03  0.00000000000E+00 0.  1.
         21    1    1    2  504  505  0.48965854708E+02 -0.38605525772E+02 -0.39469693661E+01  0.62478957374E+02  0.00000000000E+00 0.  1.
         21    1    1    2  505  502 -0.28991857043E+02 -0.51125522732E+02 -0.28992620854E+03  0.29582351706E+03  0.00000000000E+00 0.  1.
          1    1    1    2  501    0 -0.35025070572E+02 -0.58471490889E+02  0.27874278855E+03  0.28695507137E+03  0.00000000000E+00 0.  1.
<scales pt_clust_3="100.47119" pt_clust_4="63.22498" pt_clust_5="58.77369" pt_clust_6="14000.00000"></scales>
<clustering>
<clus scale="   58.774">  2  5  1 -1</clus>
<clus scale="   63.225">  1  4  2 -1</clus>
<clus scale="  100.471">  2  3  1 -1</clus>
<clus scale="   58.774">  2  3  1 -1</clus>
</clustering>
</event>
<event>
 6    0  0.2433432E+002  0.1511385E+03  0.7546771E-02  0.1199081E+00
          2   -1    0    0  503    0 -0.00000000000E+00  0.00000000000E+00  0.22135909223E+04  0.22135909223E+04  0.00000000000E+00 0.  1.
         21   -1    0    0  505  502  0.00000000000E+00 -0.00000000000E+00 -0.47020368740E+02  0.47020368740E+02  0.00000000000E+00 0.  1.
         21    1    1    2  503  504  0.77363222349E+02  0.14229187327E+03  0.90503532318E+03  0.91941338993E+03  0.00000000000E+00 0.  1.
         21    1    1    2  504  502 -0.67714566410E+02  0.49620911480E+02  0.26968080794E+02  0.88174683113E+02  0.00000000000E+00 0.  1.
         21    1    1    2  505  501  0.34131406384E+01 -0.43406234016E+02  0.10512863252E+03  0.11378831247E+03  0.00000000000E+00 0.  1.
          2    1    1    2  501    0 -0.13061796577E+02 -0.14850655073E+03  0.11294385171E+04  0.11392349055E+04  0.00000000000E+00 0.  1.
<scales pt_clust_3="14000.00000" pt_clust_4="67.84029" pt_clust_5="43.54022" pt_clust_6="151.13848"></scales>
<clustering>
<clus scale="   43.540">  2  5  1 -1</clus>
<clus scale="   67.840">  2  4  1 -1</clus>
<clus scale="  151.138">  1  6  2 -1</clus>
<clus scale="   43.540">  2  3  1 -1</clus>
</clustering>
</event>
<event>
 6    0  0.2433432E+002  0.1259331E+03  0.7546771E-02  0.1233618E+00
          1   -1    0    0  503    0 -0.00000000000E+00  0.00000000000E+00  0.10364401636E+04  0.10364401636E+04  0.00000000000E+00 0. -1.
         21   -1    0    0  501  502  0.00000000000E+00 -0.00000000000E+00 -0.54099715069E+02  0.54099715069E+02  0.00000000000E+00 0.  1.
         21    1    1    2  503  505  0.10673410117E+02  0.10881157121E+03  0.34972586757E+03  0.36641787915E+03  0.00000000000E+00 0. -1.
         21    1    1    2  504  502 -0.29783832192E+02 -0.30411105417E+02  0.16083802659E+02  0.45503853690E+02  0.00000000000E+00 0.  1.
         21    1    1    2  505  504  0.21449434638E+02 -0.11590285902E+03  0.83943050816E+02  0.14470655395E+03  0.00000000000E+00 0. -1.
          1    1    1    2  501    0 -0.23390125632E+01  0.37502393223E+02  0.53258772745E+03  0.53391159185E+03  0.00000000000E+00 0. -1.
<scales pt_clust_3="14000.00000" pt_clust_4="41.06260" pt_clust_5="125.93311" pt_clust_6="37.57526"></scales>
<clustering>
<clus scale="   37.575">  1  6  2 -1</clus>
<clus scale="   41.063">  2  4  1 -1</clus>
<clus scale="  125.933">  2  5  1 -1</clus>
<clus scale="   41.063">  2  3  1 -1</clus>
</clustering>
</event>
<event>
 6    0  0.2433432E+002  0.1699792E+03  0.7546771E-02  0.1177870E+00
         21   -1    0    0  501  502  0.00000000000E+00  0.00000000000E+00  0.34819484338E+02  0.34819484338E+02  0.00000000000E+00 0.  1.
          2   -1    0    0  504    0 -0.00000000000E+00 -0.00000000000E+00 -0.19949125549E+04  0.19949125549E+04  0.00000000000E+00 0.  1.
         21    1    1    2  503  502 -0.31315709188E+02 -0.54835752249E+02 -0.13455678351E+03  0.14863768485E+03  0.00000000000E+00 0.  1.
         21    1    1    2  504  505  0.52099205401E+02  0.62277897444E+02 -0.34214248536E+03  0.35164519619E+03  0.00000000000E+00 0.  1.
         21    1    1    2  505  503 -0.10886093388E+03 -0.30509624839E+02 -0.12711173021E+03  0.17011446761E+03  0.00000000000E+00 0.  1.
          2    1    1    2  501    0  0.88077437666E+02  0.23067479644E+02 -0.13562820715E+04  0.13593346906E+04  0.00000000000E+00 0.  1.
<scales pt_clust_3="58.84381" pt_clust_4="81.19645" pt_clust_5="58.84381" pt_clust_6="150.64435"></scales>
<clustering>
<clus scale="   58.844">  3  5 -1 -1</clus>
<clus scale="   81.196">  2  4  1 -1</clus>
<clus scale="  150.644">  2  6  1 -1</clus>
<clus scale="  169.979">  1  3  2 -1</clus>
</clustering>
</event>
<event>
 6    0  0.2433432E+002  0.1328384E+03  0.7546771E-02  0.1223304E+00
          2   -1    0    0  503    0 -0.00000000000E+00  0.00000000000E+00  0.11812722017E+04  0.11812722017E+04  0.00000000000E+00 0. -1.
         21   -1    0    0  504  502  0.00000000000E+00 -0.00000000000E+00 -0.76654576792E+02  0.76654576792E+02  0.00000000000E+00 0. -1.
         21    1    1    2  503  502  0.12304810558E+03  0.98156943160E+02  0.72075102310E+02  0.17311973356E+03  0.00000000000E+00 0. -1.
         21    1    1    2  504  505 -0.51391780740E+02  0.22349101352E+02  0.19407359572E+02  0.59306349276E+02  0.00000000000E+00 0. -1.
         21    1    1    2  505  501 -0.67027764786E+02 -0.77368847311E+02  0.49049250321E+03  0.50106043097E+03  0.00000000000E+00 0. -1.
          2    1    1    2  501    0 -0.46285600505E+01 -0.43137197201E+02  0.52264265983E+03  0.52444026468E+03  0.00000000000E+00 0. -1.
<scales pt_clust_3="132.83841" pt_clust_4="55.32114" pt_clust_5="14000.00000" pt_clust_6="43.38481"></scales>
<clustering>
<clus scale="   43.385">  1  6  2 -1</clus>
<clus scale="   55.321">  2  4  1 -1</clus>
<clus scale="  132.838">  2  3  1 -1</clus>
<clus scale="   55.321">  2  3  1 -1</clus>
</clustering>
</event>
<event>
 6    0  0.2433432E+002  0.1490897E+03  0.7546771E-02  0.1201596E+00
         21   -1    0    0  503  502  0.00000000000E+00  0.00000000000E+00  0.59794255133E+03  0.59794255133E+03  0.00000000000E+00 0. -1.
          1   -1    0    0  505    0 -0.00000000000E+00 -0.00000000000E+00 -0.56879058468E+02  0.56879058468E+02  0.00000000000E+00 0. -1.
         21    1    1    2  503  501 -0.19682328208E+02 -0.48740594837E+02  0.20948196330E+03  0.21597623151E+03  0.00000000000E+00 0. -1.
         21    1    1    2  504  502  0.66232051476E+01  0.10427399828E+03  0.12944402504E+03  0.16635110214E+03  0.00000000000E+00 0. -1.
         21    1    1    2  505  504 -0.34682382347E+02  0.48792977513E+02  0.33708842867E+02  0.68701589409E+02  0.00000000000E+00 0. -1.
          1    1    1    2  501    0  0.47741505407E+02 -0.10432638096E+03  0.16842866166E+03  0.20379268675E+03  0.00000000000E+00 0. -1.
<scales pt_clust_3="52.56462" pt_clust_4="50.28936" pt_clust_5="50.28936" pt_clust_6="133.46780"></scales>
<clustering>
<clus scale="   50.289">  4  5 -1 -1</clus>
<clus scale="   52.565">  1  3  2 -1</clus>
<clus scale="  133.468">  1  6  2 -1</clus>
<clus scale="   52.565">  1  3  2 -1</clus>
</clustering>
</event>
<event>
 6    0  0.2433432E+002  0.1250579E+03  0.7546771E-02  0.1234979E+00
         21   -1    0    0  505  502  0.00000000000E+00  0.00000000000E+00  0.10979794400E+03  0.10979794400E+03  0.00000000000E+00 0.  1.
          2   -1    0    0  503    0 -0.00000000000E+00 -0.00000000000E+00 -0.10568189358E+04  0.10568189358E+04  0.00000000000E+00 0.  1.
         21    1    1    2  503  504  0.88552885185E+02  0.51589851985E+01 -0.63291396062E+02  0.10896802016E+03  0.00000000000E+00 0.  1.
         21    1    1    2  504  502 -0.25403027390E+02 -0.63263752873E+02  0.12489863422E+02  0.69308101377E+02  0.00000000000E+00 0.  1.
         21    1    1    2  505  501  0.34208920030E+02 -0.42226457151E+02  0.22665334820E+02  0.58881587068E+02  0.00000000000E+00 0.  1.
          2    1    1    2  501    0 -0.97358777825E+02  0.10033122483E+03 -0.91888479397E+03  0.92945917117E+03  0.00000000000E+00 0.  1.
<scales pt_clust_3="14000.00000" pt_clust_4="88.43325" pt_clust_5="54.34449" pt_clust_6="125.05792"></scales>
<clustering>
<clus scale="   54.344">  1  5  2 -1</clus>
<clus scale="   88.433">  1  4  2 -1</clus>
<clus scale="  125.058">  2  6  1 -1</clus>
<clus scale="   54.344">  1  3  2 -1</clus>
</clustering>
</event>
<event>
 6    0  0.2433432E+002  0.6976798E+02  0.7546771E-02  0.1360884E+00
         21   -1    0    0  503  502  0.00000000000E+00  0.00000000000E+00  0.22897584577E+03  0.22897584577E+03  0.00000000000E+00 0.  1.
          1   -1    0    0  504    0 -0.00000000000E+00 -0.00000000000E+00 -0.10347920714E+04  0.10347920714E+04  0.00000000000E+00 0.  1.
         21    1    1    2  503  505 -0.46299856446E+02 -0.11387019691E+02  0.67301501346E+02  0.82479288356E+02  0.00000000000E+00 0.  1.
         21    1    1    2  504  502  0.92679818262E+02  0.22523199198E+02  0.93438266328E+02  0.13351985931E+03  0.00000000000E+00 0. -1.
         21    1    1    2  505  501  0.50634444741E+01 -0.59448152562E+02  0.16721197396E+02  0.61962244596E+02  0.00000000000E+00 0.  1.
          1    1    1    2  501    0 -0.51443406290E+02  0.48311973055E+02 -0.98327719071E+03  0.98580652492E+03  0.00000000000E+00 0.  1.
<scales pt_clust_3="47.67957" pt_clust_4="60.26309" pt_clust_5="69.76798" pt_clust_6="14000.00000"></scales>
<clustering>
<clus scale="   47.680">  1  3  2 -1</clus>
<clus scale="   60.263">  1  4  2 -1</clus>
<clus scale="   69.768">  1  5  2 -1</clus>
<clus scale="   47.680">  1  3  2 -1</clus>
</clustering>
</event>
<event>
 6    0  0.2433432E+002  0.7251858E+02  0.7546771E-02  0.1351732E+00
         21   -1    0    0  503  502  0.00000000000E+00  0.00000000000E+00  0.13300038193E+04  0.13300038193E+04  0.00000000000E+00 0. -1.
         -1   -1    0    0    0  501 -0.00000000000E+00 -0.00000000000E+00 -0.16454582587E+02  0.16454582587E+02  0.00000000000E+00 0.  1.
         21    1    1    2  503  504 -0.30365953465E+02  0.11476934432E+02  0.24105986896E+03  0.24323583530E+03  0.00000000000E+00 0.  1.
         21    1    1    2  504  505  0.27297211534E+02 -0.52810291907E+02  0.27553827400E+03  0.28187835165E+03  0.00000000000E+00 0.  1.
         21    1    1    2  505  501  0.73895208387E+02  0.47442598247E+02  0.67095052491E+03  0.67667267481E+03  0.00000000000E+00 0. -1.
         -1    1    1    2    0  502 -0.70826466456E+02 -0.61092407727E+01  0.12600056883E+03  0.14467154011E+03  0.00000000000E+00 0.  1.
<scales pt_clust_3="32.46246" pt_clust_4="53.55314" pt_clust_5="72.51858" pt_clust_6="14000.00000"></scales>
<clustering>
<clus scale="   32.462">  1  3  2 -1</clus>
<clus scale="   53.553">  1  4  2 -1</clus>
<clus scale="   72.519">  1  5  2 -1</clus>
<clus scale="   32.462">  1  3  2 -1</clus>
</clustering>
</event>
<event>
 6    0  0.2433432E+002  0.8767447E+02  0.7546771E-02  0.1308583E+00
         21   -1    0    0  504  502  0.00000000000E+00  0.00000000000E+00  0.43737515072E+03  0.43737515072E+03  0.00000000000E+00 0.  1.
         -1   -1    0    0    0  501 -0.00000000000E+00 -0.00000000000E+00 -0.99486369326E+02  0.99486369326E+02  0.00000000000E+00 0.  1.
         21    1    1    2  503  502  0.55868106266E-01  0.43839581806E+02  0.26148429850E+03  0.26513383491E+03  0.00000000000E+00 0.  1.
         21    1    1    2  504  505 -0.55816877152E+02 -0.90207386742E+02  0.79821637805E+02  0.13275688404E+03  0.00000000000E+00 0.  1.
         21    1    1    2  505  501 -0.32483141127E+02  0.38728330558E+01  0.19899856330E+02  0.38290437127E+02  0.00000000000E+00 0.  1.
         -1    1    1    2    0  503  0.88244150174E+02  0.42494971880E+02 -0.23317011242E+02  0.10068036397E+03  0.00000000000E+00 0.  1.
<scales pt_clust_3="43.92196" pt_clust_4="87.67447" pt_clust_5="32.71320" pt_clust_6="14000.00000"></scales>
<clustering>
<clus scale="   32.713">  2  5  1 -1</clus>
<clus scale="   43.922">  1  3  2 -1</clus>
<clus scale="   87.674">  1  4  2 -1</clus>
<clus scale="   43.922">  1  3  2 -1</clus>
</clustering>
</event>
<event>
 6    0  0.2433432E+002  0.2366379E+03  0.7546771E-02  0.1122053E+00
          1   -1    0    0  504    0 -0.00000000000E+00  0.00000000000E+00  0.10765674446E+04  0.10765674446E+04  0.00000000000E+00 0.  1.
         21   -1    0    0  501  502  0.00000000000E+00 -0.00000000000E+00 -0.82923194699E+03  0.82923194699E+03  0.00000000000E+00 0. -1.
         21    1    1    2  503  505  0.31842751668E+01 -0.12849896863E+03  0.24809862026E+03  0.27941912948E+03  0.00000000000E+00 0. -1.
         21    1    1    2  504  503 -0.51242298829E+02 -0.15044975539E+03  0.21676889352E+03  0.26879295988E+03  0.00000000000E+00 0. -1.
         21    1    1    2  505  502  0.33602427863E+01  0.22564018165E+03 -0.76916462137E+03  0.80158530275E+03  0.00000000000E+00 0. -1.
          1    1    1    2  501    0  0.44697780876E+02  0.53308542369E+02  0.55163260520E+03  0.55600199948E+03  0.00000000000E+00 0.  1.
<scales pt_clust_3="59.05819" pt_clust_4="59.05819" pt_clust_5="227.34282" pt_clust_6="69.56790"></scales>
<clustering>
<clus scale="   59.058">  3  4 -1 -1</clus>
<clus scale="   69.568">  1  6  2 -1</clus>
<clus scale="  227.343">  2  5  1 -1</clus>
<clus scale="  227.343">  2  3  1 -1</clus>
</clustering>
</event>
<event>
 6    0  0.2433432E+002  0.2352345E+03  0.7546771E-02  0.1123009E+00
         21   -1    0    0  505  502  0.00000000000E+00  0.00000000000E+00  0.42367525856E+03  0.42367525856E+03  0.00000000000E+00 0.  1.
          2   -1    0    0  504    0 -0.00000000000E+00 -0.00000000000E+00 -0.12181049916E+04  0.12181049916E+04  0.00000000000E+00 0. -1.
         21    1    1    2  503  502  0.58082272509E+02  0.80876447569E+02  0.13404104665E+03  0.16697770012E+03  0.00000000000E+00 0.  1.
         21    1    1    2  504  503  0.97937075601E+02  0.51106992616E+02  0.22737700326E+03  0.25279220139E+03  0.00000000000E+00 0.  1.
         21    1    1    2  505  501  0.39316248272E+02 -0.15009640675E+02  0.18613397040E+01  0.42125067085E+02  0.00000000000E+00 0. -1.
          2    1    1    2  501    0 -0.19533559638E+03 -0.11697379951E+03 -0.11577091226E+04  0.11798852816E+04  0.00000000000E+00 0. -1.
<scales pt_clust_3="55.79998" pt_clust_4="55.79998" pt_clust_5="42.08392" pt_clust_6="226.96509"></scales>
<clustering>
<clus scale="   42.084">  1  5  2 -1</clus>
<clus scale="   55.800">  3  4 -1 -1</clus>
<clus scale="  226.965">  2  6  1 -1</clus>
<clus scale="   42.084">  1  3  2 -1</clus>
</clustering>
</event>
<event>
 6    0  0.2433432E+002  0.9876202E+02  0.7546771E-02  0.1282921E+00
         -1   -1    0    0    0  501 -0.00000000000E+00  0.00000000000E+00  0.70888787543E+03  0.70888787543E+03  0.00000000000E+00 0. -1.
         21   -1    0    0  505  502  0.00000000000E+00 -0.00000000000E+00 -0.25353492607E+03  0.25353492607E+03  0.00000000000E+00 0. -1.
         21    1    1    2  503  502  0.25704806927E+02 -0.39783993640E+02 -0.12628535468E+02  0.49020232121E+02  0.00000000000E+00 0.  1.
         21    1    1    2  504  501 -0.18239081167E+02  0.48256828496E+02 -0.48491780469E+02  0.70801400772E+02  0.00000000000E+00 0. -1.
         21    1    1    2  505  504  0.16474038350E+02  0.70318326984E+02 -0.15241626688E+03  0.16866173087E+03  0.00000000000E+00 0. -1.
         -1    1    1    2    0  503 -0.23939764111E+02 -0.78791161840E+02  0.66888953217E+03  0.67393943774E+03  0.00000000000E+00 0. -1.
<scales pt_clust_3="47.36563" pt_clust_4="45.63392" pt_clust_5="45.63392" pt_clust_6="82.69566"></scales>
<clustering>
<clus scale="   45.634">  4  5 -1 -1</clus>
<clus scale="   47.366">  2  3  1 -1</clus>
<clus scale="   82.696">  1  6  2 -1</clus>
<clus scale="   47.366">  2  3  1 -1</clus>
</clustering>
</event>
<event>
 6    0  0.2433432E+002  0.8847931E+02  0.7546771E-02  0.1306577E+00
          2   -1    0    0  503    0 -0.00000000000E+00  0.00000000000E+00  0.63297581497E+03  0.63297581497E+03  0.00000000000E+00 0.  1.
         21   -1    0    0  504  502  0.00000000000E+00 -0.00000000000E+00 -0.93752445718E+02  0.93752445718E+02  0.00000000000E+00 0.  1.
         21    1    1    2  503  505 -0.10567361343E+02  0.51970198097E+02  0.23300216618E+02  0.57926424976E+02  0.00000000000E+00 0.  1.
         21    1    1    2  504  501  0.10108419611E+03 -0.58781136195E+02  0.57854726198E+02  0.13046227814E+03  0.00000000000E+00 0.  1.
         21    1    1    2  505  502 -0.70453570236E+02  0.31678907515E+02 -0.18914542679E+01  0.77271186995E+02  0.00000000000E+00 0.  1.
          2    1    1    2  501    0 -0.20063264528E+02 -0.24867969418E+02  0.45995988070E+03  0.46106837057E+03  0.00000000000E+00 0.  1.
<scales pt_clust_3="48.58342" pt_clust_4="14000.00000" pt_clust_5="88.47931" pt_clust_6="31.95232"></scales>
<clustering>
<clus scale="   31.952">  1  6  2 -1</clus>
<clus scale="   48.583">  1  3  2 -1</clus>
<clus scale="   88.479">  2  5  1 -1</clus>
<clus scale="   88.479">  2  3  1 -1</clus>
</clustering>
</event>
<event>
 6    0  0.2433432E+002  0.7001899E+02  0.7546771E-02  0.1360028E+00
         21   -1    0    0  504  502  0.00000000000E+00  0.00000000000E+00  0.63670600576E+02  0.63670600576E+02  0.00000000000E+00 0. -1.
          2   -1    0    0  505    0 -0.00000000000E+00 -0.00000000000E+00 -0.43002068831E+03  0.43002068831E+03  0.00000000000E+00 0. -1.
         21    1    1    2  503  501  0.25976014791E+02  0.85363627224E+02 -0.88214236520E+02  0.12547292027E+03  0.00000000000E+00 0. -1.
         21    1    1    2  504  503 -0.46477332343E+02 -0.48853903742E+02 -0.10617366372E+02  0.68261078231E+02  0.00000000000E+00 0. -1.
         21    1    1    2  505  502 -0.21760874724E+02  0.22074947859E+02 -0.10109573269E+02  0.32604331973E+02  0.00000000000E+00 0. -1.
          2    1    1    2  501    0  0.42262192277E+02 -0.58584671342E+02 -0.25740891157E+03  0.26735295840E+03  0.00000000000E+00 0. -1.
<scales pt_clust_3="14000.00000" pt_clust_4="69.01842" pt_clust_5="30.99740" pt_clust_6="70.01899"></scales>
<clustering>
<clus scale="   30.997">  1  5  2 -1</clus>
<clus scale="   69.018">  1  4  2 -1</clus>
<clus scale="   70.019">  2  6  1 -1</clus>
<clus scale="   30.997">  1  3  2 -1</clus>
</clustering>
</event>
<event>
 6    0  0.2433432E+002  0.1403692E+03  0.7546771E-02  0.1212833E+00
          2   -1    0    0  504    0 -0.00000000000E+00  0.00000000000E+00  0.27752134650E+04  0.27752134650E+04  0.00000000000E+00 0.  1.
         21   -1    0    0  503  502  0.00000000000E+00 -0.00000000000E+00 -0.15949227739E+03  0.15949227739E+03  0.00000000000E+00 0.  1.
         21    1    1    2  503  505  0.29891621008E+02 -0.27534344470E+01 -0.13249014951E+03  0.13584818778E+03  0.00000000000E+00 0.  1.
         21    1    1    2  504  502 -0.60784023241E+01 -0.15307891037E+03  0.35977331336E+03  0.39103316583E+03  0.00000000000E+00 0.  1.
         21    1    1    2  505  501 -0.37463335196E+02  0.12340299587E+03  0.42651667848E+03  0.44558756479E+03  0.00000000000E+00 0.  1.
          2    1    1    2  501    0  0.13650116511E+02  0.32429348949E+02  0.19619213453E+04  0.19622368240E+04  0.00000000000E+00 0.  1.
<scales pt_clust_3="30.01817" pt_clust_4="140.36916" pt_clust_5="14000.00000" pt_clust_6="35.24194"></scales>
<clustering>
<clus scale="   30.018">  2  3  1 -1</clus>
<clus scale="   35.242">  1  6  2 -1</clus>
<clus scale="  140.369">  2  4  1 -1</clus>
<clus scale="   30.018">  2  3  1 -1</clus>
</clustering>
</event>
<event>
 6    0  0.2433432E+002  0.1539918E+03  0.7546771E-02  0.1195652E+00
         21   -1    0    0  505  502  0.00000000000E+00  0.00000000000E+00  0.31682818867E+03  0.31682818867E+03  0.00000000000E+00 0.  1.
          1   -1    0    0  504    0 -0.00000000000E+00 -0.00000000000E+00 -0.83398760904E+03  0.83398760904E+03  0.00000000000E+00 0.  1.
         21    1    1    2  503  502 -0.12316702724E+03 -0.27628481329E+02  0.66746434091E+02  0.14278843106E+03  0.00000000000E+00 0.  1.
         21    1    1    2  504  503 -0.48583598353E+02  0.20770068695E+02  0.62911907646E+01  0.53210345458E+02  0.00000000000E+00 0. -1.
         21    1    1    2  505  501  0.36019553397E+02  0.45025296908E+02  0.17110995384E+03  0.18056384436E+03  0.00000000000E+00 0.  1.
          1    1    1    2  501    0  0.13573107220E+03 -0.38166884273E+02 -0.76130699906E+03  0.77425317683E+03  0.00000000000E+00 0.  1.
<scales pt_clust_3="38.47074" pt_clust_4="38.47074" pt_clust_5="57.66009" pt_clust_6="142.04846"></scales>
<clustering>
<clus scale="   38.471">  3  4 -1 -1</clus>
<clus scale="   57.660">  1  5  2 -1</clus>
<clus scale="  142.048">  2  6  1 -1</clus>
<clus scale="   57.660">  1  3  2 -1</clus>
</clustering>
</event>
<event>
 6    0  0.2433432E+002  0.1975094E+03  0.7546771E-02  0.1151858E+00
          1   -1    0    0  503    0 -0.00000000000E+00  0.00000000000E+00  0.19120904853E+04  0.19120904853E+04  0.00000000000E+00 0.  1.
         21   -1    0    0  501  502  0.00000000000E+00 -0.00000000000E+00 -0.39512990680E+02  0.39512990680E+02  0.00000000000E+00 0.  1.
         21    1    1    2  503  504 -0.98126215558E+02  0.25164502441E+02  0.78774592488E+03  0.79423274204E+03  0.00000000000E+00 0.  1.
         21    1    1    2  504  505 -0.89678253353E+02  0.34894455006E+02  0.37533815673E+03  0.38747715289E+03  0.00000000000E+00 0.  1.
         21    1    1    2  505  502  0.33231285644E+02  0.16658843007E+02 -0.25283823968E+01  0.37258933338E+02  0.00000000000E+00 0.  1.
          1    1    1    2  501    0  0.15457318327E+03 -0.76717800454E+02  0.71202179537E+03  0.73263464768E+03  0.00000000000E+00 0.  1.
<scales pt_clust_3="66.39525" pt_clust_4="66.39525" pt_clust_5="37.17305" pt_clust_6="184.96989"></scales>
<clustering>
<clus scale="   37.173">  2  5  1 -1</clus>
<clus scale="   66.395">  3  4 -1 -1</clus>
<clus scale="  184.970">  2  6  1 -1</clus>
<clus scale="   37.173">  2  3  1 -1</clus>
</clustering>
</event>
<event>
 6    0  0.2433432E+002  0.1324545E+03  0.7546771E-02  0.1223858E+00
          3   -1    0    0  504    0 -0.00000000000E+00  0.00000000000E+00  0.30887454788E+04  0.30887454788E+04  0.00000000000E+00 0. -1.
         21   -1    0    0  501  502  0.00000000000E+00 -0.00000000000E+00 -0.51130109897E+03  0.51130109897E+03  0.00000000000E+00 0.  1.
         21    1    1    2  503  505 -0.81693348467E+02  0.46846446955E+02 -0.19132309729E+01  0.94191577271E+02  0.00000000000E+00 0.  1.
         21    1    1    2  504  503 -0.54774686333E+02  0.12194226307E+02 -0.29028491652E+02  0.63179258825E+02  0.00000000000E+00 0.  1.
         21    1    1    2  505  502  0.12640890903E+02 -0.37893371735E+02 -0.41488115003E+03  0.41679979414E+03  0.00000000000E+00 0.  1.
          3    1    1    2  501    0  0.12382714390E+03 -0.21147301527E+02  0.30232672524E+04  0.30258759475E+04  0.00000000000E+00 0. -1.
<scales pt_clust_3="31.81706" pt_clust_4="31.81706" pt_clust_5="39.94621" pt_clust_6="125.87828"></scales>
<clustering>
<clus scale="   31.817">  3  4 -1 -1</clus>
<clus scale="   39.946">  2  5  1 -1</clus>
<clus scale="  125.878">  1  6  2 -1</clus>
<clus scale="   39.946">  2  3  1 -1</clus>
</clustering>
</event>
<event>
 6    0  0.2433432E+002  0.6806309E+02  0.7546771E-02  0.1366806E+00
         21   -1    0    0  501  502  0.00000000000E+00  0.00000000000E+00  0.42484280310E+02  0.42484280310E+02  0.00000000000E+00 0.  1.
          2   -1    0    0  504    0 -0.00000000000E+00 -0.00000000000E+00 -0.23238712544E+04  0.23238712544E+04  0.00000000000E+00 0. -1.
         21    1    1    2  503  505 -0.97220466705E+02 -0.14323878347E+02 -0.13394824275E+03  0.16612984191E+03  0.00000000000E+00 0.  1.
         21    1    1    2  504  503  0.28796125099E+01  0.64449801049E+02 -0.53779644603E+03  0.54165218211E+03  0.00000000000E+00 0.  1.
         21    1    1    2  505  502  0.36097093479E+02 -0.69351757959E+01  0.93744345388E+01  0.37933848261E+02  0.00000000000E+00 0.  1.
          2    1    1    2  501    0  0.58243760716E+02 -0.43190746906E+02 -0.16190167198E+04  0.16206396624E+04  0.00000000000E+00 0. -1.
<scales pt_clust_3="68.06309" pt_clust_4="64.07802" pt_clust_5="36.75727" pt_clust_6="14000.00000"></scales>
<clustering>
<clus scale="   36.757">  1  5  2 -1</clus>
<clus scale="   64.078">  2  4  1 -1</clus>
<clus scale="   68.063">  1  3  2 -1</clus>
<clus scale="   36.757">  1  3  2 -1</clus>
</clustering>
</event>
<event>
 6    0  0.4530984E+002  0.1003593E+03  0.7546771E-02  0.1279542E+00
          2   -1    0    0  503    0 -0.00000000000E+00  0.00000000000E+00  0.16912301159E+04  0.16912301159E+04  0.00000000000E+00 0. -1.
         21   -1    0    0  504  502  0.00000000000E+00 -0.00000000000E+00 -0.72551259791E+03  0.72551259791E+03  0.00000000000E+00 0.  1.
         21    1    1    2  503  502 -0.21402336604E+02 -0.91241046135E+02 -0.62736833643E+03  0.63432958158E+03  0.00000000000E+00 0.  1.
         21    1    1    2  504  505  0.59860146965E+02 -0.85204382212E+01 -0.40546319364E+02  0.72799993654E+02  0.00000000000E+00 0. -1.
         21    1    1    2  505  501  0.28934468782E+02  0.96020457283E+02  0.30161787401E+02  0.10472280134E+03  0.00000000000E+00 0.  1.
          2    1    1    2  501    0 -0.67392279142E+02  0.37410270740E+01  0.16034703864E+04  0.16048903373E+04  0.00000000000E+00 0. -1.
<scales pt_clust_3="14000.00000" pt_clust_4="60.46350" pt_clust_5="100.35935" pt_clust_6="67.43209"></scales>
<clustering>
<clus scale="   60.464">  2  4  1 -1</clus>
<clus scale="   67.432">  1  6  2 -1</clus>
<clus scale="  100.359">  1  5  2 -1</clus>
<clus scale="   60.464">  2  3  1 -1</clus>
</clustering>
</event>
<event>
 6    0  0.2433432E+002  0.8452278E+02  0.7546771E-02  0.1316685E+00
         21   -1    0    0  503  502  0.00000000000E+00  0.00000000000E+00  0.13596864785E+03  0.13596864785E+03  0.00000000000E+00 0.  1.
          2   -1    0    0  505    0 -0.00000000000E+00 -0.00000000000E+00 -0.55301345808E+03  0.55301345808E+03  0.00000000000E+00 0. -1.
         21    1    1    2  503  501  0.55441475367E+02 -0.14722654752E+02 -0.20508350019E+02  0.60918849089E+02  0.00000000000E+00 0. -1.
         21    1    1    2  504  502 -0.61233588177E+02  0.61287442928E+02  0.83250894186E+02  0.12015163072E+03  0.00000000000E+00 0.  1.
         21    1    1    2  505  504  0.54284235732E+02 -0.48219941556E+02 -0.92483476867E+02  0.11758033214E+03  0.00000000000E+00 0.  1.
          2    1    1    2  501    0 -0.48492122922E+02  0.16551533798E+01 -0.38730387752E+03  0.39033129398E+03  0.00000000000E+00 0. -1.
<scales pt_clust_3="45.71563" pt_clust_4="84.52278" pt_clust_5="14000.00000" pt_clust_6="48.52036"></scales>
<clustering>
<clus scale="   48.520">  2  6  1 -1</clus>
<clus scale="   45.716">  2  3  1 -1</clus>
<clus scale="   84.523">  1  4  2 -1</clus>
<clus scale="   84.523">  1  3  2 -1</clus>
</clustering>
</event>
<event>
 6    0  0.2433432E+002  0.6966076E+02  0.7546771E-02  0.1361250E+00
          2   -1    0    0  504    0 -0.00000000000E+00  0.00000000000E+00  0.18186580122E+02  0.18186580122E+02  0.00000000000E+00 0. -1.
         21   -1    0    0  503  502  0.00000000000E+00 -0.00000000000E+00 -0.93782655785E+03  0.93782655785E+03  0.00000000000E+00 0. -1.
         21    1    1    2  503  501 -0.52912551028E+02  0.86306847523E+02 -0.46274605727E+03  0.47369032447E+03  0.00000000000E+00 0. -1.
         21    1    1    2  504  505 -0.21905401253E+02 -0.53568170568E+02 -0.16033230167E+03  0.17045774391E+03  0.00000000000E+00 0. -1.
         21    1    1    2  505  502  0.31842659433E+02 -0.39597357369E+02 -0.19196713518E+03  0.19857816260E+03  0.00000000000E+00 0. -1.
          2    1    1    2  501    0  0.42975292847E+02  0.68586804141E+01 -0.10459448361E+03  0.11328690699E+03  0.00000000000E+00 0. -1.
<scales pt_clust_3="69.66076" pt_clust_4="51.43259" pt_clust_5="14000.00000" pt_clust_6="43.51916"></scales>
<clustering>
<clus scale="   43.519">  1  6  2 -1</clus>
<clus scale="   51.433">  1  4  2 -1</clus>
<clus scale="   69.661">  1  3  2 -1</clus>
<clus scale="   69.661">  2  3  1 -1</clus>
</clustering>
</event>
<event>
 6    0  0.2433432E+002  0.1485954E+03  0.7546771E-02  0.1202210E+00
         -2   -1    0    0    0  501 -0.00000000000E+00  0.00000000000E+00  0.47438640855E+03  0.47438640855E+03  0.00000000000E+00 0. -1.
         21   -1    0    0  501  502  0.00000000000E+00 -0.00000000000E+00 -0.66898957760E+03  0.66898957760E+03  0.00000000000E+00 0. -1.
         21    1    1    2  503  505  0.36243510247E+02  0.15698830846E+03 -0.58183024749E+02  0.17130144599E+03  0.00000000000E+00 0. -1.
         21    1    1    2  504  503 -0.53363451281E+02  0.17556240824E+02 -0.41248777975E+02  0.69694628264E+02  0.00000000000E+00 0. -1.
         21    1    1    2  505  502  0.60142549642E+02 -0.13892954838E+03 -0.48525320700E+03  0.50831999823E+03  0.00000000000E+00 0. -1.
         -2    1    1    2    0  504 -0.43022608607E+02 -0.35615000911E+02  0.39008184067E+03  0.39405991367E+03  0.00000000000E+00 0. -1.
<scales pt_clust_3="14000.00000" pt_clust_4="61.85716" pt_clust_5="148.59541" pt_clust_6="55.85135"></scales>
<clustering>
<clus scale="   55.851">  1  6  2 -1</clus>
<clus scale="   61.857">  1  4  2 -1</clus>
<clus scale="  148.595">  2  5  1 -1</clus>
<clus scale="  148.595">  2  3  1 -1</clus>
</clustering>
</event>
<event>
 6    0  0.2433432E+002  0.9863012E+02  0.7546771E-02  0.1283203E+00
         21   -1    0    0  505  502  0.00000000000E+00  0.00000000000E+00  0.12858980728E+03  0.12858980728E+03  0.00000000000E+00 0. -1.
          1   -1    0    0  504    0 -0.00000000000E+00 -0.00000000000E+00 -0.14187666519E+04  0.14187666519E+04  0.00000000000E+00 0. -1.
         21    1    1    2  503  502 -0.36815597715E+02 -0.18444005300E+02 -0.25919776566E+02  0.48655979939E+02  0.00000000000E+00 0. -1.
         21    1    1    2  504  503 -0.94921618439E+02  0.84216010689E+02 -0.41199620489E+03  0.43109549168E+03  0.00000000000E+00 0. -1.
         21    1    1    2  505  501  0.96352615029E+02 -0.54160856910E+02  0.78834675902E+02  0.13576498433E+03  0.00000000000E+00 0. -1.
          1    1    1    2  501    0  0.35384601124E+02 -0.11611148478E+02 -0.93109553908E+03  0.93184000325E+03  0.00000000000E+00 0. -1.
<scales pt_clust_3="39.20586" pt_clust_4="98.63012" pt_clust_5="14000.00000" pt_clust_6="37.24096"></scales>
<clustering>
<clus scale="   37.241">  2  6  1 -1</clus>
<clus scale="   39.206">  1  3  2 -1</clus>
<clus scale="   98.630">  2  4  1 -1</clus>
<clus scale="   39.206">  1  3  2 -1</clus>
</clustering>
</event>
<event>
 6    0  0.2433432E+002  0.7200152E+02  0.7546771E-02  0.1353416E+00
          1   -1    0    0  503    0 -0.00000000000E+00  0.00000000000E+00  0.14892501709E+04  0.14892501709E+04  0.00000000000E+00 0. -1.
         21   -1    0    0  504  502  0.00000000000E+00 -0.00000000000E+00 -0.10568540596E+03  0.10568540596E+03  0.00000000000E+00 0. -1.
         21    1    1    2  503  505  0.10358656473E+03  0.14488766752E+02 -0.38482943343E+02  0.11144970921E+03  0.00000000000E+00 0. -1.
         21    1    1    2  504  501  0.18161394423E+02  0.43242123939E+02  0.92128328129E+01  0.47797424811E+02  0.00000000000E+00 0.  1.
         21    1    1    2  505  502 -0.54506251124E+02 -0.33099369051E+02  0.86724258261E+02  0.10764569947E+03  0.00000000000E+00 0. -1.
          1    1    1    2  501    0 -0.67241708027E+02 -0.24631521640E+02  0.13261106172E+04  0.13280427434E+04  0.00000000000E+00 0. -1.
<scales pt_clust_3="14000.00000" pt_clust_4="46.90115" pt_clust_5="59.26567" pt_clust_6="72.00152"></scales>
<clustering>
<clus scale="   46.901">  2  4  1 -1</clus>
<clus scale="   59.266">  2  5  1 -1</clus>
<clus scale="   72.002">  1  6  2 -1</clus>
<clus scale="   46.901">  2  3  1 -1</clus>
</clustering>
</event>
<event>
 6    0  0.2433432E+002  0.9328887E+02  0.7546771E-02  0.1295077E+00
         -3   -1    0    0    0  501 -0.00000000000E+00  0.00000000000E+00  0.28206727871E+03  0.28206727871E+03  0.00000000000E+00 0.  1.
         21   -1    0    0  505  502  0.00000000000E+00 -0.00000000000E+00 -0.13258464604E+03  0.13258464604E+03  0.00000000000E+00 0.  1.
         21    1    1    2  503  504  0.60687980606E+02 -0.14216983640E+02  0.29358095468E+02  0.68898848926E+02  0.00000000000E+00 0. -1.
         21    1    1    2  504  502  0.84079586307E+02  0.18047795862E+02 -0.25194231481E+02  0.89609425112E+02  0.00000000000E+00 0.  1.
         21    1    1    2  505  501 -0.10869020955E+03  0.11569170724E+02  0.38875176224E+01  0.10937330642E+03  0.00000000000E+00 0.  1.
         -3    1    1    2    0  503 -0.36077357363E+02 -0.15399982946E+02  0.14143125106E+03  0.14677034430E+03  0.00000000000E+00 0.  1.
<scales pt_clust_3="51.73877" pt_clust_4="14000.00000" pt_clust_5="93.28887" pt_clust_6="39.22672"></scales>
<clustering>
<clus scale="   39.227">  1  6  2 -1</clus>
<clus scale="   51.739">  1  3  2 -1</clus>
<clus scale="   93.289">  1  5  2 -1</clus>
<clus scale="   93.289">  2  3  1 -1</clus>
</clustering>
</event>
<event>
 6    0  0.2433432E+002  0.8296399E+02  0.7546771E-02  0.1320844E+00
         21   -1    0    0  505  502  0.00000000000E+00  0.00000000000E+00  0.80349520954E+02  0.80349520954E+02  0.00000000000E+00 0. -1.
          2   -1    0    0  503    0 -0.00000000000E+00 -0.00000000000E+00 -0.10019369739E+04  0.10019369739E+04  0.00000000000E+00 0.  1.
         21    1    1    2  503  504 -0.61832510988E+02 -0.38291897640E+02  0.29673226016E+02  0.78549533303E+02  0.00000000000E+00 0. -1.
         21    1    1    2  504  502 -0.27791918080E+02  0.17357768760E+02 -0.53125899887E+02  0.62418299285E+02  0.00000000000E+00 0. -1.
         21    1    1    2  505  501  0.18318890306E+02  0.67093146610E+02 -0.42560419854E+02  0.81538097857E+02  0.00000000000E+00 0. -1.
          2    1    1    2  501    0  0.71305538762E+02 -0.46159017730E+02 -0.85557435927E+03  0.85978056446E+03  0.00000000000E+00 0.  1.
<scales pt_clust_3="14000.00000" pt_clust_4="32.76710" pt_clust_5="72.42730" pt_clust_6="82.96399"></scales>
<clustering>
<clus scale="   32.767">  1  4  2 -1</clus>
<clus scale="   72.427">  1  5  2 -1</clus>
<clus scale="   82.964">  2  6  1 -1</clus>
<clus scale="   32.767">  1  3  2 -1</clus>
</clustering>
</event>
<event>
 6    0  0.2433432E+002  0.1611199E+03  0.7546771E-02  0.1187438E+00
          2   -1    0    0  505    0 -0.00000000000E+00  0.00000000000E+00  0.10200023071E+04  0.10200023071E+04  0.00000000000E+00 0.  1.
         21   -1    0    0  503  502  0.00000000000E+00 -0.00000000000E+00 -0.12727193568E+03  0.12727193568E+03  0.00000000000E+00 0. -1.
         21    1    1    2  503  504  0.27513298176E+02  0.20901852550E+02  0.44840278317E+01  0.34842151514E+02  0.00000000000E+00 0.  1.
         21    1    1    2  504  501  0.97321505252E+00  0.12151702201E+03 -0.42035421546E+02  0.12858580968E+03  0.00000000000E+00 0. -1.
         21    1    1    2  505  502 -0.60770451914E+02 -0.14625837677E+03  0.21099258719E+03  0.26382272922E+03  0.00000000000E+00 0. -1.
          2    1    1    2  501    0  0.32283938686E+02  0.38395022121E+01  0.71928917793E+03  0.72002355237E+03  0.00000000000E+00 0.  1.
<scales pt_clust_3="35.38881" pt_clust_4="35.38881" pt_clust_5="147.49793" pt_clust_6="32.51145"></scales>
<clustering>
<clus scale="   32.511">  1  6  2 -1</clus>
<clus scale="   35.389">  3  4 -1 -1</clus>
<clus scale="  147.498">  1  5  2 -1</clus>
<clus scale="  161.120">  2  3  1 -1</clus>
</clustering>
</event>
<event>
 6    0  0.2433432E+002  0.1852926E+03  0.7546771E-02  0.1162777E+00
          1   -1    0    0  503    0 -0.00000000000E+00  0.00000000000E+00  0.10780833203E+04  0.10780833203E+04  0.00000000000E+00 0.  1.
         21   -1    0    0  505  502  0.00000000000E+00 -0.00000000000E+00 -0.14194869695E+03  0.14194869695E+03  0.00000000000E+00 0.  1.
         21    1    1    2  503  504  0.78659711773E+01  0.73962749702E+02  0.57306473011E+03  0.57787156596E+03  0.00000000000E+00 0. -1.
         21    1    1    2  504  502  0.15027706321E+02  0.42049438908E+02  0.15076842948E+03  0.15724219090E+03  0.00000000000E+00 0.  1.
         21    1    1    2  505  501 -0.15964935533E+03 -0.13446896227E+03 -0.25187438644E+02  0.21024800959E+03  0.00000000000E+00 0.  1.
          1    1    1    2  501    0  0.13675567783E+03  0.18456773658E+02  0.23748890243E+03  0.27467025082E+03  0.00000000000E+00 0.  1.
<scales pt_clust_3="128.28793" pt_clust_4="38.54578" pt_clust_5="14000.00000" pt_clust_6="185.29264"></scales>
<clustering>
<clus scale="   38.546">  3  4 -1 -1</clus>
<clus scale="  128.288">  1  3  2 -1</clus>
<clus scale="  185.293">  1  6  2 -1</clus>
<clus scale="  185.293">  2  3  1 -1</clus>
</clustering>
</event>
<event>
 6    0  0.2433432E+002  0.1590930E+03  0.7546771E-02  0.1189725E+00
         -1   -1    0    0    0  501 -0.00000000000E+00  0.00000000000E+00  0.79898815817E+03  0.79898815817E+03  0.00000000000E+00 0.  1.
         21   -1    0    0  503  502  0.00000000000E+00 -0.00000000000E+00 -0.60561210711E+03  0.60561210711E+03  0.00000000000E+00 0.  1.
         21    1    1    2  503  505  0.59655084061E+02 -0.30331325620E+02 -0.23827816238E+03  0.24749788087E+03  0.00000000000E+00 0.  1.
         21    1    1    2  504  502 -0.18191483401E+03 -0.67471791285E+02 -0.27655225705E+03  0.33782628721E+03  0.00000000000E+00 0.  1.
         21    1    1    2  505  501  0.93078908032E+02  0.12061740158E+03  0.50470105867E+02  0.16049757715E+03  0.00000000000E+00 0.  1.
         -1    1    1    2    0  504  0.29180841919E+02 -0.22814284676E+02  0.65773636463E+03  0.65877852005E+03  0.00000000000E+00 0.  1.
<scales pt_clust_3="68.11438" pt_clust_4="159.09300" pt_clust_5="14000.00000" pt_clust_6="37.04070"></scales>
<clustering>
<clus scale="   37.041">  1  6  2 -1</clus>
<clus scale="   68.114">  2  3  1 -1</clus>
<clus scale="  159.093">  2  4  1 -1</clus>
<clus scale="   68.114">  2  3  1 -1</clus>
</clustering>
</event>
<event>
 6    0  0.2433432E+002  0.1215090E+03  0.7546771E-02  0.1240628E+00
          1   -1    0    0  503    0 -0.00000000000E+00  0.00000000000E+00  0.21300097509E+04  0.21300097509E+04  0.00000000000E+00 0. -1.
         21   -1    0    0  505  502  0.00000000000E+00 -0.00000000000E+00 -0.10426570502E+03  0.10426570502E+03  0.00000000000E+00 0. -1.
         21    1    1    2  503  504  0.45194694301E+02  0.24333694808E+02  0.17169653403E+03  0.17920487966E+03  0.00000000000E+00 0. -1.
         21    1    1    2  504  502 -0.14798992118E+02 -0.73364763379E+02 -0.66423199200E+02  0.10006717776E+03  0.00000000000E+00 0. -1.
         21    1    1    2  505  501  0.34116710447E+02 -0.51027626974E+02  0.45874447946E+02  0.76630500590E+02  0.00000000000E+00 0. -1.
          1    1    1    2  501    0 -0.64512412630E+02  0.10005869555E+03  0.18745962631E+04  0.18783728979E+04  0.00000000000E+00 0. -1.
<scales pt_clust_3="51.32922" pt_clust_4="14000.00000" pt_clust_5="61.55625" pt_clust_6="121.50902"></scales>
<clustering>
<clus scale="   51.329">  1  3  2 -1</clus>
<clus scale="   61.556">  2  5  1 -1</clus>
<clus scale="  121.509">  1  6  2 -1</clus>
<clus scale="   61.556">  2  3  1 -1</clus>
</clustering>
</event>
<event>
 6    0  0.2433432E+002  0.1198812E+03  0.7546771E-02  0.1243293E+00
          1   -1    0    0  505    0 -0.00000000000E+00  0.00000000000E+00  0.10940995944E+04  0.10940995944E+04  0.00000000000E+00 0.  1.
         21   -1    0    0  504  502  0.00000000000E+00 -0.00000000000E+00 -0.12324370852E+04  0.12324370852E+04  0.00000000000E+00 0.  1.
         21    1    1    2  503  502 -0.22101458350E+02  0.70808268232E+02 -0.77889066514E+02  0.10755924876E+03  0.00000000000E+00 0.  1.
         21    1    1    2  504  501  0.11928812872E+03 -0.63627172157E+01 -0.87952891433E+03  0.88760422091E+03  0.00000000000E+00 0.  1.
         21    1    1    2  505  503  0.44091911979E+01 -0.12819487163E+03 -0.23647581275E+03  0.26902448977E+03  0.00000000000E+00 0.  1.
          1    1    1    2  501    0 -0.10159586157E+03  0.63749320612E+02  0.10555563028E+04  0.10623487202E+04  0.00000000000E+00 0.  1.
<scales pt_clust_3="74.17739" pt_clust_4="14000.00000" pt_clust_5="112.49305" pt_clust_6="119.88118"></scales>
<clustering>
<clus scale="   74.177">  2  3  1 -1</clus>
<clus scale="  112.493">  2  5  1 -1</clus>
<clus scale="  119.881">  1  6  2 -1</clus>
<clus scale="   74.177">  2  3  1 -1</clus>
</clustering>
</event>
<event>
 6    0  0.2433432E+002  0.1746887E+03  0.7546771E-02  0.1173045E+00
          2   -1    0    0  505    0 -0.00000000000E+00  0.00000000000E+00  0.18051328690E+04  0.18051328690E+04  0.00000000000E+00 0.  1.
         21   -1    0    0  504  502  0.00000000000E+00 -0.00000000000E+00 -0.46537580095E+02  0.46537580095E+02  0.00000000000E+00 0.  1.
         21    1    1    2  503  501 -0.81519256850E+02 -0.13787800922E+03  0.67175558863E+03  0.69058765231E+03  0.00000000000E+00 0.  1.
         21    1    1    2  504  503 -0.58421028976E+02 -0.40086223707E+02  0.10644491321E+03  0.12786884494E+03  0.00000000000E+00 0.  1.
         21    1    1    2  505  502  0.44807140616E+02  0.14903266962E+02  0.15017435774E+02  0.49551090741E+02  0.00000000000E+00 0.  1.
          2    1    1    2  501    0  0.95133145210E+02  0.16306096596E+03  0.96537735127E+03  0.98366286108E+03  0.00000000000E+00 0.  1.
<scales pt_clust_3="14000.00000" pt_clust_4="54.45504" pt_clust_5="47.22062" pt_clust_6="174.68867"></scales>
<clustering>
<clus scale="   47.221">  2  5  1 -1</clus>
<clus scale="   54.455">  2  4  1 -1</clus>
<clus scale="  174.689">  1  6  2 -1</clus>
<clus scale="   47.221">  2  3  1 -1</clus>
</clustering>
</event>
<event>
 6    0  0.2433432E+002  0.1127536E+03  0.7546771E-02  0.1255554E+00
         21   -1    0    0  504  502  0.00000000000E+00  0.00000000000E+00  0.79107062080E+02  0.79107062080E+02  0.00000000000E+00 0.  1.
         -2   -1    0    0    0  501 -0.00000000000E+00 -0.00000000000E+00 -0.51064444103E+03  0.51064444103E+03  0.00000000000E+00 0. -1.
         21    1    1    2  503  502  0.84559941885E+02  0.20258784009E+02  0.36803370659E+01  0.87030724357E+02  0.00000000000E+00 0.  1.
         21    1    1    2  504  505  0.28850172249E+02 -0.37330983049E+02 -0.36380667623E+02  0.59577577250E+02  0.00000000000E+00 0.  1.
         21    1    1    2  505  501 -0.30562691849E+01 -0.44428630449E+02 -0.31120288352E+02  0.54329700276E+02  0.00000000000E+00 0.  1.
         -2    1    1    2    0  503 -0.11035384495E+03  0.61500829489E+02 -0.36771676004E+03  0.38881350123E+03  0.00000000000E+00 0. -1.
<scales pt_clust_3="86.95287" pt_clust_4="31.75843" pt_clust_5="31.75843" pt_clust_6="107.91130"></scales>
<clustering>
<clus scale="   31.758">  4  5 -1 -1</clus>
<clus scale="   86.953">  1  3  2 -1</clus>
<clus scale="  107.911">  2  6  1 -1</clus>
<clus scale="   86.953">  1  3  2 -1</clus>
</clustering>
</event>
<event>
 6    0  0.2433432E+002  0.8711516E+02  0.7546771E-02  0.1309992E+00
          2   -1    0    0  504    0 -0.00000000000E+00  0.00000000000E+00  0.12311026577E+04  0.12311026577E+04  0.00000000000E+00 0. -1.
         21   -1    0    0  505  502  0.00000000000E+00 -0.00000000000E+00 -0.87433821382E+02  0.87433821382E+02  0.00000000000E+00 0. -1.
         21    1    1    2  503  502 -0.67078059713E+02 -0.81869111776E+02 -0.25826622162E+02  0.10894508695E+03  0.00000000000E+00 0. -1.
         21    1    1    2  504  503 -0.31231960207E+02  0.22122294534E+02  0.11025451251E+03  0.11670856345E+03  0.00000000000E+00 0.  1.
         21    1    1    2  505  501  0.32553000104E+02  0.27422288595E+01  0.27173387928E+01  0.32781115981E+02  0.00000000000E+00 0. -1.
          2    1    1    2  501    0  0.65757019816E+02  0.57004588383E+02  0.10565236072E+04  0.10601017127E+04  0.00000000000E+00 0. -1.
<scales pt_clust_3="14000.00000" pt_clust_4="37.17162" pt_clust_5="32.66830" pt_clust_6="87.11516"></scales>
<clustering>
<clus scale="   32.668">  2  5  1 -1</clus>
<clus scale="   37.172">  1  4  2 -1</clus>
<clus scale="   87.115">  1  6  2 -1</clus>
<clus scale="   32.668">  2  3  1 -1</clus>
</clustering>
</event>
<event>
 6    0  0.2433432E+002  0.1092483E+03  0.7546771E-02  0.1261968E+00
         21   -1    0    0  505  502  0.00000000000E+00  0.00000000000E+00  0.98810412734E+02  0.98810412734E+02  0.00000000000E+00 0. -1.
          2   -1    0    0  503    0 -0.00000000000E+00 -0.00000000000E+00 -0.29847908296E+04  0.29847908296E+04  0.00000000000E+00 0.  1.
         21    1    1    2  503  502 -0.51446640203E+02 -0.26910095783E+02 -0.15031700106E+03  0.16114003491E+03  0.00000000000E+00 0.  1.
         21    1    1    2  504  501  0.61573478784E+02  0.16861078666E+03 -0.21142661716E+03  0.27734834615E+03  0.00000000000E+00 0.  1.
         21    1    1    2  505  504 -0.18510915321E+02 -0.96300157580E+02  0.20312504342E+02  0.10014475607E+03  0.00000000000E+00 0. -1.
          2    1    1    2  501    0  0.83840767400E+01 -0.45400533298E+02 -0.25445493030E+04  0.25449681052E+04  0.00000000000E+00 0.  1.
<scales pt_clust_3="64.78676" pt_clust_4="14000.00000" pt_clust_5="109.24827" pt_clust_6="46.16818"></scales>
<clustering>
<clus scale="   46.168">  2  6  1 -1</clus>
<clus scale="   64.787">  2  3  1 -1</clus>
<clus scale="  109.248">  1  5  2 -1</clus>
<clus scale="  109.248">  1  3  2 -1</clus>
</clustering>
</event>
<event>
 6    0  0.2433432E+002  0.1128099E+03  0.7546771E-02  0.1255453E+00
          2   -1    0    0  504    0 -0.00000000000E+00  0.00000000000E+00  0.18448989606E+04  0.18448989606E+04  0.00000000000E+00 0.  1.
         21   -1    0    0  505  502  0.00000000000E+00 -0.00000000000E+00 -0.15415321019E+03  0.15415321019E+03  0.00000000000E+00 0.  1.
         21    1    1    2  503  501  0.51116062830E+02  0.87306714063E+01  0.63280458178E+02  0.81813769561E+02  0.00000000000E+00 0. -1.
         21    1    1    2  504  502 -0.13247037368E+03 -0.80913993432E+02 -0.74421952191E+02  0.17214558143E+03  0.00000000000E+00 0.  1.
         21    1    1    2  505  503  0.24141412936E+02 -0.24613443530E+02 -0.47088587693E+01  0.34796591383E+02  0.00000000000E+00 0.  1.
          2    1    1    2  501    0  0.57212897918E+02  0.96796765556E+02  0.17065961032E+04  0.17102962284E+04  0.00000000000E+00 0.  1.
<scales pt_clust_3="53.24716" pt_clust_4="112.80993" pt_clust_5="34.47651" pt_clust_6="14000.00000"></scales>
<clustering>
<clus scale="   34.477">  2  5  1 -1</clus>
<clus scale="   53.247">  2  3  1 -1</clus>
<clus scale="  112.810">  2  4  1 -1</clus>
<clus scale="   34.477">  2  3  1 -1</clus>
</clustering>
</event>
<event>
 6    0  0.2433432E+002  0.1069471E+03  0.7546771E-02  0.1266330E+00
         21   -1    0    0  504  502  0.00000000000E+00  0.00000000000E+00  0.61569454467E+03  0.61569454467E+03  0.00000000000E+00 0. -1.
          3   -1    0    0  503    0 -0.00000000000E+00 -0.00000000000E+00 -0.16509975403E+03  0.16509975403E+03  0.00000000000E+00 0. -1.
         21    1    1    2  503  502 -0.51488348752E+02  0.17780656267E+02  0.10067102429E+03  0.11446334315E+03  0.00000000000E+00 0.  1.
         21    1    1    2  504  505 -0.28050339279E+01 -0.10470216612E+03  0.40436399794E+03  0.41770881561E+03  0.00000000000E+00 0. -1.
         21    1    1    2  505  501  0.17895021767E+02  0.14141768936E+03  0.25967487331E+02  0.14489135608E+03  0.00000000000E+00 0. -1.
          3    1    1    2  501    0  0.36398360913E+02 -0.54496179511E+02 -0.80407718923E+02  0.10373078386E+03  0.00000000000E+00 0. -1.
<scales pt_clust_3="54.47203" pt_clust_4="14000.00000" pt_clust_5="106.94711" pt_clust_6="64.54254"></scales>
<clustering>
<clus scale="   54.472">  1  3  2 -1</clus>
<clus scale="   64.543">  2  6  1 -1</clus>
<clus scale="  106.947">  2  5  1 -1</clus>
<clus scale="   54.472">  1  3  2 -1</clus>
</clustering>
</event>
<event>
 6    0  0.2433432E+002  0.1175474E+03  0.7546771E-02  0.1247199E+00
         21   -1    0    0  504  502  0.00000000000E+00  0.00000000000E+00  0.12755153275E+03  0.12755153275E+03  0.00000000000E+00 0. -1.
          2   -1    0    0  505    0 -0.00000000000E+00 -0.00000000000E+00 -0.27729068170E+04  0.27729068170E+04  0.00000000000E+00 0. -1.
         21    1    1    2  503  502  0.36511829819E+02 -0.17179360172E+02 -0.56943003066E+03  0.57085795427E+03  0.00000000000E+00 0. -1.
         21    1    1    2  504  501 -0.30440762216E+02  0.11383120315E+03  0.95479473733E+02  0.15165919925E+03  0.00000000000E+00 0. -1.
         21    1    1    2  505  503  0.28134983589E+02  0.12715974070E+02 -0.14266558306E+03  0.14596829069E+03  0.00000000000E+00 0.  1.
          2    1    1    2  501    0 -0.34206051192E+02 -0.10936781705E+03 -0.20287391443E+04  0.20319729056E+04  0.00000000000E+00 0. -1.
<scales pt_clust_3="44.98838" pt_clust_4="14000.00000" pt_clust_5="30.87512" pt_clust_6="117.54739"></scales>
<clustering>
<clus scale="   30.875">  2  5  1 -1</clus>
<clus scale="   44.988">  2  3  1 -1</clus>
<clus scale="  117.547">  2  6  1 -1</clus>
<clus scale="  117.547">  1  3  2 -1</clus>
</clustering>
</event>
<event>
 6    0  0.2433432E+002  0.9516006E+02  0.7546771E-02  0.1290816E+00
         21   -1    0    0  504  502  0.00000000000E+00  0.00000000000E+00  0.25405424597E+03  0.25405424597E+03  0.00000000000E+00 0.  1.
          2   -1    0    0  505    0 -0.00000000000E+00 -0.00000000000E+00 -0.24141042195E+04  0.24141042195E+04  0.00000000000E+00 0. -1.
         21    1    1    2  503  501 -0.24409094306E+02  0.31802634133E+02 -0.29247333086E+02  0.49624771186E+02  0.00000000000E+00 0.  1.
         21    1    1    2  504  503  0.24684238603E+02  0.89396584502E+02  0.20838757896E+03  0.22809306000E+03  0.00000000000E+00 0.  1.
         21    1    1    2  505  502 -0.20013547106E+02 -0.15129386493E+03 -0.20309983708E+03  0.25404708118E+03  0.00000000000E+00 0.  1.
          2    1    1    2  501    0  0.19738402809E+02  0.30094646293E+02 -0.21360903824E+04  0.21363935531E+04  0.00000000000E+00 0. -1.
<scales pt_clust_3="42.05016" pt_clust_4="95.16006" pt_clust_5="14000.00000" pt_clust_6="35.99017"></scales>
<clustering>
<clus scale="   35.990">  2  6  1 -1</clus>
<clus scale="   42.050">  2  3  1 -1</clus>
<clus scale="   95.160">  1  4  2 -1</clus>
<clus scale="   95.160">  1  3  2 -1</clus>
</clustering>
</event>
<event>
 6    0  0.2433432E+002  0.1045114E+03  0.7546771E-02  0.1271085E+00
          2   -1    0    0  504    0 -0.00000000000E+00  0.00000000000E+00  0.10893157635E+04  0.10893157635E+04  0.00000000000E+00 0. -1.
         21   -1    0    0  503  502  0.00000000000E+00 -0.00000000000E+00 -0.71820988012E+02  0.71820988012E+02  0.00000000000E+00 0. -1.
         21    1    1    2  503  505  0.50298811299E+02  0.40464623203E+02  0.20536832042E+03  0.21527541239E+03  0.00000000000E+00 0. -1.
         21    1    1    2  504  502 -0.70791408646E+02 -0.64977563960E+02 -0.26373137587E+02  0.99644617228E+02  0.00000000000E+00 0. -1.
         21    1    1    2  505  501  0.53393839322E+02  0.42878023771E+02  0.37602228281E+03  0.38220699126E+03  0.00000000000E+00 0. -1.
          2    1    1    2  501    0 -0.32901241975E+02 -0.18365083015E+02  0.46247730984E+03  0.46400973062E+03  0.00000000000E+00 0. -1.
<scales pt_clust_3="34.62847" pt_clust_4="98.23753" pt_clust_5="34.62847" pt_clust_6="37.67981"></scales>
<clustering>
<clus scale="   34.628">  3  5 -1 -1</clus>
<clus scale="   37.680">  1  6  2 -1</clus>
<clus scale="   98.238">  2  4  1 -1</clus>
<clus scale="   98.238">  2  3  1 -1</clus>
</clustering>
</event>
<event>
 6    0  0.2433432E+002  0.2063077E+03  0.7546771E-02  0.1144524E+00
         -1   -1    0    0    0  501 -0.00000000000E+00  0.00000000000E+00  0.53786813200E+03  0.53786813200E+03  0.00000000000E+00 0. -1.
         21   -1    0    0  504  502  0.00000000000E+00 -0.00000000000E+00 -0.43295002049E+03  0.43295002049E+03  0.00000000000E+00 0.  1.
         21    1    1    2  503  505 -0.12643665594E+03  0.38031250077E+02 -0.95999093621E+02  0.16324346824E+03  0.00000000000E+00 0.  1.
         21    1    1    2  504  503  0.19833860874E+03  0.73625973467E+02 -0.22628622406E+03  0.30978128234E+03  0.00000000000E+00 0.  1.
         21    1    1    2  505  501 -0.51770338790E+02 -0.17988251425E+02 -0.50601791442E+01  0.55039536523E+02  0.00000000000E+00 0.  1.
         -1    1    1    2    0  502 -0.20131614013E+02 -0.93668972120E+02  0.43226360834E+03  0.44275386539E+03  0.00000000000E+00 0. -1.
<scales pt_clust_3="46.79377" pt_clust_4="193.10059" pt_clust_5="46.79377" pt_clust_6="95.80792"></scales>
<clustering>
<clus scale="   46.794">  3  5 -1 -1</clus>
<clus scale="   95.808">  1  6  2 -1</clus>
<clus scale="  193.101">  2  4  1 -1</clus>
<clus scale="  193.101">  2  3  1 -1</clus>
</clustering>
</event>
<event>
 6    0  0.2433432E+002  0.8259581E+02  0.7546771E-02  0.1321842E+00
         21   -1    0    0  505  502  0.00000000000E+00  0.00000000000E+00  0.50925617753E+02  0.50925617753E+02  0.00000000000E+00 0. -1.
          2   -1    0    0  503    0 -0.00000000000E+00 -0.00000000000E+00 -0.56892538069E+03  0.56892538069E+03  0.00000000000E+00 0. -1.
         21    1    1    2  503  502 -0.51262573540E+02  0.65396311120E+02 -0.22263137409E+03  0.23763261073E+03  0.00000000000E+00 0. -1.
         21    1    1    2  504  501 -0.55103595294E+02 -0.77426265129E+00 -0.76174022155E+02  0.94018547895E+02  0.00000000000E+00 0. -1.
         21    1    1    2  505  504  0.33817701198E+02 -0.20656753860E+02  0.12428898624E+02  0.41530903137E+02  0.00000000000E+00 0. -1.
          2    1    1    2  501    0  0.72548467635E+02 -0.43965294610E+02 -0.23162326532E+03  0.24666893668E+03  0.00000000000E+00 0. -1.
<scales pt_clust_3="82.59581" pt_clust_4="43.33893" pt_clust_5="39.62750" pt_clust_6="14000.00000"></scales>
<clustering>
<clus scale="   39.627">  1  5  2 -1</clus>
<clus scale="   43.339">  1  4  2 -1</clus>
<clus scale="   82.596">  2  3  1 -1</clus>
<clus scale="   39.627">  1  3  2 -1</clus>
</clustering>
</event>
<event>
 6    0  0.2433432E+002  0.1017275E+03  0.7546771E-02  0.1276705E+00
         21   -1    0    0  503  502  0.00000000000E+00  0.00000000000E+00  0.27099525691E+04  0.27099525691E+04  0.00000000000E+00 0. -1.
         -3   -1    0    0    0  501 -0.00000000000E+00 -0.00000000000E+00 -0.41015221124E+02  0.41015221124E+02  0.00000000000E+00 0.  1.
         21    1    1    2  503  504  0.12034077699E+02 -0.72274760662E+02  0.65375069340E+03  0.65784377262E+03  0.00000000000E+00 0.  1.
         21    1    1    2  504  501  0.83190968196E+02  0.76535189932E+02  0.17772040133E+04  0.17807954619E+04  0.00000000000E+00 0. -1.
         21    1    1    2  505  502 -0.18744454567E+01  0.35637146589E+02  0.20121688571E+03  0.20435693004E+03  0.00000000000E+00 0.  1.
         -3    1    1    2    0  505 -0.93350600439E+02 -0.39897575859E+02  0.36765755652E+02  0.10797162567E+03  0.00000000000E+00 0.  1.
<scales pt_clust_3="64.00283" pt_clust_4="101.72754" pt_clust_5="35.68641" pt_clust_6="14000.00000"></scales>
<clustering>
<clus scale="   35.686">  1  5  2 -1</clus>
<clus scale="   64.003">  1  3  2 -1</clus>
<clus scale="  101.728">  1  4  2 -1</clus>
<clus scale="   35.686">  1  3  2 -1</clus>
</clustering>
</event>
<event>
 6    0  0.2433432E+002  0.1423285E+03  0.7546771E-02  0.1210230E+00
         21   -1    0    0  501  502  0.00000000000E+00  0.00000000000E+00  0.82147208284E+02  0.82147208284E+02  0.00000000000E+00 0.  1.
         -2   -1    0    0    0  501 -0.00000000000E+00 -0.00000000000E+00 -0.15135095305E+04  0.15135095305E+04  0.00000000000E+00 0.  1.
         21    1    1    2  503  504 -0.72237937001E+02 -0.52486266598E+02 -0.24626501601E+03  0.26195340394E+03  0.00000000000E+00 0. -1.
         21    1    1    2  504  505 -0.26613128547E+02 -0.49151824280E+02 -0.10011669035E+03  0.11466260126E+03  0.00000000000E+00 0. -1.
         21    1    1    2  505  502  0.11490272638E+03  0.71935014226E+02 -0.20443188284E+01  0.13557825062E+03  0.00000000000E+00 0.  1.
         -2    1    1    2    0  503 -0.16051660834E+02  0.29703076651E+02 -0.10829362970E+04  0.10834624830E+04  0.00000000000E+00 0.  1.
<scales pt_clust_3="33.16829" pt_clust_4="33.16829" pt_clust_5="136.01441" pt_clust_6="33.76283"></scales>
<clustering>
<clus scale="   33.168">  3  4 -1 -1</clus>
<clus scale="   33.763">  2  6  1 -1</clus>
<clus scale="  136.014">  1  5  2 -1</clus>
<clus scale="  136.014">  1  3  2 -1</clus>
</clustering>
</event>
<event>
 6    0  0.2433432E+002  0.3607731E+03  0.7546771E-02  0.1058278E+00
          1   -1    0    0  504    0 -0.00000000000E+00  0.00000000000E+00  0.13187402127E+04  0.13187402127E+04  0.00000000000E+00 0.  1.
         21   -1    0    0  503  502  0.00000000000E+00 -0.00000000000E+00 -0.27996238450E+03  0.27996238450E+03  0.00000000000E+00 0. -1.
         21    1    1    2  503  505  0.17234375497E+03 -0.42552123691E+02  0.15432497035E+02  0.17818870636E+03  0.00000000000E+00 0. -1.
         21    1    1    2  504  502 -0.15160317042E+02 -0.44399142561E+02 -0.28873536419E+02  0.55089020487E+02  0.00000000000E+00 0. -1.
         21    1    1    2  505  501  0.15715717993E+03 -0.64561057989E+02 -0.74787206227E+02  0.18563306718E+03  0.00000000000E+00 0. -1.
          1    1    1    2  501    0 -0.31434061787E+03  0.15151232424E+03  0.11270060738E+04  0.11797918032E+04  0.00000000000E+00 0.  1.
<scales pt_clust_3="92.87509" pt_clust_4="46.91609" pt_clust_5="92.87509" pt_clust_6="348.36476"></scales>
<clustering>
<clus scale="   46.916">  2  4  1 -1</clus>
<clus scale="   92.875">  3  5 -1 -1</clus>
<clus scale="  348.365">  1  6  2 -1</clus>
<clus scale="   46.916">  2  3  1 -1</clus>
</clustering>
</event>
<event>
 6    0  0.2433432E+002  0.1042413E+03  0.7546771E-02  0.1271622E+00
          2   -1    0    0  504    0 -0.00000000000E+00  0.00000000000E+00  0.29104361086E+04  0.29104361086E+04  0.00000000000E+00 0. -1.
         21   -1    0    0  503  502  0.00000000000E+00 -0.00000000000E+00 -0.26650295473E+02  0.26650295473E+02  0.00000000000E+00 0. -1.
         21    1    1    2  503  505  0.31700623966E+02  0.24882575616E+02  0.12712288718E+03  0.13335779158E+03  0.00000000000E+00 0. -1.
         21    1    1    2  504  502  0.11108175837E+03 -0.17711854538E+02  0.14117863874E+03  0.18051114888E+03  0.00000000000E+00 0. -1.
         21    1    1    2  505  501 -0.40106416454E+02  0.99137304804E+01  0.15139485223E+03  0.15693058330E+03  0.00000000000E+00 0. -1.
          2    1    1    2  501    0 -0.10267596588E+03 -0.17084451558E+02  0.24640894350E+04  0.24662868803E+04  0.00000000000E+00 0. -1.
<scales pt_clust_3="40.29978" pt_clust_4="104.24128" pt_clust_5="38.57752" pt_clust_6="14000.00000"></scales>
<clustering>
<clus scale="   40.300">  2  3  1 -1</clus>
<clus scale="   38.578">  2  5  1 -1</clus>
<clus scale="  104.241">  2  4  1 -1</clus>
<clus scale="   40.300">  2  3  1 -1</clus>
</clustering>
</event>
<event>
 6    0  0.2433432E+002  0.8031874E+02  0.7546771E-02  0.1328149E+00
         21   -1    0    0  503  502  0.00000000000E+00  0.00000000000E+00  0.62041856152E+03  0.62041856152E+03  0.00000000000E+00 0.  1.
          2   -1    0    0  505    0 -0.00000000000E+00 -0.00000000000E+00 -0.11393320065E+04  0.11393320065E+04  0.00000000000E+00 0.  1.
         21    1    1    2  503  501 -0.36836476974E+02 -0.33013483126E+02 -0.74966403004E-01  0.49465358828E+02  0.00000000000E+00 0.  1.
         21    1    1    2  504  502 -0.15843889599E+02  0.65610517489E+02  0.51818561763E+03  0.52256301358E+03  0.00000000000E+00 0.  1.
         21    1    1    2  505  504  0.10337466977E+03 -0.60574981660E+02  0.26427866556E+02  0.12269508093E+03  0.00000000000E+00 0.  1.
          2    1    1    2  501    0 -0.50694303198E+02  0.27977947298E+02 -0.10634519628E+04  0.10650271147E+04  0.00000000000E+00 0.  1.
<scales pt_clust_3="49.46530" pt_clust_4="14000.00000" pt_clust_5="80.31874" pt_clust_6="57.92389"></scales>
<clustering>
<clus scale="   49.465">  1  3  2 -1</clus>
<clus scale="   57.924">  2  6  1 -1</clus>
<clus scale="   80.319">  2  5  1 -1</clus>
<clus scale="   49.465">  1  3  2 -1</clus>
</clustering>
</event>
<event>
 6    0  0.2433432E+002  0.9077727E+02  0.7546771E-02  0.1300980E+00
          1   -1    0    0  503    0 -0.00000000000E+00  0.00000000000E+00  0.51968407511E+03  0.51968407511E+03  0.00000000000E+00 0.  1.
         21   -1    0    0  505  502  0.00000000000E+00 -0.00000000000E+00 -0.59147852478E+02  0.59147852478E+02  0.00000000000E+00 0.  1.
         21    1    1    2  503  504 -0.28205564493E+02 -0.37485371253E+02  0.11974949884E+03  0.12861045602E+03  0.00000000000E+00 0.  1.
         21    1    1    2  504  502 -0.42991461417E+02 -0.87507339086E+02  0.41922232769E+02  0.10612857178E+03  0.00000000000E+00 0.  1.
         21    1    1    2  505  501 -0.48945585431E+01  0.83788666915E+02  0.15191853940E+03  0.17356191984E+03  0.00000000000E+00 0.  1.
          1    1    1    2  501    0  0.76091584454E+02  0.41204043425E+02  0.14694595163E+03  0.17053097994E+03  0.00000000000E+00 0.  1.
<scales pt_clust_3="46.91169" pt_clust_4="90.77727" pt_clust_5="14000.00000" pt_clust_6="69.85403"></scales>
<clustering>
<clus scale="   46.912">  1  3  2 -1</clus>
<clus scale="   69.854">  1  6  2 -1</clus>
<clus scale="   90.777">  2  4  1 -1</clus>
<clus scale="   90.777">  2  3  1 -1</clus>
</clustering>
</event>
<event>
 6    0  0.2433432E+002  0.2110326E+03  0.7546771E-02  0.1140751E+00
          2   -1    0    0  502    0 -0.00000000000E+00  0.00000000000E+00  0.99181052358E+03  0.99181052358E+03  0.00000000000E+00 0.  1.
         21   -1    0    0  504  502  0.00000000000E+00 -0.00000000000E+00 -0.15934623117E+03  0.15934623117E+03  0.00000000000E+00 0.  1.
         21    1    1    2  503  501 -0.10978810637E+02  0.55941576384E+02 -0.22361713525E+02  0.61237574112E+02  0.00000000000E+00 0.  1.
         21    1    1    2  504  505 -0.39165619053E+02  0.35166381015E+02 -0.40650848571E+02  0.66506477572E+02  0.00000000000E+00 0.  1.
         21    1    1    2  505  503 -0.61891383820E+02  0.72332983291E+02 -0.10724338128E+02  0.95799871039E+02  0.00000000000E+00 0.  1.
          2    1    1    2  501    0  0.11203581351E+03 -0.16344094069E+03  0.90620119263E+03  0.92761283202E+03  0.00000000000E+00 0.  1.
<scales pt_clust_3="31.56732" pt_clust_4="32.71194" pt_clust_5="32.71194" pt_clust_6="198.15389"></scales>
<clustering>
<clus scale="   32.712">  4  5 -1 -1</clus>
<clus scale="   31.567">  3  4 -1 -1</clus>
<clus scale="  198.154">  1  6  2 -1</clus>
<clus scale="  211.033">  2  3  1 -1</clus>
</clustering>
</event>
<event>
 6    0  0.2433432E+002  0.1179048E+03  0.7546771E-02  0.1246594E+00
          2   -1    0    0  502    0 -0.00000000000E+00  0.00000000000E+00  0.21269200569E+04  0.21269200569E+04  0.00000000000E+00 0. -1.
         21   -1    0    0  504  502  0.00000000000E+00 -0.00000000000E+00 -0.53855146799E+02  0.53855146799E+02  0.00000000000E+00 0.  1.
         21    1    1    2  503  505 -0.39678976257E+02 -0.49922704628E+02  0.19025475478E+03  0.20065784139E+03  0.00000000000E+00 0.  1.
         21    1    1    2  504  503  0.11259237305E+03 -0.11973614274E+02  0.25215888049E+02  0.11600108154E+03  0.00000000000E+00 0.  1.
         21    1    1    2  505  501 -0.45052021016E+02 -0.17801711361E+02  0.27228788272E+03  0.27656333199E+03  0.00000000000E+00 0.  1.
          2    1    1    2  501    0 -0.27861375778E+02  0.79698030264E+02  0.15853063846E+04  0.15875529488E+04  0.00000000000E+00 0. -1.
<scales pt_clust_3="39.25341" pt_clust_4="108.96382" pt_clust_5="39.25341" pt_clust_6="84.42767"></scales>
<clustering>
<clus scale="   39.253">  3  5 -1 -1</clus>
<clus scale="   84.428">  1  6  2 -1</clus>
<clus scale="  108.964">  2  4  1 -1</clus>
<clus scale="  108.964">  2  3  1 -1</clus>
</clustering>
</event>
<event>
 6    0  0.2433432E+002  0.9603677E+02  0.7546771E-02  0.1288858E+00
         21   -1    0    0  504  502  0.00000000000E+00  0.00000000000E+00  0.89504786184E+03  0.89504786184E+03  0.00000000000E+00 0. -1.
          1   -1    0    0  505    0 -0.00000000000E+00 -0.00000000000E+00 -0.15832822370E+04  0.15832822370E+04  0.00000000000E+00 0.  1.
         21    1    1    2  503  501 -0.63038466144E+02  0.70435087232E+02 -0.15404154294E+02  0.95771800112E+02  0.00000000000E+00 0. -1.
         21    1    1    2  504  503  0.24925764792E+02 -0.23538092937E+02  0.82370460495E+03  0.82441774107E+03  0.00000000000E+00 0. -1.
         21    1    1    2  505  502  0.12643720091E+03 -0.11825563302E+02 -0.10899543975E+03  0.16735057696E+03  0.00000000000E+00 0. -1.
          1    1    1    2  501    0 -0.88324499561E+02 -0.35071430993E+02 -0.13875393861E+04  0.13907899807E+04  0.00000000000E+00 0.  1.
<scales pt_clust_3="75.20403" pt_clust_4="34.28317" pt_clust_5="14000.00000" pt_clust_6="96.03677"></scales>
<clustering>
<clus scale="   34.283">  1  4  2 -1</clus>
<clus scale="   75.204">  1  3  2 -1</clus>
<clus scale="   96.037">  2  6  1 -1</clus>
<clus scale="   34.283">  1  3  2 -1</clus>
</clustering>
</event>
<event>
 6    0  0.2433432E+002  0.8200692E+02  0.7546771E-02  0.1323451E+00
          2   -1    0    0  505    0 -0.00000000000E+00  0.00000000000E+00  0.26143418407E+04  0.26143418407E+04  0.00000000000E+00 0. -1.
         21   -1    0    0  504  502  0.00000000000E+00 -0.00000000000E+00 -0.27486893132E+03  0.27486893132E+03  0.00000000000E+00 0. -1.
         21    1    1    2  503  502  0.49666451825E+02 -0.26998815021E+02 -0.49737539192E+02  0.75296183531E+02  0.00000000000E+00 0.  1.
         21    1    1    2  504  501 -0.41904372242E+01  0.34447171346E+02  0.77760435090E+01  0.35561696114E+02  0.00000000000E+00 0.  1.
         21    1    1    2  505  503 -0.60749174818E+02  0.73119747352E+02 -0.18638315415E+03  0.20922628861E+03  0.00000000000E+00 0. -1.
          2    1    1    2  501    0  0.15273160217E+02 -0.80568103677E+02  0.25678175592E+04  0.25691266038E+04  0.00000000000E+00 0. -1.
<scales pt_clust_3="52.14884" pt_clust_4="34.70111" pt_clust_5="14000.00000" pt_clust_6="82.00692"></scales>
<clustering>
<clus scale="   34.701">  2  4  1 -1</clus>
<clus scale="   52.149">  2  3  1 -1</clus>
<clus scale="   82.007">  1  6  2 -1</clus>
<clus scale="   34.701">  2  3  1 -1</clus>
</clustering>
</event>
<event>
 6    0  0.2433432E+002  0.1138509E+03  0.7546771E-02  0.1253600E+00
         21   -1    0    0  501  502  0.00000000000E+00  0.00000000000E+00  0.71255387276E+02  0.71255387276E+02  0.00000000000E+00 0.  1.
          2   -1    0    0  503    0 -0.00000000000E+00 -0.00000000000E+00 -0.21186557351E+04  0.21186557351E+04  0.00000000000E+00 0. -1.
         21    1    1    2  503  504 -0.20858557625E+02  0.23920950815E+02 -0.15610495435E+03  0.15929861295E+03  0.00000000000E+00 0. -1.
         21    1    1    2  504  505 -0.80106524005E+02 -0.13902186700E+03 -0.29537414526E+03  0.33613988217E+03  0.00000000000E+00 0.  1.
         21    1    1    2  505  502  0.44791296865E+02  0.35441028292E+02  0.30760398950E+02  0.64873175542E+02  0.00000000000E+00 0.  1.
          2    1    1    2  501    0  0.56173784764E+02  0.79659887897E+02 -0.16266816471E+04  0.16295994517E+04  0.00000000000E+00 0. -1.
<scales pt_clust_3="31.73785" pt_clust_4="113.85089" pt_clust_5="57.10428" pt_clust_6="14000.00000"></scales>
<clustering>
<clus scale="   31.738">  2  3  1 -1</clus>
<clus scale="   57.104">  1  5  2 -1</clus>
<clus scale="  113.851">  1  4  2 -1</clus>
<clus scale="   57.104">  1  3  2 -1</clus>
</clustering>
</event>
<event>
 6    0  0.2433432E+002  0.1017762E+03  0.7546771E-02  0.1276605E+00
         21   -1    0    0  503  502  0.00000000000E+00  0.00000000000E+00  0.52669421235E+03  0.52669421235E+03  0.00000000000E+00 0. -1.
          3   -1    0    0  504    0 -0.00000000000E+00 -0.00000000000E+00 -0.29889674172E+03  0.29889674172E+03  0.00000000000E+00 0.  1.
         21    1    1    2  503  501  0.22763686870E+02 -0.60176404934E+02  0.13901132756E+03  0.15317811313E+03  0.00000000000E+00 0. -1.
         21    1    1    2  504  505 -0.84329495000E+02 -0.49788188570E+02  0.78185464670E+01  0.98241829772E+02  0.00000000000E+00 0. -1.
         21    1    1    2  505  502  0.85993714478E+02  0.61905345644E+02  0.31586655075E+03  0.33316492707E+03  0.00000000000E+00 0. -1.
          3    1    1    2  501    0 -0.24427906348E+02  0.48059247859E+02 -0.23489895415E+03  0.24100608410E+03  0.00000000000E+00 0.  1.
<scales pt_clust_3="58.11299" pt_clust_4="14000.00000" pt_clust_5="101.77615" pt_clust_6="53.91117"></scales>
<clustering>
<clus scale="   53.911">  2  6  1 -1</clus>
<clus scale="   58.113">  1  3  2 -1</clus>
<clus scale="  101.776">  1  5  2 -1</clus>
<clus scale="   58.113">  1  3  2 -1</clus>
</clustering>
</event>
<event>
 6    0  0.2433432E+002  0.4274830E+03  0.7546771E-02  0.1034658E+00
         21   -1    0    0  505  502  0.00000000000E+00  0.00000000000E+00  0.31281913265E+03  0.31281913265E+03  0.00000000000E+00 0. -1.
          1   -1    0    0  503    0 -0.00000000000E+00 -0.00000000000E+00 -0.64027146487E+03  0.64027146487E+03  0.00000000000E+00 0. -1.
         21    1    1    2  503  504 -0.18300469363E+02 -0.22794530933E+03 -0.20074119286E+03  0.30428768910E+03  0.00000000000E+00 0. -1.
         21    1    1    2  504  502 -0.10996230514E+02 -0.18976688928E+03 -0.11994413500E+02  0.19046326498E+03  0.00000000000E+00 0.  1.
         21    1    1    2  505  501  0.32710329751E+02  0.38334847483E+02  0.22106186898E+02  0.55029171384E+02  0.00000000000E+00 0. -1.
          1    1    1    2  501    0 -0.34136298742E+01  0.37937735112E+03 -0.13682291276E+03  0.40331047206E+03  0.00000000000E+00 0. -1.
<scales pt_clust_3="139.26474" pt_clust_4="139.26474" pt_clust_5="50.39371" pt_clust_6="398.19773"></scales>
<clustering>
<clus scale="   50.394">  1  5  2 -1</clus>
<clus scale="  139.265">  3  4 -1 -1</clus>
<clus scale="  398.198">  1  6  2 -1</clus>
<clus scale="   50.394">  1  3  2 -1</clus>
</clustering>
</event>
<event>
 6    0  0.2433432E+002  0.8191610E+02  0.7546771E-02  0.1323700E+00
          1   -1    0    0  503    0 -0.00000000000E+00  0.00000000000E+00  0.18575574517E+04  0.18575574517E+04  0.00000000000E+00 0. -1.
         21   -1    0    0  505  502  0.00000000000E+00 -0.00000000000E+00 -0.79512084729E+03  0.79512084729E+03  0.00000000000E+00 0. -1.
         21    1    1    2  503  502  0.25353325176E+02 -0.62052256560E+02 -0.58442579512E+03  0.58825741274E+03  0.00000000000E+00 0. -1.
         21    1    1    2  504  501  0.60795603382E+02  0.18397212864E+02  0.32709048803E+03  0.33320076560E+03  0.00000000000E+00 0. -1.
         21    1    1    2  505  504 -0.87813215975E+02  0.68207724801E+01 -0.19606234031E+03  0.21493749121E+03  0.00000000000E+00 0.  1.
          1    1    1    2  501    0  0.16642874169E+01  0.36834271215E+02  0.15158342518E+04  0.15162826294E+04  0.00000000000E+00 0. -1.
<scales pt_clust_3="66.84418" pt_clust_4="14000.00000" pt_clust_5="81.91610" pt_clust_6="36.87185"></scales>
<clustering>
<clus scale="   36.872">  1  6  2 -1</clus>
<clus scale="   66.844">  2  3  1 -1</clus>
<clus scale="   81.916">  2  5  1 -1</clus>
<clus scale="   66.844">  2  3  1 -1</clus>
</clustering>
</event>
<event>
 6    0  0.2433432E+002  0.8452596E+02  0.7546771E-02  0.1316677E+00
          2   -1    0    0  505    0 -0.00000000000E+00  0.00000000000E+00  0.27427221374E+04  0.27427221374E+04  0.00000000000E+00 0. -1.
         21   -1    0    0  501  502  0.00000000000E+00 -0.00000000000E+00 -0.14513365005E+02  0.14513365005E+02  0.00000000000E+00 0.  1.
         21    1    1    2  503  502  0.14660340136E+02  0.37965337600E+02  0.87863935874E+02  0.96831625306E+02  0.00000000000E+00 0.  1.
         21    1    1    2  504  503  0.50647871168E+02 -0.53375677657E+01  0.13866621949E+03  0.14772277046E+03  0.00000000000E+00 0.  1.
         21    1    1    2  505  504 -0.47426319823E+02  0.57302085530E+02  0.29964013246E+03  0.30873450374E+03  0.00000000000E+00 0. -1.
          2    1    1    2  501    0 -0.17881891481E+02 -0.89929855365E+02  0.22020384846E+04  0.22039466029E+04  0.00000000000E+00 0. -1.
<scales pt_clust_3="40.69757" pt_clust_4="58.47073" pt_clust_5="14000.00000" pt_clust_6="84.52596"></scales>
<clustering>
<clus scale="   40.698">  2  3  1 -1</clus>
<clus scale="   58.471">  2  4  1 -1</clus>
<clus scale="   84.526">  1  6  2 -1</clus>
<clus scale="   40.698">  2  3  1 -1</clus>
</clustering>
</event>
<event>
 6    0  0.2433432E+002  0.1474227E+03  0.7546771E-02  0.1203676E+00
         21   -1    0    0  505  502  0.00000000000E+00  0.00000000000E+00  0.58004036747E+02  0.58004036747E+02  0.00000000000E+00 0. -1.
          1   -1    0    0  503    0 -0.00000000000E+00 -0.00000000000E+00 -0.80197062065E+03  0.80197062065E+03  0.00000000000E+00 0.  1.
         21    1    1    2  503  502  0.12345931959E+03  0.10584005492E+03 -0.12040396738E+03  0.20233990259E+03  0.00000000000E+00 0. -1.
         21    1    1    2  504  501 -0.20934424049E+02 -0.59092442982E+02 -0.15336969353E+03  0.16568774795E+03  0.00000000000E+00 0. -1.
         21    1    1    2  505  504 -0.42619264173E+02 -0.29773091853E+02 -0.71397057736E+02  0.88319751644E+02  0.00000000000E+00 0. -1.
          1    1    1    2  501    0 -0.59905631370E+02 -0.16974520083E+02 -0.39879586527E+03  0.40362725522E+03  0.00000000000E+00 0.  1.
<scales pt_clust_3="140.24943" pt_clust_4="41.36768" pt_clust_5="41.36768" pt_clust_6="62.26411"></scales>
<clustering>
<clus scale="   41.368">  4  5 -1 -1</clus>
<clus scale="   62.264">  2  6  1 -1</clus>
<clus scale="  140.249">  1  3  2 -1</clus>
<clus scale="  140.249">  1  3  2 -1</clus>
</clustering>
</event>
<event>
 6    0  0.2433432E+002  0.1062425E+03  0.7546771E-02  0.1267691E+00
          4   -1    0    0  505    0 -0.00000000000E+00  0.00000000000E+00  0.73818639462E+03  0.73818639462E+03  0.00000000000E+00 0.  1.
         21   -1    0    0  503  502  0.00000000000E+00 -0.00000000000E+00 -0.10159354260E+03  0.10159354260E+03  0.00000000000E+00 0.  1.
         21    1    1    2  503  501 -0.45800890159E+02 -0.16661737950E+02  0.32794688660E+02  0.58743737157E+02  0.00000000000E+00 0. -1.
         21    1    1    2  504  502  0.54762237644E+02 -0.11047533166E+03 -0.23096189317E+02  0.12544774027E+03  0.00000000000E+00 0.  1.
         21    1    1    2  505  504 -0.39805159798E+02  0.69106637338E+02  0.11772039222E+03  0.14219095897E+03  0.00000000000E+00 0.  1.
          4    1    1    2  501    0  0.30843812312E+02  0.58030432273E+02  0.50917396046E+03  0.51339750081E+03  0.00000000000E+00 0.  1.
<scales pt_clust_3="48.73741" pt_clust_4="14000.00000" pt_clust_5="106.24249" pt_clust_6="64.85994"></scales>
<clustering>
<clus scale="   48.737">  2  3  1 -1</clus>
<clus scale="   64.860">  1  6  2 -1</clus>
<clus scale="  106.242">  1  5  2 -1</clus>
<clus scale="   48.737">  2  3  1 -1</clus>
</clustering>
</event>
<event>
 6    0  0.2433432E+002  0.9630031E+02  0.7546771E-02  0.1288274E+00
          2   -1    0    0  504    0 -0.00000000000E+00  0.00000000000E+00  0.43944749385E+03  0.43944749385E+03  0.00000000000E+00 0.  1.
         21   -1    0    0  501  502  0.00000000000E+00 -0.00000000000E+00 -0.16700814967E+03  0.16700814967E+03  0.00000000000E+00 0.  1.
         21    1    1    2  503  502  0.85081392692E+02 -0.16855506983E+02 -0.12267441932E+03  0.15023969068E+03  0.00000000000E+00 0.  1.
         21    1    1    2  504  505  0.89574305421E+01  0.54030939521E+02  0.37532335627E+02  0.66394685067E+02  0.00000000000E+00 0.  1.
         21    1    1    2  505  503 -0.34498729420E+02  0.30250902684E+02  0.43917216637E+02  0.63513788754E+02  0.00000000000E+00 0.  1.
          2    1    1    2  501    0 -0.59540093814E+02 -0.67426335222E+02  0.31366421124E+03  0.32630747902E+03  0.00000000000E+00 0.  1.
<scales pt_clust_3="86.73495" pt_clust_4="45.64019" pt_clust_5="45.64019" pt_clust_6="82.38540"></scales>
<clustering>
<clus scale="   45.640">  4  5 -1 -1</clus>
<clus scale="   86.735">  2  3  1 -1</clus>
<clus scale="   82.385">  1  6  2 -1</clus>
<clus scale="   86.735">  2  3  1 -1</clus>
</clustering>
</event>
<event>
 6    0  0.2433432E+002  0.1080610E+03  0.7546771E-02  0.1264203E+00
          1   -1    0    0  502    0 -0.00000000000E+00  0.00000000000E+00  0.18270123523E+04  0.18270123523E+04  0.00000000000E+00 0. -1.
         21   -1    0    0  504  502  0.00000000000E+00 -0.00000000000E+00 -0.20325094982E+03  0.20325094982E+03  0.00000000000E+00 0.  1.
         21    1    1    2  503  505 -0.51579888598E+02 -0.28810125338E+02 -0.61165952248E+02  0.85039884432E+02  0.00000000000E+00 0. -1.
         21    1    1    2  504  503 -0.48026845971E+01  0.40635811834E+02 -0.92743336486E+02  0.10136893728E+03  0.00000000000E+00 0.  1.
         21    1    1    2  505  501 -0.52649180942E+02  0.93190222534E+01 -0.85823700990E+01  0.54151985246E+02  0.00000000000E+00 0.  1.
          1    1    1    2  501    0  0.10903175414E+03 -0.21144708749E+02  0.17862530613E+04  0.17897024951E+04  0.00000000000E+00 0. -1.
<scales pt_clust_3="54.89237" pt_clust_4="40.91864" pt_clust_5="14000.00000" pt_clust_6="108.06096"></scales>
<clustering>
<clus scale="   40.919">  2  4  1 -1</clus>
<clus scale="   54.892">  2  3  1 -1</clus>
<clus scale="  108.061">  1  6  2 -1</clus>
<clus scale="   40.919">  2  3  1 -1</clus>
</clustering>
</event>
<event>
 6    0  0.2433432E+002  0.1258574E+03  0.7546771E-02  0.1233735E+00
          1   -1    0    0  503    0 -0.00000000000E+00  0.00000000000E+00  0.46714664715E+03  0.46714664715E+03  0.00000000000E+00 0. -1.
         21   -1    0    0  504  502  0.00000000000E+00 -0.00000000000E+00 -0.43151371402E+03  0.43151371402E+03  0.00000000000E+00 0.  1.
         21    1    1    2  503  505 -0.10906600187E+03  0.59745505645E+02 -0.23360940171E+03  0.26464744619E+03  0.00000000000E+00 0.  1.
         21    1    1    2  504  501  0.70424362530E+02 -0.73113658881E+02 -0.87842709977E+01  0.10189387307E+03  0.00000000000E+00 0. -1.
         21    1    1    2  505  502 -0.45413086943E+02 -0.30395619395E+02 -0.11526962445E+03  0.12756695680E+03  0.00000000000E+00 0.  1.
          1    1    1    2  501    0  0.84054726283E+02  0.43763772631E+02  0.39329623030E+03  0.40455208511E+03  0.00000000000E+00 0. -1.
<scales pt_clust_3="14000.00000" pt_clust_4="125.85736" pt_clust_5="54.64652" pt_clust_6="93.77957"></scales>
<clustering>
<clus scale="   54.647">  2  5  1 -1</clus>
<clus scale="   93.780">  1  6  2 -1</clus>
<clus scale="  125.857">  1  4  2 -1</clus>
<clus scale="   54.647">  2  3  1 -1</clus>
</clustering>
</event>
<event>
 6    0  0.2433432E+002  0.7312468E+02  0.7546771E-02  0.1349779E+00
          1   -1    0    0  504    0 -0.00000000000E+00  0.00000000000E+00  0.12856174861E+04  0.12856174861E+04  0.00000000000E+00 0. -1.
         21   -1    0    0  503  502  0.00000000000E+00 -0.00000000000E+00 -0.12691155032E+04  0.12691155032E+04  0.00000000000E+00 0.  1.
         21    1    1    2  503  501 -0.62150608839E+02  0.71266670674E+01 -0.68179364107E+02  0.92530607113E+02  0.00000000000E+00 0.  1.
         21    1    1    2  504  505  0.35987969839E+02 -0.10521199820E+03 -0.80735443083E+03  0.81497599689E+03  0.00000000000E+00 0.  1.
         21    1    1    2  505  502  0.71544811008E+01  0.40252110337E+02 -0.37575616279E+03  0.37797369335E+03  0.00000000000E+00 0. -1.
          1    1    1    2  501    0  0.19008157899E+02  0.57833220797E+02  0.12677919406E+04  0.12692526920E+04  0.00000000000E+00 0. -1.
<scales pt_clust_3="14000.00000" pt_clust_4="73.12468" pt_clust_5="40.88299" pt_clust_6="60.90999"></scales>
<clustering>
<clus scale="   40.883">  2  5  1 -1</clus>
<clus scale="   60.910">  1  6  2 -1</clus>
<clus scale="   73.125">  2  4  1 -1</clus>
<clus scale="   40.883">  2  3  1 -1</clus>
</clustering>
</event>
<event>
 6    0  0.2433432E+002  0.6718624E+02  0.7546771E-02  0.1369931E+00
         21   -1    0    0  504  502  0.00000000000E+00  0.00000000000E+00  0.99771361741E+02  0.99771361741E+02  0.00000000000E+00 0.  1.
          2   -1    0    0  505    0 -0.00000000000E+00 -0.00000000000E+00 -0.30037891163E+03  0.30037891163E+03  0.00000000000E+00 0. -1.
         21    1    1    2  503  502 -0.27273815779E+02 -0.42740784005E+02 -0.44456268096E+01  0.50895964892E+02  0.00000000000E+00 0.  1.
         21    1    1    2  504  501 -0.16239245722E+02  0.40012588345E+02 -0.14504280810E+02  0.45553205041E+02  0.00000000000E+00 0.  1.
         21    1    1    2  505  503  0.10242825191E+03 -0.21739312242E+02  0.66106574212E+01  0.10491827905E+03  0.00000000000E+00 0.  1.
          2    1    1    2  501    0 -0.58915190413E+02  0.24467507903E+02 -0.18826829969E+03  0.19878282439E+03  0.00000000000E+00 0. -1.
<scales pt_clust_3="44.87355" pt_clust_4="43.18241" pt_clust_5="14000.00000" pt_clust_6="67.18624"></scales>
<clustering>
<clus scale="   43.182">  1  4  2 -1</clus>
<clus scale="   44.874">  1  3  2 -1</clus>
<clus scale="   67.186">  2  6  1 -1</clus>
<clus scale="   43.182">  1  3  2 -1</clus>
</clustering>
</event>
<event>
 6    0  0.2433432E+002  0.1440682E+03  0.7546771E-02  0.1207957E+00
          1   -1    0    0  505    0 -0.00000000000E+00  0.00000000000E+00  0.29755039359E+03  0.29755039359E+03  0.00000000000E+00 0. -1.
         21   -1    0    0  503  502  0.00000000000E+00 -0.00000000000E+00 -0.88260746479E+03  0.88260746479E+03  0.00000000000E+00 0. -1.
         21    1    1    2  503  501  0.72008252597E+02 -0.51575903949E+02  0.88676137053E+01  0.89016273136E+02  0.00000000000E+00 0. -1.
         21    1    1    2  504  502 -0.42735374658E+02  0.30805187491E+02 -0.45810214768E+03  0.46112129590E+03  0.00000000000E+00 0. -1.
         21    1    1    2  505  504 -0.49672666339E+02  0.73578051082E+02 -0.37441918310E+03  0.38479972460E+03  0.00000000000E+00 0. -1.
          1    1    1    2  501    0  0.20399788400E+02 -0.52807334624E+02  0.23859664587E+03  0.24522056475E+03  0.00000000000E+00 0. -1.
<scales pt_clust_3="133.04190" pt_clust_4="42.58148" pt_clust_5="42.58148" pt_clust_6="56.61065"></scales>
<clustering>
<clus scale="   42.581">  4  5 -1 -1</clus>
<clus scale="   56.611">  1  6  2 -1</clus>
<clus scale="  133.042">  1  3  2 -1</clus>
<clus scale="  144.068">  2  3  1 -1</clus>
</clustering>
</event>
<event>
 6    0  0.2433432E+002  0.9519312E+02  0.7546771E-02  0.1290742E+00
         21   -1    0    0  504  502  0.00000000000E+00  0.00000000000E+00  0.57083404924E+02  0.57083404924E+02  0.00000000000E+00 0.  1.
          2   -1    0    0  503    0 -0.00000000000E+00 -0.00000000000E+00 -0.18106549265E+04  0.18106549265E+04  0.00000000000E+00 0.  1.
         21    1    1    2  503  502  0.53814377451E+02  0.27767746816E+01  0.84647457495E+01  0.54546765428E+02  0.00000000000E+00 0.  1.
         21    1    1    2  504  505 -0.25754220361E+02 -0.16682568567E+02 -0.84446447841E+01  0.31826089705E+02  0.00000000000E+00 0. -1.
         21    1    1    2  505  501  0.65286448475E+02 -0.17285635247E+02 -0.79206370407E+02  0.10409016598E+03  0.00000000000E+00 0.  1.
          2    1    1    2  501    0 -0.93346605565E+02  0.31191429133E+02 -0.16743852521E+04  0.16772753103E+04  0.00000000000E+00 0.  1.
<scales pt_clust_3="37.00131" pt_clust_4="30.68531" pt_clust_5="14000.00000" pt_clust_6="95.19312"></scales>
<clustering>
<clus scale="   30.685">  1  4  2 -1</clus>
<clus scale="   37.001">  1  3  2 -1</clus>
<clus scale="   95.193">  2  6  1 -1</clus>
<clus scale="   30.685">  1  3  2 -1</clus>
</clustering>
</event>
<event>
 6    0  0.2433432E+002  0.1146362E+03  0.7546771E-02  0.1252218E+00
          2   -1    0    0  503    0 -0.00000000000E+00  0.00000000000E+00  0.12767704492E+04  0.12767704492E+04  0.00000000000E+00 0. -1.
         21   -1    0    0  504  502  0.00000000000E+00 -0.00000000000E+00 -0.34066753727E+03  0.34066753727E+03  0.00000000000E+00 0. -1.
         21    1    1    2  503  502  0.32640111031E+02  0.13844238249E+01 -0.22014818584E+01  0.32743548980E+02  0.00000000000E+00 0. -1.
         21    1    1    2  504  505  0.28345238337E+01 -0.55211218856E+02 -0.70250309959E+02  0.89394738449E+02  0.00000000000E+00 0.  1.
         21    1    1    2  505  501  0.13512092400E+02 -0.50586997004E+02 -0.23786272010E+03  0.24355757948E+03  0.00000000000E+00 0. -1.
          2    1    1    2  501    0 -0.48986727264E+02  0.10441379204E+03  0.12464174239E+04  0.12517421196E+04  0.00000000000E+00 0. -1.
<scales pt_clust_3="32.66946" pt_clust_4="55.94070" pt_clust_5="14000.00000" pt_clust_6="114.63617"></scales>
<clustering>
<clus scale="   32.669">  2  3  1 -1</clus>
<clus scale="   55.941">  2  4  1 -1</clus>
<clus scale="  114.636">  1  6  2 -1</clus>
<clus scale="   32.669">  2  3  1 -1</clus>
</clustering>
</event>
<event>
 6    0  0.2433432E+002  0.1348700E+03  0.7546771E-02  0.1220403E+00
         21   -1    0    0  504  502  0.00000000000E+00  0.00000000000E+00  0.52406158552E+02  0.52406158552E+02  0.00000000000E+00 0. -1.
          1   -1    0    0  503    0 -0.00000000000E+00 -0.00000000000E+00 -0.78111980815E+03  0.78111980815E+03  0.00000000000E+00 0. -1.
         21    1    1    2  503  505  0.11463087902E+02 -0.91897673049E+02 -0.18666485232E+03  0.20837550669E+03  0.00000000000E+00 0. -1.
         21    1    1    2  504  501 -0.22506551867E+02  0.24649247068E+02  0.96817295332E+01  0.34754368714E+02  0.00000000000E+00 0. -1.
         21    1    1    2  505  502  0.25388076566E+02 -0.48956292871E+02 -0.47606931422E+02  0.72853915219E+02  0.00000000000E+00 0. -1.
          1    1    1    2  501    0 -0.14344612601E+02  0.11620471885E+03 -0.50412359539E+03  0.51754217609E+03  0.00000000000E+00 0. -1.
<scales pt_clust_3="38.91277" pt_clust_4="33.37859" pt_clust_5="38.91277" pt_clust_6="123.21139"></scales>
<clustering>
<clus scale="   33.379">  1  4  2 -1</clus>
<clus scale="   38.913">  3  5 -1 -1</clus>
<clus scale="  123.211">  2  6  1 -1</clus>
<clus scale="   33.379">  1  3  2 -1</clus>
</clustering>
</event>
<event>
 6    0  0.2433432E+002  0.1815839E+03  0.7546771E-02  0.1166279E+00
          2   -1    0    0  505    0 -0.00000000000E+00  0.00000000000E+00  0.41437138753E+04  0.41437138753E+04  0.00000000000E+00 0. -1.
         21   -1    0    0  503  502  0.00000000000E+00 -0.00000000000E+00 -0.75109169750E+03  0.75109169750E+03  0.00000000000E+00 0. -1.
         21    1    1    2  503  501 -0.40494936879E+02  0.16611145520E+03 -0.26501058499E+03  0.31537828971E+03  0.00000000000E+00 0. -1.
         21    1    1    2  504  502 -0.33154994409E+02  0.19536687086E+02 -0.42993504613E+03  0.43165388876E+03  0.00000000000E+00 0. -1.
         21    1    1    2  505  504  0.13448179767E+03 -0.57564383764E+02  0.15677321336E+03  0.21442213647E+03  0.00000000000E+00 0. -1.
          2    1    1    2  501    0 -0.60831866380E+02 -0.12808375853E+03  0.39307945955E+04  0.39333512578E+04  0.00000000000E+00 0. -1.
<scales pt_clust_3="14000.00000" pt_clust_4="38.48293" pt_clust_5="181.58388" pt_clust_6="141.78192"></scales>
<clustering>
<clus scale="   38.483">  2  4  1 -1</clus>
<clus scale="  141.782">  1  6  2 -1</clus>
<clus scale="  181.584">  1  5  2 -1</clus>
<clus scale="   38.483">  2  3  1 -1</clus>
</clustering>
</event>
<event>
 6    0  0.2433432E+002  0.1064019E+03  0.7546771E-02  0.1267382E+00
         -4   -1    0    0    0  501 -0.00000000000E+00  0.00000000000E+00  0.20341258478E+04  0.20341258478E+04  0.00000000000E+00 0. -1.
         21   -1    0    0  504  502  0.00000000000E+00 -0.00000000000E+00 -0.31075755399E+02  0.31075755399E+02  0.00000000000E+00 0. -1.
         21    1    1    2  503  502  0.69609818225E+02 -0.13533547837E+02  0.15516059655E+03  0.17059746314E+03  0.00000000000E+00 0. -1.
         21    1    1    2  504  505 -0.61357312395E+02  0.50696504255E+02  0.11048518770E+03  0.13616839585E+03  0.00000000000E+00 0. -1.
         21    1    1    2  505  501 -0.67592313551E+02  0.41382258125E+02  0.16597796111E+03  0.18392905076E+03  0.00000000000E+00 0. -1.
         -4    1    1    2    0  503  0.59339807721E+02 -0.78545214543E+02  0.15714263471E+04  0.15745066935E+04  0.00000000000E+00 0. -1.
<scales pt_clust_3="70.91321" pt_clust_4="30.33278" pt_clust_5="30.33278" pt_clust_6="101.96745"></scales>
<clustering>
<clus scale="   30.333">  4  5 -1 -1</clus>
<clus scale="   70.913">  2  3  1 -1</clus>
<clus scale="  101.967">  1  6  2 -1</clus>
<clus scale="   70.913">  2  3  1 -1</clus>
</clustering>
</event>
<event>
 6    0  0.2433432E+002  0.1357202E+03  0.7546771E-02  0.1219207E+00
          1   -1    0    0  504    0 -0.00000000000E+00  0.00000000000E+00  0.85775137535E+03  0.85775137535E+03  0.00000000000E+00 0. -1.
         21   -1    0    0  503  502  0.00000000000E+00 -0.00000000000E+00 -0.19509113945E+03  0.19509113945E+03  0.00000000000E+00 0.  1.
         21    1    1    2  503  505 -0.30140744139E+02 -0.12717151285E+02 -0.16880986780E+01  0.32757290352E+02  0.00000000000E+00 0.  1.
         21    1    1    2  504  502 -0.11761000499E+02 -0.19324483285E+03 -0.83524263328E+02  0.21085110652E+03  0.00000000000E+00 0.  1.
         21    1    1    2  505  501  0.61628543052E+02  0.74094457607E+02  0.71908249336E+02  0.12024500942E+03  0.00000000000E+00 0.  1.
          1    1    1    2  501    0 -0.19726798414E+02  0.13186752652E+03  0.67596434857E+03  0.68898910852E+03  0.00000000000E+00 0. -1.
<scales pt_clust_3="32.71376" pt_clust_4="135.72018" pt_clust_5="92.44979" pt_clust_6="14000.00000"></scales>
<clustering>
<clus scale="   32.714">  2  3  1 -1</clus>
<clus scale="   92.450">  2  5  1 -1</clus>
<clus scale="  135.720">  2  4  1 -1</clus>
<clus scale="   32.714">  2  3  1 -1</clus>
</clustering>
</event>
<event>
 6    0  0.2433432E+002  0.9812164E+02  0.7546771E-02  0.1284296E+00
         21   -1    0    0  503  502  0.00000000000E+00  0.00000000000E+00  0.38879408474E+03  0.38879408474E+03  0.00000000000E+00 0. -1.
          2   -1    0    0  504    0 -0.00000000000E+00 -0.00000000000E+00 -0.24952810915E+04  0.24952810915E+04  0.00000000000E+00 0.  1.
         21    1    1    2  503  501 -0.77190712196E+02  0.24309390821E+01 -0.13660358460E+03  0.15692308574E+03  0.00000000000E+00 0. -1.
         21    1    1    2  504  505  0.45485714743E+02 -0.86801642745E+02 -0.81756953071E+03  0.82342177101E+03  0.00000000000E+00 0. -1.
         21    1    1    2  505  502 -0.29592398488E+02 -0.21790646739E+02  0.37234350093E+03  0.37415267608E+03  0.00000000000E+00 0. -1.
          2    1    1    2  501    0  0.61297395942E+02  0.10616135040E+03 -0.15246573924E+04  0.15295776434E+04  0.00000000000E+00 0.  1.
<scales pt_clust_3="97.24993" pt_clust_4="14000.00000" pt_clust_5="36.74973" pt_clust_6="98.12164"></scales>
<clustering>
<clus scale="   36.750">  1  5  2 -1</clus>
<clus scale="   97.250">  1  3  2 -1</clus>
<clus scale="   98.122">  2  6  1 -1</clus>
<clus scale="   36.750">  1  3  2 -1</clus>
</clustering>
</event>
<event>
 6    0  0.2433432E+002  0.1293962E+03  0.7546771E-02  0.1228354E+00
         21   -1    0    0  503  502  0.00000000000E+00  0.00000000000E+00  0.30071844040E+03  0.30071844040E+03  0.00000000000E+00 0.  1.
         -1   -1    0    0    0  501 -0.00000000000E+00 -0.00000000000E+00 -0.29587963984E+03  0.29587963984E+03  0.00000000000E+00 0.  1.
         21    1    1    2  503  501 -0.38891304757E+02 -0.14436092989E+02  0.34270428634E+01  0.41625460830E+02  0.00000000000E+00 0.  1.
         21    1    1    2  504  502  0.32086800131E+02  0.12217726284E+02  0.13681012354E+03  0.14105263373E+03  0.00000000000E+00 0.  1.
         21    1    1    2  505  504  0.10193369339E+03 -0.84841079159E+02  0.85744318488E+02  0.15792585195E+03  0.00000000000E+00 0.  1.
         -1    1    1    2    0  505 -0.95129188763E+02  0.87059445864E+02 -0.22114268434E+03  0.25599413373E+03  0.00000000000E+00 0.  1.
<scales pt_clust_3="36.70385" pt_clust_4="34.33418" pt_clust_5="129.39619" pt_clust_6="14000.00000"></scales>
<clustering>
<clus scale="   34.334">  1  4  2 -1</clus>
<clus scale="   36.704">  1  3  2 -1</clus>
<clus scale="  129.396">  1  5  2 -1</clus>
<clus scale="   34.334">  1  3  2 -1</clus>
</clustering>
</event>
<event>
 6    0  0.2433432E+002  0.1748573E+03  0.7546771E-02  0.1172875E+00
         21   -1    0    0  505  502  0.00000000000E+00  0.00000000000E+00  0.31160983562E+03  0.31160983562E+03  0.00000000000E+00 0. -1.
          2   -1    0    0  502    0 -0.00000000000E+00 -0.00000000000E+00 -0.45129476103E+03  0.45129476103E+03  0.00000000000E+00 0. -1.
         21    1    1    2  503  504 -0.35279251119E+02  0.36442592123E+02  0.47168551502E+02  0.69264423270E+02  0.00000000000E+00 0. -1.
         21    1    1    2  504  501  0.11380254418E+02  0.13185283266E+03  0.11951722292E+03  0.17832287078E+03  0.00000000000E+00 0. -1.
         21    1    1    2  505  503 -0.40391688225E+02 -0.20843174531E+02  0.82665240033E+02  0.94336993338E+02  0.00000000000E+00 0. -1.
          2    1    1    2  501    0  0.64290684926E+02 -0.14745225025E+03 -0.38903593987E+03  0.42098030926E+03  0.00000000000E+00 0. -1.
<scales pt_clust_3="42.08286" pt_clust_4="42.08286" pt_clust_5="45.45246" pt_clust_6="161.10332"></scales>
<clustering>
<clus scale="   42.083">  3  4 -1 -1</clus>
<clus scale="   45.452">  1  5  2 -1</clus>
<clus scale="  161.103">  2  6  1 -1</clus>
<clus scale="   45.452">  1  3  2 -1</clus>
</clustering>
</event>
<event>
 6    0  0.2433432E+002  0.1143831E+03  0.7546771E-02  0.1252662E+00
         21   -1    0    0  503  502  0.00000000000E+00  0.00000000000E+00  0.94890528644E+03  0.94890528644E+03  0.00000000000E+00 0. -1.
         -1   -1    0    0    0  501 -0.00000000000E+00 -0.00000000000E+00 -0.11006091641E+03  0.11006091641E+03  0.00000000000E+00 0. -1.
         21    1    1    2  503  504  0.19966693056E+02 -0.31770532219E+02  0.85720811501E+02  0.93573997849E+02  0.00000000000E+00 0. -1.
         21    1    1    2  504  501 -0.26168623288E+02 -0.37494737985E+02  0.44778128424E+02  0.63997914080E+02  0.00000000000E+00 0. -1.
         21    1    1    2  505  502  0.88821341088E+02  0.77639407810E+02  0.78172484936E+03  0.79057627614E+03  0.00000000000E+00 0. -1.
         -1    1    1    2    0  505 -0.82619410855E+02 -0.83741376062E+01 -0.73379419262E+02  0.11081801479E+03  0.00000000000E+00 0. -1.
<scales pt_clust_3="37.52380" pt_clust_4="46.70064" pt_clust_5="14000.00000" pt_clust_6="114.38314"></scales>
<clustering>
<clus scale="   37.524">  1  3  2 -1</clus>
<clus scale="   46.701">  2  4  1 -1</clus>
<clus scale="  114.383">  2  6  1 -1</clus>
<clus scale="   37.524">  1  3  2 -1</clus>
</clustering>
</event>
<event>
 6    0  0.2433432E+002  0.1405292E+03  0.7546771E-02  0.1212619E+00
         21   -1    0    0  504  502  0.00000000000E+00  0.00000000000E+00  0.69829811310E+02  0.69829811310E+02  0.00000000000E+00 0.  1.
         -1   -1    0    0    0  501 -0.00000000000E+00 -0.00000000000E+00 -0.86896715977E+03  0.86896715977E+03  0.00000000000E+00 0.  1.
         21    1    1    2  503  501  0.93199581377E+02  0.22778682201E+02 -0.42788596455E+03  0.43851046623E+03  0.00000000000E+00 0.  1.
         21    1    1    2  504  503  0.49256334189E+02 -0.19072860073E+02 -0.27889619608E+03  0.28385392130E+03  0.00000000000E+00 0.  1.
         21    1    1    2  505  502 -0.32947769590E+02 -0.10656132925E+00  0.35244162144E+02  0.48246428277E+02  0.00000000000E+00 0.  1.
         -1    1    1    2    0  505 -0.10950814598E+03 -0.35992607989E+01 -0.12759934997E+03  0.16818615528E+03  0.00000000000E+00 0.  1.
<scales pt_clust_3="32.86455" pt_clust_4="32.86455" pt_clust_5="32.94794" pt_clust_6="133.36633"></scales>
<clustering>
<clus scale="   32.865">  3  4 -1 -1</clus>
<clus scale="   32.948">  1  5  2 -1</clus>
<clus scale="  133.366">  1  6  2 -1</clus>
<clus scale="   32.948">  1  3  2 -1</clus>
</clustering>
</event>
<event>
 6    0  0.2433432E+002  0.1340532E+03  0.7546771E-02  0.1221563E+00
         21   -1    0    0  505  502  0.00000000000E+00  0.00000000000E+00  0.62570834082E+03  0.62570834082E+03  0.00000000000E+00 0.  1.
          1   -1    0    0  503    0 -0.00000000000E+00 -0.00000000000E+00 -0.77457699682E+03  0.77457699682E+03  0.00000000000E+00 0.  1.
         21    1    1    2  503  504  0.87131062604E+02 -0.29274522324E+02  0.27477335648E+03  0.28973991296E+03  0.00000000000E+00 0.  1.
         21    1    1    2  504  502  0.18200917157E+02  0.44535091481E+02  0.31553710799E+03  0.31918382521E+03  0.00000000000E+00 0.  1.
         21    1    1    2  505  501  0.26490052001E+02  0.14978971518E+02  0.84618410712E+01  0.31586313445E+02  0.00000000000E+00 0. -1.
          1    1    1    2  501    0 -0.13182203176E+03 -0.30239540675E+02 -0.74764096154E+03  0.75977528602E+03  0.00000000000E+00 0.  1.
<scales pt_clust_3="14000.00000" pt_clust_4="61.42662" pt_clust_5="30.43177" pt_clust_6="134.05317"></scales>
<clustering>
<clus scale="   30.432">  1  5  2 -1</clus>
<clus scale="   61.427">  1  4  2 -1</clus>
<clus scale="  134.053">  2  6  1 -1</clus>
<clus scale="   30.432">  1  3  2 -1</clus>
</clustering>
</event>
<event>
 6    0  0.2433432E+002  0.1392251E+03  0.7546771E-02  0.1214375E+00
         21   -1    0    0  503  502  0.00000000000E+00  0.00000000000E+00  0.73104389549E+02  0.73104389549E+02  0.00000000000E+00 0.  1.
          2   -1    0    0  504    0 -0.00000000000E+00 -0.00000000000E+00 -0.35180749296E+04  0.35180749296E+04  0.00000000000E+00 0. -1.
         21    1    1    2  503  501 -0.26644231380E+02 -0.14990455619E+02  0.35497877009E+02  0.46847925222E+02  0.00000000000E+00 0.  1.
         21    1    1    2  504  505 -0.41576410109E+02 -0.86263333882E+01 -0.58729815833E+02  0.72472082715E+02  0.00000000000E+00 0.  1.
         21    1    1    2  505  502 -0.62623092883E+02  0.95905769345E+01 -0.18391073879E+02  0.65968648058E+02  0.00000000000E+00 0.  1.
          2    1    1    2  501    0  0.13084373437E+03  0.14026212072E+02 -0.34033475273E+04  0.34058906631E+04  0.00000000000E+00 0. -1.
<scales pt_clust_3="30.57170" pt_clust_4="37.35261" pt_clust_5="37.35261" pt_clust_6="130.47566"></scales>
<clustering>
<clus scale="   30.572">  1  3  2 -1</clus>
<clus scale="   37.353">  4  5 -1 -1</clus>
<clus scale="  130.476">  2  6  1 -1</clus>
<clus scale="   30.572">  1  3  2 -1</clus>
</clustering>
</event>
<event>
 6    0  0.2433432E+002  0.9505901E+02  0.7546771E-02  0.1291043E+00
          2   -1    0    0  505    0 -0.00000000000E+00  0.00000000000E+00  0.74069872486E+03  0.74069872486E+03  0.00000000000E+00 0.  1.
         21   -1    0    0  503  502  0.00000000000E+00 -0.00000000000E+00 -0.14884208204E+03  0.14884208204E+03  0.00000000000E+00 0. -1.
         21    1    1    2  503  504 -0.32591567679E+02  0.91019705387E+02 -0.11571936876E+03  0.15079048166E+03  0.00000000000E+00 0. -1.
         21    1    1    2  504  501 -0.75200980323E+01 -0.83122604221E+02  0.19523024898E+03  0.21232232413E+03  0.00000000000E+00 0. -1.
         21    1    1    2  505  502  0.10630448466E+02  0.28128231831E+02  0.32299775843E+02  0.44130254702E+02  0.00000000000E+00 0. -1.
          2    1    1    2  501    0  0.29481217246E+02 -0.36025332998E+02  0.48004598675E+03  0.48229774640E+03  0.00000000000E+00 0.  1.
<scales pt_clust_3="95.05901" pt_clust_4="14000.00000" pt_clust_5="30.06998" pt_clust_6="40.40228"></scales>
<clustering>
<clus scale="   30.070">  1  5  2 -1</clus>
<clus scale="   40.402">  1  6  2 -1</clus>
<clus scale="   95.059">  2  3  1 -1</clus>
<clus scale="   95.059">  2  3  1 -1</clus>
</clustering>
</event>
<event>
 6    0  0.2433432E+002  0.1287512E+03  0.7546771E-02  0.1229321E+00
         -1   -1    0    0    0  501 -0.00000000000E+00  0.00000000000E+00  0.45469209107E+03  0.45469209107E+03  0.00000000000E+00 0. -1.
         21   -1    0    0  503  502  0.00000000000E+00 -0.00000000000E+00 -0.21117629529E+03  0.21117629529E+03  0.00000000000E+00 0.  1.
         21    1    1    2  503  504 -0.57659270158E+02 -0.37808825955E+02 -0.11524108591E+02  0.69906393371E+02  0.00000000000E+00 0.  1.
         21    1    1    2  504  501  0.21062736024E+02  0.46660126994E+02  0.47783822434E+02  0.70029279493E+02  0.00000000000E+00 0.  1.
         21    1    1    2  505  502 -0.14055193423E+02 -0.84771720246E+02 -0.14143684281E+03  0.16549372653E+03  0.00000000000E+00 0.  1.
         -1    1    1    2    0  505  0.50651727557E+02  0.75920419207E+02  0.34869292475E+03  0.36043898697E+03  0.00000000000E+00 0. -1.
<scales pt_clust_3="65.79497" pt_clust_4="51.19381" pt_clust_5="14000.00000" pt_clust_6="128.75121"></scales>
<clustering>
<clus scale="   51.194">  1  4  2 -1</clus>
<clus scale="   65.795">  2  3  1 -1</clus>
<clus scale="  128.751">  1  6  2 -1</clus>
<clus scale="   65.795">  2  3  1 -1</clus>
</clustering>
</event>
<event>
 6    0  0.2433432E+002  0.2039365E+03  0.7546771E-02  0.1146460E+00
          2   -1    0    0  505    0 -0.00000000000E+00  0.00000000000E+00  0.23647729136E+03  0.23647729136E+03  0.00000000000E+00 0. -1.
         21   -1    0    0  504  502  0.00000000000E+00 -0.00000000000E+00 -0.14489496685E+04  0.14489496685E+04  0.00000000000E+00 0. -1.
         21    1    1    2  503  501  0.17595864241E+03  0.36981919368E+02 -0.13575369561E+03  0.22529574357E+03  0.00000000000E+00 0. -1.
         21    1    1    2  504  503 -0.20725478270E+03  0.41109479303E+02 -0.12275812576E+04  0.12456324812E+04  0.00000000000E+00 0. -1.
         21    1    1    2  505  502  0.40610014583E+01 -0.65490417515E+02  0.52498046419E+01  0.65825883723E+02  0.00000000000E+00 0. -1.
          2    1    1    2  501    0  0.27235138834E+02 -0.12600981155E+02  0.14561277145E+03  0.14867285133E+03  0.00000000000E+00 0. -1.
<scales pt_clust_3="203.93654" pt_clust_4="14000.00000" pt_clust_5="72.05947" pt_clust_6="30.00896"></scales>
<clustering>
<clus scale="   30.009">  1  6  2 -1</clus>
<clus scale="   72.059">  1  5  2 -1</clus>
<clus scale="  203.937">  1  3  2 -1</clus>
<clus scale="  203.937">  2  3  1 -1</clus>
</clustering>
</event>
<event>
 6    0  0.2433432E+002  0.1354126E+03  0.7546771E-02  0.1219638E+00
         21   -1    0    0  504  502  0.00000000000E+00  0.00000000000E+00  0.35745768534E+02  0.35745768534E+02  0.00000000000E+00 0.  1.
          2   -1    0    0  503    0 -0.00000000000E+00 -0.00000000000E+00 -0.32221625990E+04  0.32221625990E+04  0.00000000000E+00 0. -1.
         21    1    1    2  503  505  0.84349444262E+01  0.72704052094E+02 -0.20686291168E+03  0.21942946864E+03  0.00000000000E+00 0.  1.
         21    1    1    2  504  501 -0.10433270049E+03 -0.51937020099E+02 -0.18741110661E+03  0.22069365494E+03  0.00000000000E+00 0.  1.
         21    1    1    2  505  502  0.53647473945E+01  0.74205434111E+02 -0.11215955025E+03  0.13459194507E+03  0.00000000000E+00 0.  1.
          2    1    1    2  501    0  0.90533008674E+02 -0.94972466107E+02 -0.26799832619E+04  0.26831932989E+04  0.00000000000E+00 0. -1.
<scales pt_clust_3="41.88157" pt_clust_4="116.54513" pt_clust_5="41.88157" pt_clust_6="128.66068"></scales>
<clustering>
<clus scale="   41.882">  3  5 -1 -1</clus>
<clus scale="  116.545">  1  4  2 -1</clus>
<clus scale="  128.661">  2  6  1 -1</clus>
<clus scale="  116.545">  1  3  2 -1</clus>
</clustering>
</event>
<event>
 6    0  0.2433432E+002  0.1394519E+03  0.7546771E-02  0.1214068E+00
          1   -1    0    0  503    0 -0.00000000000E+00  0.00000000000E+00  0.15555126119E+03  0.15555126119E+03  0.00000000000E+00 0.  1.
         21   -1    0    0  505  502  0.00000000000E+00 -0.00000000000E+00 -0.15725552750E+04  0.15725552750E+04  0.00000000000E+00 0.  1.
         21    1    1    2  503  504  0.28564423019E+02  0.39129315193E+02 -0.23252015427E+03  0.23751347691E+03  0.00000000000E+00 0.  1.
         21    1    1    2  504  502  0.34443708321E+02  0.79176208136E+02 -0.88516927918E+03  0.88937050422E+03  0.00000000000E+00 0.  1.
         21    1    1    2  505  501 -0.16403554756E+02 -0.12513632467E+03 -0.43744232403E+03  0.45528448602E+03  0.00000000000E+00 0.  1.
          1    1    1    2  501    0 -0.46604576584E+02  0.68308013446E+01  0.13812774370E+03  0.14593806901E+03  0.00000000000E+00 0.  1.
<scales pt_clust_3="38.71696" pt_clust_4="38.71696" pt_clust_5="129.51916" pt_clust_6="47.10251"></scales>
<clustering>
<clus scale="   38.717">  3  4 -1 -1</clus>
<clus scale="   47.103">  1  6  2 -1</clus>
<clus scale="  129.519">  1  5  2 -1</clus>
<clus scale="  139.452">  2  3  1 -1</clus>
</clustering>
</event>
<event>
 6    0  0.2433432E+002  0.7540834E+02  0.7546771E-02  0.1342611E+00
          1   -1    0    0  504    0 -0.00000000000E+00  0.00000000000E+00  0.19908469534E+04  0.19908469534E+04  0.00000000000E+00 0.  1.
         21   -1    0    0  503  502  0.00000000000E+00 -0.00000000000E+00 -0.15459554520E+03  0.15459554520E+03  0.00000000000E+00 0.  1.
         21    1    1    2  503  501 -0.35998103383E+02 -0.98770823954E+02  0.14289737329E+02  0.10609305210E+03  0.00000000000E+00 0.  1.
         21    1    1    2  504  505  0.38457401675E+02  0.69864511252E+01  0.35034413931E+02  0.52489926675E+02  0.00000000000E+00 0.  1.
         21    1    1    2  505  502 -0.28801054846E+02  0.21641512422E+02 -0.95950924469E+02  0.10249114950E+03  0.00000000000E+00 0.  1.
          1    1    1    2  501    0  0.26341756554E+02  0.70142860407E+02  0.18828781814E+04  0.18843683703E+04  0.00000000000E+00 0.  1.
<scales pt_clust_3="14000.00000" pt_clust_4="35.47585" pt_clust_5="36.02577" pt_clust_6="75.40834"></scales>
<clustering>
<clus scale="   36.026">  2  5  1 -1</clus>
<clus scale="   35.476">  2  4  1 -1</clus>
<clus scale="   75.408">  1  6  2 -1</clus>
<clus scale="   36.026">  2  3  1 -1</clus>
</clustering>
</event>
<event>
 6    0  0.2433432E+002  0.1425222E+03  0.7546771E-02  0.1209975E+00
         21   -1    0    0  505  502  0.00000000000E+00  0.00000000000E+00  0.16409894105E+03  0.16409894105E+03  0.00000000000E+00 0.  1.
          2   -1    0    0  503    0 -0.00000000000E+00 -0.00000000000E+00 -0.75203879022E+03  0.75203879022E+03  0.00000000000E+00 0.  1.
         21    1    1    2  503  504  0.46862142630E+02  0.17147603606E+02 -0.73392647450E+02  0.88750106597E+02  0.00000000000E+00 0.  1.
         21    1    1    2  504  502 -0.41523006546E+02 -0.68432767164E+01  0.10959173535E+03  0.11739394774E+03  0.00000000000E+00 0.  1.
         21    1    1    2  505  501  0.96459969911E+02 -0.10891547347E+03 -0.12724846478E+03  0.19328548302E+03  0.00000000000E+00 0.  1.
          2    1    1    2  501    0 -0.10179910599E+03  0.98611146583E+02 -0.49689047229E+03  0.51670819392E+03  0.00000000000E+00 0.  1.
<scales pt_clust_3="43.64349" pt_clust_4="42.08314" pt_clust_5="14000.00000" pt_clust_6="142.52218"></scales>
<clustering>
<clus scale="   42.083">  1  4  2 -1</clus>
<clus scale="   43.643">  1  3  2 -1</clus>
<clus scale="  142.522">  2  6  1 -1</clus>
<clus scale="   42.083">  1  3  2 -1</clus>
</clustering>
</event>
<event>
 6    0  0.2433432E+002  0.1208598E+03  0.7546771E-02  0.1241685E+00
         21   -1    0    0  504  502  0.00000000000E+00  0.00000000000E+00  0.42616941458E+02  0.42616941458E+02  0.00000000000E+00 0.  1.
          2   -1    0    0  503    0 -0.00000000000E+00 -0.00000000000E+00 -0.27172017584E+04  0.27172017584E+04  0.00000000000E+00 0. -1.
         21    1    1    2  503  505  0.40613732171E+02  0.51803635730E+02 -0.52771948895E+03  0.53180913017E+03  0.00000000000E+00 0. -1.
         21    1    1    2  504  501 -0.99167904366E+02  0.70661989267E+02 -0.65762334305E+03  0.66880180271E+03  0.00000000000E+00 0. -1.
         21    1    1    2  505  502  0.18663221320E+02 -0.12495579537E+03 -0.80304113501E+02  0.14970309707E+03  0.00000000000E+00 0.  1.
          2    1    1    2  501    0  0.39890950876E+02  0.24901703758E+01 -0.14089378715E+04  0.14095046699E+04  0.00000000000E+00 0. -1.
<scales pt_clust_3="77.53725" pt_clust_4="14000.00000" pt_clust_5="120.85980" pt_clust_6="39.96860"></scales>
<clustering>
<clus scale="   39.969">  2  6  1 -1</clus>
<clus scale="   77.537">  2  3  1 -1</clus>
<clus scale="  120.860">  1  5  2 -1</clus>
<clus scale="  120.860">  1  3  2 -1</clus>
</clustering>
</event>
<event>
 6    0  0.2433432E+002  0.1320296E+03  0.7546771E-02  0.1224475E+00
          2   -1    0    0  503    0 -0.00000000000E+00  0.00000000000E+00  0.11837001749E+04  0.11837001749E+04  0.00000000000E+00 0.  1.
         21   -1    0    0  501  502  0.00000000000E+00 -0.00000000000E+00 -0.28066018371E+03  0.28066018371E+03  0.00000000000E+00 0. -1.
         21    1    1    2  503  505  0.27512738727E+02  0.33687927130E+02  0.13930278719E+02  0.45671434089E+02  0.00000000000E+00 0. -1.
         21    1    1    2  504  502 -0.20884722874E+02  0.34809257427E+02 -0.21328395820E+03  0.21711265020E+03  0.00000000000E+00 0. -1.
         21    1    1    2  505  504  0.29100366224E+02  0.53949660560E+02 -0.25574701761E+02  0.66418841898E+02  0.00000000000E+00 0. -1.
          2    1    1    2  501    0 -0.35728382077E+02 -0.12244684512E+03  0.11279683724E+04  0.11351574324E+04  0.00000000000E+00 0.  1.
<scales pt_clust_3="33.09149" pt_clust_4="40.59379" pt_clust_5="33.09149" pt_clust_6="126.04989"></scales>
<clustering>
<clus scale="   33.091">  3  5 -1 -1</clus>
<clus scale="   40.594">  2  4  1 -1</clus>
<clus scale="  126.050">  1  6  2 -1</clus>
<clus scale="   40.594">  2  3  1 -1</clus>
</clustering>
</event>
<event>
 6    0  0.2433432E+002  0.7278000E+02  0.7546771E-02  0.1350887E+00
          1   -1    0    0  505    0 -0.00000000000E+00  0.00000000000E+00  0.29425624333E+03  0.29425624333E+03  0.00000000000E+00 0. -1.
         21   -1    0    0  504  502  0.00000000000E+00 -0.00000000000E+00 -0.14333629312E+03  0.14333629312E+03  0.00000000000E+00 0.  1.
         21    1    1    2  503  501  0.54818424256E+02 -0.13964348142E+02  0.21250946460E+02  0.60429011099E+02  0.00000000000E+00 0. -1.
         21    1    1    2  504  503 -0.10595496847E+02 -0.84831667409E+02 -0.65902699174E+02  0.10794369878E+03  0.00000000000E+00 0.  1.
         21    1    1    2  505  502 -0.59770486620E+02  0.44927513137E+02  0.10091599775E+02  0.75450864101E+02  0.00000000000E+00 0.  1.
          1    1    1    2  501    0  0.15547559212E+02  0.53868502414E+02  0.18548010315E+03  0.19376896247E+03  0.00000000000E+00 0. -1.
<scales pt_clust_3="61.29511" pt_clust_4="14000.00000" pt_clust_5="72.78000" pt_clust_6="56.06730"></scales>
<clustering>
<clus scale="   56.067">  1  6  2 -1</clus>
<clus scale="   61.295">  1  3  2 -1</clus>
<clus scale="   72.780">  1  5  2 -1</clus>
<clus scale="   72.780">  2  3  1 -1</clus>
</clustering>
</event>
<event>
 6    0  0.2433432E+002  0.1786883E+03  0.7546771E-02  0.1169079E+00
         -3   -1    0    0    0  501 -0.00000000000E+00  0.00000000000E+00  0.14964981416E+04  0.14964981416E+04  0.00000000000E+00 0. -1.
         21   -1    0    0  504  502  0.00000000000E+00 -0.00000000000E+00 -0.21703421381E+03  0.21703421381E+03  0.00000000000E+00 0. -1.
         21    1    1    2  503  505  0.16270886566E+03  0.33879771832E+02  0.12332186664E+03  0.20695481801E+03  0.00000000000E+00 0. -1.
         21    1    1    2  504  503  0.19688361395E+02 -0.28133856179E+02 -0.15749260412E+03  0.16119263565E+03  0.00000000000E+00 0. -1.
         21    1    1    2  505  501 -0.32600534995E+01  0.82742958380E+02  0.25652598933E+03  0.26956002729E+03  0.00000000000E+00 0. -1.
         -3    1    1    2    0  502 -0.17913717356E+03 -0.88488874033E+02  0.10571086760E+04  0.10758248745E+04  0.00000000000E+00 0. -1.
<scales pt_clust_3="14000.00000" pt_clust_4="34.33869" pt_clust_5="79.57162" pt_clust_6="178.68830"></scales>
<clustering>
<clus scale="   34.339">  2  4  1 -1</clus>
<clus scale="   79.572">  1  5  2 -1</clus>
<clus scale="  178.688">  1  6  2 -1</clus>
<clus scale="   34.339">  2  3  1 -1</clus>
</clustering>
</event>
<event>
 6    0  0.2433432E+002  0.1755371E+03  0.7546771E-02  0.1172193E+00
         -4   -1    0    0    0  501 -0.00000000000E+00  0.00000000000E+00  0.21204859358E+03  0.21204859358E+03  0.00000000000E+00 0. -1.
         21   -1    0    0  503  502  0.00000000000E+00 -0.00000000000E+00 -0.56712718582E+03  0.56712718582E+03  0.00000000000E+00 0. -1.
         21    1    1    2  503  505 -0.41250979242E+02  0.73629565260E+02 -0.90498928939E+02  0.12374575673E+03  0.00000000000E+00 0. -1.
         21    1    1    2  504  502  0.11636217059E+03 -0.10410331020E+03 -0.30093574919E+03  0.33902799159E+03  0.00000000000E+00 0. -1.
         21    1    1    2  505  501 -0.88390508083E+01  0.13252833209E+03 -0.74071979175E+02  0.15208072108E+03  0.00000000000E+00 0. -1.
         -4    1    1    2    0  504 -0.66272140541E+02 -0.10205458715E+03  0.11042806507E+03  0.16432131001E+03  0.00000000000E+00 0. -1.
<scales pt_clust_3="50.33020" pt_clust_4="163.78860" pt_clust_5="50.33020" pt_clust_6="121.68457"></scales>
<clustering>
<clus scale="   50.330">  3  5 -1 -1</clus>
<clus scale="  121.685">  1  6  2 -1</clus>
<clus scale="  163.789">  2  4  1 -1</clus>
<clus scale="  163.789">  2  3  1 -1</clus>
</clustering>
</event>
<event>
 6    0  0.2433432E+002  0.1322845E+03  0.7546771E-02  0.1224105E+00
          2   -1    0    0  505    0 -0.00000000000E+00  0.00000000000E+00  0.13082906273E+04  0.13082906273E+04  0.00000000000E+00 0.  1.
         21   -1    0    0  504  502  0.00000000000E+00 -0.00000000000E+00 -0.68731745757E+03  0.68731745757E+03  0.00000000000E+00 0.  1.
         21    1    1    2  503  502  0.63604535202E+02  0.40202279418E+01  0.16504213394E+03  0.17691977025E+03  0.00000000000E+00 0. -1.
         21    1    1    2  504  501 -0.39383977756E+02  0.34146518961E+02 -0.66394146785E+03  0.66598450072E+03  0.00000000000E+00 0.  1.
         21    1    1    2  505  503  0.72905182074E+02  0.34958677740E+02  0.11542974302E+03  0.14093012558E+03  0.00000000000E+00 0.  1.
          2    1    1    2  501    0 -0.97125739520E+02 -0.73125424643E+02  0.10044427606E+04  0.10117736883E+04  0.00000000000E+00 0.  1.
<scales pt_clust_3="41.73560" pt_clust_4="52.12564" pt_clust_5="41.73560" pt_clust_6="123.65017"></scales>
<clustering>
<clus scale="   41.736">  3  5 -1 -1</clus>
<clus scale="   52.126">  2  4  1 -1</clus>
<clus scale="  123.650">  1  6  2 -1</clus>
<clus scale="   52.126">  2  3  1 -1</clus>
</clustering>
</event>
<event>
 6    0  0.2433432E+002  0.1258171E+03  0.7546771E-02  0.1233798E+00
          2   -1    0    0  503    0 -0.00000000000E+00  0.00000000000E+00  0.27439298150E+03  0.27439298150E+03  0.00000000000E+00 0.  1.
         21   -1    0    0  504  502  0.00000000000E+00 -0.00000000000E+00 -0.10073167487E+03  0.10073167487E+03  0.00000000000E+00 0.  1.
         21    1    1    2  503  505  0.64098912467E+02 -0.30265394614E+02  0.72954073988E+02  0.10172001574E+03  0.00000000000E+00 0.  1.
         21    1    1    2  504  501 -0.38239160503E+02 -0.16179759913E+02 -0.31251596637E+02  0.51968070190E+02  0.00000000000E+00 0.  1.
         21    1    1    2  505  502  0.69030606182E+02  0.11942840180E+02  0.25087762555E+02  0.74412712970E+02  0.00000000000E+00 0.  1.
          2    1    1    2  501    0 -0.94890358146E+02  0.34502314348E+02  0.10687106673E+03  0.14702385748E+03  0.00000000000E+00 0.  1.
<scales pt_clust_3="52.60309" pt_clust_4="41.52130" pt_clust_5="52.60309" pt_clust_6="111.70759"></scales>
<clustering>
<clus scale="   41.521">  2  4  1 -1</clus>
<clus scale="   52.603">  3  5 -1 -1</clus>
<clus scale="  111.708">  1  6  2 -1</clus>
<clus scale="   41.521">  2  3  1 -1</clus>
</clustering>
</event>
<event>
 6    0  0.2433432E+002  0.8539445E+02  0.7546771E-02  0.1314404E+00
         21   -1    0    0  504  502  0.00000000000E+00  0.00000000000E+00  0.14666158138E+03  0.14666158138E+03  0.00000000000E+00 0. -1.
          1   -1    0    0  505    0 -0.00000000000E+00 -0.00000000000E+00 -0.52550335445E+03  0.52550335445E+03  0.00000000000E+00 0. -1.
         21    1    1    2  503  501  0.54129304983E+02 -0.78065692046E+01 -0.49386818576E+02  0.73688411774E+02  0.00000000000E+00 0. -1.
         21    1    1    2  504  503 -0.89606120599E+02  0.29017083667E+02  0.11139161589E+03  0.14587439831E+03  0.00000000000E+00 0. -1.
         21    1    1    2  505  502  0.66960444702E+02 -0.72230380133E+01 -0.26598316583E+03  0.27437732767E+03  0.00000000000E+00 0. -1.
          1    1    1    2  501    0 -0.31483629086E+02 -0.13987476449E+02 -0.17486340454E+03  0.17822479807E+03  0.00000000000E+00 0. -1.
<scales pt_clust_3="14000.00000" pt_clust_4="85.39445" pt_clust_5="46.25291" pt_clust_6="34.45096"></scales>
<clustering>
<clus scale="   34.451">  2  6  1 -1</clus>
<clus scale="   46.253">  2  5  1 -1</clus>
<clus scale="   85.394">  1  4  2 -1</clus>
<clus scale="   85.394">  1  3  2 -1</clus>
</clustering>
</event>
<event>
 6    0  0.2433432E+002  0.8885117E+02  0.7546771E-02  0.1305658E+00
         21   -1    0    0  505  502  0.00000000000E+00  0.00000000000E+00  0.33220127644E+03  0.33220127644E+03  0.00000000000E+00 0. -1.
         -4   -1    0    0    0  501 -0.00000000000E+00 -0.00000000000E+00 -0.39111884751E+03  0.39111884751E+03  0.00000000000E+00 0.  1.
         21    1    1    2  503  502 -0.27551666686E+02 -0.28284230659E+02  0.53696057500E+02  0.66651021239E+02  0.00000000000E+00 0. -1.
         21    1    1    2  504  501 -0.36093550957E+02  0.65423746824E+02  0.41352063561E+02  0.85399087992E+02  0.00000000000E+00 0. -1.
         21    1    1    2  505  504  0.68364603044E+02  0.53874725821E+02  0.19343375521E+03  0.21211511659E+03  0.00000000000E+00 0. -1.
         -4    1    1    2    0  503 -0.47193854014E+01 -0.91014241987E+02 -0.34739944734E+03  0.35915489813E+03  0.00000000000E+00 0.  1.
<scales pt_clust_3="39.48534" pt_clust_4="88.85117" pt_clust_5="57.98870" pt_clust_6="14000.00000"></scales>
<clustering>
<clus scale="   39.485">  1  3  2 -1</clus>
<clus scale="   57.989">  1  5  2 -1</clus>
<clus scale="   88.851">  1  4  2 -1</clus>
<clus scale="   39.485">  1  3  2 -1</clus>
</clustering>
</event>
<event>
 6    0  0.2433432E+002  0.5870315E+02  0.7546771E-02  0.1403356E+00
          1   -1    0    0  505    0 -0.00000000000E+00  0.00000000000E+00  0.12425924227E+04  0.12425924227E+04  0.00000000000E+00 0.  1.
         21   -1    0    0  504  502  0.00000000000E+00 -0.00000000000E+00 -0.19874974719E+03  0.19874974719E+03  0.00000000000E+00 0. -1.
         21    1    1    2  503  502 -0.30570780354E+02  0.36705765397E+02  0.29620832694E+00  0.47770006952E+02  0.00000000000E+00 0. -1.
         21    1    1    2  504  501  0.29459928058E+02  0.36406047305E+02 -0.58837457731E+02  0.75200625488E+02  0.00000000000E+00 0. -1.
         21    1    1    2  505  503  0.37418440148E+01 -0.13126550439E+03 -0.67079972608E+02  0.14745967844E+03  0.00000000000E+00 0. -1.
          1    1    1    2  501    0 -0.26309917194E+01  0.58153691687E+02  0.11694638975E+04  0.11709118590E+04  0.00000000000E+00 0.  1.
<scales pt_clust_3="50.10110" pt_clust_4="46.83255" pt_clust_5="58.70315" pt_clust_6="14000.00000"></scales>
<clustering>
<clus scale="   46.833">  2  4  1 -1</clus>
<clus scale="   50.101">  2  3  1 -1</clus>
<clus scale="   58.703">  2  5  1 -1</clus>
<clus scale="   46.833">  2  3  1 -1</clus>
</clustering>
</event>
<event>
 6    0  0.2433432E+002  0.1788778E+03  0.7546771E-02  0.1168894E+00
          2   -1    0    0  503    0 -0.00000000000E+00  0.00000000000E+00  0.78698019065E+03  0.78698019065E+03  0.00000000000E+00 0.  1.
         21   -1    0    0  505  502  0.00000000000E+00 -0.00000000000E+00 -0.28992945205E+03  0.28992945205E+03  0.00000000000E+00 0. -1.
         21    1    1    2  503  504  0.22072571655E+03  0.61332829958E+02  0.26055160269E+03  0.34694191970E+03  0.00000000000E+00 0. -1.
         21    1    1    2  504  502 -0.35133467759E+02 -0.37195977505E+02  0.19110987388E+02  0.54618047734E+02  0.00000000000E+00 0. -1.
         21    1    1    2  505  501 -0.13129403346E+03 -0.21746162597E+02 -0.20776678007E+03  0.24673478415E+03  0.00000000000E+00 0. -1.
          2    1    1    2  501    0 -0.54298215335E+02 -0.23906898552E+01  0.42515492859E+03  0.42861489112E+03  0.00000000000E+00 0.  1.
<scales pt_clust_3="178.87785" pt_clust_4="51.16543" pt_clust_5="14000.00000" pt_clust_6="54.58478"></scales>
<clustering>
<clus scale="   51.165">  2  4  1 -1</clus>
<clus scale="   54.585">  1  6  2 -1</clus>
<clus scale="  178.878">  1  3  2 -1</clus>
<clus scale="   51.165">  2  3  1 -1</clus>
</clustering>
</event>
<event>
 6    0  0.2433432E+002  0.1435939E+03  0.7546771E-02  0.1208573E+00
         21   -1    0    0  505  502  0.00000000000E+00  0.00000000000E+00  0.31656894912E+03  0.31656894912E+03  0.00000000000E+00 0.  1.
          2   -1    0    0  503    0 -0.00000000000E+00 -0.00000000000E+00 -0.10091987836E+04  0.10091987836E+04  0.00000000000E+00 0. -1.
         21    1    1    2  503  502 -0.13467733807E+03 -0.31503141689E+01  0.23776135656E+03  0.27327343915E+03  0.00000000000E+00 0.  1.
         21    1    1    2  504  501  0.57002777169E+02  0.27141514711E+02 -0.40196208957E+02  0.74844596601E+02  0.00000000000E+00 0. -1.
         21    1    1    2  505  504  0.45164284062E+02  0.45047247186E+02  0.17979654882E+02  0.66274693689E+02  0.00000000000E+00 0. -1.
          2    1    1    2  501    0  0.32510276839E+02 -0.69038447728E+02 -0.90817463692E+03  0.91137500323E+03  0.00000000000E+00 0. -1.
<scales pt_clust_3="129.79773" pt_clust_4="61.09866" pt_clust_5="61.09866" pt_clust_6="76.31006"></scales>
<clustering>
<clus scale="   61.099">  4  5 -1 -1</clus>
<clus scale="   76.310">  2  6  1 -1</clus>
<clus scale="  129.798">  1  3  2 -1</clus>
<clus scale="  129.798">  1  3  2 -1</clus>
</clustering>
</event>
<event>
 6    0  0.2433432E+002  0.1084967E+03  0.7546771E-02  0.1263379E+00
         21   -1    0    0  504  502  0.00000000000E+00  0.00000000000E+00  0.89738144830E+03  0.89738144830E+03  0.00000000000E+00 0.  1.
          2   -1    0    0  503    0 -0.00000000000E+00 -0.00000000000E+00 -0.43007093738E+03  0.43007093738E+03  0.00000000000E+00 0.  1.
         21    1    1    2  503  502 -0.39327988042E+02 -0.41954917167E+02  0.25239023797E+01  0.57561061502E+02  0.00000000000E+00 0. -1.
         21    1    1    2  504  505  0.20567836518E+02  0.47791116424E+02  0.72911802399E+03  0.73097203750E+03  0.00000000000E+00 0.  1.
         21    1    1    2  505  501 -0.90604959791E+02 -0.12004150978E+02  0.11338804669E+03  0.14563724631E+03  0.00000000000E+00 0.  1.
          2    1    1    2  501    0  0.10936511132E+03  0.61679517216E+01 -0.37771946213E+03  0.39328204037E+03  0.00000000000E+00 0.  1.
<scales pt_clust_3="48.82374" pt_clust_4="52.02909" pt_clust_5="108.49666" pt_clust_6="14000.00000"></scales>
<clustering>
<clus scale="   52.029">  1  4  2 -1</clus>
<clus scale="   48.824">  1  3  2 -1</clus>
<clus scale="  108.497">  1  5  2 -1</clus>
<clus scale="   52.029">  1  3  2 -1</clus>
</clustering>
</event>
<event>
 6    0  0.2433432E+002  0.2609409E+03  0.7546771E-02  0.1106579E+00
         21   -1    0    0  501  502  0.00000000000E+00  0.00000000000E+00  0.18590731492E+03  0.18590731492E+03  0.00000000000E+00 0.  1.
          1   -1    0    0  503    0 -0.00000000000E+00 -0.00000000000E+00 -0.59851078932E+03  0.59851078932E+03  0.00000000000E+00 0.  1.
         21    1    1    2  503  504  0.42189016590E+02  0.10078334928E+03 -0.47661759686E+02  0.11920083871E+03  0.00000000000E+00 0.  1.
         21    1    1    2  504  505 -0.33792706509E+02  0.16169266559E+03 -0.67671488113E+02  0.17851021097E+03  0.00000000000E+00 0.  1.
         21    1    1    2  505  502  0.30696440190E+02 -0.22513880549E+02  0.49966914160E+02  0.62815911745E+02  0.00000000000E+00 0. -1.
          1    1    1    2  501    0 -0.39092750271E+02 -0.23996213431E+03 -0.34723714077E+03  0.42389114282E+03  0.00000000000E+00 0.  1.
<scales pt_clust_3="66.71239" pt_clust_4="66.71239" pt_clust_5="38.06765" pt_clust_6="248.44357"></scales>
<clustering>
<clus scale="   38.068">  1  5  2 -1</clus>
<clus scale="   66.712">  3  4 -1 -1</clus>
<clus scale="  248.444">  2  6  1 -1</clus>
<clus scale="   38.068">  1  3  2 -1</clus>
</clustering>
</event>
<event>
 6    0  0.2433432E+002  0.1013727E+03  0.7546771E-02  0.1277436E+00
          2   -1    0    0  504    0 -0.00000000000E+00  0.00000000000E+00  0.19705792374E+04  0.19705792374E+04  0.00000000000E+00 0. -1.
         21   -1    0    0  505  502  0.00000000000E+00 -0.00000000000E+00 -0.57421433747E+02  0.57421433747E+02  0.00000000000E+00 0.  1.
         21    1    1    2  503  502  0.12111461781E+03 -0.39014259535E+02  0.66397035701E+02  0.14352501330E+03  0.00000000000E+00 0.  1.
         21    1    1    2  504  503 -0.12073035655E+03  0.21833148729E+02  0.41263442657E+03  0.43048771803E+03  0.00000000000E+00 0. -1.
         21    1    1    2  505  501 -0.37160083949E+02  0.12797108006E+02  0.30178788774E+02  0.49551963678E+02  0.00000000000E+00 0.  1.
          2    1    1    2  501    0  0.36775822696E+02  0.43840027997E+01  0.14039475526E+04  0.14044359761E+04  0.00000000000E+00 0. -1.
<scales pt_clust_3="14000.00000" pt_clust_4="101.37269" pt_clust_5="36.97235" pt_clust_6="37.03621"></scales>
<clustering>
<clus scale="   37.036">  1  6  2 -1</clus>
<clus scale="   36.972">  2  5  1 -1</clus>
<clus scale="  101.373">  1  4  2 -1</clus>
<clus scale="   36.972">  2  3  1 -1</clus>
</clustering>
</event>
<event>
 6    0  0.2433432E+002  0.4258118E+03  0.7546771E-02  0.1035191E+00
          1   -1    0    0  505    0 -0.00000000000E+00  0.00000000000E+00  0.13104850985E+04  0.13104850985E+04  0.00000000000E+00 0.  1.
         21   -1    0    0  504  502  0.00000000000E+00 -0.00000000000E+00 -0.19502230982E+03  0.19502230982E+03  0.00000000000E+00 0.  1.
         21    1    1    2  503  502 -0.34012848354E+03 -0.21022396857E+01  0.54648267843E+03  0.64368868450E+03  0.00000000000E+00 0.  1.
         21    1    1    2  504  501  0.40225435968E+03 -0.44782130111E+02  0.23651345693E+03  0.46877779850E+03  0.00000000000E+00 0.  1.
         21    1    1    2  505  503 -0.85243180363E+02 -0.49794693138E+02  0.10150046647E+03  0.14159186402E+03  0.00000000000E+00 0. -1.
          1    1    1    2  501    0  0.23117304230E+02  0.96679062934E+02  0.23096618689E+03  0.25144906134E+03  0.00000000000E+00 0.  1.
<scales pt_clust_3="61.77702" pt_clust_4="410.08127" pt_clust_5="61.77702" pt_clust_6="99.40448"></scales>
<clustering>
<clus scale="   61.777">  3  5 -1 -1</clus>
<clus scale="   99.404">  1  6  2 -1</clus>
<clus scale="  410.081">  2  4  1 -1</clus>
<clus scale="  410.081">  2  3  1 -1</clus>
</clustering>
</event>
<event>
 6    0  0.2433432E+002  0.1249325E+03  0.7546771E-02  0.1235175E+00
          2   -1    0    0  503    0 -0.00000000000E+00  0.00000000000E+00  0.13737688698E+04  0.13737688698E+04  0.00000000000E+00 0.  1.
         21   -1    0    0  505  502  0.00000000000E+00 -0.00000000000E+00 -0.24739145468E+04  0.24739145468E+04  0.00000000000E+00 0. -1.
         21    1    1    2  503  504 -0.46531966512E+02  0.13059933514E+02  0.29940630770E+02  0.56852679284E+02  0.00000000000E+00 0. -1.
         21    1    1    2  504  502 -0.88404923884E+02 -0.91735936638E+02  0.26174461744E+03  0.29110334487E+03  0.00000000000E+00 0.  1.
         21    1    1    2  505  501  0.10770732909E+03  0.63327914523E+02 -0.24439511670E+04  0.24471429464E+04  0.00000000000E+00 0. -1.
          2    1    1    2  501    0  0.27229561309E+02  0.15348088601E+02  0.10521202418E+04  0.10525844460E+04  0.00000000000E+00 0.  1.
<scales pt_clust_3="45.44863" pt_clust_4="124.93245" pt_clust_5="14000.00000" pt_clust_6="31.25720"></scales>
<clustering>
<clus scale="   31.257">  1  6  2 -1</clus>
<clus scale="   45.449">  1  3  2 -1</clus>
<clus scale="  124.932">  1  4  2 -1</clus>
<clus scale="  124.932">  2  3  1 -1</clus>
</clustering>
</event>
<event>
 6    0  0.2433432E+002  0.2421762E+03  0.7546771E-02  0.1118352E+00
         21   -1    0    0  504  502  0.00000000000E+00  0.00000000000E+00  0.90269016016E+02  0.90269016016E+02  0.00000000000E+00 0. -1.
          2   -1    0    0  505    0 -0.00000000000E+00 -0.00000000000E+00 -0.18473047945E+04  0.18473047945E+04  0.00000000000E+00 0.  1.
         21    1    1    2  503  501  0.10669127363E+01 -0.15762548512E+03 -0.11094673467E+03  0.19275920158E+03  0.00000000000E+00 0. -1.
         21    1    1    2  504  503  0.35834257127E+02 -0.90260565848E+02 -0.13386945874E+03  0.16538469008E+03  0.00000000000E+00 0. -1.
         21    1    1    2  505  502  0.21457652785E+02  0.27802928962E+02  0.12895019979E+02  0.37412768705E+02  0.00000000000E+00 0. -1.
          2    1    1    2  501    0 -0.58358822649E+02  0.22008312201E+03 -0.15251146051E+04  0.15420171501E+04  0.00000000000E+00 0.  1.
<scales pt_clust_3="60.39475" pt_clust_4="60.39475" pt_clust_5="35.12028" pt_clust_6="230.49167"></scales>
<clustering>
<clus scale="   35.120">  1  5  2 -1</clus>
<clus scale="   60.395">  3  4 -1 -1</clus>
<clus scale="  230.492">  2  6  1 -1</clus>
<clus scale="   35.120">  1  3  2 -1</clus>
</clustering>
</event>
<event>
 6    0  0.2433432E+002  0.1479827E+03  0.7546771E-02  0.1202974E+00
          2   -1    0    0  503    0 -0.00000000000E+00  0.00000000000E+00  0.50377810431E+03  0.50377810431E+03  0.00000000000E+00 0. -1.
         21   -1    0    0  504  502  0.00000000000E+00 -0.00000000000E+00 -0.91400327102E+02  0.91400327102E+02  0.00000000000E+00 0. -1.
         21    1    1    2  503  505 -0.58812594600E+02  0.80723020470E+02 -0.80018032187E+00  0.99878764540E+02  0.00000000000E+00 0. -1.
         21    1    1    2  504  501  0.33084134561E+02  0.52094178536E+01  0.13923452459E+02  0.36270656493E+02  0.00000000000E+00 0. -1.
         21    1    1    2  505  502 -0.27090126397E+00  0.50373619822E+02  0.18310755774E+02  0.53599055388E+02  0.00000000000E+00 0. -1.
          2    1    1    2  501    0  0.25999361303E+02 -0.13630605815E+03  0.38094374929E+03  0.40542995499E+03  0.00000000000E+00 0. -1.
<scales pt_clust_3="38.07936" pt_clust_4="33.49176" pt_clust_5="38.07936" pt_clust_6="139.02245"></scales>
<clustering>
<clus scale="   33.492">  2  4  1 -1</clus>
<clus scale="   38.079">  3  5 -1 -1</clus>
<clus scale="  139.022">  1  6  2 -1</clus>
<clus scale="   33.492">  2  3  1 -1</clus>
</clustering>
</event>
<event>
 6    0  0.2433432E+002  0.2674365E+03  0.7546771E-02  0.1102756E+00
         21   -1    0    0  505  502  0.00000000000E+00  0.00000000000E+00  0.44377848229E+03  0.44377848229E+03  0.00000000000E+00 0.  1.
         -2   -1    0    0    0  501 -0.00000000000E+00 -0.00000000000E+00 -0.30455805499E+03  0.30455805499E+03  0.00000000000E+00 0.  1.
         21    1    1    2  503  501 -0.10452408330E+03  0.20178689457E+03  0.10442764399E+03  0.25009671657E+03  0.00000000000E+00 0.  1.
         21    1    1    2  504  502  0.14551871026E+03 -0.19063429734E+03  0.11658737977E+03  0.26666410984E+03  0.00000000000E+00 0.  1.
         21    1    1    2  505  503 -0.42358887992E+02  0.39282602037E+02  0.58661862026E+02  0.82332328226E+02  0.00000000000E+00 0.  1.
         -2    1    1    2    0  504  0.13642610308E+01 -0.50435199274E+02 -0.14045645848E+03  0.14924338264E+03  0.00000000000E+00 0.  1.
<scales pt_clust_3="32.76017" pt_clust_4="259.42337" pt_clust_5="32.76017" pt_clust_6="50.45365"></scales>
<clustering>
<clus scale="   32.760">  3  5 -1 -1</clus>
<clus scale="   50.454">  2  6  1 -1</clus>
<clus scale="  259.423">  1  4  2 -1</clus>
<clus scale="  259.423">  1  3  2 -1</clus>
</clustering>
</event>
<event>
 6    0  0.2433432E+002  0.8865785E+02  0.7546771E-02  0.1306135E+00
         21   -1    0    0  505  502  0.00000000000E+00  0.00000000000E+00  0.20769264115E+02  0.20769264115E+02  0.00000000000E+00 0.  1.
          2   -1    0    0  504    0 -0.00000000000E+00 -0.00000000000E+00 -0.20164755885E+04  0.20164755885E+04  0.00000000000E+00 0.  1.
         21    1    1    2  503  501  0.13915736983E+02  0.10959391957E+03 -0.28873859937E+03  0.30915118261E+03  0.00000000000E+00 0.  1.
         21    1    1    2  504  502 -0.45644948284E+02  0.99764254222E+01 -0.16054549519E+03  0.16720599988E+03  0.00000000000E+00 0. -1.
         21    1    1    2  505  503  0.86485142737E+01 -0.73571713231E+02 -0.19673387324E+03  0.21021848317E+03  0.00000000000E+00 0. -1.
          2    1    1    2  501    0  0.23080697027E+02 -0.45998631765E+02 -0.13496883566E+04  0.13506691870E+04  0.00000000000E+00 0.  1.
<scales pt_clust_3="14000.00000" pt_clust_4="46.72248" pt_clust_5="88.65785" pt_clust_6="50.64835"></scales>
<clustering>
<clus scale="   46.722">  1  4  2 -1</clus>
<clus scale="   50.648">  2  6  1 -1</clus>
<clus scale="   88.658">  1  5  2 -1</clus>
<clus scale="   46.722">  1  3  2 -1</clus>
</clustering>
</event>
<event>
 6    0  0.2433432E+002  0.1012555E+03  0.7546771E-02  0.1277678E+00
         21   -1    0    0  505  502  0.00000000000E+00  0.00000000000E+00  0.19669175156E+03  0.19669175156E+03  0.00000000000E+00 0.  1.
          1   -1    0    0  502    0 -0.00000000000E+00 -0.00000000000E+00 -0.73502693008E+03  0.73502693008E+03  0.00000000000E+00 0.  1.
         21    1    1    2  503  504  0.57623399447E+02 -0.22983763629E+02 -0.34673201232E+02  0.71069968609E+02  0.00000000000E+00 0.  1.
         21    1    1    2  504  501 -0.24904868341E+02 -0.65167652079E+02  0.14727944327E+03  0.16296720454E+03  0.00000000000E+00 0.  1.
         21    1    1    2  505  503 -0.37440566777E+02 -0.13893943300E+02 -0.11946510010E+01  0.39953283870E+02  0.00000000000E+00 0.  1.
          1    1    1    2  501    0  0.47220356703E+01  0.10204535901E+03 -0.64974676956E+03  0.65772822462E+03  0.00000000000E+00 0.  1.
<scales pt_clust_3="59.06099" pt_clust_4="14000.00000" pt_clust_5="39.93542" pt_clust_6="101.25550"></scales>
<clustering>
<clus scale="   39.935">  1  5  2 -1</clus>
<clus scale="   59.061">  1  3  2 -1</clus>
<clus scale="  101.255">  2  6  1 -1</clus>
<clus scale="   39.935">  1  3  2 -1</clus>
</clustering>
</event>
<event>
 6    0  0.2433432E+002  0.7143331E+02  0.7546771E-02  0.1355286E+00
         21   -1    0    0  505  502  0.00000000000E+00  0.00000000000E+00  0.11595266310E+03  0.11595266310E+03  0.00000000000E+00 0. -1.
          2   -1    0    0  504    0 -0.00000000000E+00 -0.00000000000E+00 -0.94225130735E+03  0.94225130735E+03  0.00000000000E+00 0.  1.
         21    1    1    2  503  502 -0.37049071118E+02  0.49404259733E+02 -0.90566625285E+01  0.62413441554E+02  0.00000000000E+00 0. -1.
         21    1    1    2  504  503  0.10068684320E+03 -0.47122636878E+01 -0.40981054756E+02  0.10880943282E+03  0.00000000000E+00 0. -1.
         21    1    1    2  505  501  0.53039862292E+01 -0.31136613878E+02  0.49237754104E+02  0.58497670235E+02  0.00000000000E+00 0. -1.
          2    1    1    2  501    0 -0.68941758312E+02 -0.13555382167E+02 -0.82549868108E+03  0.82848342583E+03  0.00000000000E+00 0.  1.
<scales pt_clust_3="50.06715" pt_clust_4="71.43331" pt_clust_5="31.58514" pt_clust_6="14000.00000"></scales>
<clustering>
<clus scale="   31.585">  1  5  2 -1</clus>
<clus scale="   50.067">  1  3  2 -1</clus>
<clus scale="   71.433">  1  4  2 -1</clus>
<clus scale="   31.585">  1  3  2 -1</clus>
</clustering>
</event>
<event>
 6    0  0.2433432E+002  0.2523858E+03  0.7546771E-02  0.1111806E+00
          2   -1    0    0  505    0 -0.00000000000E+00  0.00000000000E+00  0.27300710377E+04  0.27300710377E+04  0.00000000000E+00 0. -1.
         21   -1    0    0  501  502  0.00000000000E+00 -0.00000000000E+00 -0.41896360730E+02  0.41896360730E+02  0.00000000000E+00 0.  1.
         21    1    1    2  503  502  0.40201994810E+02  0.43085568669E+02  0.81932618483E+02  0.10092334014E+03  0.00000000000E+00 0.  1.
         21    1    1    2  504  503 -0.15299143569E+02  0.19738607052E+03  0.43009173217E+03  0.47347040320E+03  0.00000000000E+00 0.  1.
         21    1    1    2  505  504  0.72429950496E+02 -0.45979688119E+02  0.48982681351E+03  0.49728315543E+03  0.00000000000E+00 0. -1.
          2    1    1    2  501    0 -0.97332801737E+02 -0.19449195108E+03  0.16863235128E+04  0.17002904996E+04  0.00000000000E+00 0. -1.
<scales pt_clust_3="52.64858" pt_clust_4="52.64858" pt_clust_5="85.79178" pt_clust_6="233.20835"></scales>
<clustering>
<clus scale="   52.649">  3  4 -1 -1</clus>
<clus scale="   85.792">  1  5  2 -1</clus>
<clus scale="  233.208">  1  6  2 -1</clus>
<clus scale="  252.386">  2  3  1 -1</clus>
</clustering>
</event>
<event>
 6    0  0.2433432E+002  0.2781935E+03  0.7546771E-02  0.1096680E+00
         21   -1    0    0  505  502  0.00000000000E+00  0.00000000000E+00  0.10230184071E+04  0.10230184071E+04  0.00000000000E+00 0.  1.
          2   -1    0    0  503    0 -0.00000000000E+00 -0.00000000000E+00 -0.43724034060E+03  0.43724034060E+03  0.00000000000E+00 0. -1.
         21    1    1    2  503  502  0.72095398073E+01  0.46225044684E+02  0.17548692294E+03  0.18161605751E+03  0.00000000000E+00 0.  1.
         21    1    1    2  504  501  0.10718283712E+03 -0.14886375707E+03  0.47094809798E+03  0.50541140641E+03  0.00000000000E+00 0.  1.
         21    1    1    2  505  504 -0.22737439985E+02 -0.12845582689E+03  0.30462126337E+03  0.33137894432E+03  0.00000000000E+00 0.  1.
          2    1    1    2  501    0 -0.91654936945E+02  0.23109453928E+03 -0.36527821775E+03  0.44185233949E+03  0.00000000000E+00 0. -1.
<scales pt_clust_3="46.78389" pt_clust_4="100.08779" pt_clust_5="100.08779" pt_clust_6="250.43670"></scales>
<clustering>
<clus scale="   46.784">  1  3  2 -1</clus>
<clus scale="  100.088">  4  5 -1 -1</clus>
<clus scale="  250.437">  2  6  1 -1</clus>
<clus scale="   46.784">  1  3  2 -1</clus>
</clustering>
</event>
<event>
 6    0  0.2433432E+002  0.6051754E+02  0.7546771E-02  0.1395673E+00
         21   -1    0    0  504  502  0.00000000000E+00  0.00000000000E+00  0.37630584849E+02  0.37630584849E+02  0.00000000000E+00 0. -1.
          2   -1    0    0  503    0 -0.00000000000E+00 -0.00000000000E+00 -0.20865008093E+04  0.20865008093E+04  0.00000000000E+00 0.  1.
         21    1    1    2  503  505  0.14235499639E+02  0.64744458005E+02 -0.27566597931E+03  0.28352464874E+03  0.00000000000E+00 0. -1.
         21    1    1    2  504  501 -0.66024730165E+02  0.15353339115E+02 -0.29045967362E+02  0.73747259172E+02  0.00000000000E+00 0. -1.
         21    1    1    2  505  502 -0.42098331860E+01 -0.57571460663E+02 -0.66269594464E+02  0.87885464832E+02  0.00000000000E+00 0. -1.
          2    1    1    2  501    0  0.55999063713E+02 -0.22526336457E+02 -0.16778886834E+04  0.16789740214E+04  0.00000000000E+00 0.  1.
<scales pt_clust_3="57.93409" pt_clust_4="60.51754" pt_clust_5="57.72517" pt_clust_6="14000.00000"></scales>
<clustering>
<clus scale="   57.725">  1  5  2 -1</clus>
<clus scale="   57.934">  1  3  2 -1</clus>
<clus scale="   60.518">  1  4  2 -1</clus>
<clus scale="   57.725">  1  3  2 -1</clus>
</clustering>
</event>
<event>
 6    0  0.2433432E+002  0.6304090E+02  0.7546771E-02  0.1385496E+00
          2   -1    0    0  502    0 -0.00000000000E+00  0.00000000000E+00  0.18172053125E+04  0.18172053125E+04  0.00000000000E+00 0. -1.
         21   -1    0    0  505  502  0.00000000000E+00 -0.00000000000E+00 -0.13299587405E+03  0.13299587405E+03  0.00000000000E+00 0.  1.
         21    1    1    2  503  504  0.46656378616E+01 -0.62301390941E+02  0.10281322148E+03  0.12030706546E+03  0.00000000000E+00 0.  1.
         21    1    1    2  504  501  0.70140577127E+02 -0.24992710800E+02  0.25974888911E+03  0.27021069843E+03  0.00000000000E+00 0.  1.
         21    1    1    2  505  503 -0.25198911566E+02  0.50187676286E+02 -0.11168693000E+03  0.12501103282E+03  0.00000000000E+00 0.  1.
          2    1    1    2  501    0 -0.49607303422E+02  0.37106425456E+02  0.14333342579E+04  0.14346723898E+04  0.00000000000E+00 0. -1.
<scales pt_clust_3="33.95632" pt_clust_4="63.04090" pt_clust_5="56.15860" pt_clust_6="14000.00000"></scales>
<clustering>
<clus scale="   56.159">  2  5  1 -1</clus>
<clus scale="   33.956">  2  3  1 -1</clus>
<clus scale="   63.041">  2  4  1 -1</clus>
<clus scale="   56.159">  2  3  1 -1</clus>
</clustering>
</event>
<event>
 6    0  0.2433432E+002  0.6606241E+02  0.7546771E-02  0.1374019E+00
         -1   -1    0    0    0  501 -0.00000000000E+00  0.00000000000E+00  0.52438406852E+03  0.52438406852E+03  0.00000000000E+00 0. -1.
         21   -1    0    0  505  502  0.00000000000E+00 -0.00000000000E+00 -0.75657213771E+03  0.75657213771E+03  0.00000000000E+00 0. -1.
         21    1    1    2  503  502 -0.98218479307E+02 -0.49714112975E+01 -0.60097772179E+03  0.60897110498E+03  0.00000000000E+00 0. -1.
         21    1    1    2  504  503  0.51271131094E+02 -0.34422983845E+02 -0.12036122725E+03  0.13527932483E+03  0.00000000000E+00 0. -1.
         21    1    1    2  505  501  0.28131849139E+02 -0.16034245816E+02 -0.10189749689E+02  0.33945971390E+02  0.00000000000E+00 0. -1.
         -1    1    1    2    0  504  0.18815499073E+02  0.55428640958E+02  0.49934062954E+03  0.50275980503E+03  0.00000000000E+00 0. -1.
<scales pt_clust_3="14000.00000" pt_clust_4="66.06241" pt_clust_5="32.38052" pt_clust_6="58.52085"></scales>
<clustering>
<clus scale="   32.381">  2  5  1 -1</clus>
<clus scale="   58.521">  1  6  2 -1</clus>
<clus scale="   66.062">  1  4  2 -1</clus>
<clus scale="   32.381">  2  3  1 -1</clus>
</clustering>
</event>
<event>
 6    0  0.2433432E+002  0.1512548E+03  0.7546771E-02  0.1198939E+00
         21   -1    0    0  504  502  0.00000000000E+00  0.00000000000E+00  0.82914733621E+03  0.82914733621E+03  0.00000000000E+00 0.  1.
          2   -1    0    0  503    0 -0.00000000000E+00 -0.00000000000E+00 -0.23027832425E+04  0.23027832425E+04  0.00000000000E+00 0. -1.
         21    1    1    2  503  505  0.10403031365E+03  0.42555166386E+02 -0.30582221404E+03  0.32582276615E+03  0.00000000000E+00 0.  1.
         21    1    1    2  504  501  0.11095844413E+02 -0.36280797316E+02  0.71430630295E+03  0.71531315412E+03  0.00000000000E+00 0.  1.
         21    1    1    2  505  502 -0.15702011758E+03 -0.28301766966E+02  0.42880684640E+02  0.16521216799E+03  0.00000000000E+00 0. -1.
          2    1    1    2  501    0  0.41893959519E+02  0.22027397897E+02 -0.19250006799E+04  0.19255824905E+04  0.00000000000E+00 0. -1.
<scales pt_clust_3="151.25485" pt_clust_4="37.93961" pt_clust_5="14000.00000" pt_clust_6="47.31404"></scales>
<clustering>
<clus scale="   37.940">  1  4  2 -1</clus>
<clus scale="   47.314">  2  6  1 -1</clus>
<clus scale="  151.255">  2  3  1 -1</clus>
<clus scale="   37.940">  1  3  2 -1</clus>
</clustering>
</event>
<event>
 6    0  0.2433432E+002  0.1144041E+03  0.7546771E-02  0.1252625E+00
          1   -1    0    0  503    0 -0.00000000000E+00  0.00000000000E+00  0.15016125162E+04  0.15016125162E+04  0.00000000000E+00 0.  1.
         21   -1    0    0  505  502  0.00000000000E+00 -0.00000000000E+00 -0.10296108247E+04  0.10296108247E+04  0.00000000000E+00 0. -1.
         21    1    1    2  503  504 -0.10592940485E+03 -0.67168898629E+02 -0.14668090287E+03  0.19299737569E+03  0.00000000000E+00 0. -1.
         21    1    1    2  504  502 -0.21231843326E+02  0.76576761704E+02 -0.14914840639E+03  0.16899715599E+03  0.00000000000E+00 0. -1.
         21    1    1    2  505  501  0.27482319101E+02 -0.65264113864E+02 -0.69667871397E+03  0.70026845776E+03  0.00000000000E+00 0. -1.
          1    1    1    2  501    0  0.99678929071E+02  0.55856250789E+02  0.14645097147E+04  0.14689603514E+04  0.00000000000E+00 0.  1.
<scales pt_clust_3="14000.00000" pt_clust_4="45.93230" pt_clust_5="70.81442" pt_clust_6="114.40410"></scales>
<clustering>
<clus scale="   70.814">  2  5  1 -1</clus>
<clus scale="   45.932">  2  4  1 -1</clus>
<clus scale="  114.404">  1  6  2 -1</clus>
<clus scale="   70.814">  2  3  1 -1</clus>
</clustering>
</event>
<event>
 6    0  0.2433432E+002  0.1145221E+03  0.7546771E-02  0.1252418E+00
         21   -1    0    0  501  502  0.00000000000E+00  0.00000000000E+00  0.10098673531E+03  0.10098673531E+03  0.00000000000E+00 0. -1.
          2   -1    0    0  504    0 -0.00000000000E+00 -0.00000000000E+00 -0.22711812289E+03  0.22711812289E+03  0.00000000000E+00 0. -1.
         21    1    1    2  503  502  0.38033553077E+02  0.66939087104E+02  0.41289321790E+01  0.77100198591E+02  0.00000000000E+00 0. -1.
         21    1    1    2  504  505 -0.12753930978E+02 -0.50151993426E+02 -0.27302993363E+02  0.58509303932E+02  0.00000000000E+00 0. -1.
         21    1    1    2  505  503  0.45767274937E+02  0.14542781629E+02  0.15844821667E+02  0.50568708965E+02  0.00000000000E+00 0. -1.
          2    1    1    2  501    0 -0.71046897035E+02 -0.31329875307E+02 -0.11880214806E+03  0.14192664672E+03  0.00000000000E+00 0. -1.
<scales pt_clust_3="37.36684" pt_clust_4="51.74829" pt_clust_5="37.36684" pt_clust_6="104.29183"></scales>
<clustering>
<clus scale="   37.367">  3  5 -1 -1</clus>
<clus scale="   51.748">  2  4  1 -1</clus>
<clus scale="  104.292">  2  6  1 -1</clus>
<clus scale="  114.522">  1  3  2 -1</clus>
</clustering>
</event>
<event>
 6    0  0.2433432E+002  0.1285306E+03  0.7546771E-02  0.1229652E+00
         -1   -1    0    0    0  501 -0.00000000000E+00  0.00000000000E+00  0.39451247021E+03  0.39451247021E+03  0.00000000000E+00 0. -1.
         21   -1    0    0  503  502  0.00000000000E+00 -0.00000000000E+00 -0.33893520796E+03  0.33893520796E+03  0.00000000000E+00 0.  1.
         21    1    1    2  503  501 -0.74916582267E+01 -0.15339874134E+03  0.29055302630E+02  0.15630582011E+03  0.00000000000E+00 0. -1.
         21    1    1    2  504  505 -0.21300958389E+02  0.10889328208E+03  0.86096581078E+02  0.14044251131E+03  0.00000000000E+00 0.  1.
         21    1    1    2  505  502 -0.37242281684E+02  0.28135021741E+02 -0.23967486379E+03  0.24417740954E+03  0.00000000000E+00 0.  1.
         -1    1    1    2    0  504  0.66034898300E+02  0.16370437526E+02  0.18010024234E+03  0.19252193721E+03  0.00000000000E+00 0. -1.
<scales pt_clust_3="128.53060" pt_clust_4="14000.00000" pt_clust_5="46.67512" pt_clust_6="66.19366"></scales>
<clustering>
<clus scale="   46.675">  2  5  1 -1</clus>
<clus scale="   66.194">  1  6  2 -1</clus>
<clus scale="  128.531">  2  3  1 -1</clus>
<clus scale="   46.675">  2  3  1 -1</clus>
</clustering>
</event>
<event>
 6    0  0.2433432E+002  0.2233315E+03  0.7546771E-02  0.1131423E+00
          2   -1    0    0  504    0 -0.00000000000E+00  0.00000000000E+00  0.69537866530E+03  0.69537866530E+03  0.00000000000E+00 0. -1.
         21   -1    0    0  505  502  0.00000000000E+00 -0.00000000000E+00 -0.28062328825E+03  0.28062328825E+03  0.00000000000E+00 0. -1.
         21    1    1    2  503  501  0.11235357069E+03  0.22157025847E+02  0.13012485239E+03  0.17333994303E+03  0.00000000000E+00 0. -1.
         21    1    1    2  504  502  0.11724541286E+02  0.21832269340E+03  0.68077800542E+02  0.22899093923E+03  0.00000000000E+00 0. -1.
         21    1    1    2  505  503 -0.10466563700E+03 -0.20723783392E+03 -0.10143599577E+03  0.25336076376E+03  0.00000000000E+00 0. -1.
          2    1    1    2  501    0 -0.19412474983E+02 -0.33241885329E+02  0.31798871989E+03  0.32031030752E+03  0.00000000000E+00 0. -1.
<scales pt_clust_3="104.89022" pt_clust_4="223.33153" pt_clust_5="14000.00000" pt_clust_6="38.49503"></scales>
<clustering>
<clus scale="   38.495">  1  6  2 -1</clus>
<clus scale="  104.890">  1  3  2 -1</clus>
<clus scale="  223.332">  1  4  2 -1</clus>
<clus scale="  223.332">  2  3  1 -1</clus>
</clustering>
</event>
<event>
 6    0  0.2433432E+002  0.1512957E+03  0.7546771E-02  0.1198890E+00
          1   -1    0    0  504    0 -0.00000000000E+00  0.00000000000E+00  0.59582592427E+03  0.59582592427E+03  0.00000000000E+00 0. -1.
         21   -1    0    0  505  502  0.00000000000E+00 -0.00000000000E+00 -0.19719802463E+03  0.19719802463E+03  0.00000000000E+00 0. -1.
         21    1    1    2  503  501  0.41588307213E+02  0.80609545478E+02  0.12244604950E+03  0.15238281123E+03  0.00000000000E+00 0. -1.
         21    1    1    2  504  502 -0.69000852313E+02 -0.12447236344E+03 -0.12650164563E+03  0.19041311202E+03  0.00000000000E+00 0. -1.
         21    1    1    2  505  503  0.49391718165E+02  0.80748372589E+02  0.77819091226E+02  0.12253837137E+03  0.00000000000E+00 0. -1.
          1    1    1    2  501    0 -0.21979173064E+02 -0.36885554631E+02  0.32486440455E+03  0.32768965429E+03  0.00000000000E+00 0. -1.
<scales pt_clust_3="33.36607" pt_clust_4="147.40622" pt_clust_5="33.36607" pt_clust_6="42.93749"></scales>
<clustering>
<clus scale="   33.366">  3  5 -1 -1</clus>
<clus scale="   42.937">  1  6  2 -1</clus>
<clus scale="  147.406">  2  4  1 -1</clus>
<clus scale="  147.406">  2  3  1 -1</clus>
</clustering>
</event>
<event>
 6    0  0.2433432E+002  0.8970319E+02  0.7546771E-02  0.1303572E+00
         -4   -1    0    0    0  501 -0.00000000000E+00  0.00000000000E+00  0.38419125815E+03  0.38419125815E+03  0.00000000000E+00 0. -1.
         21   -1    0    0  504  502  0.00000000000E+00 -0.00000000000E+00 -0.49192569132E+03  0.49192569132E+03  0.00000000000E+00 0.  1.
         21    1    1    2  503  502  0.93648668336E+02 -0.92238907005E+02 -0.69005392348E+02  0.14845818677E+03  0.00000000000E+00 0.  1.
         21    1    1    2  504  505 -0.40415985501E+02  0.26906511875E+02 -0.33619741249E+03  0.33968531382E+03  0.00000000000E+00 0.  1.
         21    1    1    2  505  501 -0.69579558524E+02  0.16261174303E+02 -0.13512318459E+02  0.72720860173E+02  0.00000000000E+00 0.  1.
         -4    1    1    2    0  503  0.16346875689E+02  0.49071220828E+02  0.31098069012E+03  0.31525258870E+03  0.00000000000E+00 0. -1.
<scales pt_clust_3="89.70319" pt_clust_4="48.55319" pt_clust_5="14000.00000" pt_clust_6="51.90336"></scales>
<clustering>
<clus scale="   48.553">  2  4  1 -1</clus>
<clus scale="   51.903">  1  6  2 -1</clus>
<clus scale="   89.703">  2  3  1 -1</clus>
<clus scale="   48.553">  2  3  1 -1</clus>
</clustering>
</event>
<event>
 6    0  0.2433432E+002  0.8522566E+02  0.7546771E-02  0.1314843E+00
          4   -1    0    0  504    0 -0.00000000000E+00  0.00000000000E+00  0.46975921855E+03  0.46975921855E+03  0.00000000000E+00 0.  1.
         21   -1    0    0  505  502  0.00000000000E+00 -0.00000000000E+00 -0.17877660644E+03  0.17877660644E+03  0.00000000000E+00 0.  1.
         21    1    1    2  503  501  0.62550980656E+02  0.81724162648E+01  0.35203663905E+02  0.72240650059E+02  0.00000000000E+00 0.  1.
         21    1    1    2  504  502  0.33747494283E+02 -0.28152875723E+02 -0.12154748718E+03  0.12924886623E+03  0.00000000000E+00 0.  1.
         21    1    1    2  505  503 -0.12305234818E+02  0.59259187411E+02  0.21285857658E+01  0.60560721379E+02  0.00000000000E+00 0.  1.
          4    1    1    2  501    0 -0.83993240120E+02 -0.39278727953E+02  0.37519784962E+03  0.38648558733E+03  0.00000000000E+00 0.  1.
<scales pt_clust_3="14000.00000" pt_clust_4="43.94858" pt_clust_5="44.28144" pt_clust_6="85.22566"></scales>
<clustering>
<clus scale="   43.949">  2  4  1 -1</clus>
<clus scale="   44.281">  2  5  1 -1</clus>
<clus scale="   85.226">  1  6  2 -1</clus>
<clus scale="   43.949">  2  3  1 -1</clus>
</clustering>
</event>
<event>
 6    0  0.2433432E+002  0.1092799E+03  0.7546771E-02  0.1261909E+00
         21   -1    0    0  504  502  0.00000000000E+00  0.00000000000E+00  0.83948996163E+02  0.83948996163E+02  0.00000000000E+00 0.  1.
          2   -1    0    0  503    0 -0.00000000000E+00 -0.00000000000E+00 -0.97507976728E+03  0.97507976728E+03  0.00000000000E+00 0.  1.
         21    1    1    2  503  505  0.82262560944E+01  0.76212618969E+02 -0.75477775524E+01  0.77025992532E+02  0.00000000000E+00 0.  1.
         21    1    1    2  504  501  0.23442980028E+02 -0.29309400005E+02 -0.47343429299E+02  0.60415350194E+02  0.00000000000E+00 0.  1.
         21    1    1    2  505  502  0.20287691956E+02  0.34050250618E+02  0.30196460342E+02  0.49828066681E+02  0.00000000000E+00 0.  1.
          2    1    1    2  501    0 -0.51956928078E+02 -0.80953469582E+02 -0.86643602460E+03  0.87175935403E+03  0.00000000000E+00 0.  1.
<scales pt_clust_3="36.72240" pt_clust_4="37.53151" pt_clust_5="36.72240" pt_clust_6="96.61290"></scales>
<clustering>
<clus scale="   36.722">  3  5 -1 -1</clus>
<clus scale="   37.532">  1  4  2 -1</clus>
<clus scale="   96.613">  2  6  1 -1</clus>
<clus scale="   37.532">  1  3  2 -1</clus>
</clustering>
</event>
<event>
 6    0  0.2433432E+002  0.1738475E+03  0.7546771E-02  0.1173894E+00
         21   -1    0    0  503  502  0.00000000000E+00  0.00000000000E+00  0.10766445214E+04  0.10766445214E+04  0.00000000000E+00 0.  1.
         -1   -1    0    0    0  501 -0.00000000000E+00 -0.00000000000E+00 -0.20729650932E+03  0.20729650932E+03  0.00000000000E+00 0. -1.
         21    1    1    2  503  501  0.24993025507E+02  0.26642055910E+02  0.85225074144E+02  0.92724127011E+02  0.00000000000E+00 0. -1.
         21    1    1    2  504  502  0.59200461482E+02 -0.11581711669E+03  0.73692619389E+03  0.74831712154E+03  0.00000000000E+00 0.  1.
         21    1    1    2  505  504 -0.12741222011E+02 -0.53710150277E+02  0.20861404375E+03  0.21579374002E+03  0.00000000000E+00 0.  1.
         -1    1    1    2    0  505 -0.71452264978E+02  0.14288521105E+03 -0.16141729974E+03  0.22710604211E+03  0.00000000000E+00 0. -1.
<scales pt_clust_3="36.53013" pt_clust_4="42.36040" pt_clust_5="42.36040" pt_clust_6="160.17957"></scales>
<clustering>
<clus scale="   36.530">  1  3  2 -1</clus>
<clus scale="   42.360">  4  5 -1 -1</clus>
<clus scale="  160.180">  2  6  1 -1</clus>
<clus scale="   36.530">  1  3  2 -1</clus>
</clustering>
</event>
<event>
 6    0  0.2433432E+002  0.7310809E+02  0.7546771E-02  0.1349832E+00
         21   -1    0    0  505  502  0.00000000000E+00  0.00000000000E+00  0.72191383064E+03  0.72191383064E+03  0.00000000000E+00 0.  1.
         -1   -1    0    0    0  501 -0.00000000000E+00 -0.00000000000E+00 -0.82200698364E+03  0.82200698364E+03  0.00000000000E+00 0.  1.
         21    1    1    2  503  504  0.70871472337E+00 -0.41586787229E+02  0.39698697725E+03  0.39915989685E+03  0.00000000000E+00 0. -1.
         21    1    1    2  504  502 -0.23844399429E+02 -0.18725827280E+02  0.17046665925E+02  0.34782190998E+02  0.00000000000E+00 0.  1.
         21    1    1    2  505  501  0.94848023441E+02  0.46426024342E+02  0.28685399203E+03  0.30567423187E+03  0.00000000000E+00 0.  1.
         -1    1    1    2    0  503 -0.71712338736E+02  0.13886590167E+02 -0.80098078819E+03  0.80430449456E+03  0.00000000000E+00 0.  1.
<scales pt_clust_3="53.87140" pt_clust_4="30.31851" pt_clust_5="73.10809" pt_clust_6="14000.00000"></scales>
<clustering>
<clus scale="   30.319">  1  4  2 -1</clus>
<clus scale="   53.871">  1  3  2 -1</clus>
<clus scale="   73.108">  1  5  2 -1</clus>
<clus scale="   30.319">  1  3  2 -1</clus>
</clustering>
</event>
<event>
 6    0  0.2433432E+002  0.9647276E+02  0.7546771E-02  0.1287893E+00
          2   -1    0    0  505    0 -0.00000000000E+00  0.00000000000E+00  0.33627565000E+04  0.33627565000E+04  0.00000000000E+00 0.  1.
         21   -1    0    0  504  502  0.00000000000E+00 -0.00000000000E+00 -0.62696934017E+01  0.62696934017E+01  0.00000000000E+00 0.  1.
         21    1    1    2  503  502  0.73289055726E+02  0.33476413689E+02  0.63046785704E+03  0.63559552761E+03  0.00000000000E+00 0.  1.
         21    1    1    2  504  501 -0.59606653170E+02 -0.31520752000E+02  0.54659803953E+03  0.55074125297E+03  0.00000000000E+00 0.  1.
         21    1    1    2  505  503  0.46865348921E+02 -0.12101151437E+02  0.55428687823E+03  0.55639620970E+03  0.00000000000E+00 0.  1.
          2    1    1    2  501    0 -0.60547751476E+02  0.10145489749E+02  0.16251340318E+04  0.16262932031E+04  0.00000000000E+00 0.  1.
<scales pt_clust_3="37.22374" pt_clust_4="83.66873" pt_clust_5="37.22374" pt_clust_6="61.39187"></scales>
<clustering>
<clus scale="   37.224">  3  5 -1 -1</clus>
<clus scale="   61.392">  1  6  2 -1</clus>
<clus scale="   83.669">  2  4  1 -1</clus>
<clus scale="   83.669">  2  3  1 -1</clus>
</clustering>
</event>
<event>
 6    0  0.2433432E+002  0.8157931E+02  0.7546771E-02  0.1324628E+00
         21   -1    0    0  504  502  0.00000000000E+00  0.00000000000E+00  0.32750728427E+03  0.32750728427E+03  0.00000000000E+00 0. -1.
          2   -1    0    0  503    0 -0.00000000000E+00 -0.00000000000E+00 -0.96181235714E+03  0.96181235714E+03  0.00000000000E+00 0.  1.
         21    1    1    2  503  505  0.97814225050E+01 -0.48460975073E+02 -0.58583020903E+02  0.76655806494E+02  0.00000000000E+00 0.  1.
         21    1    1    2  504  501 -0.99256250717E+02  0.22214323203E+02 -0.10882991915E+03  0.14896050068E+03  0.00000000000E+00 0. -1.
         21    1    1    2  505  502  0.26821594541E+02 -0.45754866538E+02  0.29304003955E+03  0.29780089074E+03  0.00000000000E+00 0. -1.
          2    1    1    2  501    0  0.62653233671E+02  0.72001518408E+02 -0.75993217237E+03  0.76590244349E+03  0.00000000000E+00 0.  1.
<scales pt_clust_3="49.43827" pt_clust_4="81.57931" pt_clust_5="53.16131" pt_clust_6="14000.00000"></scales>
<clustering>
<clus scale="   49.438">  2  3  1 -1</clus>
<clus scale="   53.161">  1  5  2 -1</clus>
<clus scale="   81.579">  1  4  2 -1</clus>
<clus scale="   53.161">  1  3  2 -1</clus>
</clustering>
</event>
<event>
 6    0  0.2433432E+002  0.1024801E+03  0.7546771E-02  0.1275165E+00
          2   -1    0    0  503    0 -0.00000000000E+00  0.00000000000E+00  0.82321356224E+03  0.82321356224E+03  0.00000000000E+00 0.  1.
         21   -1    0    0  504  502  0.00000000000E+00 -0.00000000000E+00 -0.14821380560E+03  0.14821380560E+03  0.00000000000E+00 0.  1.
         21    1    1    2  503  505  0.93753136509E+02 -0.28015191330E+02  0.41597863241E+03  0.42733210057E+03  0.00000000000E+00 0.  1.
         21    1    1    2  504  501 -0.27889796451E+02 -0.32815006528E+02 -0.12112249849E+03  0.12855086557E+03  0.00000000000E+00 0.  1.
         21    1    1    2  505  502  0.41145350302E+02  0.32893199226E+02  0.81111087994E+02  0.96715619226E+02  0.00000000000E+00 0.  1.
          2    1    1    2  501    0 -0.10700869036E+03  0.27936998632E+02  0.29903253472E+03  0.31882878246E+03  0.00000000000E+00 0.  1.
<scales pt_clust_3="102.48007" pt_clust_4="43.06583" pt_clust_5="38.66520" pt_clust_6="14000.00000"></scales>
<clustering>
<clus scale="   43.066">  2  4  1 -1</clus>
<clus scale="   38.665">  2  5  1 -1</clus>
<clus scale="  102.480">  1  3  2 -1</clus>
<clus scale="   43.066">  2  3  1 -1</clus>
</clustering>
</event>
<event>
 6    0  0.2433432E+002  0.9386627E+02  0.7546771E-02  0.1293750E+00
          1   -1    0    0  503    0 -0.00000000000E+00  0.00000000000E+00  0.93001814652E+03  0.93001814652E+03  0.00000000000E+00 0. -1.
         21   -1    0    0  504  502  0.00000000000E+00 -0.00000000000E+00 -0.26363203143E+03  0.26363203143E+03  0.00000000000E+00 0. -1.
         21    1    1    2  503  502  0.72355299652E+02 -0.65610657804E+01 -0.13816852900E+02  0.73954326418E+02  0.00000000000E+00 0. -1.
         21    1    1    2  504  505 -0.40191923252E+02 -0.23931559427E+02 -0.16507394927E+03  0.17157365462E+03  0.00000000000E+00 0. -1.
         21    1    1    2  505  501 -0.20878753335E+02 -0.64427694878E+02 -0.25311629626E+02  0.72301651450E+02  0.00000000000E+00 0. -1.
          1    1    1    2  501    0 -0.11284623064E+02  0.94920320085E+02  0.87058854689E+03  0.87582054547E+03  0.00000000000E+00 0. -1.
<scales pt_clust_3="56.64576" pt_clust_4="46.77724" pt_clust_5="93.86627" pt_clust_6="14000.00000"></scales>
<clustering>
<clus scale="   46.777">  2  4  1 -1</clus>
<clus scale="   56.646">  2  3  1 -1</clus>
<clus scale="   93.866">  2  5  1 -1</clus>
<clus scale="   46.777">  2  3  1 -1</clus>
</clustering>
</event>
<event>
 6    0  0.2433432E+002  0.1425993E+03  0.7546771E-02  0.1209874E+00
         21   -1    0    0  504  502  0.00000000000E+00  0.00000000000E+00  0.86118487071E+03  0.86118487071E+03  0.00000000000E+00 0.  1.
          2   -1    0    0  503    0 -0.00000000000E+00 -0.00000000000E+00 -0.42496316348E+03  0.42496316348E+03  0.00000000000E+00 0. -1.
         21    1    1    2  503  505 -0.21365800252E+02 -0.74539018874E+02 -0.84366398806E+02  0.11458731170E+03  0.00000000000E+00 0. -1.
         21    1    1    2  504  501  0.14373773297E+03 -0.69537021894E+01  0.81280303507E+03  0.82544391916E+03  0.00000000000E+00 0.  1.
         21    1    1    2  505  502 -0.42619868667E+02 -0.15990301794E+02 -0.28067031050E+02  0.53478043986E+02  0.00000000000E+00 0.  1.
          2    1    1    2  501    0 -0.79752064053E+02  0.97483022857E+02 -0.26414789798E+03  0.29263875935E+03  0.00000000000E+00 0. -1.
<scales pt_clust_3="124.91872" pt_clust_4="14000.00000" pt_clust_5="44.11430" pt_clust_6="142.59928"></scales>
<clustering>
<clus scale="   44.114">  3  5 -1 -1</clus>
<clus scale="  124.919">  2  3  1 -1</clus>
<clus scale="  142.599">  2  6  1 -1</clus>
<clus scale="  142.599">  1  3  2 -1</clus>
</clustering>
</event>
<event>
 6    0  0.2433432E+002  0.8727132E+02  0.7546771E-02  0.1309597E+00
         21   -1    0    0  505  502  0.00000000000E+00  0.00000000000E+00  0.95914317783E+03  0.95914317783E+03  0.00000000000E+00 0.  1.
          2   -1    0    0  503    0 -0.00000000000E+00 -0.00000000000E+00 -0.14848803044E+04  0.14848803044E+04  0.00000000000E+00 0. -1.
         21    1    1    2  503  504 -0.33354089765E+02  0.57757417518E+01 -0.10896966903E+03  0.11410628057E+03  0.00000000000E+00 0. -1.
         21    1    1    2  504  502 -0.52946692011E+02 -0.69215792981E+02  0.94307228127E+03  0.94709001995E+03  0.00000000000E+00 0.  1.
         21    1    1    2  505  501  0.13390193483E+03  0.43869393927E+02 -0.45026364395E+03  0.47179614341E+03  0.00000000000E+00 0. -1.
          2    1    1    2  501    0 -0.47601153055E+02  0.19570657303E+02 -0.90957609484E+03  0.91103103828E+03  0.00000000000E+00 0. -1.
<scales pt_clust_3="33.85047" pt_clust_4="87.27132" pt_clust_5="14000.00000" pt_clust_6="73.53184"></scales>
<clustering>
<clus scale="   33.850">  2  3  1 -1</clus>
<clus scale="   73.532">  2  6  1 -1</clus>
<clus scale="   87.271">  1  4  2 -1</clus>
<clus scale="   87.271">  1  3  2 -1</clus>
</clustering>
</event>
<event>
 6    0  0.2433432E+002  0.1321095E+03  0.7546771E-02  0.1224359E+00
         21   -1    0    0  505  502  0.00000000000E+00  0.00000000000E+00  0.22119637524E+03  0.22119637524E+03  0.00000000000E+00 0. -1.
         -2   -1    0    0    0  501 -0.00000000000E+00 -0.00000000000E+00 -0.28331686073E+03  0.28331686073E+03  0.00000000000E+00 0.  1.
         21    1    1    2  503  502 -0.54155711686E+02  0.19131806075E+02  0.17639205766E+02  0.60083347875E+02  0.00000000000E+00 0. -1.
         21    1    1    2  504  503 -0.72090809531E+02 -0.13736612877E+02  0.68842978318E+01  0.73710059753E+02  0.00000000000E+00 0. -1.
         21    1    1    2  505  501  0.11694877069E+03  0.68154807081E+02  0.10104839146E+03  0.16891675497E+03  0.00000000000E+00 0. -1.
         -2    1    1    2    0  504  0.92977505275E+01 -0.73550000280E+02 -0.18769238055E+03  0.20180307337E+03  0.00000000000E+00 0.  1.
<scales pt_clust_3="32.28703" pt_clust_4="32.28703" pt_clust_5="126.96821" pt_clust_6="74.13535"></scales>
<clustering>
<clus scale="   32.287">  3  4 -1 -1</clus>
<clus scale="   74.135">  2  6  1 -1</clus>
<clus scale="  126.968">  1  5  2 -1</clus>
<clus scale="  126.968">  1  3  2 -1</clus>
</clustering>
</event>
<event>
 6    0  0.2433432E+002  0.1525270E+03  0.7546771E-02  0.1197402E+00
          2   -1    0    0  502    0 -0.00000000000E+00  0.00000000000E+00  0.62219504212E+03  0.62219504212E+03  0.00000000000E+00 0.  1.
         21   -1    0    0  503  502  0.00000000000E+00 -0.00000000000E+00 -0.16871230341E+03  0.16871230341E+03  0.00000000000E+00 0.  1.
         21    1    1    2  503  504 -0.40239160348E+01 -0.46100489380E+02 -0.66395694532E+02  0.80931052593E+02  0.00000000000E+00 0.  1.
         21    1    1    2  504  505 -0.23593306275E+02 -0.42445089966E+02 -0.23053885052E+02  0.53756035747E+02  0.00000000000E+00 0.  1.
         21    1    1    2  505  501 -0.49789427807E+02 -0.13106369546E+02 -0.36343652976E+02  0.63020831125E+02  0.00000000000E+00 0.  1.
          2    1    1    2  501    0  0.77406650118E+02  0.10165194889E+03  0.57927597127E+03  0.59319942606E+03  0.00000000000E+00 0.  1.
<scales pt_clust_3="38.26273" pt_clust_4="51.10572" pt_clust_5="51.10572" pt_clust_6="127.76896"></scales>
<clustering>
<clus scale="   38.263">  3  4 -1 -1</clus>
<clus scale="   51.106">  3  5 -1 -1</clus>
<clus scale="  127.769">  1  6  2 -1</clus>
<clus scale="  152.527">  2  3  1 -1</clus>
</clustering>
</event>
<event>
 6    0  0.2433432E+002  0.2094191E+03  0.7546771E-02  0.1142027E+00
         21   -1    0    0  504  502  0.00000000000E+00  0.00000000000E+00  0.52993878351E+02  0.52993878351E+02  0.00000000000E+00 0. -1.
          2   -1    0    0  503    0 -0.00000000000E+00 -0.00000000000E+00 -0.31115327689E+04  0.31115327689E+04  0.00000000000E+00 0. -1.
         21    1    1    2  503  505 -0.62763974477E+02 -0.15814580998E+03 -0.42829863493E+03  0.46085695654E+03  0.00000000000E+00 0. -1.
         21    1    1    2  504  501  0.16772089659E+03  0.93216658946E+02 -0.33803535791E+03  0.38869981716E+03  0.00000000000E+00 0. -1.
         21    1    1    2  505  502 -0.34094145248E+02 -0.30148313179E+02 -0.42907873275E+02  0.62549317476E+02  0.00000000000E+00 0.  1.
          2    1    1    2  501    0 -0.70862776864E+02  0.95077464211E+02 -0.22492970244E+04  0.22524205561E+04  0.00000000000E+00 0. -1.
<scales pt_clust_3="43.52534" pt_clust_4="191.76537" pt_clust_5="43.52534" pt_clust_6="118.58017"></scales>
<clustering>
<clus scale="   43.525">  3  5 -1 -1</clus>
<clus scale="  118.580">  2  6  1 -1</clus>
<clus scale="  191.765">  1  4  2 -1</clus>
<clus scale="  191.765">  1  3  2 -1</clus>
</clustering>
</event>
<event>
 6    0  0.2433432E+002  0.1065818E+03  0.7546771E-02  0.1267034E+00
         21   -1    0    0  501  502  0.00000000000E+00  0.00000000000E+00  0.40219869728E+02  0.40219869728E+02  0.00000000000E+00 0.  1.
          1   -1    0    0  505    0 -0.00000000000E+00 -0.00000000000E+00 -0.10335644941E+04  0.10335644941E+04  0.00000000000E+00 0.  1.
         21    1    1    2  503  504 -0.25401531752E+02  0.60600431260E+02 -0.77585898768E+02  0.10167212879E+03  0.00000000000E+00 0.  1.
         21    1    1    2  504  502  0.11875605434E+02 -0.37718890964E+02 -0.53316025276E+02  0.66380292943E+02  0.00000000000E+00 0. -1.
         21    1    1    2  505  503  0.56960187635E+02  0.77500397800E+02 -0.11317839247E+03  0.14852650658E+03  0.00000000000E+00 0.  1.
          1    1    1    2  501    0 -0.43434261317E+02 -0.10038193810E+03 -0.74926430788E+03  0.75720543554E+03  0.00000000000E+00 0.  1.
<scales pt_clust_3="51.64801" pt_clust_4="39.54421" pt_clust_5="14000.00000" pt_clust_6="106.58183"></scales>
<clustering>
<clus scale="   39.544">  1  4  2 -1</clus>
<clus scale="   51.648">  1  3  2 -1</clus>
<clus scale="  106.582">  2  6  1 -1</clus>
<clus scale="   39.544">  1  3  2 -1</clus>
</clustering>
</event>
<event>
 6    0  0.2433432E+002  0.7260363E+02  0.7546771E-02  0.1351457E+00
          2   -1    0    0  503    0 -0.00000000000E+00  0.00000000000E+00  0.71298748668E+03  0.71298748668E+03  0.00000000000E+00 0. -1.
         21   -1    0    0  501  502  0.00000000000E+00 -0.00000000000E+00 -0.40067943448E+03  0.40067943448E+03  0.00000000000E+00 0.  1.
         21    1    1    2  503  505 -0.91889681738E+02 -0.10656925218E+02  0.40680213733E+02  0.10105524951E+03  0.00000000000E+00 0.  1.
         21    1    1    2  504  502  0.33449664897E+02 -0.18944705345E+01 -0.17999022053E+03  0.18308180845E+03  0.00000000000E+00 0.  1.
         21    1    1    2  505  504  0.21243336262E+02 -0.50988051711E+02 -0.18274396590E+03  0.19090944929E+03  0.00000000000E+00 0.  1.
          2    1    1    2  501    0  0.37196680579E+02  0.63539447464E+02  0.63436202490E+03  0.63862041391E+03  0.00000000000E+00 0. -1.
<scales pt_clust_3="72.60363" pt_clust_4="33.50327" pt_clust_5="72.40975" pt_clust_6="14000.00000"></scales>
<clustering>
<clus scale="   33.503">  2  4  1 -1</clus>
<clus scale="   72.410">  2  5  1 -1</clus>
<clus scale="   72.604">  2  3  1 -1</clus>
<clus scale="   33.503">  2  3  1 -1</clus>
</clustering>
</event>
<event>
 6    0  0.2433432E+002  0.7775822E+02  0.7546771E-02  0.1335536E+00
         21   -1    0    0  504  502  0.00000000000E+00  0.00000000000E+00  0.49545517868E+03  0.49545517868E+03  0.00000000000E+00 0. -1.
          3   -1    0    0  503    0 -0.00000000000E+00 -0.00000000000E+00 -0.13375943317E+03  0.13375943317E+03  0.00000000000E+00 0.  1.
         21    1    1    2  503  505 -0.11906100916E+03  0.74954594091E+01  0.37050324445E+02  0.12491770233E+03  0.00000000000E+00 0. -1.
         21    1    1    2  504  501  0.21385552095E+02 -0.26162841070E+02  0.20970985455E+03  0.21241482808E+03  0.00000000000E+00 0. -1.
         21    1    1    2  505  502  0.55446985713E+02  0.23635513417E+02  0.19343417220E+03  0.20260746455E+03  0.00000000000E+00 0. -1.
          3    1    1    2  501    0  0.42228471351E+02 -0.49681317562E+01 -0.78498605681E+02  0.89274616883E+02  0.00000000000E+00 0.  1.
<scales pt_clust_3="14000.00000" pt_clust_4="33.79107" pt_clust_5="77.75822" pt_clust_6="42.98232"></scales>
<clustering>
<clus scale="   33.791">  1  4  2 -1</clus>
<clus scale="   42.982">  2  6  1 -1</clus>
<clus scale="   77.758">  1  5  2 -1</clus>
<clus scale="   33.791">  1  3  2 -1</clus>
</clustering>
</event>
<event>
 6    0  0.2433432E+002  0.2046341E+03  0.7546771E-02  0.1145887E+00
         21   -1    0    0  505  502  0.00000000000E+00  0.00000000000E+00  0.30780662198E+03  0.30780662198E+03  0.00000000000E+00 0.  1.
          2   -1    0    0  503    0 -0.00000000000E+00 -0.00000000000E+00 -0.10926144271E+04  0.10926144271E+04  0.00000000000E+00 0.  1.
         21    1    1    2  503  504 -0.67431746763E+02  0.45232983968E+02 -0.81420165286E+02  0.11498828908E+03  0.00000000000E+00 0.  1.
         21    1    1    2  504  502  0.13403843003E+03 -0.19103721784E+03  0.10076742130E+03  0.25419597267E+03  0.00000000000E+00 0.  1.
         21    1    1    2  505  501 -0.37179539673E+01  0.30151880563E+02  0.10668814081E+03  0.11092934000E+03  0.00000000000E+00 0.  1.
          2    1    1    2  501    0 -0.62888729298E+02  0.11565235331E+03 -0.91084320199E+03  0.92030744738E+03  0.00000000000E+00 0.  1.
<scales pt_clust_3="82.89743" pt_clust_4="204.63409" pt_clust_5="30.38024" pt_clust_6="14000.00000"></scales>
<clustering>
<clus scale="   30.380">  1  5  2 -1</clus>
<clus scale="   82.897">  2  3  1 -1</clus>
<clus scale="  204.634">  1  4  2 -1</clus>
<clus scale="   30.380">  1  3  2 -1</clus>
</clustering>
</event>
<event>
 6    0  0.2433432E+002  0.2086697E+03  0.7546771E-02  0.1142624E+00
         21   -1    0    0  504  502  0.00000000000E+00  0.00000000000E+00  0.41856839700E+02  0.41856839700E+02  0.00000000000E+00 0. -1.
          2   -1    0    0  502    0 -0.00000000000E+00 -0.00000000000E+00 -0.16360672490E+04  0.16360672490E+04  0.00000000000E+00 0.  1.
         21    1    1    2  503  505  0.11865101254E+03  0.95230071322E+01 -0.31994727441E+03  0.34137224381E+03  0.00000000000E+00 0. -1.
         21    1    1    2  504  503 -0.31902548607E+02  0.25926112692E+02 -0.31980012945E+02  0.52083175353E+02  0.00000000000E+00 0. -1.
         21    1    1    2  505  501  0.95771919190E+02  0.41478002107E+02 -0.22426562479E+03  0.24736158882E+03  0.00000000000E+00 0. -1.
          2    1    1    2  501    0 -0.18252038313E+03 -0.76927121932E+02 -0.10180174972E+04  0.10371070807E+04  0.00000000000E+00 0.  1.
<scales pt_clust_3="40.40063" pt_clust_4="41.10883" pt_clust_5="40.40063" pt_clust_6="204.16050"></scales>
<clustering>
<clus scale="   40.401">  3  5 -1 -1</clus>
<clus scale="   41.109">  1  4  2 -1</clus>
<clus scale="  204.160">  2  6  1 -1</clus>
<clus scale="   41.109">  1  3  2 -1</clus>
</clustering>
</event>
<event>
 6    0  0.2433432E+002  0.9720557E+02  0.7546771E-02  0.1286284E+00
         21   -1    0    0  505  502  0.00000000000E+00  0.00000000000E+00  0.21780424497E+04  0.21780424497E+04  0.00000000000E+00 0.  1.
          2   -1    0    0  504    0 -0.00000000000E+00 -0.00000000000E+00 -0.37609041711E+03  0.37609041711E+03  0.00000000000E+00 0.  1.
         21    1    1    2  503  501 -0.27157218245E+02 -0.71908496610E+02  0.15691954064E+02  0.78451155568E+02  0.00000000000E+00 0.  1.
         21    1    1    2  504  502  0.62634462916E+01 -0.53417251139E+02  0.11252439360E+04  0.11265285389E+04  0.00000000000E+00 0.  1.
         21    1    1    2  505  503 -0.11373689233E+01  0.15045498903E+03  0.99862414779E+03  0.10098951361E+04  0.00000000000E+00 0.  1.
          2    1    1    2  501    0  0.22031140876E+02 -0.25129241279E+02 -0.33760800527E+03  0.33925803625E+03  0.00000000000E+00 0.  1.
<scales pt_clust_3="14000.00000" pt_clust_4="54.25363" pt_clust_5="97.20557" pt_clust_6="33.41930"></scales>
<clustering>
<clus scale="   33.419">  2  6  1 -1</clus>
<clus scale="   54.254">  1  4  2 -1</clus>
<clus scale="   97.206">  1  5  2 -1</clus>
<clus scale="   54.254">  1  3  2 -1</clus>
</clustering>
</event>
<event>
 6    0  0.2433432E+002  0.9034948E+02  0.7546771E-02  0.1302008E+00
         21   -1    0    0  504  502  0.00000000000E+00  0.00000000000E+00  0.60173690422E+02  0.60173690422E+02  0.00000000000E+00 0.  1.
          2   -1    0    0  503    0 -0.00000000000E+00 -0.00000000000E+00 -0.82533563064E+03  0.82533563064E+03  0.00000000000E+00 0. -1.
         21    1    1    2  503  505 -0.78490815608E+02 -0.25126090516E+02 -0.18139001596E+03  0.19923470192E+03  0.00000000000E+00 0.  1.
         21    1    1    2  504  501  0.29377077029E+02 -0.50451403248E+02  0.93506708656E+01  0.59125221269E+02  0.00000000000E+00 0.  1.
         21    1    1    2  505  502 -0.47479976908E+02  0.75420120701E+02 -0.15769100411E+03  0.18113253598E+03  0.00000000000E+00 0.  1.
          2    1    1    2  501    0  0.96593715487E+02  0.15737306321E+00 -0.43543159102E+03  0.44601686189E+03  0.00000000000E+00 0. -1.
<scales pt_clust_3="14000.00000" pt_clust_4="58.38113" pt_clust_5="62.75999" pt_clust_6="90.34948"></scales>
<clustering>
<clus scale="   58.381">  1  4  2 -1</clus>
<clus scale="   62.760">  1  5  2 -1</clus>
<clus scale="   90.349">  2  6  1 -1</clus>
<clus scale="   58.381">  1  3  2 -1</clus>
</clustering>
</event>
<event>
 6    0  0.2433432E+002  0.1680015E+03  0.7546771E-02  0.1179948E+00
          1   -1    0    0  503    0 -0.00000000000E+00  0.00000000000E+00  0.14984889552E+04  0.14984889552E+04  0.00000000000E+00 0. -1.
         21   -1    0    0  505  502  0.00000000000E+00 -0.00000000000E+00 -0.11172061378E+03  0.11172061378E+03  0.00000000000E+00 0. -1.
         21    1    1    2  503  502 -0.59402926846E+02  0.11239203066E+03  0.35360057638E+03  0.37575795918E+03  0.00000000000E+00 0. -1.
         21    1    1    2  504  501  0.35952491261E+02 -0.10187663119E+03 -0.32747626150E+02  0.11288860274E+03  0.00000000000E+00 0. -1.
         21    1    1    2  505  504  0.35989866451E+02 -0.52004910484E+02  0.91420109500E+01  0.63901154652E+02  0.00000000000E+00 0. -1.
          1    1    1    2  501    0 -0.12539430867E+02  0.41489511016E+02  0.10567733803E+04  0.10576618524E+04  0.00000000000E+00 0. -1.
<scales pt_clust_3="162.42642" pt_clust_4="32.83915" pt_clust_5="32.83915" pt_clust_6="43.34301"></scales>
<clustering>
<clus scale="   32.839">  4  5 -1 -1</clus>
<clus scale="   43.343">  1  6  2 -1</clus>
<clus scale="  162.426">  1  3  2 -1</clus>
<clus scale="  168.002">  2  3  1 -1</clus>
</clustering>
</event>
<event>
 6    0  0.2433432E+002  0.1152138E+03  0.7546771E-02  0.1251208E+00
          2   -1    0    0  503    0 -0.00000000000E+00  0.00000000000E+00  0.53549696674E+03  0.53549696674E+03  0.00000000000E+00 0.  1.
         21   -1    0    0  505  502  0.00000000000E+00 -0.00000000000E+00 -0.12409503107E+03  0.12409503107E+03  0.00000000000E+00 0. -1.
         21    1    1    2  503  504 -0.10199188781E+03  0.18999104021E+02  0.95529577935E+02  0.14102911541E+03  0.00000000000E+00 0. -1.
         21    1    1    2  504  502  0.11192849763E+03 -0.34924637095E+02  0.16431298388E+02  0.11839639532E+03  0.00000000000E+00 0. -1.
         21    1    1    2  505  501  0.21277115688E+01 -0.55880283412E+02 -0.29526546374E+02  0.63237253036E+02  0.00000000000E+00 0. -1.
          2    1    1    2  501    0 -0.12064321386E+02  0.71805816485E+02  0.32896760573E+03  0.33692923404E+03  0.00000000000E+00 0.  1.
<scales pt_clust_3="14000.00000" pt_clust_4="115.21380" pt_clust_5="55.92078" pt_clust_6="69.97228"></scales>
<clustering>
<clus scale="   55.921">  2  5  1 -1</clus>
<clus scale="   69.972">  1  6  2 -1</clus>
<clus scale="  115.214">  2  4  1 -1</clus>
<clus scale="   55.921">  2  3  1 -1</clus>
</clustering>
</event>
<event>
 6    0  0.2433432E+002  0.6617332E+02  0.7546771E-02  0.1373612E+00
         21   -1    0    0  503  502  0.00000000000E+00  0.00000000000E+00  0.28482110252E+03  0.28482110252E+03  0.00000000000E+00 0.  1.
         -2   -1    0    0    0  501 -0.00000000000E+00 -0.00000000000E+00 -0.17872933255E+03  0.17872933255E+03  0.00000000000E+00 0.  1.
         21    1    1    2  503  501  0.24990762821E+02 -0.99475359875E+02  0.13519284873E+03  0.16969676424E+03  0.00000000000E+00 0.  1.
         21    1    1    2  504  502 -0.15278297003E+02  0.51270989871E+02  0.48178119141E+02  0.71994943750E+02  0.00000000000E+00 0.  1.
         21    1    1    2  505  504  0.57513527247E+02  0.38107822678E+02  0.44705600736E+02  0.82210721338E+02  0.00000000000E+00 0.  1.
         -2    1    1    2    0  505 -0.67225993065E+02  0.10096547325E+02 -0.12198479862E+03  0.13964800574E+03  0.00000000000E+00 0.  1.
<scales pt_clust_3="66.32945" pt_clust_4="53.49898" pt_clust_5="14000.00000" pt_clust_6="66.17332"></scales>
<clustering>
<clus scale="   53.499">  1  4  2 -1</clus>
<clus scale="   66.329">  1  3  2 -1</clus>
<clus scale="   66.173">  2  6  1 -1</clus>
<clus scale="   53.499">  1  3  2 -1</clus>
</clustering>
</event>
<event>
 6    0  0.2433432E+002  0.1035650E+03  0.7546771E-02  0.1272973E+00
         21   -1    0    0  505  502  0.00000000000E+00  0.00000000000E+00  0.40652414749E+03  0.40652414749E+03  0.00000000000E+00 0. -1.
          4   -1    0    0  503    0 -0.00000000000E+00 -0.00000000000E+00 -0.10077677062E+04  0.10077677062E+04  0.00000000000E+00 0. -1.
         21    1    1    2  503  504  0.56424030345E+02  0.87974295275E+01 -0.39228919834E+02  0.69281845515E+02  0.00000000000E+00 0. -1.
         21    1    1    2  504  502 -0.10954420394E+02 -0.34989946288E+02  0.28337615920E+03  0.28573824257E+03  0.00000000000E+00 0. -1.
         21    1    1    2  505  501 -0.15640826909E+01 -0.68889078324E+02  0.92615316977E+02  0.11543720547E+03  0.00000000000E+00 0. -1.
          4    1    1    2  501    0 -0.43905527260E+02  0.95081595084E+02 -0.93800611503E+03  0.94383456013E+03  0.00000000000E+00 0. -1.
<scales pt_clust_3="55.25688" pt_clust_4="36.66464" pt_clust_5="14000.00000" pt_clust_6="103.56501"></scales>
<clustering>
<clus scale="   36.665">  1  4  2 -1</clus>
<clus scale="   55.257">  1  3  2 -1</clus>
<clus scale="  103.565">  2  6  1 -1</clus>
<clus scale="   36.665">  1  3  2 -1</clus>
</clustering>
</event>
<event>
 6    0  0.2433432E+002  0.8727750E+02  0.7546771E-02  0.1309582E+00
          4   -1    0    0  503    0 -0.00000000000E+00  0.00000000000E+00  0.93417828647E+03  0.93417828647E+03  0.00000000000E+00 0.  1.
         21   -1    0    0  505  502  0.00000000000E+00 -0.00000000000E+00 -0.89838920111E+02  0.89838920111E+02  0.00000000000E+00 0. -1.
         21    1    1    2  503  504 -0.32857960485E+02 -0.71119320460E+02 -0.33052852518E+02  0.85029961599E+02  0.00000000000E+00 0. -1.
         21    1    1    2  504  502 -0.89539041061E+01 -0.33088324702E+02  0.24902136621E+02  0.42368927749E+02  0.00000000000E+00 0. -1.
         21    1    1    2  505  501 -0.24728353197E+02  0.46787736394E+02  0.15664882411E+02  0.55190327682E+02  0.00000000000E+00 0. -1.
          4    1    1    2  501    0  0.66540217788E+02  0.57419908768E+02  0.83682519984E+03  0.84142798955E+03  0.00000000000E+00 0.  1.
<scales pt_clust_3="87.27750" pt_clust_4="34.27841" pt_clust_5="47.15715" pt_clust_6="14000.00000"></scales>
<clustering>
<clus scale="   34.278">  2  4  1 -1</clus>
<clus scale="   47.157">  2  5  1 -1</clus>
<clus scale="   87.278">  2  3  1 -1</clus>
<clus scale="   34.278">  2  3  1 -1</clus>
</clustering>
</event>
<event>
 6    0  0.2433432E+002  0.1341930E+03  0.7546771E-02  0.1221363E+00
          2   -1    0    0  504    0 -0.00000000000E+00  0.00000000000E+00  0.26956938632E+04  0.26956938632E+04  0.00000000000E+00 0.  1.
         21   -1    0    0  503  502  0.00000000000E+00 -0.00000000000E+00 -0.55946362573E+02  0.55946362573E+02  0.00000000000E+00 0.  1.
         21    1    1    2  503  501 -0.46708463838E+02 -0.11190728800E+03  0.24432085743E+02  0.12370064072E+03  0.00000000000E+00 0.  1.
         21    1    1    2  504  505  0.42608366149E+02  0.83788264592E+02  0.84990198831E+03  0.85508440278E+03  0.00000000000E+00 0. -1.
         21    1    1    2  505  502  0.22258345041E+02  0.62369358656E+02  0.31319715701E+03  0.32012158625E+03  0.00000000000E+00 0. -1.
          2    1    1    2  501    0 -0.18158247352E+02 -0.34250335248E+02  0.14522162695E+04  0.14527335960E+04  0.00000000000E+00 0.  1.
<scales pt_clust_3="123.56379" pt_clust_4="47.90255" pt_clust_5="47.90255" pt_clust_6="38.76606"></scales>
<clustering>
<clus scale="   38.766">  1  6  2 -1</clus>
<clus scale="   47.903">  4  5 -1 -1</clus>
<clus scale="  123.564">  2  3  1 -1</clus>
<clus scale="  123.564">  2  3  1 -1</clus>
</clustering>
</event>
<event>
 6    0  0.2433432E+002  0.1055301E+03  0.7546771E-02  0.1269079E+00
          2   -1    0    0  504    0 -0.00000000000E+00  0.00000000000E+00  0.14512504468E+04  0.14512504468E+04  0.00000000000E+00 0.  1.
         21   -1    0    0  501  502  0.00000000000E+00 -0.00000000000E+00 -0.12061530780E+03  0.12061530780E+03  0.00000000000E+00 0. -1.
         21    1    1    2  503  505 -0.92702321581E+02 -0.15219807230E+03  0.19663460430E+03  0.26537358807E+03  0.00000000000E+00 0. -1.
         21    1    1    2  504  503 -0.12386234761E+02  0.54685892110E+02  0.27433874257E+03  0.28001019853E+03  0.00000000000E+00 0. -1.
         21    1    1    2  505  502  0.56904088933E+02  0.54068601125E+02 -0.63548704061E+02  0.10099468675E+03  0.00000000000E+00 0. -1.
          2    1    1    2  501    0  0.48184467410E+02  0.43443579067E+02  0.92321049624E+03  0.92548728129E+03  0.00000000000E+00 0.  1.
<scales pt_clust_3="105.53005" pt_clust_4="56.07108" pt_clust_5="78.95640" pt_clust_6="14000.00000"></scales>
<clustering>
<clus scale="   56.071">  1  4  2 -1</clus>
<clus scale="   78.956">  2  5  1 -1</clus>
<clus scale="  105.530">  2  3  1 -1</clus>
<clus scale="   78.956">  2  3  1 -1</clus>
</clustering>
</event>
<event>
 6    0  0.6669568E+002  0.2180146E+03  0.7546771E-02  0.1135372E+00
          1   -1    0    0  504    0 -0.00000000000E+00  0.00000000000E+00  0.18761220570E+04  0.18761220570E+04  0.00000000000E+00 0. -1.
         21   -1    0    0  505  502  0.00000000000E+00 -0.00000000000E+00 -0.12271089676E+04  0.12271089676E+04  0.00000000000E+00 0.  1.
         21    1    1    2  503  502 -0.20926948049E+03  0.56566213583E+02 -0.11486407233E+04  0.11689178599E+04  0.00000000000E+00 0.  1.
         21    1    1    2  504  503  0.77397783935E+02 -0.53046301029E+02  0.10394293473E+03  0.14003021350E+03  0.00000000000E+00 0. -1.
         21    1    1    2  505  501 -0.10073899792E+02 -0.53690816298E+02 -0.31136159423E+02  0.62878037782E+02  0.00000000000E+00 0. -1.
          1    1    1    2  501    0  0.14194559635E+03  0.50170903744E+02  0.17248470373E+04  0.17314049134E+04  0.00000000000E+00 0. -1.
<scales pt_clust_3="218.01461" pt_clust_4="94.17152" pt_clust_5="54.62771" pt_clust_6="14000.00000"></scales>
<clustering>
<clus scale="   54.628">  2  5  1 -1</clus>
<clus scale="   94.172">  1  4  2 -1</clus>
<clus scale="  218.015">  2  3  1 -1</clus>
<clus scale="   54.628">  2  3  1 -1</clus>
</clustering>
</event>
<event>
 6    0  0.2433432E+002  0.1001709E+03  0.7546771E-02  0.1279937E+00
         21   -1    0    0  503  502  0.00000000000E+00  0.00000000000E+00  0.55660231710E+02  0.55660231710E+02  0.00000000000E+00 0.  1.
          1   -1    0    0  505    0 -0.00000000000E+00 -0.00000000000E+00 -0.98595547010E+03  0.98595547010E+03  0.00000000000E+00 0.  1.
         21    1    1    2  503  504 -0.69428094351E+02 -0.12953684887E+02 -0.15134648752E+03  0.16701442309E+03  0.00000000000E+00 0.  1.
         21    1    1    2  504  501  0.15203403200E+02 -0.59039798847E+02 -0.69831479782E+02  0.92699929263E+02  0.00000000000E+00 0.  1.
         21    1    1    2  505  502  0.10251527444E+03  0.66798994164E+02 -0.70049983249E+02  0.14099108932E+03  0.00000000000E+00 0.  1.
          1    1    1    2  501    0 -0.48290583288E+02  0.51944895697E+01 -0.63906728784E+03  0.64091026014E+03  0.00000000000E+00 0.  1.
<scales pt_clust_3="100.17087" pt_clust_4="57.94836" pt_clust_5="14000.00000" pt_clust_6="48.56916"></scales>
<clustering>
<clus scale="   48.569">  2  6  1 -1</clus>
<clus scale="   57.948">  2  4  1 -1</clus>
<clus scale="  100.171">  2  3  1 -1</clus>
<clus scale="  100.171">  1  3  2 -1</clus>
</clustering>
</event>
<event>
 6    0  0.2433432E+002  0.1105565E+03  0.7546771E-02  0.1259543E+00
          2   -1    0    0  502    0 -0.00000000000E+00  0.00000000000E+00  0.18849846619E+04  0.18849846619E+04  0.00000000000E+00 0.  1.
         21   -1    0    0  505  502  0.00000000000E+00 -0.00000000000E+00 -0.59252959302E+02  0.59252959302E+02  0.00000000000E+00 0. -1.
         21    1    1    2  503  504  0.53438392068E+02 -0.47172065803E+01  0.45908437192E+02  0.70608061793E+02  0.00000000000E+00 0. -1.
         21    1    1    2  504  501 -0.13051211404E+03  0.46349590608E+02  0.11463790050E+03  0.17978749871E+03  0.00000000000E+00 0. -1.
         21    1    1    2  505  503 -0.31322497204E+02 -0.28595195480E+02  0.23416481219E+02  0.48447039417E+02  0.00000000000E+00 0. -1.
          2    1    1    2  501    0  0.10839621918E+03 -0.13037188549E+02  0.16417688836E+04  0.16453950212E+04  0.00000000000E+00 0.  1.
<scales pt_clust_3="46.79979" pt_clust_4="14000.00000" pt_clust_5="42.41207" pt_clust_6="110.55649"></scales>
<clustering>
<clus scale="   42.412">  2  5  1 -1</clus>
<clus scale="   46.800">  2  3  1 -1</clus>
<clus scale="  110.556">  1  6  2 -1</clus>
<clus scale="   42.412">  2  3  1 -1</clus>
</clustering>
</event>
<event>
 6    0  0.2433432E+002  0.1245166E+03  0.7546771E-02  0.1235827E+00
         21   -1    0    0  504  502  0.00000000000E+00  0.00000000000E+00  0.10213139051E+04  0.10213139051E+04  0.00000000000E+00 0.  1.
         -2   -1    0    0    0  501 -0.00000000000E+00 -0.00000000000E+00 -0.40926147334E+03  0.40926147334E+03  0.00000000000E+00 0.  1.
         21    1    1    2  503  502  0.35787231091E+02 -0.37922168379E+02  0.64380156285E+02  0.82846975123E+02  0.00000000000E+00 0.  1.
         21    1    1    2  504  505 -0.56397384398E+02  0.30616246633E+02  0.52645376732E+03  0.53035043947E+03  0.00000000000E+00 0.  1.
         21    1    1    2  505  501 -0.90662325163E+02  0.10194058207E+02  0.40635918476E+03  0.41647492490E+03  0.00000000000E+00 0. -1.
         -2    1    1    2    0  503  0.11127247847E+03 -0.28881364607E+01 -0.38514067664E+03  0.40090303890E+03  0.00000000000E+00 0.  1.
<scales pt_clust_3="52.14227" pt_clust_4="46.28879" pt_clust_5="46.28879" pt_clust_6="111.61607"></scales>
<clustering>
<clus scale="   46.289">  4  5 -1 -1</clus>
<clus scale="   52.142">  1  3  2 -1</clus>
<clus scale="  111.616">  2  6  1 -1</clus>
<clus scale="   52.142">  1  3  2 -1</clus>
</clustering>
</event>
<event>
 6    0  0.2433432E+002  0.1474020E+03  0.7546771E-02  0.1203702E+00
          1   -1    0    0  503    0 -0.00000000000E+00  0.00000000000E+00  0.12802922906E+04  0.12802922906E+04  0.00000000000E+00 0.  1.
         21   -1    0    0  504  502  0.00000000000E+00 -0.00000000000E+00 -0.77123505439E+02  0.77123505439E+02  0.00000000000E+00 0.  1.
         21    1    1    2  503  505 -0.14228829814E+03  0.25915966284E+02  0.96485456594E+03  0.97563411713E+03  0.00000000000E+00 0.  1.
         21    1    1    2  504  501 -0.17255626425E+02 -0.34465238050E+02 -0.22783448446E+02  0.44773818246E+02  0.00000000000E+00 0.  1.
         21    1    1    2  505  502 -0.17682055780E+01  0.41565344143E+02  0.92092449640E+02  0.10105356830E+03  0.00000000000E+00 0.  1.
          1    1    1    2  501    0  0.16131213015E+03 -0.33016072376E+02  0.16900521805E+03  0.23595429239E+03  0.00000000000E+00 0.  1.
<scales pt_clust_3="147.40200" pt_clust_4="38.54360" pt_clust_5="38.16830" pt_clust_6="14000.00000"></scales>
<clustering>
<clus scale="   38.544">  2  4  1 -1</clus>
<clus scale="   38.168">  2  5  1 -1</clus>
<clus scale="  147.402">  1  3  2 -1</clus>
<clus scale="   38.544">  2  3  1 -1</clus>
</clustering>
</event>
<event>
 6    0  0.2433432E+002  0.1249581E+03  0.7546771E-02  0.1235135E+00
          2   -1    0    0  505    0 -0.00000000000E+00  0.00000000000E+00  0.40864940628E+03  0.40864940628E+03  0.00000000000E+00 0. -1.
         21   -1    0    0  504  502  0.00000000000E+00 -0.00000000000E+00 -0.43399368608E+03  0.43399368608E+03  0.00000000000E+00 0.  1.
         21    1    1    2  503  502 -0.14412527842E+01  0.95602787574E+02 -0.37043937208E+03  0.38257979375E+03  0.00000000000E+00 0.  1.
         21    1    1    2  504  501 -0.34566271951E+01  0.45877578405E+02 -0.73193006810E+01  0.46586185016E+02  0.00000000000E+00 0.  1.
         21    1    1    2  505  503  0.34487723043E+02 -0.90508041718E+02  0.57302869953E+02  0.11253767174E+03  0.00000000000E+00 0. -1.
          2    1    1    2  501    0 -0.29589843064E+02 -0.50972324261E+02  0.29511152300E+03  0.30093944185E+03  0.00000000000E+00 0. -1.
<scales pt_clust_3="14000.00000" pt_clust_4="46.00761" pt_clust_5="124.95806" pt_clust_6="58.66709"></scales>
<clustering>
<clus scale="   46.008">  2  4  1 -1</clus>
<clus scale="   58.667">  1  6  2 -1</clus>
<clus scale="  124.958">  1  5  2 -1</clus>
<clus scale="   46.008">  2  3  1 -1</clus>
</clustering>
</event>
<event>
 6    0  0.2433432E+002  0.8052771E+02  0.7546771E-02  0.1327561E+00
         21   -1    0    0  504  502  0.00000000000E+00  0.00000000000E+00  0.74048314773E+02  0.74048314773E+02  0.00000000000E+00 0.  1.
          2   -1    0    0  503    0 -0.00000000000E+00 -0.00000000000E+00 -0.15446952269E+04  0.15446952269E+04  0.00000000000E+00 0.  1.
         21    1    1    2  503  502  0.59711607457E+02  0.24395902353E+02 -0.54946751517E+02  0.84733592034E+02  0.00000000000E+00 0.  1.
         21    1    1    2  504  505 -0.70877670741E+02 -0.73726047049E+02 -0.45481798052E+02  0.11192751305E+03  0.00000000000E+00 0.  1.
         21    1    1    2  505  501 -0.46912405384E+02  0.65398272934E+02 -0.38883965293E+02  0.89384957563E+02  0.00000000000E+00 0.  1.
          2    1    1    2  501    0  0.58078468667E+02 -0.16068128238E+02 -0.13313343973E+04  0.13326974790E+04  0.00000000000E+00 0.  1.
<scales pt_clust_3="80.52771" pt_clust_4="14000.00000" pt_clust_5="67.31213" pt_clust_6="60.26021"></scales>
<clustering>
<clus scale="   60.260">  2  6  1 -1</clus>
<clus scale="   67.312">  2  5  1 -1</clus>
<clus scale="   80.528">  1  3  2 -1</clus>
<clus scale="   80.528">  1  3  2 -1</clus>
</clustering>
</event>
<event>
 6    0  0.2433432E+002  0.1170167E+03  0.7546771E-02  0.1248101E+00
          2   -1    0    0  504    0 -0.00000000000E+00  0.00000000000E+00  0.60231707620E+03  0.60231707620E+03  0.00000000000E+00 0.  1.
         21   -1    0    0  503  502  0.00000000000E+00 -0.00000000000E+00 -0.66596663780E+02  0.66596663780E+02  0.00000000000E+00 0.  1.
         21    1    1    2  503  501 -0.95238107537E+02  0.28694623677E+02  0.97899046635E+02  0.13956325407E+03  0.00000000000E+00 0.  1.
         21    1    1    2  504  505  0.49265067202E+02  0.16012995032E+02  0.25709837781E+02  0.57831294427E+02  0.00000000000E+00 0.  1.
         21    1    1    2  505  502  0.68919163651E+02 -0.22255354002E+02  0.16078013681E+02  0.74186618902E+02  0.00000000000E+00 0.  1.
          2    1    1    2  501    0 -0.22946123316E+02 -0.22452264706E+02  0.39603351432E+03  0.39733257258E+03  0.00000000000E+00 0.  1.
<scales pt_clust_3="109.62156" pt_clust_4="33.34248" pt_clust_5="33.34248" pt_clust_6="32.10341"></scales>
<clustering>
<clus scale="   32.103">  1  6  2 -1</clus>
<clus scale="   33.342">  4  5 -1 -1</clus>
<clus scale="  109.622">  1  3  2 -1</clus>
<clus scale="  117.017">  2  3  1 -1</clus>
</clustering>
</event>
<event>
 6    0  0.2433432E+002  0.8570758E+02  0.7546771E-02  0.1313592E+00
          2   -1    0    0  503    0 -0.00000000000E+00  0.00000000000E+00  0.18438249632E+04  0.18438249632E+04  0.00000000000E+00 0. -1.
         21   -1    0    0  504  502  0.00000000000E+00 -0.00000000000E+00 -0.47765923475E+03  0.47765923475E+03  0.00000000000E+00 0. -1.
         21    1    1    2  503  502  0.58987789272E+01  0.33984926561E+02  0.14045747781E+02  0.37243171950E+02  0.00000000000E+00 0.  1.
         21    1    1    2  504  505  0.82704868397E+02 -0.23381381561E+02 -0.18050572339E+03  0.19992273617E+03  0.00000000000E+00 0. -1.
         21    1    1    2  505  501 -0.78321151309E+02  0.74563408290E+02 -0.26418528818E+03  0.28546062967E+03  0.00000000000E+00 0. -1.
          2    1    1    2  501    0 -0.10282496015E+02 -0.85166953290E+02  0.17968109922E+04  0.17988576601E+04  0.00000000000E+00 0. -1.
<scales pt_clust_3="34.49305" pt_clust_4="85.64212" pt_clust_5="14000.00000" pt_clust_6="85.70758"></scales>
<clustering>
<clus scale="   34.493">  2  3  1 -1</clus>
<clus scale="   85.642">  2  4  1 -1</clus>
<clus scale="   85.708">  1  6  2 -1</clus>
<clus scale="   34.493">  2  3  1 -1</clus>
</clustering>
</event>
<event>
 6    0  0.2433432E+002  0.1030811E+03  0.7546771E-02  0.1273947E+00
         21   -1    0    0  504  502  0.00000000000E+00  0.00000000000E+00  0.15456832853E+04  0.15456832853E+04  0.00000000000E+00 0.  1.
         -4   -1    0    0    0  501 -0.00000000000E+00 -0.00000000000E+00 -0.28778978068E+04  0.28778978068E+04  0.00000000000E+00 0.  1.
         21    1    1    2  503  505 -0.47935054456E+02 -0.94357242572E+02 -0.91845505559E+03  0.92453271863E+03  0.00000000000E+00 0. -1.
         21    1    1    2  504  501 -0.76267388568E+01  0.29065463722E+02 -0.11540285087E+03  0.11925093843E+03  0.00000000000E+00 0.  1.
         21    1    1    2  505  502  0.36634286351E+02 -0.25574973443E+02  0.15392249522E+04  0.15398732427E+04  0.00000000000E+00 0.  1.
         -4    1    1    2    0  503  0.18927506962E+02  0.90866752293E+02 -0.18375815673E+04  0.18399241923E+04  0.00000000000E+00 0.  1.
<scales pt_clust_3="14000.00000" pt_clust_4="30.04943" pt_clust_5="44.67561" pt_clust_6="103.08110"></scales>
<clustering>
<clus scale="   30.049">  2  4  1 -1</clus>
<clus scale="   44.676">  1  5  2 -1</clus>
<clus scale="  103.081">  2  6  1 -1</clus>
<clus scale="   44.676">  1  3  2 -1</clus>
</clustering>
</event>
<event>
 6    0  0.2433432E+002  0.3667995E+03  0.7546771E-02  0.1055924E+00
         -1   -1    0    0    0  501 -0.00000000000E+00  0.00000000000E+00  0.12065652860E+03  0.12065652860E+03  0.00000000000E+00 0. -1.
         21   -1    0    0  505  502  0.00000000000E+00 -0.00000000000E+00 -0.16266097102E+04  0.16266097102E+04  0.00000000000E+00 0. -1.
         21    1    1    2  503  502  0.16441668138E+03  0.10758205044E+03 -0.64525491400E+03  0.67450770694E+03  0.00000000000E+00 0. -1.
         21    1    1    2  504  503  0.58136977941E+02  0.13142969739E+03 -0.27213350804E+03  0.30775041797E+03  0.00000000000E+00 0. -1.
         21    1    1    2  505  501 -0.26075204323E+03 -0.26324537758E+03 -0.61095610377E+03  0.71453279673E+03  0.00000000000E+00 0. -1.
         -1    1    1    2    0  504  0.38198383911E+02  0.24233629750E+02  0.22391344233E+02  0.50475317144E+02  0.00000000000E+00 0. -1.
<scales pt_clust_3="110.94265" pt_clust_4="110.94265" pt_clust_5="343.46633" pt_clust_6="45.23699"></scales>
<clustering>
<clus scale="   45.237">  1  6  2 -1</clus>
<clus scale="  110.943">  3  4 -1 -1</clus>
<clus scale="  343.466">  1  5  2 -1</clus>
<clus scale="  366.800">  2  3  1 -1</clus>
</clustering>
</event>
<event>
 6    0  0.2433432E+002  0.1377468E+03  0.7546771E-02  0.1216393E+00
         21   -1    0    0  503  502  0.00000000000E+00  0.00000000000E+00  0.66620372691E+02  0.66620372691E+02  0.00000000000E+00 0.  1.
          1   -1    0    0  505    0 -0.00000000000E+00 -0.00000000000E+00 -0.14943452190E+04  0.14943452190E+04  0.00000000000E+00 0. -1.
         21    1    1    2  503  504 -0.44276971147E+02 -0.45335979106E+02 -0.98055118864E+02  0.11675019277E+03  0.00000000000E+00 0. -1.
         21    1    1    2  504  501  0.19326504146E+03  0.10434918115E+03 -0.21068032651E+03  0.30434573734E+03  0.00000000000E+00 0.  1.
         21    1    1    2  505  502 -0.91828739794E+02  0.13747979731E+02 -0.26330496496E+03  0.27919711491E+03  0.00000000000E+00 0. -1.
          1    1    1    2  501    0 -0.57159330520E+02 -0.72761181775E+02 -0.85568443601E+03  0.86067254672E+03  0.00000000000E+00 0. -1.
<scales pt_clust_3="63.37035" pt_clust_4="14000.00000" pt_clust_5="137.74680" pt_clust_6="95.27177"></scales>
<clustering>
<clus scale="   63.370">  1  3  2 -1</clus>
<clus scale="   95.272">  2  6  1 -1</clus>
<clus scale="  137.747">  2  5  1 -1</clus>
<clus scale="   63.370">  1  3  2 -1</clus>
</clustering>
</event>
<event>
 6    0  0.2433432E+002  0.1014166E+03  0.7546771E-02  0.1277345E+00
         21   -1    0    0  505  502  0.00000000000E+00  0.00000000000E+00  0.20850779005E+03  0.20850779005E+03  0.00000000000E+00 0.  1.
          3   -1    0    0  504    0 -0.00000000000E+00 -0.00000000000E+00 -0.37032470571E+03  0.37032470571E+03  0.00000000000E+00 0.  1.
         21    1    1    2  503  501 -0.13846848478E+02 -0.58092009903E+02  0.66152418115E+02  0.89121037078E+02  0.00000000000E+00 0.  1.
         21    1    1    2  504  502  0.76260129099E+02  0.17689809127E+02  0.25079393271E+02  0.82204091163E+02  0.00000000000E+00 0.  1.
         21    1    1    2  505  503 -0.51295263961E+02 -0.34008032204E+02  0.59756002701E+02  0.85781875813E+02  0.00000000000E+00 0.  1.
          3    1    1    2  501    0 -0.11118016659E+02  0.74410232981E+02 -0.31280472974E+03  0.32172549171E+03  0.00000000000E+00 0.  1.
<scales pt_clust_3="44.18723" pt_clust_4="90.95676" pt_clust_5="44.18723" pt_clust_6="75.23625"></scales>
<clustering>
<clus scale="   44.187">  3  5 -1 -1</clus>
<clus scale="   75.236">  2  6  1 -1</clus>
<clus scale="   90.957">  2  4  1 -1</clus>
<clus scale="  101.417">  1  3  2 -1</clus>
</clustering>
</event>
<event>
 6    0  0.2433432E+002  0.1560589E+03  0.7546771E-02  0.1193219E+00
          2   -1    0    0  504    0 -0.00000000000E+00  0.00000000000E+00  0.19794925631E+04  0.19794925631E+04  0.00000000000E+00 0.  1.
         21   -1    0    0  505  502  0.00000000000E+00 -0.00000000000E+00 -0.68273019780E+02  0.68273019780E+02  0.00000000000E+00 0.  1.
         21    1    1    2  503  501  0.51290036742E+02  0.12127115942E+03  0.26060387920E+02  0.13422557802E+03  0.00000000000E+00 0.  1.
         21    1    1    2  504  502 -0.12457088824E+02 -0.15015761551E+03  0.72183254549E+03  0.73739047477E+03  0.00000000000E+00 0.  1.
         21    1    1    2  505  503 -0.73765388212E+01  0.35844410237E+02  0.48007331049E+02  0.60365047045E+02  0.00000000000E+00 0. -1.
          2    1    1    2  501    0 -0.31456409097E+02 -0.69579541462E+01  0.11153192788E+04  0.11157844830E+04  0.00000000000E+00 0.  1.
<scales pt_clust_3="156.05889" pt_clust_4="14000.00000" pt_clust_5="36.62158" pt_clust_6="32.21675"></scales>
<clustering>
<clus scale="   32.217">  1  6  2 -1</clus>
<clus scale="   36.622">  2  5  1 -1</clus>
<clus scale="  156.059">  2  3  1 -1</clus>
<clus scale="   36.622">  2  3  1 -1</clus>
</clustering>
</event>
<event>
 6    0  0.2433432E+002  0.1050764E+03  0.7546771E-02  0.1269969E+00
          1   -1    0    0  503    0 -0.00000000000E+00  0.00000000000E+00  0.22135947908E+04  0.22135947908E+04  0.00000000000E+00 0.  1.
         21   -1    0    0  505  502  0.00000000000E+00 -0.00000000000E+00 -0.34537779969E+02  0.34537779969E+02  0.00000000000E+00 0. -1.
         21    1    1    2  503  502  0.90012227688E+02  0.72634040759E+02  0.28300640855E+03  0.30572950837E+03  0.00000000000E+00 0. -1.
         21    1    1    2  504  501 -0.94249129430E+02 -0.17403603910E+02  0.40617395158E+03  0.41732848305E+03  0.00000000000E+00 0.  1.
         21    1    1    2  505  504  0.19249809586E+02 -0.24263445506E+02 -0.36187128953E+01  0.31182768317E+02  0.00000000000E+00 0. -1.
          1    1    1    2  501    0 -0.15012907843E+02 -0.30966991344E+02  0.14934953636E+04  0.14938918110E+04  0.00000000000E+00 0.  1.
<scales pt_clust_3="14000.00000" pt_clust_4="105.07640" pt_clust_5="30.97208" pt_clust_6="34.57118"></scales>
<clustering>
<clus scale="   30.972">  2  5  1 -1</clus>
<clus scale="   34.571">  1  6  2 -1</clus>
<clus scale="  105.076">  1  4  2 -1</clus>
<clus scale="   30.972">  2  3  1 -1</clus>
</clustering>
</event>
<event>
 6    0  0.2433432E+002  0.1073609E+03  0.7546771E-02  0.1265537E+00
         21   -1    0    0  503  502  0.00000000000E+00  0.00000000000E+00  0.20145569396E+04  0.20145569396E+04  0.00000000000E+00 0. -1.
         -2   -1    0    0    0  501 -0.00000000000E+00 -0.00000000000E+00 -0.13378591424E+03  0.13378591424E+03  0.00000000000E+00 0.  1.
         21    1    1    2  503  501 -0.74171432941E+02  0.80085695182E+02  0.17841854913E+04  0.17875214649E+04  0.00000000000E+00 0. -1.
         21    1    1    2  504  505  0.44196285166E+02 -0.13409788377E+02  0.79371092125E+02  0.91830846190E+02  0.00000000000E+00 0.  1.
         21    1    1    2  505  502  0.34892323477E+02  0.99368558661E+01  0.12865147006E+03  0.13366905435E+03  0.00000000000E+00 0.  1.
         -2    1    1    2    0  504 -0.49171757015E+01 -0.76612762671E+02 -0.11143702806E+03  0.13532148848E+03  0.00000000000E+00 0.  1.
<scales pt_clust_3="101.07724" pt_clust_4="32.07534" pt_clust_5="32.07534" pt_clust_6="76.77040"></scales>
<clustering>
<clus scale="   32.075">  4  5 -1 -1</clus>
<clus scale="   76.770">  2  6  1 -1</clus>
<clus scale="  101.077">  1  3  2 -1</clus>
<clus scale="  101.077">  1  3  2 -1</clus>
</clustering>
</event>
<event>
 6    0  0.2433432E+002  0.1139415E+03  0.7546771E-02  0.1253440E+00
          1   -1    0    0  505    0 -0.00000000000E+00  0.00000000000E+00  0.10851711708E+04  0.10851711708E+04  0.00000000000E+00 0.  1.
         21   -1    0    0  501  502  0.00000000000E+00 -0.00000000000E+00 -0.83737447671E+02  0.83737447671E+02  0.00000000000E+00 0.  1.
         21    1    1    2  503  504 -0.36231513131E+02  0.30661335763E+02  0.16004341695E+03  0.16693332610E+03  0.00000000000E+00 0.  1.
         21    1    1    2  504  502 -0.11974503864E+02  0.40590676270E+02 -0.65345321012E+02  0.77852441971E+02  0.00000000000E+00 0.  1.
         21    1    1    2  505  503 -0.45365864348E+02  0.16820708647E+02  0.30557477690E+03  0.30938154787E+03  0.00000000000E+00 0.  1.
          1    1    1    2  501    0  0.93571881342E+02 -0.88072720679E+02  0.60116085026E+03  0.61474130249E+03  0.00000000000E+00 0.  1.
<scales pt_clust_3="33.77535" pt_clust_4="42.32011" pt_clust_5="33.77535" pt_clust_6="108.71883"></scales>
<clustering>
<clus scale="   33.775">  3  5 -1 -1</clus>
<clus scale="   42.320">  2  4  1 -1</clus>
<clus scale="  108.719">  2  6  1 -1</clus>
<clus scale="   42.320">  2  3  1 -1</clus>
</clustering>
</event>
<event>
 6    0  0.2433432E+002  0.1311607E+03  0.7546771E-02  0.1225744E+00
         21   -1    0    0  504  502  0.00000000000E+00  0.00000000000E+00  0.16750718473E+03  0.16750718473E+03  0.00000000000E+00 0. -1.
          2   -1    0    0  502    0 -0.00000000000E+00 -0.00000000000E+00 -0.10024798673E+04  0.10024798673E+04  0.00000000000E+00 0.  1.
         21    1    1    2  503  501  0.27904462735E+02  0.39060564650E+02 -0.24577643942E+02  0.53930022558E+02  0.00000000000E+00 0. -1.
         21    1    1    2  504  505 -0.42304985320E+02  0.10871641800E+02  0.12208606397E+03  0.12966461118E+03  0.00000000000E+00 0. -1.
         21    1    1    2  505  503 -0.22811346005E+01  0.75993863618E+02 -0.41922835719E+02  0.86820475911E+02  0.00000000000E+00 0. -1.
          2    1    1    2  501    0  0.16681657186E+02 -0.12592607007E+03 -0.89055826688E+03  0.89957194238E+03  0.00000000000E+00 0.  1.
<scales pt_clust_3="30.71656" pt_clust_4="43.67956" pt_clust_5="30.71656" pt_clust_6="125.33480"></scales>
<clustering>
<clus scale="   30.717">  3  5 -1 -1</clus>
<clus scale="   43.680">  1  4  2 -1</clus>
<clus scale="  125.335">  2  6  1 -1</clus>
<clus scale="   43.680">  1  3  2 -1</clus>
</clustering>
</event>
<event>
 6    0  0.2433432E+002  0.1130165E+03  0.7546771E-02  0.1255084E+00
         21   -1    0    0  503  502  0.00000000000E+00  0.00000000000E+00  0.39627936114E+03  0.39627936114E+03  0.00000000000E+00 0. -1.
          1   -1    0    0  505    0 -0.00000000000E+00 -0.00000000000E+00 -0.22796484927E+03  0.22796484927E+03  0.00000000000E+00 0.  1.
         21    1    1    2  503  501  0.24484068823E+02 -0.93523048035E+02  0.28326939873E+03  0.29931184808E+03  0.00000000000E+00 0. -1.
         21    1    1    2  504  502  0.55761935651E+01  0.31906527140E+02  0.52879444820E+02  0.62010935271E+02  0.00000000000E+00 0. -1.
         21    1    1    2  505  504 -0.14308376000E+01 -0.48672467297E+02  0.11886848541E+02  0.50123383139E+02  0.00000000000E+00 0. -1.
          1    1    1    2  501    0 -0.28629424788E+02  0.11028898819E+03 -0.17972118022E+03  0.21279804393E+03  0.00000000000E+00 0.  1.
<scales pt_clust_3="113.01648" pt_clust_4="32.39013" pt_clust_5="45.76211" pt_clust_6="14000.00000"></scales>
<clustering>
<clus scale="   32.390">  1  4  2 -1</clus>
<clus scale="   45.762">  1  5  2 -1</clus>
<clus scale="  113.016">  1  3  2 -1</clus>
<clus scale="   32.390">  1  3  2 -1</clus>
</clustering>
</event>
<event>
 6    0  0.2433432E+002  0.8770126E+02  0.7546771E-02  0.1308516E+00
         21   -1    0    0  505  502  0.00000000000E+00  0.00000000000E+00  0.15012708866E+02  0.15012708866E+02  0.00000000000E+00 0. -1.
          2   -1    0    0  503    0 -0.00000000000E+00 -0.00000000000E+00 -0.20527356515E+04  0.20527356515E+04  0.00000000000E+00 0. -1.
         21    1    1    2  503  504  0.58415520703E+02 -0.12745530916E+02 -0.75903559878E+03  0.76138680172E+03  0.00000000000E+00 0. -1.
         21    1    1    2  504  502  0.30840385279E+02  0.10535751180E+03 -0.67644747711E+03  0.68529739817E+03  0.00000000000E+00 0. -1.
         21    1    1    2  505  501 -0.22772667316E+02 -0.75985432794E+02 -0.25226998587E+03  0.26444758676E+03  0.00000000000E+00 0. -1.
          2    1    1    2  501    0 -0.66483238666E+02 -0.16626548089E+02 -0.34996988089E+03  0.35661657373E+03  0.00000000000E+00 0. -1.
<scales pt_clust_3="59.78981" pt_clust_4="87.70126" pt_clust_5="14000.00000" pt_clust_6="54.37197"></scales>
<clustering>
<clus scale="   59.790">  2  3  1 -1</clus>
<clus scale="   54.372">  2  6  1 -1</clus>
<clus scale="   87.701">  2  4  1 -1</clus>
<clus scale="   87.701">  1  3  2 -1</clus>
</clustering>
</event>
<event>
 6    0  0.2433432E+002  0.1053976E+03  0.7546771E-02  0.1269338E+00
         -2   -1    0    0    0  501 -0.00000000000E+00  0.00000000000E+00  0.87002057459E+02  0.87002057459E+02  0.00000000000E+00 0. -1.
         21   -1    0    0  504  502  0.00000000000E+00 -0.00000000000E+00 -0.14842455929E+04  0.14842455929E+04  0.00000000000E+00 0.  1.
         21    1    1    2  503  502  0.24360431286E+02  0.71881645137E+02 -0.11790838110E+04  0.11815240306E+04  0.00000000000E+00 0.  1.
         21    1    1    2  504  501 -0.10487244329E+03  0.33895959585E+02 -0.18296376389E+03  0.21359518800E+03  0.00000000000E+00 0. -1.
         21    1    1    2  505  503  0.36062885342E+02 -0.10225442805E+03 -0.61204346237E+02  0.12450892239E+03  0.00000000000E+00 0. -1.
         -2    1    1    2    0  505  0.44449126665E+02 -0.35231766684E+01  0.26008385604E+02  0.51619509460E+02  0.00000000000E+00 0. -1.
<scales pt_clust_3="76.18191" pt_clust_4="14000.00000" pt_clust_5="105.39756" pt_clust_6="44.58854"></scales>
<clustering>
<clus scale="   44.589">  1  6  2 -1</clus>
<clus scale="   76.182">  2  3  1 -1</clus>
<clus scale="  105.398">  1  5  2 -1</clus>
<clus scale="   76.182">  2  3  1 -1</clus>
</clustering>
</event>
<event>
 6    0  0.2433432E+002  0.5454441E+03  0.7546771E-02  0.1002554E+00
          2   -1    0    0  505    0 -0.00000000000E+00  0.00000000000E+00  0.20938921025E+04  0.20938921025E+04  0.00000000000E+00 0. -1.
         21   -1    0    0  504  502  0.00000000000E+00 -0.00000000000E+00 -0.48632964771E+03  0.48632964771E+03  0.00000000000E+00 0. -1.
         21    1    1    2  503  501  0.20028684260E+03 -0.24909709908E+03 -0.48976686799E+02  0.32336187150E+03  0.00000000000E+00 0. -1.
         21    1    1    2  504  503  0.23462511150E+03 -0.26836258798E+02 -0.12757777568E+03  0.26841240020E+03  0.00000000000E+00 0. -1.
         21    1    1    2  505  502  0.22624953554E+02  0.93387467183E+02 -0.36178988275E+02  0.10267437238E+03  0.00000000000E+00 0. -1.
          2    1    1    2  501    0 -0.45753690765E+03  0.18254589070E+03  0.18202959055E+04  0.18857731061E+04  0.00000000000E+00 0. -1.
<scales pt_clust_3="211.53284" pt_clust_4="211.53284" pt_clust_5="96.08906" pt_clust_6="493.73229"></scales>
<clustering>
<clus scale="   96.089">  2  5  1 -1</clus>
<clus scale="  211.533">  3  4 -1 -1</clus>
<clus scale="  493.732">  1  6  2 -1</clus>
<clus scale="   96.089">  2  3  1 -1</clus>
</clustering>
</event>
<event>
 6    0  0.2433432E+002  0.1635590E+03  0.7546771E-02  0.1184736E+00
         -3   -1    0    0    0  501 -0.00000000000E+00  0.00000000000E+00  0.98017645324E+02  0.98017645324E+02  0.00000000000E+00 0.  1.
         21   -1    0    0  503  502  0.00000000000E+00 -0.00000000000E+00 -0.18422369925E+04  0.18422369925E+04  0.00000000000E+00 0.  1.
         21    1    1    2  503  501  0.59325223045E+02  0.18645043678E+03 -0.82839173435E+03  0.85118512264E+03  0.00000000000E+00 0.  1.
         21    1    1    2  504  505  0.10301506035E+03 -0.11727976850E+03 -0.21365498918E+03  0.26460366807E+03  0.00000000000E+00 0. -1.
         21    1    1    2  505  502 -0.64149700443E+02 -0.36950559805E+01 -0.70351106229E+03  0.70643941868E+03  0.00000000000E+00 0. -1.
         -3    1    1    2    0  504 -0.98190582952E+02 -0.65475612306E+02  0.13384386489E+01  0.11802642842E+03  0.00000000000E+00 0.  1.
<scales pt_clust_3="14000.00000" pt_clust_4="163.55896" pt_clust_5="64.25603" pt_clust_6="120.87362"></scales>
<clustering>
<clus scale="   64.256">  2  5  1 -1</clus>
<clus scale="  120.874">  1  6  2 -1</clus>
<clus scale="  163.559">  1  4  2 -1</clus>
<clus scale="   64.256">  2  3  1 -1</clus>
</clustering>
</event>
<event>
 6    0  0.3809441E+002  0.1797321E+03  0.7546771E-02  0.1168063E+00
         21   -1    0    0  504  502  0.00000000000E+00  0.00000000000E+00  0.54219206450E+03  0.54219206450E+03  0.00000000000E+00 0.  1.
          1   -1    0    0  502    0 -0.00000000000E+00 -0.00000000000E+00 -0.19923511994E+04  0.19923511994E+04  0.00000000000E+00 0. -1.
         21    1    1    2  503  505  0.10637598953E+03  0.12892363829E+03  0.19501889981E+03  0.25684533661E+03  0.00000000000E+00 0.  1.
         21    1    1    2  504  503  0.24130315764E+02 -0.20237957799E+02  0.31134223509E+03  0.31293103781E+03  0.00000000000E+00 0.  1.
         21    1    1    2  505  501 -0.66351602577E+02 -0.19210900081E+02 -0.67458291816E+03  0.67811039464E+03  0.00000000000E+00 0. -1.
          1    1    1    2  501    0 -0.64154702718E+02 -0.89474780406E+02 -0.12819373516E+04  0.12866564948E+04  0.00000000000E+00 0. -1.
<scales pt_clust_3="169.73730" pt_clust_4="31.49360" pt_clust_5="46.76243" pt_clust_6="46.76243"></scales>
<clustering>
<clus scale="   31.494">  1  4  2 -1</clus>
<clus scale="   46.762">  5  6 -1 -1</clus>
<clus scale="  169.737">  1  3  2 -1</clus>
<clus scale="   31.494">  1  3  2 -1</clus>
</clustering>
</event>
<event>
 6    0  0.2433432E+002  0.1308918E+03  0.7546771E-02  0.1226138E+00
          2   -1    0    0  503    0 -0.00000000000E+00  0.00000000000E+00  0.16554612959E+04  0.16554612959E+04  0.00000000000E+00 0. -1.
         21   -1    0    0  505  502  0.00000000000E+00 -0.00000000000E+00 -0.10030282245E+03  0.10030282245E+03  0.00000000000E+00 0.  1.
         21    1    1    2  503  502  0.58766299180E+01 -0.74327937597E+02  0.73242331301E+02  0.10451610489E+03  0.00000000000E+00 0.  1.
         21    1    1    2  504  501 -0.51866001268E+02 -0.29975870731E+02 -0.30291649440E+02  0.67128376559E+02  0.00000000000E+00 0.  1.
         21    1    1    2  505  504  0.45314804216E+01 -0.33611053072E+02 -0.23763551292E+02  0.41411877203E+02  0.00000000000E+00 0.  1.
          2    1    1    2  501    0  0.41457890929E+02  0.13791486140E+03  0.15359713429E+04  0.15427077597E+04  0.00000000000E+00 0. -1.
<scales pt_clust_3="14000.00000" pt_clust_4="72.76802" pt_clust_5="33.91515" pt_clust_6="130.89177"></scales>
<clustering>
<clus scale="   33.915">  2  5  1 -1</clus>
<clus scale="   72.768">  2  4  1 -1</clus>
<clus scale="  130.892">  1  6  2 -1</clus>
<clus scale="   33.915">  2  3  1 -1</clus>
</clustering>
</event>
<event>
 6    0  0.2433432E+002  0.1578087E+03  0.7546771E-02  0.1191193E+00
         21   -1    0    0  503  502  0.00000000000E+00  0.00000000000E+00  0.23019316285E+03  0.23019316285E+03  0.00000000000E+00 0.  1.
          2   -1    0    0  505    0 -0.00000000000E+00 -0.00000000000E+00 -0.14395141694E+04  0.14395141694E+04  0.00000000000E+00 0.  1.
         21    1    1    2  503  501  0.46528236715E+02 -0.15646042716E+03 -0.10394121120E+04  0.10521512632E+04  0.00000000000E+00 0. -1.
         21    1    1    2  504  502  0.39203511822E+02  0.52288419378E+02  0.10648458049E+03  0.12493982561E+03  0.00000000000E+00 0. -1.
         21    1    1    2  505  504 -0.48270513298E+02  0.10852371686E+03  0.74169492385E+02  0.14003054372E+03  0.00000000000E+00 0.  1.
          2    1    1    2  501    0 -0.37461235239E+02 -0.43517090792E+01 -0.35056296744E+03  0.35258569974E+03  0.00000000000E+00 0.  1.
<scales pt_clust_3="157.80872" pt_clust_4="65.13312" pt_clust_5="14000.00000" pt_clust_6="37.71315"></scales>
<clustering>
<clus scale="   37.713">  2  6  1 -1</clus>
<clus scale="   65.133">  1  4  2 -1</clus>
<clus scale="  157.809">  2  3  1 -1</clus>
<clus scale="   65.133">  1  3  2 -1</clus>
</clustering>
</event>
<event>
 6    0  0.2433432E+002  0.1944456E+03  0.7546771E-02  0.1154512E+00
          1   -1    0    0  503    0 -0.00000000000E+00  0.00000000000E+00  0.71973731268E+03  0.71973731268E+03  0.00000000000E+00 0. -1.
         21   -1    0    0  505  502  0.00000000000E+00 -0.00000000000E+00 -0.24483030020E+03  0.24483030020E+03  0.00000000000E+00 0.  1.
         21    1    1    2  503  502  0.12790340904E+03 -0.25600541029E+02  0.16956670735E+03  0.21393348964E+03  0.00000000000E+00 0. -1.
         21    1    1    2  504  501 -0.59481058857E+02 -0.39084731358E+02 -0.68615896537E+02  0.98862297392E+02  0.00000000000E+00 0.  1.
         21    1    1    2  505  504 -0.12180734866E+03  0.50904646364E+02 -0.10560082625E+03  0.16905575327E+03  0.00000000000E+00 0.  1.
          1    1    1    2  501    0  0.53384998473E+02  0.13780626022E+02  0.47955702791E+03  0.48271607259E+03  0.00000000000E+00 0. -1.
<scales pt_clust_3="171.42249" pt_clust_4="67.29489" pt_clust_5="67.29489" pt_clust_6="55.13496"></scales>
<clustering>
<clus scale="   55.135">  1  6  2 -1</clus>
<clus scale="   67.295">  4  5 -1 -1</clus>
<clus scale="  171.422">  1  3  2 -1</clus>
<clus scale="  194.446">  2  3  1 -1</clus>
</clustering>
</event>
<event>
 6    0  0.2433432E+002  0.1003533E+03  0.7546771E-02  0.1279555E+00
          3   -1    0    0  504    0 -0.00000000000E+00  0.00000000000E+00  0.11394601544E+03  0.11394601544E+03  0.00000000000E+00 0. -1.
         21   -1    0    0  505  502  0.00000000000E+00 -0.00000000000E+00 -0.11651992720E+04  0.11651992720E+04  0.00000000000E+00 0.  1.
         21    1    1    2  503  502  0.14932790523E+02  0.73789547119E+02 -0.23665769648E+03  0.24834401704E+03  0.00000000000E+00 0.  1.
         21    1    1    2  504  503 -0.91226606361E+02  0.31834608877E+02 -0.46283986499E+03  0.47281759343E+03  0.00000000000E+00 0.  1.
         21    1    1    2  505  501  0.49738277616E+01 -0.34046727772E+02 -0.42926106900E+03  0.43063788035E+03  0.00000000000E+00 0.  1.
          3    1    1    2  501    0  0.71319988076E+02 -0.71577428224E+02  0.77505373918E+02  0.12734579662E+03  0.00000000000E+00 0. -1.
<scales pt_clust_3="64.71827" pt_clust_4="100.35334" pt_clust_5="34.40812" pt_clust_6="14000.00000"></scales>
<clustering>
<clus scale="   34.408">  2  5  1 -1</clus>
<clus scale="   64.718">  2  3  1 -1</clus>
<clus scale="  100.353">  2  4  1 -1</clus>
<clus scale="   34.408">  2  3  1 -1</clus>
</clustering>
</event>
<event>
 6    0  0.2433432E+002  0.8845897E+02  0.7546771E-02  0.1306627E+00
          1   -1    0    0  503    0 -0.00000000000E+00  0.00000000000E+00  0.26887345805E+03  0.26887345805E+03  0.00000000000E+00 0. -1.
         21   -1    0    0  505  502  0.00000000000E+00 -0.00000000000E+00 -0.10756761496E+04  0.10756761496E+04  0.00000000000E+00 0. -1.
         21    1    1    2  503  502 -0.48007201435E+02 -0.27247889246E+02 -0.11734837954E+03  0.12968338768E+03  0.00000000000E+00 0. -1.
         21    1    1    2  504  501  0.74429294419E+02  0.21413653690E+02 -0.54384420424E+03  0.54933121423E+03  0.00000000000E+00 0. -1.
         21    1    1    2  505  504  0.33294453301E+02  0.50216283038E+02 -0.39793429680E+03  0.40246975075E+03  0.00000000000E+00 0. -1.
          1    1    1    2  501    0 -0.59716546285E+02 -0.44382047482E+02  0.25232418901E+03  0.26306525502E+03  0.00000000000E+00 0. -1.
<scales pt_clust_3="55.20090" pt_clust_4="41.77326" pt_clust_5="41.77326" pt_clust_6="74.71219"></scales>
<clustering>
<clus scale="   41.773">  4  5 -1 -1</clus>
<clus scale="   55.201">  2  3  1 -1</clus>
<clus scale="   74.712">  1  6  2 -1</clus>
<clus scale="   55.201">  2  3  1 -1</clus>
</clustering>
</event>
<event>
 6    0  0.2433432E+002  0.1094714E+03  0.7546771E-02  0.1261552E+00
         21   -1    0    0  504  502  0.00000000000E+00  0.00000000000E+00  0.16690221582E+03  0.16690221582E+03  0.00000000000E+00 0.  1.
          2   -1    0    0  505    0 -0.00000000000E+00 -0.00000000000E+00 -0.96269890070E+03  0.96269890070E+03  0.00000000000E+00 0.  1.
         21    1    1    2  503  502 -0.39534218699E+02 -0.77583176040E+01  0.10617209978E+03  0.11355906266E+03  0.00000000000E+00 0.  1.
         21    1    1    2  504  501 -0.85015810419E+02 -0.90260990766E+02 -0.65436958314E+02  0.14020246071E+03  0.00000000000E+00 0.  1.
         21    1    1    2  505  503  0.32117631581E+02  0.41305107665E+02 -0.26629666514E+02  0.58709397172E+02  0.00000000000E+00 0.  1.
          2    1    1    2  501    0  0.92432397537E+02  0.56714200705E+02 -0.80990215983E+03  0.81713019598E+03  0.00000000000E+00 0.  1.
<scales pt_clust_3="40.28829" pt_clust_4="109.47144" pt_clust_5="44.40299" pt_clust_6="14000.00000"></scales>
<clustering>
<clus scale="   40.288">  1  3  2 -1</clus>
<clus scale="   44.403">  1  5  2 -1</clus>
<clus scale="  109.471">  1  4  2 -1</clus>
<clus scale="   40.288">  1  3  2 -1</clus>
</clustering>
</event>
<event>
 6    0  0.2433432E+002  0.1984584E+03  0.7546771E-02  0.1151046E+00
          1   -1    0    0  505    0 -0.00000000000E+00  0.00000000000E+00  0.13771630408E+04  0.13771630408E+04  0.00000000000E+00 0.  1.
         21   -1    0    0  504  502  0.00000000000E+00 -0.00000000000E+00 -0.19684184110E+04  0.19684184110E+04  0.00000000000E+00 0.  1.
         21    1    1    2  503  502 -0.49674742975E+02  0.29169379148E+02  0.39448666867E+02  0.69818551167E+02  0.00000000000E+00 0. -1.
         21    1    1    2  504  501  0.77595149177E+02  0.13447947611E+03 -0.19205276324E+04  0.19267932228E+04  0.00000000000E+00 0.  1.
         21    1    1    2  505  503 -0.13827673274E+03 -0.40703178306E-01  0.21119201190E+03  0.25243320377E+03  0.00000000000E+00 0.  1.
          1    1    1    2  501    0  0.11035632654E+03 -0.16360815208E+03  0.10786315834E+04  0.10965364740E+04  0.00000000000E+00 0.  1.
<scales pt_clust_3="44.95558" pt_clust_4="155.26022" pt_clust_5="44.95558" pt_clust_6="185.83466"></scales>
<clustering>
<clus scale="   44.956">  3  5 -1 -1</clus>
<clus scale="  155.260">  2  4  1 -1</clus>
<clus scale="  185.835">  1  6  2 -1</clus>
<clus scale="  155.260">  2  3  1 -1</clus>
</clustering>
</event>
<event>
 6    0  0.2433432E+002  0.1501839E+03  0.7546771E-02  0.1200247E+00
          2   -1    0    0  504    0 -0.00000000000E+00  0.00000000000E+00  0.14358402369E+04  0.14358402369E+04  0.00000000000E+00 0.  1.
         21   -1    0    0  505  502  0.00000000000E+00 -0.00000000000E+00 -0.52314053356E+03  0.52314053356E+03  0.00000000000E+00 0.  1.
         21    1    1    2  503  501  0.14770450594E+03  0.17181197474E+02  0.44857781911E+02  0.15531913990E+03  0.00000000000E+00 0. -1.
         21    1    1    2  504  502 -0.35534343630E+02  0.38814449117E+02  0.29617972010E+01  0.52706956658E+02  0.00000000000E+00 0. -1.
         21    1    1    2  505  503 -0.66794377114E+02 -0.16696717808E+03 -0.42188645271E+03  0.45861498705E+03  0.00000000000E+00 0.  1.
          2    1    1    2  501    0 -0.45375785193E+02  0.11097153149E+03  0.12867665770E+04  0.12923396869E+04  0.00000000000E+00 0.  1.
<scales pt_clust_3="14000.00000" pt_clust_4="52.62367" pt_clust_5="150.18387" pt_clust_6="120.16631"></scales>
<clustering>
<clus scale="   52.624">  2  4  1 -1</clus>
<clus scale="  120.166">  1  6  2 -1</clus>
<clus scale="  150.184">  2  5  1 -1</clus>
<clus scale="   52.624">  2  3  1 -1</clus>
</clustering>
</event>
<event>
 6    0  0.2433432E+002  0.1570015E+03  0.7546771E-02  0.1192124E+00
         21   -1    0    0  501  502  0.00000000000E+00  0.00000000000E+00  0.12762557992E+03  0.12762557992E+03  0.00000000000E+00 0.  1.
          1   -1    0    0  505    0 -0.00000000000E+00 -0.00000000000E+00 -0.34306997522E+03  0.34306997522E+03  0.00000000000E+00 0.  1.
         21    1    1    2  503  504 -0.58328356336E+02  0.99821605599E+01 -0.38021110147E+02  0.70338080007E+02  0.00000000000E+00 0.  1.
         21    1    1    2  504  502  0.27959232995E+02 -0.80387360657E+02 -0.24130945506E+02  0.88465524325E+02  0.00000000000E+00 0. -1.
         21    1    1    2  505  503 -0.10330846975E+03  0.83353172678E+02 -0.47708575403E+02  0.14105495200E+03  0.00000000000E+00 0.  1.
          1    1    1    2  501    0  0.13367759309E+03 -0.12947972581E+02 -0.10558376425E+03  0.17083699881E+03  0.00000000000E+00 0.  1.
<scales pt_clust_3="33.38072" pt_clust_4="85.11079" pt_clust_5="33.38072" pt_clust_6="148.82866"></scales>
<clustering>
<clus scale="   33.381">  3  5 -1 -1</clus>
<clus scale="   85.111">  1  4  2 -1</clus>
<clus scale="  148.829">  2  6  1 -1</clus>
<clus scale="   85.111">  1  3  2 -1</clus>
</clustering>
</event>
<event>
 6    0  0.2433432E+002  0.1173173E+03  0.7546771E-02  0.1247589E+00
         21   -1    0    0  505  502  0.00000000000E+00  0.00000000000E+00  0.46326631622E+03  0.46326631622E+03  0.00000000000E+00 0. -1.
          2   -1    0    0  504    0 -0.00000000000E+00 -0.00000000000E+00 -0.38365868451E+04  0.38365868451E+04  0.00000000000E+00 0.  1.
         21    1    1    2  503  502 -0.59482032962E+02  0.44266608078E+02 -0.12217594700E+02  0.75145954357E+02  0.00000000000E+00 0. -1.
         21    1    1    2  504  503  0.14833983465E+03 -0.24705832440E+01 -0.59866769443E+02  0.15998387546E+03  0.00000000000E+00 0.  1.
         21    1    1    2  505  501  0.21956937221E+02 -0.78917682450E+02  0.37641028337E+03  0.38522046820E+03  0.00000000000E+00 0. -1.
          2    1    1    2  501    0 -0.11081473891E+03  0.37121657616E+02 -0.36776464481E+04  0.36795028633E+04  0.00000000000E+00 0.  1.
<scales pt_clust_3="74.14610" pt_clust_4="14000.00000" pt_clust_5="50.20558" pt_clust_6="117.31734"></scales>
<clustering>
<clus scale="   74.146">  1  3  2 -1</clus>
<clus scale="   50.206">  1  5  2 -1</clus>
<clus scale="  117.317">  2  6  1 -1</clus>
<clus scale="   74.146">  1  3  2 -1</clus>
</clustering>
</event>
<event>
 6    0  0.2433432E+002  0.1035802E+03  0.7546771E-02  0.1272942E+00
         21   -1    0    0  503  502  0.00000000000E+00  0.00000000000E+00  0.26333518009E+02  0.26333518009E+02  0.00000000000E+00 0.  1.
          2   -1    0    0  505    0 -0.00000000000E+00 -0.00000000000E+00 -0.17511265622E+04  0.17511265622E+04  0.00000000000E+00 0.  1.
         21    1    1    2  503  501  0.37357177900E+02  0.30486601636E+02 -0.99261010903E+02  0.11035279745E+03  0.00000000000E+00 0.  1.
         21    1    1    2  504  502 -0.32466004947E+02 -0.10813249458E+03 -0.26511877499E+03  0.28815732286E+03  0.00000000000E+00 0.  1.
         21    1    1    2  505  504 -0.10777155144E+01  0.10930076017E+03 -0.32198962750E+03  0.34003696544E+03  0.00000000000E+00 0.  1.
          2    1    1    2  501    0 -0.38134574384E+01 -0.31654867227E+02 -0.10384236308E+04  0.10389129944E+04  0.00000000000E+00 0.  1.
<scales pt_clust_3="44.95718" pt_clust_4="14000.00000" pt_clust_5="103.58020" pt_clust_6="31.88374"></scales>
<clustering>
<clus scale="   31.884">  2  6  1 -1</clus>
<clus scale="   44.957">  1  3  2 -1</clus>
<clus scale="  103.580">  2  5  1 -1</clus>
<clus scale="   44.957">  1  3  2 -1</clus>
</clustering>
</event>
<event>
 6    0  0.2433432E+002  0.7889331E+02  0.7546771E-02  0.1332222E+00
         21   -1    0    0  505  502  0.00000000000E+00  0.00000000000E+00  0.12298830301E+03  0.12298830301E+03  0.00000000000E+00 0. -1.
          1   -1    0    0  503    0 -0.00000000000E+00 -0.00000000000E+00 -0.12321972438E+04  0.12321972438E+04  0.00000000000E+00 0.  1.
         21    1    1    2  503  504  0.89913206243E+02 -0.60926009676E+01 -0.12615118077E+01  0.90128218974E+02  0.00000000000E+00 0. -1.
         21    1    1    2  504  502  0.38200157359E+02 -0.24745672812E+01  0.63644968225E+02  0.74270165516E+02  0.00000000000E+00 0. -1.
         21    1    1    2  505  501 -0.59843083226E+02 -0.30813527587E+02 -0.13162064261E+03  0.14783322242E+03  0.00000000000E+00 0.  1.
          1    1    1    2  501    0 -0.68270280375E+02  0.39380695835E+02 -0.10399717546E+04  0.10429539399E+04  0.00000000000E+00 0.  1.
<scales pt_clust_3="14000.00000" pt_clust_4="38.28022" pt_clust_5="62.45467" pt_clust_6="78.89331"></scales>
<clustering>
<clus scale="   38.280">  1  4  2 -1</clus>
<clus scale="   62.455">  1  5  2 -1</clus>
<clus scale="   78.893">  2  6  1 -1</clus>
<clus scale="   38.280">  1  3  2 -1</clus>
</clustering>
</event>
<event>
 6    0  0.2433432E+002  0.1235952E+03  0.7546771E-02  0.1237281E+00
          2   -1    0    0  504    0 -0.00000000000E+00  0.00000000000E+00  0.87963709146E+03  0.87963709146E+03  0.00000000000E+00 0. -1.
         21   -1    0    0  503  502  0.00000000000E+00 -0.00000000000E+00 -0.17257424014E+03  0.17257424014E+03  0.00000000000E+00 0. -1.
         21    1    1    2  503  505 -0.19095508532E+02 -0.27076912901E+02 -0.10227163475E+03  0.10750481353E+03  0.00000000000E+00 0. -1.
         21    1    1    2  504  502 -0.10395468936E+03 -0.44648095628E+02  0.27217795718E+02  0.11636510769E+03  0.00000000000E+00 0. -1.
         21    1    1    2  505  501  0.74649142740E+02 -0.47880576158E+02  0.98029434785E+02  0.13219233779E+03  0.00000000000E+00 0. -1.
          2    1    1    2  501    0  0.48401055152E+02  0.11960558469E+03  0.68408725557E+03  0.69614907258E+03  0.00000000000E+00 0. -1.
<scales pt_clust_3="33.13303" pt_clust_4="14000.00000" pt_clust_5="88.71216" pt_clust_6="123.59518"></scales>
<clustering>
<clus scale="   33.133">  2  3  1 -1</clus>
<clus scale="   88.712">  2  5  1 -1</clus>
<clus scale="  123.595">  1  6  2 -1</clus>
<clus scale="   33.133">  2  3  1 -1</clus>
</clustering>
</event>
<event>
 6    0  0.2433432E+002  0.3826291E+03  0.7546771E-02  0.1049966E+00
         21   -1    0    0  505  502  0.00000000000E+00  0.00000000000E+00  0.10886966869E+04  0.10886966869E+04  0.00000000000E+00 0.  1.
         -3   -1    0    0    0  501 -0.00000000000E+00 -0.00000000000E+00 -0.30982968237E+03  0.30982968237E+03  0.00000000000E+00 0.  1.
         21    1    1    2  503  504  0.17345045436E+03 -0.16748984329E+03  0.28253785134E+03  0.37143713487E+03  0.00000000000E+00 0.  1.
         21    1    1    2  504  501  0.92093806474E+02 -0.29670267232E+02  0.21119790810E+03  0.23230615647E+03  0.00000000000E+00 0. -1.
         21    1    1    2  505  503  0.22686254219E+02 -0.45914008623E+02  0.39794271823E+03  0.40122458712E+03  0.00000000000E+00 0. -1.
         -3    1    1    2    0  502 -0.28823051505E+03  0.24307411914E+03 -0.11281147315E+03  0.39355849080E+03  0.00000000000E+00 0.  1.
<scales pt_clust_3="68.38686" pt_clust_4="68.38686" pt_clust_5="51.21291" pt_clust_6="367.50497"></scales>
<clustering>
<clus scale="   51.213">  1  5  2 -1</clus>
<clus scale="   68.387">  3  4 -1 -1</clus>
<clus scale="  367.505">  2  6  1 -1</clus>
<clus scale="   51.213">  1  3  2 -1</clus>
</clustering>
</event>
<event>
 6    0  0.2433432E+002  0.9724945E+02  0.7546771E-02  0.1286189E+00
          2   -1    0    0  503    0 -0.00000000000E+00  0.00000000000E+00  0.18931703905E+04  0.18931703905E+04  0.00000000000E+00 0. -1.
         21   -1    0    0  505  502  0.00000000000E+00 -0.00000000000E+00 -0.82768724177E+02  0.82768724177E+02  0.00000000000E+00 0. -1.
         21    1    1    2  503  502 -0.52600417769E+02  0.12623981484E+02  0.33784762176E+02  0.63777574533E+02  0.00000000000E+00 0. -1.
         21    1    1    2  504  501 -0.79355664554E+02 -0.79905285481E+02  0.39552138741E+02  0.11935890341E+03  0.00000000000E+00 0. -1.
         21    1    1    2  505  504  0.93716741390E+02  0.17393257025E+02  0.55973852901E+02  0.11053698573E+03  0.00000000000E+00 0. -1.
          2    1    1    2  501    0  0.38239340933E+02  0.49888046971E+02  0.16810909125E+04  0.16822656510E+04  0.00000000000E+00 0. -1.
<scales pt_clust_3="54.09407" pt_clust_4="97.24945" pt_clust_5="14000.00000" pt_clust_6="62.66846"></scales>
<clustering>
<clus scale="   54.094">  2  3  1 -1</clus>
<clus scale="   62.668">  1  6  2 -1</clus>
<clus scale="   97.249">  1  4  2 -1</clus>
<clus scale="   54.094">  2  3  1 -1</clus>
</clustering>
</event>
<event>
 6    0  0.2433432E+002  0.2206233E+03  0.7546771E-02  0.1133419E+00
         21   -1    0    0  503  502  0.00000000000E+00  0.00000000000E+00  0.67205751790E+03  0.67205751790E+03  0.00000000000E+00 0. -1.
         -1   -1    0    0    0  501 -0.00000000000E+00 -0.00000000000E+00 -0.92420365227E+03  0.92420365227E+03  0.00000000000E+00 0. -1.
         21    1    1    2  503  505 -0.19887441867E+02 -0.28480790777E+03  0.45958717533E+03  0.54104660280E+03  0.00000000000E+00 0. -1.
         21    1    1    2  504  502  0.88972685357E+02  0.10017654788E+03  0.10080786934E+02  0.13436183145E+03  0.00000000000E+00 0. -1.
         21    1    1    2  505  501 -0.25141036865E+03  0.17613593775E+03 -0.19586984944E+03  0.36413739158E+03  0.00000000000E+00 0. -1.
         -1    1    1    2    0  504  0.18232512516E+03  0.84954221390E+01 -0.52594424720E+03  0.55671534434E+03  0.00000000000E+00 0. -1.
<scales pt_clust_3="220.62332" pt_clust_4="133.98313" pt_clust_5="14000.00000" pt_clust_6="184.93854"></scales>
<clustering>
<clus scale="  133.983">  1  4  2 -1</clus>
<clus scale="  184.939">  2  6  1 -1</clus>
<clus scale="  220.623">  1  3  2 -1</clus>
<clus scale="  133.983">  1  3  2 -1</clus>
</clustering>
</event>
<event>
 6    0  0.2433432E+002  0.1127683E+03  0.7546771E-02  0.1255528E+00
         21   -1    0    0  504  502  0.00000000000E+00  0.00000000000E+00  0.43966425342E+03  0.43966425342E+03  0.00000000000E+00 0.  1.
          2   -1    0    0  505    0 -0.00000000000E+00 -0.00000000000E+00 -0.10507704129E+04  0.10507704129E+04  0.00000000000E+00 0.  1.
         21    1    1    2  503  501  0.11715141026E+02 -0.79823592878E+02  0.23515621576E+02  0.84035914747E+02  0.00000000000E+00 0. -1.
         21    1    1    2  504  503  0.32915396174E+02 -0.10915534484E+02  0.41734007165E+02  0.54261400207E+02  0.00000000000E+00 0.  1.
         21    1    1    2  505  502 -0.83536572418E+02 -0.17790786030E+02  0.32914615544E+03  0.34004714768E+03  0.00000000000E+00 0.  1.
          2    1    1    2  501    0  0.38906035218E+02  0.10852991339E+03 -0.10055019436E+04  0.10120902037E+04  0.00000000000E+00 0.  1.
<scales pt_clust_3="112.76829" pt_clust_4="34.67812" pt_clust_5="61.69557" pt_clust_6="14000.00000"></scales>
<clustering>
<clus scale="   34.678">  1  4  2 -1</clus>
<clus scale="   61.696">  1  5  2 -1</clus>
<clus scale="  112.768">  1  3  2 -1</clus>
<clus scale="   34.678">  1  3  2 -1</clus>
</clustering>
</event>
<event>
 6    0  0.2433432E+002  0.9409128E+02  0.7546771E-02  0.1293236E+00
          2   -1    0    0  504    0 -0.00000000000E+00  0.00000000000E+00  0.12376384867E+03  0.12376384867E+03  0.00000000000E+00 0. -1.
         21   -1    0    0  503  502  0.00000000000E+00 -0.00000000000E+00 -0.28642551133E+03  0.28642551133E+03  0.00000000000E+00 0. -1.
         21    1    1    2  503  501 -0.13695372676E+02  0.11142369493E+03 -0.16393709669E+03  0.19869115405E+03  0.00000000000E+00 0. -1.
         21    1    1    2  504  505  0.76455395294E+02 -0.63145468442E+02 -0.10547872040E+02  0.99719783688E+02  0.00000000000E+00 0. -1.
         21    1    1    2  505  502 -0.25516348305E+02 -0.30568414978E+02 -0.32381725440E+02  0.51323368630E+02  0.00000000000E+00 0. -1.
          2    1    1    2  501    0 -0.37243674313E+02 -0.17709811509E+02  0.44205031513E+02  0.60455053644E+02  0.00000000000E+00 0. -1.
<scales pt_clust_3="94.09128" pt_clust_4="14000.00000" pt_clust_5="39.81849" pt_clust_6="42.44514"></scales>
<clustering>
<clus scale="   39.818">  2  5  1 -1</clus>
<clus scale="   42.445">  1  6  2 -1</clus>
<clus scale="   94.091">  2  3  1 -1</clus>
<clus scale="   39.818">  2  3  1 -1</clus>
</clustering>
</event>
<event>
 6    0  0.2433432E+002  0.1029368E+03  0.7546771E-02  0.1274239E+00
          2   -1    0    0  505    0 -0.00000000000E+00  0.00000000000E+00  0.60811416602E+03  0.60811416602E+03  0.00000000000E+00 0.  1.
         21   -1    0    0  503  502  0.00000000000E+00 -0.00000000000E+00 -0.12484252845E+03  0.12484252845E+03  0.00000000000E+00 0. -1.
         21    1    1    2  503  501 -0.76638936325E+02 -0.15689335130E+02 -0.32897721152E+01  0.78297537627E+02  0.00000000000E+00 0. -1.
         21    1    1    2  504  502  0.28753037836E+02  0.15955528447E+02  0.18471181846E+02  0.37716052704E+02  0.00000000000E+00 0.  1.
         21    1    1    2  505  504 -0.57890870349E+02 -0.99277148844E+01 -0.56624390569E+02  0.81585746303E+02  0.00000000000E+00 0. -1.
          2    1    1    2  501    0  0.10577676884E+03  0.96615215678E+01  0.52471461841E+03  0.53535735784E+03  0.00000000000E+00 0.  1.
<scales pt_clust_3="102.93683" pt_clust_4="32.88337" pt_clust_5="40.64736" pt_clust_6="14000.00000"></scales>
<clustering>
<clus scale="   32.883">  2  4  1 -1</clus>
<clus scale="   40.647">  2  5  1 -1</clus>
<clus scale="  102.937">  2  3  1 -1</clus>
<clus scale="   32.883">  2  3  1 -1</clus>
</clustering>
</event>
<event>
 6    0  0.2433432E+002  0.5660251E+02  0.7546771E-02  0.1412669E+00
         21   -1    0    0  504  502  0.00000000000E+00  0.00000000000E+00  0.13167026767E+04  0.13167026767E+04  0.00000000000E+00 0. -1.
         -1   -1    0    0    0  501 -0.00000000000E+00 -0.00000000000E+00 -0.37605672396E+03  0.37605672396E+03  0.00000000000E+00 0. -1.
         21    1    1    2  503  501 -0.19725165419E+02  0.43525436527E+02 -0.50815858545E+02  0.69755266864E+02  0.00000000000E+00 0.  1.
         21    1    1    2  504  503 -0.36874040795E+02 -0.21446294533E+02  0.69198184848E+02  0.81289773157E+02  0.00000000000E+00 0. -1.
         21    1    1    2  505  502  0.85906501289E+02  0.48554538902E+02  0.12252546144E+04  0.12292218435E+04  0.00000000000E+00 0. -1.
         -1    1    1    2    0  505 -0.29307295075E+02 -0.70633680896E+02 -0.30299098805E+03  0.31249251713E+03  0.00000000000E+00 0. -1.
<scales pt_clust_3="47.75466" pt_clust_4="42.65722" pt_clust_5="56.60251" pt_clust_6="14000.00000"></scales>
<clustering>
<clus scale="   42.657">  1  4  2 -1</clus>
<clus scale="   47.755">  2  3  1 -1</clus>
<clus scale="   56.603">  1  5  2 -1</clus>
<clus scale="   42.657">  1  3  2 -1</clus>
</clustering>
</event>
<event>
 6    0  0.2433432E+002  0.7073420E+02  0.7546771E-02  0.1357614E+00
         21   -1    0    0  503  502  0.00000000000E+00  0.00000000000E+00  0.32116478273E+03  0.32116478273E+03  0.00000000000E+00 0. -1.
         -4   -1    0    0    0  501 -0.00000000000E+00 -0.00000000000E+00 -0.22821850203E+03  0.22821850203E+03  0.00000000000E+00 0.  1.
         21    1    1    2  503  505 -0.27422378515E+02  0.47283258501E+02 -0.30933049004E+02  0.62805627921E+02  0.00000000000E+00 0.  1.
         21    1    1    2  504  502  0.31502754196E+02  0.62070258613E+02  0.26554537726E+03  0.27451682627E+03  0.00000000000E+00 0. -1.
         21    1    1    2  505  501  0.27443172509E+02 -0.29830519906E+02 -0.11580516021E+03  0.12269402090E+03  0.00000000000E+00 0.  1.
         -4    1    1    2    0  504 -0.31523548190E+02 -0.79522997207E+02 -0.25860887345E+02  0.89366809664E+02  0.00000000000E+00 0.  1.
<scales pt_clust_3="37.82759" pt_clust_4="70.73420" pt_clust_5="40.53378" pt_clust_6="14000.00000"></scales>
<clustering>
<clus scale="   40.534">  2  5  1 -1</clus>
<clus scale="   37.828">  2  3  1 -1</clus>
<clus scale="   70.734">  1  4  2 -1</clus>
<clus scale="   70.734">  1  3  2 -1</clus>
</clustering>
</event>
<event>
 6    0  0.2433432E+002  0.7685114E+02  0.7546771E-02  0.1338233E+00
         21   -1    0    0  505  502  0.00000000000E+00  0.00000000000E+00  0.50921857647E+02  0.50921857647E+02  0.00000000000E+00 0.  1.
          2   -1    0    0  502    0 -0.00000000000E+00 -0.00000000000E+00 -0.22862378623E+04  0.22862378623E+04  0.00000000000E+00 0.  1.
         21    1    1    2  503  504 -0.12782492485E+01  0.89104506762E+02 -0.11578311955E+03  0.14610604990E+03  0.00000000000E+00 0.  1.
         21    1    1    2  504  501  0.32960437379E+02 -0.42506515049E+02 -0.26585918568E+03  0.27124583106E+03  0.00000000000E+00 0. -1.
         21    1    1    2  505  503 -0.67258605064E+02 -0.70544760248E+01 -0.22963554988E+01  0.67666526701E+02  0.00000000000E+00 0.  1.
          2    1    1    2  501    0  0.35576416934E+02 -0.39543515688E+02 -0.18513773439E+04  0.18521413123E+04  0.00000000000E+00 0.  1.
<scales pt_clust_3="76.85114" pt_clust_4="14000.00000" pt_clust_5="65.20305" pt_clust_6="53.19183"></scales>
<clustering>
<clus scale="   53.192">  2  6  1 -1</clus>
<clus scale="   65.203">  1  5  2 -1</clus>
<clus scale="   76.851">  1  3  2 -1</clus>
<clus scale="   65.203">  1  3  2 -1</clus>
</clustering>
</event>
<event>
 6    0  0.2433432E+002  0.1088575E+03  0.7546771E-02  0.1262700E+00
         21   -1    0    0  503  502  0.00000000000E+00  0.00000000000E+00  0.33026945795E+03  0.33026945795E+03  0.00000000000E+00 0. -1.
         -1   -1    0    0    0  501 -0.00000000000E+00 -0.00000000000E+00 -0.11871178599E+03  0.11871178599E+03  0.00000000000E+00 0.  1.
         21    1    1    2  503  504 -0.49663687913E+02 -0.10679559755E+01  0.20485909522E+03  0.21079580480E+03  0.00000000000E+00 0. -1.
         21    1    1    2  504  505  0.35096717762E+02  0.11510427272E+02  0.32262691832E+02  0.49042336995E+02  0.00000000000E+00 0.  1.
         21    1    1    2  505  501  0.53183530061E+02  0.71436027590E+02  0.14346893250E+02  0.90207689547E+02  0.00000000000E+00 0.  1.
         -1    1    1    2    0  502 -0.38616559909E+02 -0.81878498887E+02 -0.39911008341E+02  0.98935412598E+02  0.00000000000E+00 0.  1.
<scales pt_clust_3="49.67517" pt_clust_4="32.48588" pt_clust_5="32.48588" pt_clust_6="96.46425"></scales>
<clustering>
<clus scale="   32.486">  4  5 -1 -1</clus>
<clus scale="   49.675">  1  3  2 -1</clus>
<clus scale="   96.464">  2  6  1 -1</clus>
<clus scale="   49.675">  1  3  2 -1</clus>
</clustering>
</event>
<event>
 6    0  0.2433432E+002  0.1892785E+03  0.7546771E-02  0.1159114E+00
         21   -1    0    0  501  502  0.00000000000E+00  0.00000000000E+00  0.10000326342E+04  0.10000326342E+04  0.00000000000E+00 0. -1.
          1   -1    0    0  504    0 -0.00000000000E+00 -0.00000000000E+00 -0.30239618193E+03  0.30239618193E+03  0.00000000000E+00 0. -1.
         21    1    1    2  503  505  0.12431233643E+02 -0.17398277718E+03  0.67061617244E+02  0.18687376176E+03  0.00000000000E+00 0. -1.
         21    1    1    2  504  503 -0.49938620654E+02 -0.16521231458E+02  0.45239510341E+02  0.69378888847E+02  0.00000000000E+00 0.  1.
         21    1    1    2  505  502 -0.62790645369E+01  0.19200865975E+03  0.80222425518E+03  0.82490636297E+03  0.00000000000E+00 0. -1.
          1    1    1    2  501    0  0.43786451548E+02 -0.15046511130E+01 -0.21688893054E+03  0.22126980251E+03  0.00000000000E+00 0. -1.
<scales pt_clust_3="189.27854" pt_clust_4="46.69870" pt_clust_5="14000.00000" pt_clust_6="43.81230"></scales>
<clustering>
<clus scale="   43.812">  2  6  1 -1</clus>
<clus scale="   46.699">  2  4  1 -1</clus>
<clus scale="  189.279">  2  3  1 -1</clus>
<clus scale="  189.279">  1  3  2 -1</clus>
</clustering>
</event>
<event>
 6    0  0.2433432E+002  0.1583640E+03  0.7546771E-02  0.1190556E+00
         21   -1    0    0  503  502  0.00000000000E+00  0.00000000000E+00  0.26279559344E+03  0.26279559344E+03  0.00000000000E+00 0.  1.
          2   -1    0    0  504    0 -0.00000000000E+00 -0.00000000000E+00 -0.16771266748E+04  0.16771266748E+04  0.00000000000E+00 0.  1.
         21    1    1    2  503  505 -0.22413299468E+02  0.41064170848E+02  0.40498033050E+02  0.61876593324E+02  0.00000000000E+00 0. -1.
         21    1    1    2  504  502 -0.14519885793E+02 -0.20958166226E+03  0.10938918452E+03  0.23685711712E+03  0.00000000000E+00 0.  1.
         21    1    1    2  505  501  0.26179387460E+02  0.11140762052E+03 -0.48399034289E+02  0.12425572324E+03  0.00000000000E+00 0.  1.
          2    1    1    2  501    0  0.10753797801E+02  0.57109870895E+02 -0.15158192646E+04  0.15169328345E+04  0.00000000000E+00 0.  1.
<scales pt_clust_3="46.78271" pt_clust_4="158.36405" pt_clust_5="14000.00000" pt_clust_6="58.20884"></scales>
<clustering>
<clus scale="   46.783">  1  3  2 -1</clus>
<clus scale="   58.209">  2  6  1 -1</clus>
<clus scale="  158.364">  1  4  2 -1</clus>
<clus scale="   46.783">  1  3  2 -1</clus>
</clustering>
</event>
<event>
 6    0  0.2433432E+002  0.8181836E+02  0.7546771E-02  0.1323969E+00
          3   -1    0    0  504    0 -0.00000000000E+00  0.00000000000E+00  0.89077050232E+03  0.89077050232E+03  0.00000000000E+00 0. -1.
         21   -1    0    0  505  502  0.00000000000E+00 -0.00000000000E+00 -0.52491095483E+03  0.52491095483E+03  0.00000000000E+00 0. -1.
         21    1    1    2  503  502 -0.34133791818E+02  0.45162134170E+01 -0.35877974924E+02  0.49726662991E+02  0.00000000000E+00 0.  1.
         21    1    1    2  504  503 -0.21561163105E+02 -0.10324890207E+03 -0.45084986716E+02  0.11470778335E+03  0.00000000000E+00 0. -1.
         21    1    1    2  505  501  0.95899453528E+02  0.27423656103E+02 -0.39400997752E+03  0.40643895543E+03  0.00000000000E+00 0. -1.
          3    1    1    2  501    0 -0.40204498605E+02  0.71309032551E+02  0.84083248665E+03  0.84480805538E+03  0.00000000000E+00 0. -1.
<scales pt_clust_3="34.43126" pt_clust_4="81.81836" pt_clust_5="74.40781" pt_clust_6="14000.00000"></scales>
<clustering>
<clus scale="   34.431">  2  3  1 -1</clus>
<clus scale="   74.408">  2  5  1 -1</clus>
<clus scale="   81.818">  2  4  1 -1</clus>
<clus scale="   34.431">  2  3  1 -1</clus>
</clustering>
</event>
<event>
 6    0  0.2433432E+002  0.1175542E+03  0.7546771E-02  0.1247187E+00
         21   -1    0    0  503  502  0.00000000000E+00  0.00000000000E+00  0.67721655058E+02  0.67721655058E+02  0.00000000000E+00 0.  1.
          2   -1    0    0  502    0 -0.00000000000E+00 -0.00000000000E+00 -0.14247696185E+04  0.14247696185E+04  0.00000000000E+00 0.  1.
         21    1    1    2  503  504 -0.10273217472E+03 -0.12281446769E+02 -0.57368544047E+02  0.11830419901E+03  0.00000000000E+00 0.  1.
         21    1    1    2  504  505  0.47769620444E+02  0.58010092175E+02 -0.27833953176E+02  0.80136361166E+02  0.00000000000E+00 0.  1.
         21    1    1    2  505  501  0.41075564109E+02  0.38346956370E+02 -0.72721526069E+02  0.91902727835E+02  0.00000000000E+00 0.  1.
          2    1    1    2  501    0  0.13886990168E+02 -0.84075601776E+02 -0.11991239402E+04  0.12021479856E+04  0.00000000000E+00 0.  1.
<scales pt_clust_3="107.28978" pt_clust_4="41.54263" pt_clust_5="41.54263" pt_clust_6="85.21476"></scales>
<clustering>
<clus scale="   41.543">  4  5 -1 -1</clus>
<clus scale="   85.215">  2  6  1 -1</clus>
<clus scale="  107.290">  1  3  2 -1</clus>
<clus scale="  107.290">  1  3  2 -1</clus>
</clustering>
</event>
<event>
 6    0  0.2433432E+002  0.1005287E+03  0.7546771E-02  0.1279188E+00
         21   -1    0    0  505  502  0.00000000000E+00  0.00000000000E+00  0.29985326223E+03  0.29985326223E+03  0.00000000000E+00 0.  1.
         -1   -1    0    0    0  501 -0.00000000000E+00 -0.00000000000E+00 -0.39867134746E+03  0.39867134746E+03  0.00000000000E+00 0. -1.
         21    1    1    2  503  504 -0.43634189046E+02 -0.56343864463E+01  0.49144477266E+02  0.65961112862E+02  0.00000000000E+00 0.  1.
         21    1    1    2  504  502 -0.67369148261E+02 -0.19211846236E+02  0.19345776932E+03  0.20575132000E+03  0.00000000000E+00 0.  1.
         21    1    1    2  505  501  0.22920957331E+02  0.40894166025E+02  0.22528939944E+02  0.52012077778E+02  0.00000000000E+00 0.  1.
         -1    1    1    2    0  503  0.88082379976E+02 -0.16047933342E+02 -0.36394927176E+03  0.37480009904E+03  0.00000000000E+00 0. -1.
<scales pt_clust_3="35.72961" pt_clust_4="35.72961" pt_clust_5="46.87967" pt_clust_6="89.85149"></scales>
<clustering>
<clus scale="   35.730">  3  4 -1 -1</clus>
<clus scale="   46.880">  1  5  2 -1</clus>
<clus scale="   89.851">  2  6  1 -1</clus>
<clus scale="   46.880">  1  3  2 -1</clus>
</clustering>
</event>
<event>
 6    0  0.2433432E+002  0.1050885E+03  0.7546771E-02  0.1269945E+00
         21   -1    0    0  505  502  0.00000000000E+00  0.00000000000E+00  0.79127391001E+03  0.79127391001E+03  0.00000000000E+00 0.  1.
          2   -1    0    0  502    0 -0.00000000000E+00 -0.00000000000E+00 -0.56477008146E+03  0.56477008146E+03  0.00000000000E+00 0. -1.
         21    1    1    2  503  501 -0.48309203680E+01 -0.72345636839E+02  0.22698842310E+02  0.75976749098E+02  0.00000000000E+00 0. -1.
         21    1    1    2  504  503 -0.42898219861E+02 -0.48925094422E+02  0.37973385315E+02  0.75338569961E+02  0.00000000000E+00 0. -1.
         21    1    1    2  505  504  0.21817497555E+01  0.40753859224E+02  0.68054539165E+03  0.68176804499E+03  0.00000000000E+00 0.  1.
          2    1    1    2  501    0  0.45547390474E+02  0.80516872038E+02 -0.51471379073E+03  0.52296062742E+03  0.00000000000E+00 0. -1.
<scales pt_clust_3="45.47329" pt_clust_4="45.47329" pt_clust_5="40.81222" pt_clust_6="93.87788"></scales>
<clustering>
<clus scale="   40.812">  1  5  2 -1</clus>
<clus scale="   45.473">  3  4 -1 -1</clus>
<clus scale="   93.878">  2  6  1 -1</clus>
<clus scale="   40.812">  1  3  2 -1</clus>
</clustering>
</event>
<event>
 6    0  0.2433432E+002  0.7409551E+02  0.7546771E-02  0.1346695E+00
         -1   -1    0    0    0  501 -0.00000000000E+00  0.00000000000E+00  0.11090244358E+03  0.11090244358E+03  0.00000000000E+00 0.  1.
         21   -1    0    0  504  502  0.00000000000E+00 -0.00000000000E+00 -0.77636619443E+03  0.77636619443E+03  0.00000000000E+00 0.  1.
         21    1    1    2  503  502  0.70998301474E+02 -0.15112849547E+02 -0.12731690630E+03  0.14655630885E+03  0.00000000000E+00 0.  1.
         21    1    1    2  504  505 -0.23399005004E+02 -0.33328702613E+02 -0.55672950223E+03  0.55821685258E+03  0.00000000000E+00 0.  1.
         21    1    1    2  505  501 -0.60303667103E+02  0.84634645218E+02 -0.40931251764E+02  0.11169119396E+03  0.00000000000E+00 0.  1.
         -1    1    1    2    0  503  0.12704370632E+02 -0.36193093058E+02  0.59513909452E+02  0.70804282615E+02  0.00000000000E+00 0.  1.
<scales pt_clust_3="14000.00000" pt_clust_4="41.08845" pt_clust_5="74.09551" pt_clust_6="38.35806"></scales>
<clustering>
<clus scale="   38.358">  1  6  2 -1</clus>
<clus scale="   41.088">  2  4  1 -1</clus>
<clus scale="   74.096">  1  5  2 -1</clus>
<clus scale="   41.088">  2  3  1 -1</clus>
</clustering>
</event>
<event>
 6    0  0.2433432E+002  0.1200507E+03  0.7546771E-02  0.1243013E+00
         21   -1    0    0  503  502  0.00000000000E+00  0.00000000000E+00  0.63732347606E+02  0.63732347606E+02  0.00000000000E+00 0. -1.
          2   -1    0    0  504    0 -0.00000000000E+00 -0.00000000000E+00 -0.14731074445E+04  0.14731074445E+04  0.00000000000E+00 0.  1.
         21    1    1    2  503  505 -0.37971607564E+02 -0.73560670087E+00 -0.28451007039E+02  0.47453597332E+02  0.00000000000E+00 0. -1.
         21    1    1    2  504  502 -0.47692517903E+02 -0.78130335163E+02 -0.47357069209E+01  0.91658891858E+02  0.00000000000E+00 0. -1.
         21    1    1    2  505  501 -0.31951473590E+02  0.41461329786E+02 -0.79540500805E+02  0.95218852128E+02  0.00000000000E+00 0. -1.
          2    1    1    2  501    0  0.11761559906E+03  0.37404612077E+02 -0.12966478821E+04  0.13025084508E+04  0.00000000000E+00 0.  1.
<scales pt_clust_3="37.97873" pt_clust_4="14000.00000" pt_clust_5="55.78542" pt_clust_6="120.05071"></scales>
<clustering>
<clus scale="   37.979">  1  3  2 -1</clus>
<clus scale="   55.785">  1  5  2 -1</clus>
<clus scale="  120.051">  2  6  1 -1</clus>
<clus scale="   37.979">  1  3  2 -1</clus>
</clustering>
</event>
<event>
 6    0  0.2433432E+002  0.1675429E+03  0.7546771E-02  0.1180435E+00
         21   -1    0    0  505  502  0.00000000000E+00  0.00000000000E+00  0.90692833564E+02  0.90692833564E+02  0.00000000000E+00 0. -1.
         -1   -1    0    0    0  501 -0.00000000000E+00 -0.00000000000E+00 -0.65028041930E+03  0.65028041930E+03  0.00000000000E+00 0.  1.
         21    1    1    2  503  501  0.86380233039E+02  0.41866293347E+02 -0.31165916934E+02  0.10092395928E+03  0.00000000000E+00 0.  1.
         21    1    1    2  504  502  0.30186154170E+01 -0.51254058292E+02 -0.32100532897E+02  0.60551917746E+02  0.00000000000E+00 0.  1.
         21    1    1    2  505  503  0.62036929950E+02 -0.25674660758E+02 -0.87014977585E+01  0.67701439762E+02  0.00000000000E+00 0. -1.
         -1    1    1    2    0  504 -0.15143577841E+03  0.35062425703E+02 -0.48761963815E+03  0.51179593608E+03  0.00000000000E+00 0.  1.
<scales pt_clust_3="62.88093" pt_clust_4="51.34287" pt_clust_5="62.88093" pt_clust_6="153.34712"></scales>
<clustering>
<clus scale="   51.343">  1  4  2 -1</clus>
<clus scale="   62.881">  3  5 -1 -1</clus>
<clus scale="  153.347">  2  6  1 -1</clus>
<clus scale="   51.343">  1  3  2 -1</clus>
</clustering>
</event>
<event>
 6    0  0.2433432E+002  0.1939480E+03  0.7546771E-02  0.1154948E+00
         21   -1    0    0  503  502  0.00000000000E+00  0.00000000000E+00  0.14191662500E+04  0.14191662500E+04  0.00000000000E+00 0.  1.
          2   -1    0    0  504    0 -0.00000000000E+00 -0.00000000000E+00 -0.58975817645E+02  0.58975817645E+02  0.00000000000E+00 0. -1.
         21    1    1    2  503  505 -0.37508916273E+02 -0.47545096616E+01  0.24212659292E+03  0.24506083155E+03  0.00000000000E+00 0. -1.
         21    1    1    2  504  502 -0.53364444122E+02  0.14642537313E+01  0.72530043324E+02  0.90058398387E+02  0.00000000000E+00 0. -1.
         21    1    1    2  505  501  0.13910795576E+03 -0.16498597127E+03  0.86516542738E+03  0.89167404964E+03  0.00000000000E+00 0.  1.
          2    1    1    2  501    0 -0.48234595368E+02  0.16827622720E+03  0.18036836878E+03  0.25134878812E+03  0.00000000000E+00 0. -1.
<scales pt_clust_3="37.80905" pt_clust_4="55.96981" pt_clust_5="193.94796" pt_clust_6="14000.00000"></scales>
<clustering>
<clus scale="   37.809">  1  3  2 -1</clus>
<clus scale="   55.970">  2  4  1 -1</clus>
<clus scale="  193.948">  1  5  2 -1</clus>
<clus scale="   37.809">  1  3  2 -1</clus>
</clustering>
</event>
<event>
 6    0  0.2433432E+002  0.1002564E+03  0.7546771E-02  0.1279758E+00
          3   -1    0    0  504    0 -0.00000000000E+00  0.00000000000E+00  0.12833470875E+03  0.12833470875E+03  0.00000000000E+00 0. -1.
         21   -1    0    0  501  502  0.00000000000E+00 -0.00000000000E+00 -0.74174199592E+03  0.74174199592E+03  0.00000000000E+00 0. -1.
         21    1    1    2  503  502  0.11309502113E+03  0.82797085689E+02 -0.63488728908E+03  0.65017513874E+03  0.00000000000E+00 0. -1.
         21    1    1    2  504  505 -0.38577817678E+02 -0.30365303491E+02  0.66137431284E+02  0.82367830430E+02  0.00000000000E+00 0. -1.
         21    1    1    2  505  503 -0.44667287466E+02 -0.71884127614E+01  0.23072083252E+02  0.50785439579E+02  0.00000000000E+00 0. -1.
          3    1    1    2  501    0 -0.29849915989E+02 -0.45243369437E+02 -0.67729512626E+02  0.86748295909E+02  0.00000000000E+00 0. -1.
<scales pt_clust_3="92.84355" pt_clust_4="36.31932" pt_clust_5="36.31932" pt_clust_6="54.20314"></scales>
<clustering>
<clus scale="   36.319">  4  5 -1 -1</clus>
<clus scale="   54.203">  2  6  1 -1</clus>
<clus scale="   92.844">  2  3  1 -1</clus>
<clus scale="   54.203">  2  3  1 -1</clus>
</clustering>
</event>
<event>
 6    0  0.2433432E+002  0.1148278E+03  0.7546771E-02  0.1251882E+00
         21   -1    0    0  505  502  0.00000000000E+00  0.00000000000E+00  0.45594853928E+02  0.45594853928E+02  0.00000000000E+00 0. -1.
          2   -1    0    0  504    0 -0.00000000000E+00 -0.00000000000E+00 -0.11649405377E+04  0.11649405377E+04  0.00000000000E+00 0.  1.
         21    1    1    2  503  501  0.16623124355E+02 -0.51709893316E+02 -0.16303817770E+03  0.17184786504E+03  0.00000000000E+00 0. -1.
         21    1    1    2  504  502  0.45232861187E+02  0.12096061068E+03 -0.15247172617E+03  0.19981268315E+03  0.00000000000E+00 0. -1.
         21    1    1    2  505  503 -0.11871626414E+02  0.31569838251E+02 -0.74025859781E+01  0.34530978557E+02  0.00000000000E+00 0. -1.
          2    1    1    2  501    0 -0.49984359127E+02 -0.10082055561E+03 -0.79643319394E+03  0.80434386490E+03  0.00000000000E+00 0.  1.
<scales pt_clust_3="49.68384" pt_clust_4="14000.00000" pt_clust_5="33.72818" pt_clust_6="114.82784"></scales>
<clustering>
<clus scale="   33.728">  1  5  2 -1</clus>
<clus scale="   49.684">  1  3  2 -1</clus>
<clus scale="  114.828">  2  6  1 -1</clus>
<clus scale="   33.728">  1  3  2 -1</clus>
</clustering>
</event>
<event>
 6    0  0.2433432E+002  0.2189098E+03  0.7546771E-02  0.1134698E+00
          1   -1    0    0  502    0 -0.00000000000E+00  0.00000000000E+00  0.81680050878E+03  0.81680050878E+03  0.00000000000E+00 0.  1.
         21   -1    0    0  503  502  0.00000000000E+00 -0.00000000000E+00 -0.86204387767E+03  0.86204387767E+03  0.00000000000E+00 0.  1.
         21    1    1    2  503  505  0.56861728731E+02 -0.48291732157E+02 -0.79466166565E+03  0.79815569311E+03  0.00000000000E+00 0.  1.
         21    1    1    2  504  501  0.47990842574E+02  0.15873288339E+03  0.23205982584E+03  0.28522098803E+03  0.00000000000E+00 0.  1.
         21    1    1    2  505  504  0.12478798362E+02  0.53114189145E+02  0.18634399756E+02  0.57654820712E+02  0.00000000000E+00 0.  1.
          1    1    1    2  501    0 -0.11733136967E+03 -0.16355534038E+03  0.49872407117E+03  0.53781288460E+03  0.00000000000E+00 0.  1.
<scales pt_clust_3="74.60126" pt_clust_4="45.09404" pt_clust_5="45.09404" pt_clust_6="204.30623"></scales>
<clustering>
<clus scale="   45.094">  4  5 -1 -1</clus>
<clus scale="   74.601">  2  3  1 -1</clus>
<clus scale="  204.306">  1  6  2 -1</clus>
<clus scale="   74.601">  2  3  1 -1</clus>
</clustering>
</event>
<event>
 6    0  0.2433432E+002  0.1230448E+03  0.7546771E-02  0.1238157E+00
          3   -1    0    0  505    0 -0.00000000000E+00  0.00000000000E+00  0.63243741204E+02  0.63243741204E+02  0.00000000000E+00 0. -1.
         21   -1    0    0  503  502  0.00000000000E+00 -0.00000000000E+00 -0.39384785528E+03  0.39384785528E+03  0.00000000000E+00 0. -1.
         21    1    1    2  503  501 -0.32880194096E+02  0.10047733321E+03 -0.10684086466E+03  0.15030559542E+03  0.00000000000E+00 0. -1.
         21    1    1    2  504  502  0.40725024229E+01 -0.78550365791E+02 -0.18465654056E+03  0.20071069531E+03  0.00000000000E+00 0. -1.
         21    1    1    2  505  504  0.52426780851E+01 -0.47009346111E+02 -0.51098211556E+02  0.69630392211E+02  0.00000000000E+00 0. -1.
          3    1    1    2  501    0  0.23565013588E+02  0.25082378689E+02  0.11991502696E+02  0.36444913541E+02  0.00000000000E+00 0. -1.
<scales pt_clust_3="116.13800" pt_clust_4="31.51896" pt_clust_5="31.51896" pt_clust_6="34.41563"></scales>
<clustering>
<clus scale="   31.519">  4  5 -1 -1</clus>
<clus scale="   34.416">  1  6  2 -1</clus>
<clus scale="  116.138">  1  3  2 -1</clus>
<clus scale="  123.045">  2  3  1 -1</clus>
</clustering>
</event>
<event>
 6    0  0.2433432E+002  0.1300424E+03  0.7546771E-02  0.1227393E+00
         21   -1    0    0  505  502  0.00000000000E+00  0.00000000000E+00  0.18414524225E+03  0.18414524225E+03  0.00000000000E+00 0.  1.
          2   -1    0    0  502    0 -0.00000000000E+00 -0.00000000000E+00 -0.25324364075E+04  0.25324364075E+04  0.00000000000E+00 0.  1.
         21    1    1    2  503  504  0.25436109712E+02  0.27871002115E+02 -0.13136374116E+03  0.13667560473E+03  0.00000000000E+00 0.  1.
         21    1    1    2  504  501  0.95114098668E+02 -0.92897298484E+01 -0.47026023051E+03  0.47987256147E+03  0.00000000000E+00 0.  1.
         21    1    1    2  505  503 -0.94469725563E+02  0.70074297810E+02  0.15586064492E+03  0.19526258448E+03  0.00000000000E+00 0.  1.
          2    1    1    2  501    0 -0.26080482817E+02 -0.88655570077E+02 -0.19025278385E+04  0.19047708991E+04  0.00000000000E+00 0.  1.
<scales pt_clust_3="36.11083" pt_clust_4="36.11083" pt_clust_5="116.65512" pt_clust_6="92.41213"></scales>
<clustering>
<clus scale="   36.111">  3  4 -1 -1</clus>
<clus scale="   92.412">  2  6  1 -1</clus>
<clus scale="  116.655">  1  5  2 -1</clus>
<clus scale="  116.655">  1  3  2 -1</clus>
</clustering>
</event>
<event>
 6    0  0.2433432E+002  0.2632681E+03  0.7546771E-02  0.1105195E+00
         21   -1    0    0  501  502  0.00000000000E+00  0.00000000000E+00  0.30056869722E+03  0.30056869722E+03  0.00000000000E+00 0.  1.
          4   -1    0    0  504    0 -0.00000000000E+00 -0.00000000000E+00 -0.80004777100E+03  0.80004777100E+03  0.00000000000E+00 0.  1.
         21    1    1    2  503  505 -0.49353122121E+02  0.11833399048E+03  0.11951609507E+03  0.17527909443E+03  0.00000000000E+00 0.  1.
         21    1    1    2  504  503  0.15995204238E+03 -0.20330498954E+03 -0.27808608550E+03  0.37980185042E+03  0.00000000000E+00 0.  1.
         21    1    1    2  505  502 -0.79579742014E+02  0.10291963933E+03  0.59831015424E+02  0.14319615185E+03  0.00000000000E+00 0.  1.
          4    1    1    2  501    0 -0.31019178242E+02 -0.17948640272E+02 -0.40074009877E+03  0.40233937151E+03  0.00000000000E+00 0.  1.
<scales pt_clust_3="60.05906" pt_clust_4="256.17539" pt_clust_5="60.05906" pt_clust_6="35.83773"></scales>
<clustering>
<clus scale="   35.838">  2  6  1 -1</clus>
<clus scale="   60.059">  3  5 -1 -1</clus>
<clus scale="  256.175">  2  4  1 -1</clus>
<clus scale="  263.268">  1  3  2 -1</clus>
</clustering>
</event>
<event>
 6    0  0.2433432E+002  0.2077447E+03  0.7546771E-02  0.1143364E+00
          3   -1    0    0  504    0 -0.00000000000E+00  0.00000000000E+00  0.40586204526E+03  0.40586204526E+03  0.00000000000E+00 0. -1.
         21   -1    0    0  505  502  0.00000000000E+00 -0.00000000000E+00 -0.24802864809E+03  0.24802864809E+03  0.00000000000E+00 0. -1.
         21    1    1    2  503  502  0.32506455089E+02 -0.21556277229E+02 -0.16035238803E+02  0.42171928980E+02  0.00000000000E+00 0. -1.
         21    1    1    2  504  503 -0.49567682292E+02  0.56728862665E+02  0.45754409528E+02  0.88139576685E+02  0.00000000000E+00 0. -1.
         21    1    1    2  505  501 -0.43070927102E+02  0.20551481438E+03 -0.52822269452E+02  0.21652167522E+03  0.00000000000E+00 0. -1.
          3    1    1    2  501    0  0.60132154305E+02 -0.24068739982E+03  0.18093649590E+03  0.30705751246E+03  0.00000000000E+00 0. -1.
<scales pt_clust_3="39.00439" pt_clust_4="71.69847" pt_clust_5="207.74472" pt_clust_6="14000.00000"></scales>
<clustering>
<clus scale="   39.004">  2  3  1 -1</clus>
<clus scale="   71.698">  1  4  2 -1</clus>
<clus scale="  207.745">  2  5  1 -1</clus>
<clus scale="   39.004">  2  3  1 -1</clus>
</clustering>
</event>
<event>
 6    0  0.2433432E+002  0.1113179E+03  0.7546771E-02  0.1258149E+00
         21   -1    0    0  504  502  0.00000000000E+00  0.00000000000E+00  0.50978785108E+02  0.50978785108E+02  0.00000000000E+00 0. -1.
          3   -1    0    0  505    0 -0.00000000000E+00 -0.00000000000E+00 -0.85243932381E+03  0.85243932381E+03  0.00000000000E+00 0. -1.
         21    1    1    2  503  502 -0.66504539005E+02  0.15000259997E+02 -0.11960355635E+03  0.13766943089E+03  0.00000000000E+00 0. -1.
         21    1    1    2  504  501  0.40510903885E+02  0.27289777808E+02  0.16946444563E+02  0.51701521155E+02  0.00000000000E+00 0. -1.
         21    1    1    2  505  503 -0.55433967528E+02 -0.27941159051E+01 -0.23149299476E+03  0.23805406626E+03  0.00000000000E+00 0. -1.
          3    1    1    2  501    0  0.81427602648E+02 -0.39495921900E+02 -0.46731043215E+03  0.47599309062E+03  0.00000000000E+00 0. -1.
<scales pt_clust_3="48.43392" pt_clust_4="48.84532" pt_clust_5="48.43392" pt_clust_6="97.52077"></scales>
<clustering>
<clus scale="   48.434">  3  5 -1 -1</clus>
<clus scale="   48.845">  1  4  2 -1</clus>
<clus scale="   97.521">  2  6  1 -1</clus>
<clus scale="   48.845">  1  3  2 -1</clus>
</clustering>
</event>
<event>
 6    0  0.2433432E+002  0.2624685E+03  0.7546771E-02  0.1105669E+00
          1   -1    0    0  503    0 -0.00000000000E+00  0.00000000000E+00  0.15056787738E+04  0.15056787738E+04  0.00000000000E+00 0. -1.
         21   -1    0    0  504  502  0.00000000000E+00 -0.00000000000E+00 -0.21788237142E+03  0.21788237142E+03  0.00000000000E+00 0.  1.
         21    1    1    2  503  505  0.57469083491E+01  0.22518790928E+03  0.17448559774E+02  0.22593599465E+03  0.00000000000E+00 0.  1.
         21    1    1    2  504  501  0.28623369387E+02 -0.21176807147E+02  0.35086080961E+01  0.35777992772E+02  0.00000000000E+00 0. -1.
         21    1    1    2  505  502 -0.80984966745E+02  0.59690017210E+02 -0.53967994668E+02  0.11416657760E+03  0.00000000000E+00 0.  1.
          1    1    1    2  501    0  0.46614689008E+02 -0.26370111934E+03  0.13208072292E+04  0.13476805802E+04  0.00000000000E+00 0. -1.
<scales pt_clust_3="14000.00000" pt_clust_4="35.60554" pt_clust_5="85.76885" pt_clust_6="262.46848"></scales>
<clustering>
<clus scale="   35.606">  2  4  1 -1</clus>
<clus scale="   85.769">  2  5  1 -1</clus>
<clus scale="  262.468">  1  6  2 -1</clus>
<clus scale="   35.606">  2  3  1 -1</clus>
</clustering>
</event>
<event>
 6    0  0.2433432E+002  0.1151826E+03  0.7546771E-02  0.1251263E+00
         21   -1    0    0  504  502  0.00000000000E+00  0.00000000000E+00  0.47482305790E+03  0.47482305790E+03  0.00000000000E+00 0.  1.
          3   -1    0    0  505    0 -0.00000000000E+00 -0.00000000000E+00 -0.14688312345E+03  0.14688312345E+03  0.00000000000E+00 0.  1.
         21    1    1    2  503  502 -0.12500094317E+01 -0.77311636694E+02  0.21773882458E+03  0.23106026794E+03  0.00000000000E+00 0.  1.
         21    1    1    2  504  501  0.10549132563E+02  0.11706894712E+03  0.12100381667E+03  0.16869601722E+03  0.00000000000E+00 0.  1.
         21    1    1    2  505  503  0.28124833089E+02 -0.20974783196E+02  0.98680795821E+02  0.10473226451E+03  0.00000000000E+00 0.  1.
          3    1    1    2  501    0 -0.37423956221E+02 -0.18782527228E+02 -0.10948350262E+03  0.11721763167E+03  0.00000000000E+00 0.  1.
<scales pt_clust_3="31.97185" pt_clust_4="104.94882" pt_clust_5="31.97185" pt_clust_6="41.87285"></scales>
<clustering>
<clus scale="   31.972">  3  5 -1 -1</clus>
<clus scale="   41.873">  2  6  1 -1</clus>
<clus scale="  104.949">  2  4  1 -1</clus>
<clus scale="  115.183">  1  3  2 -1</clus>
</clustering>
</event>
<event>
 6    0  0.2433432E+002  0.2323667E+03  0.7546771E-02  0.1124985E+00
          1   -1    0    0  503    0 -0.00000000000E+00  0.00000000000E+00  0.23241928072E+04  0.23241928072E+04  0.00000000000E+00 0. -1.
         21   -1    0    0  504  502  0.00000000000E+00 -0.00000000000E+00 -0.28553149796E+03  0.28553149796E+03  0.00000000000E+00 0.  1.
         21    1    1    2  503  505 -0.10241460369E+03 -0.16007602574E+03  0.16833631097E+03  0.25387043675E+03  0.00000000000E+00 0.  1.
         21    1    1    2  504  501  0.56381791458E+02  0.18832216372E+02 -0.20395129833E+03  0.21243749875E+03  0.00000000000E+00 0.  1.
         21    1    1    2  505  502 -0.36263070333E+02 -0.61789693665E+02  0.15865971520E+02  0.73380553047E+02  0.00000000000E+00 0.  1.
          1    1    1    2  501    0  0.82295882566E+02  0.20303350303E+03  0.20584103251E+04  0.20700358166E+04  0.00000000000E+00 0. -1.
<scales pt_clust_3="42.12507" pt_clust_4="59.44374" pt_clust_5="42.12507" pt_clust_6="222.00775"></scales>
<clustering>
<clus scale="   42.125">  3  5 -1 -1</clus>
<clus scale="   59.444">  2  4  1 -1</clus>
<clus scale="  222.008">  1  6  2 -1</clus>
<clus scale="   59.444">  2  3  1 -1</clus>
</clustering>
</event>
<event>
 6    0  0.2433432E+002  0.2886155E+03  0.7546771E-02  0.1091074E+00
         21   -1    0    0  504  502  0.00000000000E+00  0.00000000000E+00  0.93217062577E+03  0.93217062577E+03  0.00000000000E+00 0. -1.
         -1   -1    0    0    0  501 -0.00000000000E+00 -0.00000000000E+00 -0.16974344389E+03  0.16974344389E+03  0.00000000000E+00 0.  1.
         21    1    1    2  503  502  0.10202986829E+03 -0.19426356992E+02  0.18669260667E+03  0.21363896357E+03  0.00000000000E+00 0. -1.
         21    1    1    2  504  505 -0.11540280780E+03 -0.55480947328E+02  0.26405239615E+03  0.29346143098E+03  0.00000000000E+00 0. -1.
         21    1    1    2  505  501 -0.61084258342E+02 -0.17222741671E+03  0.28057688859E+03  0.33483870758E+03  0.00000000000E+00 0. -1.
         -1    1    1    2    0  503  0.74457197846E+02  0.24713472103E+03  0.31105290464E+02  0.25997496753E+03  0.00000000000E+00 0.  1.
<scales pt_clust_3="103.86278" pt_clust_4="103.00276" pt_clust_5="103.00276" pt_clust_6="261.07026"></scales>
<clustering>
<clus scale="  103.003">  4  5 -1 -1</clus>
<clus scale="  103.863">  1  3  2 -1</clus>
<clus scale="  261.070">  2  6  1 -1</clus>
<clus scale="  103.863">  1  3  2 -1</clus>
</clustering>
</event>
<event>
 6    0  0.2433432E+002  0.9913698E+02  0.7546771E-02  0.1282121E+00
          2   -1    0    0  503    0 -0.00000000000E+00  0.00000000000E+00  0.18307227887E+04  0.18307227887E+04  0.00000000000E+00 0. -1.
         21   -1    0    0  505  502  0.00000000000E+00 -0.00000000000E+00 -0.54782097879E+02  0.54782097879E+02  0.00000000000E+00 0. -1.
         21    1    1    2  503  504  0.75162158231E+02 -0.29931728748E+02  0.46410267717E+03  0.47110142578E+03  0.00000000000E+00 0.  1.
         21    1    1    2  504  502  0.56069728306E+02  0.74000609157E+02  0.47054899227E+03  0.47962095317E+03  0.00000000000E+00 0. -1.
         21    1    1    2  505  501 -0.92972068978E+02 -0.39851938731E+02  0.89439565433E+01  0.10154790490E+03  0.00000000000E+00 0. -1.
          2    1    1    2  501    0 -0.38259817559E+02 -0.42169416784E+01  0.83234506479E+03  0.83323460268E+03  0.00000000000E+00 0. -1.
<scales pt_clust_3="65.52796" pt_clust_4="14000.00000" pt_clust_5="99.13698" pt_clust_6="38.49151"></scales>
<clustering>
<clus scale="   38.492">  1  6  2 -1</clus>
<clus scale="   65.528">  1  3  2 -1</clus>
<clus scale="   99.137">  2  5  1 -1</clus>
<clus scale="   99.137">  2  3  1 -1</clus>
</clustering>
</event>
<event>
 6    0  0.2433432E+002  0.1029833E+03  0.7546771E-02  0.1274145E+00
         -4   -1    0    0    0  501 -0.00000000000E+00  0.00000000000E+00  0.38621661584E+03  0.38621661584E+03  0.00000000000E+00 0.  1.
         21   -1    0    0  505  502  0.00000000000E+00 -0.00000000000E+00 -0.80428364158E+02  0.80428364158E+02  0.00000000000E+00 0.  1.
         21    1    1    2  503  502 -0.44894000340E+01  0.78170415179E+02  0.13222537931E+02  0.79407833564E+02  0.00000000000E+00 0.  1.
         21    1    1    2  504  501  0.78559465748E+01 -0.49531103161E+02  0.41037675822E+02  0.64800747787E+02  0.00000000000E+00 0.  1.
         21    1    1    2  505  504  0.69271320404E+02 -0.57239886746E+02  0.42692020118E+02  0.99486325930E+02  0.00000000000E+00 0.  1.
         -4    1    1    2    0  503 -0.72637866945E+02  0.28600574728E+02  0.20883601782E+03  0.22295007272E+03  0.00000000000E+00 0.  1.
<scales pt_clust_3="89.30084" pt_clust_4="38.31826" pt_clust_5="38.31826" pt_clust_6="78.06569"></scales>
<clustering>
<clus scale="   38.318">  4  5 -1 -1</clus>
<clus scale="   78.066">  1  6  2 -1</clus>
<clus scale="   89.301">  2  3  1 -1</clus>
<clus scale="   89.301">  2  3  1 -1</clus>
</clustering>
</event>
<event>
 6    0  0.2433432E+002  0.1468635E+03  0.7546771E-02  0.1204381E+00
         21   -1    0    0  504  502  0.00000000000E+00  0.00000000000E+00  0.14182703147E+03  0.14182703147E+03  0.00000000000E+00 0.  1.
         -1   -1    0    0    0  501 -0.00000000000E+00 -0.00000000000E+00 -0.64508368466E+03  0.64508368466E+03  0.00000000000E+00 0.  1.
         21    1    1    2  503  502 -0.75350257489E+02 -0.10115751436E+02  0.27331376538E+02  0.80789812936E+02  0.00000000000E+00 0.  1.
         21    1    1    2  504  501  0.13685588494E+03 -0.28761681860E+01 -0.87694218841E+02  0.16256716029E+03  0.00000000000E+00 0. -1.
         21    1    1    2  505  503 -0.66094127078E+02 -0.37982702783E+02  0.19218397698E+02  0.78615940845E+02  0.00000000000E+00 0.  1.
         -1    1    1    2    0  505  0.45884996286E+01  0.50974622406E+02 -0.46211220859E+03  0.46493780206E+03  0.00000000000E+00 0.  1.
<scales pt_clust_3="30.34569" pt_clust_4="143.68559" pt_clust_5="30.34569" pt_clust_6="51.18072"></scales>
<clustering>
<clus scale="   30.346">  3  5 -1 -1</clus>
<clus scale="   51.181">  2  6  1 -1</clus>
<clus scale="  143.686">  2  4  1 -1</clus>
<clus scale="  146.863">  1  3  2 -1</clus>
</clustering>
</event>
<event>
 6    0  0.2433432E+002  0.1356449E+03  0.7546771E-02  0.1219312E+00
         21   -1    0    0  501  502  0.00000000000E+00  0.00000000000E+00  0.93142711351E+03  0.93142711351E+03  0.00000000000E+00 0.  1.
          1   -1    0    0  504    0 -0.00000000000E+00 -0.00000000000E+00 -0.86293043342E+03  0.86293043342E+03  0.00000000000E+00 0.  1.
         21    1    1    2  503  502  0.64621707937E+02  0.75850477476E+01  0.75541913455E+03  0.75821604239E+03  0.00000000000E+00 0.  1.
         21    1    1    2  504  505 -0.13078246989E+03 -0.10443292102E+03 -0.25925868357E+02  0.16935890904E+03  0.00000000000E+00 0.  1.
         21    1    1    2  505  503  0.72753744636E+02  0.65357699380E+02  0.79224868061E+02  0.12586228961E+03  0.00000000000E+00 0. -1.
          1    1    1    2  501    0 -0.65929826878E+01  0.31490173893E+02 -0.74022145417E+03  0.74092030589E+03  0.00000000000E+00 0.  1.
<scales pt_clust_3="65.03349" pt_clust_4="135.64493" pt_clust_5="14000.00000" pt_clust_6="32.17295"></scales>
<clustering>
<clus scale="   32.173">  2  6  1 -1</clus>
<clus scale="   65.033">  1  3  2 -1</clus>
<clus scale="  135.645">  2  4  1 -1</clus>
<clus scale="   65.033">  1  3  2 -1</clus>
</clustering>
</event>
<event>
 6    0  0.2433432E+002  0.1411308E+03  0.7546771E-02  0.1211815E+00
         21   -1    0    0  504  502  0.00000000000E+00  0.00000000000E+00  0.68228675778E+02  0.68228675778E+02  0.00000000000E+00 0. -1.
          1   -1    0    0  503    0 -0.00000000000E+00 -0.00000000000E+00 -0.12885942340E+04  0.12885942340E+04  0.00000000000E+00 0. -1.
         21    1    1    2  503  502 -0.60352561710E+02  0.15649143924E+03 -0.25989330056E+03  0.30931622967E+03  0.00000000000E+00 0. -1.
         21    1    1    2  504  505  0.32135370129E+02 -0.44276066742E+01  0.22179158383E+02  0.39296320194E+02  0.00000000000E+00 0. -1.
         21    1    1    2  505  501 -0.17906082207E+01 -0.11989610400E+03 -0.28532081007E+03  0.30949353256E+03  0.00000000000E+00 0. -1.
          1    1    1    2  501    0  0.30007799802E+02 -0.32167728562E+02 -0.69733060599E+03  0.69871682738E+03  0.00000000000E+00 0. -1.
<scales pt_clust_3="141.13081" pt_clust_4="32.43895" pt_clust_5="14000.00000" pt_clust_6="44.45798"></scales>
<clustering>
<clus scale="   32.439">  1  4  2 -1</clus>
<clus scale="   44.458">  2  6  1 -1</clus>
<clus scale="  141.131">  1  3  2 -1</clus>
<clus scale="   32.439">  1  3  2 -1</clus>
</clustering>
</event>
<event>
 6    0  0.2433432E+002  0.1229521E+03  0.7546771E-02  0.1238305E+00
          2   -1    0    0  505    0 -0.00000000000E+00  0.00000000000E+00  0.36042432743E+04  0.36042432743E+04  0.00000000000E+00 0.  1.
         21   -1    0    0  503  502  0.00000000000E+00 -0.00000000000E+00 -0.19161577270E+02  0.19161577270E+02  0.00000000000E+00 0.  1.
         21    1    1    2  503  501  0.63400944313E+02  0.74889386157E+02  0.16649660541E+03  0.19325946164E+03  0.00000000000E+00 0.  1.
         21    1    1    2  504  502 -0.73378357229E+01  0.53815578829E+02  0.20108788737E+03  0.20829378004E+03  0.00000000000E+00 0.  1.
         21    1    1    2  505  504 -0.29657441145E+02 -0.99318167631E+02  0.13637068136E+04  0.13676402801E+04  0.00000000000E+00 0. -1.
          2    1    1    2  501    0 -0.26405667445E+02 -0.29386797356E+02  0.18537903906E+04  0.18542113298E+04  0.00000000000E+00 0.  1.
<scales pt_clust_3="14000.00000" pt_clust_4="51.44632" pt_clust_5="122.95212" pt_clust_6="39.50751"></scales>
<clustering>
<clus scale="   39.508">  1  6  2 -1</clus>
<clus scale="   51.446">  2  4  1 -1</clus>
<clus scale="  122.952">  1  5  2 -1</clus>
<clus scale="   51.446">  2  3  1 -1</clus>
</clustering>
</event>
<event>
 6    0  0.2433432E+002  0.1598600E+03  0.7546771E-02  0.1188855E+00
          2   -1    0    0  505    0 -0.00000000000E+00  0.00000000000E+00  0.13861886646E+04  0.13861886646E+04  0.00000000000E+00 0. -1.
         21   -1    0    0  501  502  0.00000000000E+00 -0.00000000000E+00 -0.15744558691E+03  0.15744558691E+03  0.00000000000E+00 0. -1.
         21    1    1    2  503  504  0.20632119160E+02 -0.29393929003E+02  0.12128815724E+02  0.37905086388E+02  0.00000000000E+00 0. -1.
         21    1    1    2  504  502 -0.12244580307E+02 -0.29445732699E+02  0.67022193789E+01  0.32586817360E+02  0.00000000000E+00 0. -1.
         21    1    1    2  505  503  0.12372173331E+03 -0.33860739445E+02 -0.94160020948E+02  0.15912173489E+03  0.00000000000E+00 0. -1.
          2    1    1    2  501    0 -0.13210927216E+03  0.92700401147E+02  0.13040720635E+04  0.13140206128E+04  0.00000000000E+00 0. -1.
<scales pt_clust_3="67.93012" pt_clust_4="30.99771" pt_clust_5="159.86000" pt_clust_6="14000.00000"></scales>
<clustering>
<clus scale="   30.998">  3  4 -1 -1</clus>
<clus scale="   67.930">  2  3  1 -1</clus>
<clus scale="  159.860">  2  5  1 -1</clus>
<clus scale="   67.930">  2  3  1 -1</clus>
</clustering>
</event>
<event>
 6    0  0.2433432E+002  0.1213426E+03  0.7546771E-02  0.1240898E+00
         21   -1    0    0  501  502  0.00000000000E+00  0.00000000000E+00  0.48330146245E+02  0.48330146245E+02  0.00000000000E+00 0. -1.
          2   -1    0    0  503    0 -0.00000000000E+00 -0.00000000000E+00 -0.16340160427E+04  0.16340160427E+04  0.00000000000E+00 0. -1.
         21    1    1    2  503  505  0.14390688404E+03  0.61395726219E+02 -0.25782708228E+03  0.30158486505E+03  0.00000000000E+00 0. -1.
         21    1    1    2  504  502 -0.34721026700E+02 -0.49201747345E+01 -0.90813566264E+02  0.97349173762E+02  0.00000000000E+00 0. -1.
         21    1    1    2  505  504 -0.87266394209E+02 -0.25784984604E+02 -0.67597858569E+02  0.11335677956E+03  0.00000000000E+00 0. -1.
          2    1    1    2  501    0 -0.21919463128E+02 -0.30690566880E+02 -0.11694473894E+04  0.11700553706E+04  0.00000000000E+00 0. -1.
<scales pt_clust_3="121.34265" pt_clust_4="35.06790" pt_clust_5="14000.00000" pt_clust_6="37.87790"></scales>
<clustering>
<clus scale="   35.068">  1  4  2 -1</clus>
<clus scale="   37.878">  2  6  1 -1</clus>
<clus scale="  121.343">  2  3  1 -1</clus>
<clus scale="   35.068">  1  3  2 -1</clus>
</clustering>
</event>
<event>
 6    0  0.2433432E+002  0.1105856E+03  0.7546771E-02  0.1259489E+00
         21   -1    0    0  505  502  0.00000000000E+00  0.00000000000E+00  0.49579125947E+02  0.49579125947E+02  0.00000000000E+00 0. -1.
          2   -1    0    0  503    0 -0.00000000000E+00 -0.00000000000E+00 -0.65291399076E+03  0.65291399076E+03  0.00000000000E+00 0.  1.
         21    1    1    2  503  502 -0.46873489940E+02 -0.70356003557E+02 -0.91162026190E+02  0.12432862227E+03  0.00000000000E+00 0.  1.
         21    1    1    2  504  501  0.87662788929E+02  0.19928260135E+02 -0.12507158869E+03  0.15402857661E+03  0.00000000000E+00 0. -1.
         21    1    1    2  505  504  0.33047759891E+02  0.22535498518E+02 -0.13391895525E+02  0.42182294781E+02  0.00000000000E+00 0. -1.
          2    1    1    2  501    0 -0.73837058879E+02  0.27892244904E+02 -0.37370935441E+03  0.38195362305E+03  0.00000000000E+00 0.  1.
<scales pt_clust_3="96.31626" pt_clust_4="36.24404" pt_clust_5="36.24404" pt_clust_6="78.92964"></scales>
<clustering>
<clus scale="   36.244">  4  5 -1 -1</clus>
<clus scale="   78.930">  2  6  1 -1</clus>
<clus scale="   96.316">  1  3  2 -1</clus>
<clus scale="   96.316">  1  3  2 -1</clus>
</clustering>
</event>
<event>
 6    0  0.2433432E+002  0.1435151E+03  0.7546771E-02  0.1208676E+00
         -1   -1    0    0    0  501 -0.00000000000E+00  0.00000000000E+00  0.67493720887E+03  0.67493720887E+03  0.00000000000E+00 0.  1.
         21   -1    0    0  505  502  0.00000000000E+00 -0.00000000000E+00 -0.87611091532E+03  0.87611091532E+03  0.00000000000E+00 0.  1.
         21    1    1    2  503  504  0.12875509726E+03  0.13617389242E+03  0.67857345843E+02  0.19931337997E+03  0.00000000000E+00 0. -1.
         21    1    1    2  504  502 -0.46504145792E+02 -0.79072369713E+02 -0.17160103649E+03  0.19458157917E+03  0.00000000000E+00 0.  1.
         21    1    1    2  505  501 -0.45133051507E+02 -0.43364484742E+02 -0.62498721058E+03  0.62811343264E+03  0.00000000000E+00 0.  1.
         -1    1    1    2    0  503 -0.37117899962E+02 -0.13737037967E+02  0.52755719478E+03  0.52903973241E+03  0.00000000000E+00 0.  1.
<scales pt_clust_3="143.51507" pt_clust_4="14000.00000" pt_clust_5="62.97669" pt_clust_6="39.57834"></scales>
<clustering>
<clus scale="   39.578">  1  6  2 -1</clus>
<clus scale="   62.977">  2  5  1 -1</clus>
<clus scale="  143.515">  1  3  2 -1</clus>
<clus scale="   62.977">  2  3  1 -1</clus>
</clustering>
</event>
<event>
 6    0  0.2433432E+002  0.1244181E+03  0.7546771E-02  0.1235982E+00
          2   -1    0    0  505    0 -0.00000000000E+00  0.00000000000E+00  0.79348569787E+03  0.79348569787E+03  0.00000000000E+00 0. -1.
         21   -1    0    0  503  502  0.00000000000E+00 -0.00000000000E+00 -0.10222208339E+04  0.10222208339E+04  0.00000000000E+00 0. -1.
         21    1    1    2  503  501  0.10866368464E+03  0.58708167114E+01 -0.29823083598E+03  0.31746479234E+03  0.00000000000E+00 0. -1.
         21    1    1    2  504  502  0.56860430936E+02  0.14111680244E+02 -0.45091311080E+03  0.45470306973E+03  0.00000000000E+00 0. -1.
         21    1    1    2  505  504 -0.13842227061E+03 -0.39588598283E+00 -0.24285950776E+03  0.27953823036E+03  0.00000000000E+00 0.  1.
          2    1    1    2  501    0 -0.27101844970E+02 -0.19586610973E+02  0.76326831849E+03  0.76400043936E+03  0.00000000000E+00 0. -1.
<scales pt_clust_3="14000.00000" pt_clust_4="56.62166" pt_clust_5="124.41808" pt_clust_6="33.43868"></scales>
<clustering>
<clus scale="   33.439">  1  6  2 -1</clus>
<clus scale="   56.622">  2  4  1 -1</clus>
<clus scale="  124.418">  2  5  1 -1</clus>
<clus scale="   56.622">  2  3  1 -1</clus>
</clustering>
</event>
<event>
 6    0  0.2433432E+002  0.8843641E+02  0.7546771E-02  0.1306683E+00
         21   -1    0    0  505  502  0.00000000000E+00  0.00000000000E+00  0.18354444471E+02  0.18354444471E+02  0.00000000000E+00 0. -1.
          3   -1    0    0  504    0 -0.00000000000E+00 -0.00000000000E+00 -0.25152412086E+04  0.25152412086E+04  0.00000000000E+00 0.  1.
         21    1    1    2  503  501  0.58851343377E+02 -0.26333188717E+02 -0.36060129010E+03  0.36631981637E+03  0.00000000000E+00 0. -1.
         21    1    1    2  504  502 -0.12142084787E+03  0.36892855261E+02 -0.52083123073E+03  0.53606835009E+03  0.00000000000E+00 0. -1.
         21    1    1    2  505  503  0.33805544358E+02 -0.27293817872E+02 -0.53596654606E+02  0.68995425271E+02  0.00000000000E+00 0. -1.
          3    1    1    2  501    0  0.28763960131E+02  0.16734151328E+02 -0.15618575887E+04  0.15622120614E+04  0.00000000000E+00 0.  1.
<scales pt_clust_3="88.43641" pt_clust_4="14000.00000" pt_clust_5="44.25679" pt_clust_6="33.27758"></scales>
<clustering>
<clus scale="   33.278">  2  6  1 -1</clus>
<clus scale="   44.257">  1  5  2 -1</clus>
<clus scale="   88.436">  2  3  1 -1</clus>
<clus scale="   44.257">  1  3  2 -1</clus>
</clustering>
</event>
<event>
 6    0  0.2433432E+002  0.1191509E+03  0.7546771E-02  0.1244504E+00
          2   -1    0    0  504    0 -0.00000000000E+00  0.00000000000E+00  0.35660721406E+04  0.35660721406E+04  0.00000000000E+00 0. -1.
         21   -1    0    0  503  502  0.00000000000E+00 -0.00000000000E+00 -0.69399794386E+03  0.69399794386E+03  0.00000000000E+00 0.  1.
         21    1    1    2  503  501 -0.83510721819E+01 -0.74047229483E+02 -0.45661791258E+02  0.87394117546E+02  0.00000000000E+00 0. -1.
         21    1    1    2  504  505  0.13677805100E+03  0.10507837805E+03 -0.53122195592E+03  0.55852168017E+03  0.00000000000E+00 0.  1.
         21    1    1    2  505  502 -0.93210463896E+01 -0.32951085133E+02 -0.77999620214E+02  0.85185660007E+02  0.00000000000E+00 0. -1.
          2    1    1    2  501    0 -0.11910593242E+03  0.19199365719E+01  0.35269575641E+04  0.35289686267E+04  0.00000000000E+00 0. -1.
<scales pt_clust_3="78.18953" pt_clust_4="14000.00000" pt_clust_5="34.24406" pt_clust_6="119.15094"></scales>
<clustering>
<clus scale="   34.244">  2  5  1 -1</clus>
<clus scale="   78.190">  2  3  1 -1</clus>
<clus scale="  119.151">  1  6  2 -1</clus>
<clus scale="   34.244">  2  3  1 -1</clus>
</clustering>
</event>
<event>
 6    0  0.2433432E+002  0.7859480E+02  0.7546771E-02  0.1333087E+00
         21   -1    0    0  503  502  0.00000000000E+00  0.00000000000E+00  0.11817450279E+03  0.11817450279E+03  0.00000000000E+00 0. -1.
         -4   -1    0    0    0  501 -0.00000000000E+00 -0.00000000000E+00 -0.25396600174E+03  0.25396600174E+03  0.00000000000E+00 0. -1.
         21    1    1    2  503  505  0.34579666453E+02 -0.34577346733E+02 -0.20388551515E+01  0.48943877753E+02  0.00000000000E+00 0. -1.
         21    1    1    2  504  502 -0.16299809780E+01  0.50470430785E+02  0.81709562212E+01  0.51153550680E+02  0.00000000000E+00 0. -1.
         21    1    1    2  505  501 -0.69563239456E+02 -0.80722152461E+02  0.56937543543E+01  0.10671236583E+03  0.00000000000E+00 0. -1.
         -4    1    1    2    0  504  0.36613553981E+02  0.64829068408E+02 -0.14761735437E+03  0.16533071027E+03  0.00000000000E+00 0. -1.
<scales pt_clust_3="48.90139" pt_clust_4="40.69575" pt_clust_5="14000.00000" pt_clust_6="78.59480"></scales>
<clustering>
<clus scale="   48.901">  1  3  2 -1</clus>
<clus scale="   40.696">  1  4  2 -1</clus>
<clus scale="   78.595">  2  6  1 -1</clus>
<clus scale="   48.901">  1  3  2 -1</clus>
</clustering>
</event>
<event>
 6    0  0.2433432E+002  0.2060082E+03  0.7546771E-02  0.1144767E+00
          4   -1    0    0  503    0 -0.00000000000E+00  0.00000000000E+00  0.11460764144E+03  0.11460764144E+03  0.00000000000E+00 0. -1.
         21   -1    0    0  505  502  0.00000000000E+00 -0.00000000000E+00 -0.78971150630E+03  0.78971150630E+03  0.00000000000E+00 0. -1.
         21    1    1    2  503  502  0.30054708082E+02 -0.55591759493E+01 -0.10669268818E+03  0.11098432153E+03  0.00000000000E+00 0. -1.
         21    1    1    2  504  501 -0.14508935283E+03  0.39399351499E+02 -0.46502278252E+03  0.48872222935E+03  0.00000000000E+00 0. -1.
         21    1    1    2  505  504 -0.68298148808E+02 -0.47270841472E+01 -0.97186668158E+02  0.11887906007E+03  0.00000000000E+00 0. -1.
          4    1    1    2  501    0  0.18333279356E+03 -0.29113091403E+02 -0.62017260059E+01  0.18573353679E+03  0.00000000000E+00 0. -1.
<scales pt_clust_3="30.56452" pt_clust_4="56.08504" pt_clust_5="56.08504" pt_clust_6="189.93661"></scales>
<clustering>
<clus scale="   30.565">  2  3  1 -1</clus>
<clus scale="   56.085">  4  5 -1 -1</clus>
<clus scale="  189.937">  1  6  2 -1</clus>
<clus scale="   30.565">  2  3  1 -1</clus>
</clustering>
</event>
<event>
 6    0  0.2433432E+002  0.1790310E+03  0.7546771E-02  0.1168744E+00
          2   -1    0    0  503    0 -0.00000000000E+00  0.00000000000E+00  0.34083578829E+04  0.34083578829E+04  0.00000000000E+00 0.  1.
         21   -1    0    0  501  502  0.00000000000E+00 -0.00000000000E+00 -0.23424621922E+02  0.23424621922E+02  0.00000000000E+00 0.  1.
         21    1    1    2  503  505  0.25536071303E+02  0.38491500110E+02  0.10531456119E+03  0.11499931876E+03  0.00000000000E+00 0.  1.
         21    1    1    2  504  502  0.64437938846E+02 -0.37145031218E+02  0.25490115619E+03  0.26553079056E+03  0.00000000000E+00 0.  1.
         21    1    1    2  505  504 -0.73972752823E+01  0.14520335678E+03  0.49401680589E+03  0.51496731839E+03  0.00000000000E+00 0.  1.
          2    1    1    2  501    0 -0.82576734866E+02 -0.14654982568E+03  0.25307007377E+04  0.25362850771E+04  0.00000000000E+00 0.  1.
<scales pt_clust_3="33.75843" pt_clust_4="74.37742" pt_clust_5="33.75843" pt_clust_6="168.71590"></scales>
<clustering>
<clus scale="   33.758">  3  5 -1 -1</clus>
<clus scale="   74.377">  2  4  1 -1</clus>
<clus scale="  168.716">  1  6  2 -1</clus>
<clus scale="   74.377">  2  3  1 -1</clus>
</clustering>
</event>
<event>
 6    0  0.2433432E+002  0.1389969E+03  0.7546771E-02  0.1214685E+00
         21   -1    0    0  505  502  0.00000000000E+00  0.00000000000E+00  0.15065075362E+03  0.15065075362E+03  0.00000000000E+00 0. -1.
          1   -1    0    0  504    0 -0.00000000000E+00 -0.00000000000E+00 -0.14255258814E+04  0.14255258814E+04  0.00000000000E+00 0.  1.
         21    1    1    2  503  501 -0.47253785603E+02 -0.94626074542E+02 -0.77620469266E+02  0.13119432719E+03  0.00000000000E+00 0. -1.
         21    1    1    2  504  502  0.45036610312E+02  0.76611104622E+01  0.53146552022E+02  0.70082414868E+02  0.00000000000E+00 0. -1.
         21    1    1    2  505  503  0.17212856701E+02 -0.58695238973E+02  0.42020092680E+02  0.74209849096E+02  0.00000000000E+00 0. -1.
          1    1    1    2  501    0 -0.14995681411E+02  0.14566020305E+03 -0.12924213032E+04  0.13006900439E+04  0.00000000000E+00 0.  1.
<scales pt_clust_3="14000.00000" pt_clust_4="45.68357" pt_clust_5="71.10205" pt_clust_6="138.99687"></scales>
<clustering>
<clus scale="   45.684">  1  4  2 -1</clus>
<clus scale="   71.102">  1  5  2 -1</clus>
<clus scale="  138.997">  2  6  1 -1</clus>
<clus scale="   45.684">  1  3  2 -1</clus>
</clustering>
</event>
<event>
 6    0  0.2433432E+002  0.8875071E+02  0.7546771E-02  0.1305906E+00
          1   -1    0    0  505    0 -0.00000000000E+00  0.00000000000E+00  0.15801780119E+04  0.15801780119E+04  0.00000000000E+00 0.  1.
         21   -1    0    0  504  502  0.00000000000E+00 -0.00000000000E+00 -0.26128676320E+03  0.26128676320E+03  0.00000000000E+00 0.  1.
         21    1    1    2  503  501  0.21061807691E+02  0.12595153595E+03 -0.37304041127E+02  0.13303751589E+03  0.00000000000E+00 0.  1.
         21    1    1    2  504  503  0.41360384088E+02 -0.41238403852E+02 -0.15860063504E+03  0.16901316150E+03  0.00000000000E+00 0.  1.
         21    1    1    2  505  502 -0.29655439607E+02 -0.38695150667E+02  0.38719893254E+02  0.62257448687E+02  0.00000000000E+00 0.  1.
          1    1    1    2  501    0 -0.32766752172E+02 -0.46017981427E+02  0.14760760316E+04  0.14771566490E+04  0.00000000000E+00 0.  1.
<scales pt_clust_3="14000.00000" pt_clust_4="88.75071" pt_clust_5="48.75202" pt_clust_6="56.59723"></scales>
<clustering>
<clus scale="   48.752">  2  5  1 -1</clus>
<clus scale="   56.597">  1  6  2 -1</clus>
<clus scale="   88.751">  2  4  1 -1</clus>
<clus scale="   48.752">  2  3  1 -1</clus>
</clustering>
</event>
<event>
 6    0  0.2433432E+002  0.9911456E+02  0.7546771E-02  0.1282169E+00
          1   -1    0    0  503    0 -0.00000000000E+00  0.00000000000E+00  0.58070256186E+03  0.58070256186E+03  0.00000000000E+00 0. -1.
         21   -1    0    0  501  502  0.00000000000E+00 -0.00000000000E+00 -0.70614458992E+02  0.70614458992E+02  0.00000000000E+00 0.  1.
         21    1    1    2  503  504  0.34782205385E+02  0.47638637159E+02  0.30452908818E+02  0.66382386348E+02  0.00000000000E+00 0.  1.
         21    1    1    2  504  505  0.65333831246E+02  0.19524360221E+02  0.68739267495E+02  0.96823535584E+02  0.00000000000E+00 0.  1.
         21    1    1    2  505  502 -0.79859039709E+02 -0.16635384674E+01  0.89686795745E+01  0.80378298046E+02  0.00000000000E+00 0.  1.
          1    1    1    2  501    0 -0.20256996922E+02 -0.65499458912E+02  0.40192724698E+03  0.40773280087E+03  0.00000000000E+00 0. -1.
<scales pt_clust_3="44.24422" pt_clust_4="44.24422" pt_clust_5="86.95229" pt_clust_6="68.56038"></scales>
<clustering>
<clus scale="   44.244">  3  4 -1 -1</clus>
<clus scale="   68.560">  1  6  2 -1</clus>
<clus scale="   86.952">  2  5  1 -1</clus>
<clus scale="   86.952">  2  3  1 -1</clus>
</clustering>
</event>
<event>
 6    0  0.2433432E+002  0.1079990E+03  0.7546771E-02  0.1264321E+00
          1   -1    0    0  505    0 -0.00000000000E+00  0.00000000000E+00  0.10528157934E+04  0.10528157934E+04  0.00000000000E+00 0.  1.
         21   -1    0    0  503  502  0.00000000000E+00 -0.00000000000E+00 -0.39010055908E+02  0.39010055908E+02  0.00000000000E+00 0.  1.
         21    1    1    2  503  501  0.22349093819E+01 -0.39255696861E+02  0.55901268272E+02  0.68344395164E+02  0.00000000000E+00 0.  1.
         21    1    1    2  504  502 -0.21819591215E+02  0.51440181110E+02  0.29571933596E+02  0.63219348700E+02  0.00000000000E+00 0.  1.
         21    1    1    2  505  504 -0.56031751018E+02  0.72944589916E+02  0.16872547093E+03  0.19216855846E+03  0.00000000000E+00 0.  1.
          1    1    1    2  501    0  0.75616432850E+02 -0.85129074166E+02  0.75960706468E+03  0.76809354697E+03  0.00000000000E+00 0.  1.
<scales pt_clust_3="39.31926" pt_clust_4="37.50923" pt_clust_5="107.99901" pt_clust_6="14000.00000"></scales>
<clustering>
<clus scale="   39.319">  2  3  1 -1</clus>
<clus scale="   37.509">  2  4  1 -1</clus>
<clus scale="  107.999">  2  5  1 -1</clus>
<clus scale="   39.319">  2  3  1 -1</clus>
</clustering>
</event>
<event>
 6    0  0.2433432E+002  0.7598547E+02  0.7546771E-02  0.1340846E+00
         21   -1    0    0  505  502  0.00000000000E+00  0.00000000000E+00  0.12647084329E+03  0.12647084329E+03  0.00000000000E+00 0.  1.
          2   -1    0    0  504    0 -0.00000000000E+00 -0.00000000000E+00 -0.76460138245E+03  0.76460138245E+03  0.00000000000E+00 0.  1.
         21    1    1    2  503  501  0.34143317657E+02  0.21432757509E+02 -0.18438447349E+02  0.44329511341E+02  0.00000000000E+00 0.  1.
         21    1    1    2  504  502 -0.95308126482E+02  0.55616300502E+02  0.49713600147E+02  0.12102997106E+03  0.00000000000E+00 0.  1.
         21    1    1    2  505  503  0.38453367611E+02 -0.47049409955E+01  0.11646188901E+02  0.40452832612E+02  0.00000000000E+00 0.  1.
          2    1    1    2  501    0  0.22711441214E+02 -0.72344117016E+02 -0.68105188086E+03  0.68525991072E+03  0.00000000000E+00 0.  1.
<scales pt_clust_3="44.30096" pt_clust_4="75.98547" pt_clust_5="38.74013" pt_clust_6="14000.00000"></scales>
<clustering>
<clus scale="   38.740">  1  5  2 -1</clus>
<clus scale="   44.301">  1  3  2 -1</clus>
<clus scale="   75.985">  1  4  2 -1</clus>
<clus scale="   38.740">  1  3  2 -1</clus>
</clustering>
</event>
<event>
 6    0  0.2433432E+002  0.8230751E+02  0.7546771E-02  0.1322628E+00
         21   -1    0    0  505  502  0.00000000000E+00  0.00000000000E+00  0.56296502893E+03  0.56296502893E+03  0.00000000000E+00 0.  1.
          1   -1    0    0  504    0 -0.00000000000E+00 -0.00000000000E+00 -0.52682211410E+03  0.52682211410E+03  0.00000000000E+00 0. -1.
         21    1    1    2  503  501 -0.14560155286E+02  0.45440198954E+02  0.14686271205E+02  0.49924907259E+02  0.00000000000E+00 0. -1.
         21    1    1    2  504  502 -0.70329850353E+02  0.18414916378E+02 -0.84332281638E+02  0.11134330120E+03  0.00000000000E+00 0. -1.
         21    1    1    2  505  503  0.80851752144E+02 -0.17075608746E+02  0.51249355331E+03  0.51911292069E+03  0.00000000000E+00 0.  1.
          1    1    1    2  501    0  0.40382534951E+01 -0.46779506586E+02 -0.40670462804E+03  0.40940601388E+03  0.00000000000E+00 0. -1.
<scales pt_clust_3="40.95350" pt_clust_4="14000.00000" pt_clust_5="82.30751" pt_clust_6="46.95348"></scales>
<clustering>
<clus scale="   46.953">  2  6  1 -1</clus>
<clus scale="   40.953">  2  3  1 -1</clus>
<clus scale="   82.308">  1  5  2 -1</clus>
<clus scale="   82.308">  1  3  2 -1</clus>
</clustering>
</event>
<event>
 6    0  0.2433432E+002  0.9621135E+02  0.7546771E-02  0.1288471E+00
         21   -1    0    0  505  502  0.00000000000E+00  0.00000000000E+00  0.29594269434E+03  0.29594269434E+03  0.00000000000E+00 0.  1.
         -2   -1    0    0    0  501 -0.00000000000E+00 -0.00000000000E+00 -0.10288160294E+04  0.10288160294E+04  0.00000000000E+00 0. -1.
         21    1    1    2  503  504  0.41826467078E+02 -0.23952732738E+02  0.57764472317E+01  0.48544351849E+02  0.00000000000E+00 0.  1.
         21    1    1    2  504  502  0.17173075411E+02  0.35432330450E+02  0.97573485812E+02  0.10521858055E+03  0.00000000000E+00 0.  1.
         21    1    1    2  505  501 -0.49664464614E+01 -0.91480214543E+02  0.15232051244E+03  0.17774935655E+03  0.00000000000E+00 0.  1.
         -2    1    1    2    0  503 -0.54033096027E+02  0.80000616832E+02 -0.98854378051E+03  0.99324643475E+03  0.00000000000E+00 0. -1.
<scales pt_clust_3="48.13513" pt_clust_4="39.37467" pt_clust_5="96.21135" pt_clust_6="14000.00000"></scales>
<clustering>
<clus scale="   39.375">  1  4  2 -1</clus>
<clus scale="   48.135">  1  3  2 -1</clus>
<clus scale="   96.211">  1  5  2 -1</clus>
<clus scale="   39.375">  1  3  2 -1</clus>
</clustering>
</event>
<event>
 6    0  0.2433432E+002  0.1893993E+03  0.7546771E-02  0.1159004E+00
          2   -1    0    0  505    0 -0.00000000000E+00  0.00000000000E+00  0.11025585926E+04  0.11025585926E+04  0.00000000000E+00 0.  1.
         21   -1    0    0  504  502  0.00000000000E+00 -0.00000000000E+00 -0.51868416308E+02  0.51868416308E+02  0.00000000000E+00 0.  1.
         21    1    1    2  503  502 -0.13079617629E+03 -0.11766322561E+03  0.16938956133E+03  0.24422345891E+03  0.00000000000E+00 0.  1.
         21    1    1    2  504  501  0.80222002717E+02  0.11993857497E+03  0.44093647064E+03  0.46394590485E+03  0.00000000000E+00 0.  1.
         21    1    1    2  505  503  0.19627235496E+02 -0.25772694497E+02  0.16332358934E+03  0.16650542030E+03  0.00000000000E+00 0. -1.
          2    1    1    2  501    0  0.30946938078E+02  0.23497345141E+02  0.27704055499E+03  0.27975222486E+03  0.00000000000E+00 0.  1.
<scales pt_clust_3="176.65954" pt_clust_4="36.52128" pt_clust_5="32.39537" pt_clust_6="36.52128"></scales>
<clustering>
<clus scale="   32.395">  1  5  2 -1</clus>
<clus scale="   36.521">  4  6 -1 -1</clus>
<clus scale="  176.660">  2  3  1 -1</clus>
<clus scale="  176.660">  2  3  1 -1</clus>
</clustering>
</event>
<event>
 6    0  0.2433432E+002  0.7589769E+02  0.7546771E-02  0.1341113E+00
          2   -1    0    0  505    0 -0.00000000000E+00  0.00000000000E+00  0.25936058727E+04  0.25936058727E+04  0.00000000000E+00 0. -1.
         21   -1    0    0  504  502  0.00000000000E+00 -0.00000000000E+00 -0.58272930474E+03  0.58272930474E+03  0.00000000000E+00 0. -1.
         21    1    1    2  503  501 -0.64256002782E+02  0.13051629853E+03  0.90898651090E+02  0.17153979960E+03  0.00000000000E+00 0.  1.
         21    1    1    2  504  503 -0.10211713041E+02 -0.74276725518E+02 -0.52590589137E+03  0.53122341592E+03  0.00000000000E+00 0. -1.
         21    1    1    2  505  502  0.42934771197E+02 -0.21694163591E+02  0.28863872952E+02  0.56099505108E+02  0.00000000000E+00 0.  1.
          2    1    1    2  501    0  0.31532944626E+02 -0.34545409426E+02  0.24170199353E+04  0.24174724568E+04  0.00000000000E+00 0. -1.
<scales pt_clust_3="14000.00000" pt_clust_4="75.89769" pt_clust_5="58.77293" pt_clust_6="46.77298"></scales>
<clustering>
<clus scale="   46.773">  1  6  2 -1</clus>
<clus scale="   58.773">  1  5  2 -1</clus>
<clus scale="   75.898">  2  4  1 -1</clus>
<clus scale="   75.898">  2  3  1 -1</clus>
</clustering>
</event>
<event>
 6    0  0.2433432E+002  0.3288028E+03  0.7546771E-02  0.1071668E+00
          2   -1    0    0  503    0 -0.00000000000E+00  0.00000000000E+00  0.14203504691E+04  0.14203504691E+04  0.00000000000E+00 0. -1.
         21   -1    0    0  505  502  0.00000000000E+00 -0.00000000000E+00 -0.15466838875E+04  0.15466838875E+04  0.00000000000E+00 0.  1.
         21    1    1    2  503  504 -0.12379381543E+03  0.23108964748E+03 -0.42851605138E+03  0.50234782791E+03  0.00000000000E+00 0.  1.
         21    1    1    2  504  502 -0.12726181566E+03  0.18600502952E+02 -0.48912130674E+02  0.13760067210E+03  0.00000000000E+00 0.  1.
         21    1    1    2  505  501 -0.34830427817E+02 -0.78186997978E+02 -0.96532254914E+03  0.96910989533E+03  0.00000000000E+00 0.  1.
          2    1    1    2  501    0  0.28588605891E+03 -0.17150315245E+03  0.13164173128E+04  0.13579759613E+04  0.00000000000E+00 0. -1.
<scales pt_clust_3="328.80275" pt_clust_4="133.00343" pt_clust_5="85.59419" pt_clust_6="14000.00000"></scales>
<clustering>
<clus scale="   85.594">  2  5  1 -1</clus>
<clus scale="  133.003">  2  4  1 -1</clus>
<clus scale="  328.803">  2  3  1 -1</clus>
<clus scale="   85.594">  2  3  1 -1</clus>
</clustering>
</event>
<event>
 6    0  0.2433432E+002  0.1159399E+03  0.7546771E-02  0.1249949E+00
         21   -1    0    0  504  502  0.00000000000E+00  0.00000000000E+00  0.56597493415E+03  0.56597493415E+03  0.00000000000E+00 0. -1.
          1   -1    0    0  503    0 -0.00000000000E+00 -0.00000000000E+00 -0.16532857297E+03  0.16532857297E+03  0.00000000000E+00 0.  1.
         21    1    1    2  503  505  0.83439904432E+02  0.65287299515E+02  0.19933082548E+02  0.10780527311E+03  0.00000000000E+00 0.  1.
         21    1    1    2  504  501 -0.45881830823E+02 -0.23539141670E+02  0.79226637472E+02  0.94530913861E+02  0.00000000000E+00 0. -1.
         21    1    1    2  505  502 -0.30658815934E+02 -0.82320386519E+02  0.40665425846E+03  0.41603400697E+03  0.00000000000E+00 0. -1.
          1    1    1    2  501    0 -0.68992576741E+01  0.40572228674E+02 -0.10516761731E+03  0.11293331318E+03  0.00000000000E+00 0.  1.
<scales pt_clust_3="115.93985" pt_clust_4="50.16888" pt_clust_5="14000.00000" pt_clust_6="41.15465"></scales>
<clustering>
<clus scale="   41.155">  2  6  1 -1</clus>
<clus scale="   50.169">  1  4  2 -1</clus>
<clus scale="  115.940">  2  3  1 -1</clus>
<clus scale="   50.169">  1  3  2 -1</clus>
</clustering>
</event>
<event>
 6    0  0.2433432E+002  0.1523458E+03  0.7546771E-02  0.1197620E+00
         21   -1    0    0  505  502  0.00000000000E+00  0.00000000000E+00  0.33063207456E+03  0.33063207456E+03  0.00000000000E+00 0. -1.
         -2   -1    0    0    0  501 -0.00000000000E+00 -0.00000000000E+00 -0.39535314972E+03  0.39535314972E+03  0.00000000000E+00 0.  1.
         21    1    1    2  503  502 -0.26588746335E+02 -0.22149982178E+02  0.27156124758E+03  0.27375736397E+03  0.00000000000E+00 0. -1.
         21    1    1    2  504  501  0.70335807472E+02  0.62346904408E+02 -0.89242847398E+02  0.12960921307E+03  0.00000000000E+00 0.  1.
         21    1    1    2  505  504  0.59640468336E+02  0.40891331748E+02 -0.11840828027E+03  0.13874295410E+03  0.00000000000E+00 0.  1.
         -2    1    1    2    0  503 -0.10338752947E+03 -0.81088253978E+02 -0.12863119507E+03  0.18387569314E+03  0.00000000000E+00 0.  1.
<scales pt_clust_3="34.60611" pt_clust_4="32.13133" pt_clust_5="32.13133" pt_clust_6="147.87602"></scales>
<clustering>
<clus scale="   32.131">  4  5 -1 -1</clus>
<clus scale="   34.606">  1  3  2 -1</clus>
<clus scale="  147.876">  2  6  1 -1</clus>
<clus scale="   34.606">  1  3  2 -1</clus>
</clustering>
</event>
<event>
 6    0  0.2433432E+002  0.1248782E+03  0.7546771E-02  0.1235260E+00
          1   -1    0    0  503    0 -0.00000000000E+00  0.00000000000E+00  0.12143301972E+04  0.12143301972E+04  0.00000000000E+00 0.  1.
         21   -1    0    0  504  502  0.00000000000E+00 -0.00000000000E+00 -0.56492421341E+02  0.56492421341E+02  0.00000000000E+00 0. -1.
         21    1    1    2  503  502  0.26548222179E+02 -0.28129291463E+02  0.76599828912E+01  0.39430197526E+02  0.00000000000E+00 0. -1.
         21    1    1    2  504  505  0.25886055784E+02  0.56662949861E+02  0.38847247464E+02  0.73415845745E+02  0.00000000000E+00 0. -1.
         21    1    1    2  505  501  0.49537709859E+02  0.37020894585E+02  0.28002882250E+02  0.67887353375E+02  0.00000000000E+00 0. -1.
          1    1    1    2  501    0 -0.10197198782E+03 -0.65554552984E+02  0.10833276633E+04  0.10900892219E+04  0.00000000000E+00 0.  1.
<scales pt_clust_3="38.67900" pt_clust_4="32.01155" pt_clust_5="32.01155" pt_clust_6="120.67447"></scales>
<clustering>
<clus scale="   32.012">  4  5 -1 -1</clus>
<clus scale="   38.679">  2  3  1 -1</clus>
<clus scale="  120.674">  1  6  2 -1</clus>
<clus scale="   38.679">  2  3  1 -1</clus>
</clustering>
</event>
<event>
 6    0  0.2433432E+002  0.1201320E+03  0.7546771E-02  0.1242879E+00
          1   -1    0    0  505    0 -0.00000000000E+00  0.00000000000E+00  0.21056154083E+04  0.21056154083E+04  0.00000000000E+00 0.  1.
         21   -1    0    0  503  502  0.00000000000E+00 -0.00000000000E+00 -0.20862562787E+02  0.20862562787E+02  0.00000000000E+00 0.  1.
         21    1    1    2  503  501 -0.41679769097E+02 -0.14251692058E+02  0.38317980617E+02  0.58383058476E+02  0.00000000000E+00 0.  1.
         21    1    1    2  504  502  0.48970096349E+02 -0.34449674124E+02  0.25743365984E+03  0.26430463409E+03  0.00000000000E+00 0.  1.
         21    1    1    2  505  504  0.32641766557E+02 -0.58474544841E+02  0.20491350021E+03  0.21557898758E+03  0.00000000000E+00 0.  1.
          1    1    1    2  501    0 -0.39932093810E+02  0.10717591102E+03  0.15840877049E+04  0.15882112910E+04  0.00000000000E+00 0.  1.
<scales pt_clust_3="44.04899" pt_clust_4="33.13446" pt_clust_5="33.13446" pt_clust_6="114.90738"></scales>
<clustering>
<clus scale="   33.134">  4  5 -1 -1</clus>
<clus scale="   44.049">  2  3  1 -1</clus>
<clus scale="  114.907">  1  6  2 -1</clus>
<clus scale="   44.049">  2  3  1 -1</clus>
</clustering>
</event>
<event>
 6    0  0.2433432E+002  0.1670065E+03  0.7546771E-02  0.1181006E+00
         21   -1    0    0  505  502  0.00000000000E+00  0.00000000000E+00  0.84925713142E+03  0.84925713142E+03  0.00000000000E+00 0. -1.
          1   -1    0    0  504    0 -0.00000000000E+00 -0.00000000000E+00 -0.50038260093E+03  0.50038260093E+03  0.00000000000E+00 0.  1.
         21    1    1    2  503  502 -0.24441544615E+02 -0.30716061828E+02  0.32900847684E+03  0.33134188294E+03  0.00000000000E+00 0. -1.
         21    1    1    2  504  503 -0.24108362597E+02 -0.11877064025E+03  0.48866229459E+03  0.50346649967E+03  0.00000000000E+00 0. -1.
         21    1    1    2  505  501  0.45359682394E+02  0.11862909573E+03 -0.15905648683E+03  0.20354195917E+03  0.00000000000E+00 0.  1.
          1    1    1    2  501    0  0.31902248179E+01  0.30857606351E+02 -0.30973975410E+03  0.31128939056E+03  0.00000000000E+00 0.  1.
<scales pt_clust_3="34.32463" pt_clust_4="34.32463" pt_clust_5="155.80434" pt_clust_6="31.02208"></scales>
<clustering>
<clus scale="   31.022">  2  6  1 -1</clus>
<clus scale="   34.325">  3  4 -1 -1</clus>
<clus scale="  155.804">  2  5  1 -1</clus>
<clus scale="  167.006">  1  3  2 -1</clus>
</clustering>
</event>
<event>
 6    0  0.2433432E+002  0.7344370E+02  0.7546771E-02  0.1348759E+00
         21   -1    0    0  505  502  0.00000000000E+00  0.00000000000E+00  0.28819681195E+02  0.28819681195E+02  0.00000000000E+00 0.  1.
          2   -1    0    0  503    0 -0.00000000000E+00 -0.00000000000E+00 -0.26135552765E+04  0.26135552765E+04  0.00000000000E+00 0.  1.
         21    1    1    2  503  502 -0.19214599420E+02 -0.37428210018E+02 -0.64163941723E+03  0.64301727308E+03  0.00000000000E+00 0. -1.
         21    1    1    2  504  501 -0.69979360407E+02  0.80586721613E+02 -0.32086529712E+03  0.33815066092E+03  0.00000000000E+00 0.  1.
         21    1    1    2  505  504  0.24954127440E+02 -0.26510432551E+02  0.11932199411E+01  0.36427122920E+02  0.00000000000E+00 0.  1.
          2    1    1    2  501    0  0.64239832386E+02 -0.16648079043E+02 -0.16234241009E+04  0.16247799008E+04  0.00000000000E+00 0.  1.
<scales pt_clust_3="42.97597" pt_clust_4="73.44370" pt_clust_5="36.40757" pt_clust_6="14000.00000"></scales>
<clustering>
<clus scale="   36.408">  1  5  2 -1</clus>
<clus scale="   42.976">  2  3  1 -1</clus>
<clus scale="   73.444">  1  4  2 -1</clus>
<clus scale="   36.408">  1  3  2 -1</clus>
</clustering>
</event>
<event>
 6    0  0.2433432E+002  0.1575222E+03  0.7546771E-02  0.1191523E+00
          2   -1    0    0  503    0 -0.00000000000E+00  0.00000000000E+00  0.10381041397E+04  0.10381041397E+04  0.00000000000E+00 0.  1.
         21   -1    0    0  501  502  0.00000000000E+00 -0.00000000000E+00 -0.64100448924E+02  0.64100448924E+02  0.00000000000E+00 0.  1.
         21    1    1    2  503  504  0.24171477771E+02 -0.87087849433E+02  0.16874901619E+03  0.19142827461E+03  0.00000000000E+00 0.  1.
         21    1    1    2  504  505  0.15338693082E+02 -0.59155089761E+02  0.32620187840E+02  0.69272482306E+02  0.00000000000E+00 0.  1.
         21    1    1    2  505  502 -0.19619866755E+01  0.13891151165E+03  0.10851461712E+03  0.17628295320E+03  0.00000000000E+00 0.  1.
          2    1    1    2  501    0 -0.37548184178E+02  0.73314275473E+01  0.66411986963E+03  0.66522087851E+03  0.00000000000E+00 0.  1.
<scales pt_clust_3="56.11320" pt_clust_4="56.11320" pt_clust_5="142.63924" pt_clust_6="38.25723"></scales>
<clustering>
<clus scale="   38.257">  1  6  2 -1</clus>
<clus scale="   56.113">  3  4 -1 -1</clus>
<clus scale="  142.639">  2  5  1 -1</clus>
<clus scale="  142.639">  2  3  1 -1</clus>
</clustering>
</event>
<event>
 6    0  0.2433432E+002  0.1052482E+03  0.7546771E-02  0.1269631E+00
         21   -1    0    0  503  502  0.00000000000E+00  0.00000000000E+00  0.18985088718E+02  0.18985088718E+02  0.00000000000E+00 0. -1.
          1   -1    0    0  504    0 -0.00000000000E+00 -0.00000000000E+00 -0.16379762623E+04  0.16379762623E+04  0.00000000000E+00 0. -1.
         21    1    1    2  503  501  0.79001882380E+02  0.95780684313E+02 -0.42615943220E+03  0.44387734630E+03  0.00000000000E+00 0. -1.
         21    1    1    2  504  505 -0.12187720849E+02 -0.46036120602E+02 -0.25605236471E+03  0.26044323453E+03  0.00000000000E+00 0. -1.
         21    1    1    2  505  502  0.15275868928E+02 -0.28156938628E+02 -0.37309867291E+02  0.49175111202E+02  0.00000000000E+00 0. -1.
          1    1    1    2  501    0 -0.82090030459E+02 -0.21587625082E+02 -0.89946950936E+03  0.90346565896E+03  0.00000000000E+00 0. -1.
<scales pt_clust_3="14000.00000" pt_clust_4="51.67516" pt_clust_5="32.03382" pt_clust_6="105.24824"></scales>
<clustering>
<clus scale="   32.034">  1  5  2 -1</clus>
<clus scale="   51.675">  2  4  1 -1</clus>
<clus scale="  105.248">  2  6  1 -1</clus>
<clus scale="   32.034">  1  3  2 -1</clus>
</clustering>
</event>
<event>
 6    0  0.2433432E+002  0.9186317E+02  0.7546771E-02  0.1298401E+00
         21   -1    0    0  505  502  0.00000000000E+00  0.00000000000E+00  0.71716053335E+02  0.71716053335E+02  0.00000000000E+00 0. -1.
          2   -1    0    0  502    0 -0.00000000000E+00 -0.00000000000E+00 -0.14915073918E+04  0.14915073918E+04  0.00000000000E+00 0.  1.
         21    1    1    2  503  504  0.10767158802E+03  0.10640506942E+03 -0.35597380818E+03  0.38682368306E+03  0.00000000000E+00 0. -1.
         21    1    1    2  504  501 -0.60773250968E+02  0.76351353807E+01 -0.14025175035E+03  0.15304325141E+03  0.00000000000E+00 0. -1.
         21    1    1    2  505  503  0.38134209325E+00 -0.89616641577E+02  0.82738753963E+01  0.89998582675E+02  0.00000000000E+00 0. -1.
          2    1    1    2  501    0 -0.47279679145E+02 -0.24423563223E+02 -0.93183965533E+03  0.93335792799E+03  0.00000000000E+00 0.  1.
<scales pt_clust_3="14000.00000" pt_clust_4="73.18887" pt_clust_5="91.86317" pt_clust_6="53.21540"></scales>
<clustering>
<clus scale="   53.215">  2  6  1 -1</clus>
<clus scale="   73.189">  2  4  1 -1</clus>
<clus scale="   91.863">  1  5  2 -1</clus>
<clus scale="   91.863">  1  3  2 -1</clus>
</clustering>
</event>
<event>
 6    0  0.2433432E+002  0.1149916E+03  0.7546771E-02  0.1251596E+00
         -1   -1    0    0    0  501 -0.00000000000E+00  0.00000000000E+00  0.62227134751E+02  0.62227134751E+02  0.00000000000E+00 0.  1.
         21   -1    0    0  501  502  0.00000000000E+00 -0.00000000000E+00 -0.14400586025E+04  0.14400586025E+04  0.00000000000E+00 0.  1.
         21    1    1    2  503  504 -0.70633987747E+02 -0.29374552406E+01 -0.42220298674E+02  0.82342835077E+02  0.00000000000E+00 0.  1.
         21    1    1    2  504  505 -0.62229902626E+02 -0.17254230627E+01 -0.10967334908E+03  0.12611019532E+03  0.00000000000E+00 0.  1.
         21    1    1    2  505  502  0.42406996899E+02  0.25122091482E+02 -0.11950742116E+04  0.11960902325E+04  0.00000000000E+00 0.  1.
         -1    1    1    2    0  503  0.90456893475E+02 -0.20459213178E+02 -0.30863608369E+02  0.97742474403E+02  0.00000000000E+00 0.  1.
<scales pt_clust_3="48.81878" pt_clust_4="48.81878" pt_clust_5="49.28968" pt_clust_6="102.55070"></scales>
<clustering>
<clus scale="   48.819">  3  4 -1 -1</clus>
<clus scale="   49.290">  2  5  1 -1</clus>
<clus scale="  102.551">  1  6  2 -1</clus>
<clus scale="   49.290">  2  3  1 -1</clus>
</clustering>
</event>
<event>
 6    0  0.2433432E+002  0.3401316E+03  0.7546771E-02  0.1066740E+00
          2   -1    0    0  503    0 -0.00000000000E+00  0.00000000000E+00  0.55055139050E+03  0.55055139050E+03  0.00000000000E+00 0.  1.
         21   -1    0    0  505  502  0.00000000000E+00 -0.00000000000E+00 -0.87327815537E+03  0.87327815537E+03  0.00000000000E+00 0.  1.
         21    1    1    2  503  502 -0.44310369262E+02 -0.30058710953E+02 -0.14587797072E+03  0.15539407089E+03  0.00000000000E+00 0.  1.
         21    1    1    2  504  501  0.22528411308E+03 -0.51633195995E+02 -0.37630644368E+03  0.44161686798E+03  0.00000000000E+00 0.  1.
         21    1    1    2  505  504  0.14389722412E+03  0.20266000825E+01 -0.23678974218E+03  0.27709186242E+03  0.00000000000E+00 0.  1.
          2    1    1    2  501    0 -0.32487096793E+03  0.79665306866E+02  0.43624739171E+03  0.54972674457E+03  0.00000000000E+00 0.  1.
<scales pt_clust_3="53.54377" pt_clust_4="34.39210" pt_clust_5="34.39210" pt_clust_6="337.32754"></scales>
<clustering>
<clus scale="   34.392">  4  5 -1 -1</clus>
<clus scale="   53.544">  2  3  1 -1</clus>
<clus scale="  337.328">  1  6  2 -1</clus>
<clus scale="   53.544">  2  3  1 -1</clus>
</clustering>
</event>
<event>
 6    0  0.2433432E+002  0.9460993E+02  0.7546771E-02  0.1292057E+00
          1   -1    0    0  503    0 -0.00000000000E+00  0.00000000000E+00  0.16804476868E+03  0.16804476868E+03  0.00000000000E+00 0.  1.
         21   -1    0    0  504  502  0.00000000000E+00 -0.00000000000E+00 -0.48746883437E+03  0.48746883437E+03  0.00000000000E+00 0. -1.
         21    1    1    2  503  505 -0.32427303711E+02  0.55889696399E+02 -0.13181228812E+03  0.14679805002E+03  0.00000000000E+00 0. -1.
         21    1    1    2  504  501  0.79346638949E+02  0.25878868625E+02 -0.27553969785E+03  0.28790229254E+03  0.00000000000E+00 0. -1.
         21    1    1    2  505  502 -0.49378935574E+02  0.17525000783E+02 -0.34821668226E+02  0.62912268350E+02  0.00000000000E+00 0. -1.
          1    1    1    2  501    0  0.24596003360E+01 -0.99293565806E+02  0.12274958850E+03  0.15790099215E+03  0.00000000000E+00 0.  1.
<scales pt_clust_3="94.60993" pt_clust_4="60.39566" pt_clust_5="52.39661" pt_clust_6="14000.00000"></scales>
<clustering>
<clus scale="   52.397">  2  5  1 -1</clus>
<clus scale="   60.396">  2  4  1 -1</clus>
<clus scale="   94.610">  2  3  1 -1</clus>
<clus scale="   52.397">  2  3  1 -1</clus>
</clustering>
</event>
<event>
 6    0  0.2433432E+002  0.2744320E+03  0.7546771E-02  0.1098769E+00
         21   -1    0    0  505  502  0.00000000000E+00  0.00000000000E+00  0.19850313740E+04  0.19850313740E+04  0.00000000000E+00 0. -1.
         -4   -1    0    0    0  501 -0.00000000000E+00 -0.00000000000E+00 -0.14878395739E+03  0.14878395739E+03  0.00000000000E+00 0. -1.
         21    1    1    2  503  502 -0.11082219221E+03  0.17004680347E+03  0.23303581822E+03  0.30903586561E+03  0.00000000000E+00 0. -1.
         21    1    1    2  504  501  0.15615170030E+03 -0.15963368010E+03  0.13455721107E+04  0.13639760153E+04  0.00000000000E+00 0. -1.
         21    1    1    2  505  504  0.26536171521E+02 -0.66383804360E+02  0.33423157774E+03  0.34179193296E+03  0.00000000000E+00 0. -1.
         -4    1    1    2    0  503 -0.71865679612E+02  0.55970680992E+02 -0.76592090049E+02  0.11901151749E+03  0.00000000000E+00 0. -1.
<scales pt_clust_3="268.08178" pt_clust_4="33.21048" pt_clust_5="33.21048" pt_clust_6="91.09003"></scales>
<clustering>
<clus scale="   33.210">  4  5 -1 -1</clus>
<clus scale="   91.090">  2  6  1 -1</clus>
<clus scale="  268.082">  2  3  1 -1</clus>
<clus scale="  274.432">  1  3  2 -1</clus>
</clustering>
</event>
<event>
 6    0  0.2433432E+002  0.1381083E+03  0.7546771E-02  0.1215897E+00
         21   -1    0    0  505  502  0.00000000000E+00  0.00000000000E+00  0.16788543225E+03  0.16788543225E+03  0.00000000000E+00 0. -1.
         -1   -1    0    0    0  501 -0.00000000000E+00 -0.00000000000E+00 -0.18820056537E+03  0.18820056537E+03  0.00000000000E+00 0. -1.
         21    1    1    2  503  502 -0.21752764369E+01  0.39993759506E+02  0.14782432392E+01  0.40080142590E+02  0.00000000000E+00 0. -1.
         21    1    1    2  504  501  0.38764997898E+02 -0.35946555237E+02  0.30220862347E+02  0.60894830786E+02  0.00000000000E+00 0. -1.
         21    1    1    2  505  504  0.91548431046E+02 -0.32762073584E+01  0.37306153063E+02  0.98912071145E+02  0.00000000000E+00 0. -1.
         -1    1    1    2    0  503 -0.12813815251E+03 -0.77099691024E+00 -0.89320391763E+02  0.15619895310E+03  0.00000000000E+00 0. -1.
<scales pt_clust_3="40.05287" pt_clust_4="37.66576" pt_clust_5="37.66576" pt_clust_6="128.90142"></scales>
<clustering>
<clus scale="   37.666">  4  5 -1 -1</clus>
<clus scale="   40.053">  1  3  2 -1</clus>
<clus scale="  128.901">  2  6  1 -1</clus>
<clus scale="   40.053">  1  3  2 -1</clus>
</clustering>
</event>
<event>
 6    0  0.2433432E+002  0.7193126E+02  0.7546771E-02  0.1353646E+00
         21   -1    0    0  505  502  0.00000000000E+00  0.00000000000E+00  0.26880305538E+02  0.26880305538E+02  0.00000000000E+00 0.  1.
          2   -1    0    0  504    0 -0.00000000000E+00 -0.00000000000E+00 -0.44827482408E+04  0.44827482408E+04  0.00000000000E+00 0. -1.
         21    1    1    2  503  502  0.36335914389E+02 -0.71995409411E+02 -0.74098855796E+02  0.10951839152E+03  0.00000000000E+00 0.  1.
         21    1    1    2  504  503 -0.64566543645E+02 -0.15121689936E+02 -0.57341240602E+03  0.57723417383E+03  0.00000000000E+00 0.  1.
         21    1    1    2  505  501  0.36249459929E+02  0.34773838221E+02 -0.82132768005E+02  0.96275826405E+02  0.00000000000E+00 0.  1.
          2    1    1    2  501    0 -0.80188306726E+01  0.52343261126E+02 -0.37262239054E+04  0.37266001546E+04  0.00000000000E+00 0. -1.
<scales pt_clust_3="14000.00000" pt_clust_4="71.93126" pt_clust_5="50.23189" pt_clust_6="53.22967"></scales>
<clustering>
<clus scale="   50.232">  1  5  2 -1</clus>
<clus scale="   53.230">  2  6  1 -1</clus>
<clus scale="   71.931">  2  4  1 -1</clus>
<clus scale="   50.232">  1  3  2 -1</clus>
</clustering>
</event>
<event>
 6    0  0.2433432E+002  0.8661632E+02  0.7546771E-02  0.1311259E+00
         21   -1    0    0  503  502  0.00000000000E+00  0.00000000000E+00  0.25638511728E+03  0.25638511728E+03  0.00000000000E+00 0.  1.
          2   -1    0    0  504    0 -0.00000000000E+00 -0.00000000000E+00 -0.59588180037E+03  0.59588180037E+03  0.00000000000E+00 0. -1.
         21    1    1    2  503  501 -0.31081223089E+02  0.14238671403E+02  0.60842143216E+01  0.34724628953E+02  0.00000000000E+00 0. -1.
         21    1    1    2  504  505 -0.36204688380E+02  0.93530000224E+02  0.11428989581E+03  0.15205532114E+03  0.00000000000E+00 0.  1.
         21    1    1    2  505  502  0.32634901781E+02 -0.71721028583E+02  0.86398343502E+02  0.11693424013E+03  0.00000000000E+00 0.  1.
          2    1    1    2  501    0  0.34651009688E+02 -0.36047643044E+02 -0.54626913671E+03  0.54855272743E+03  0.00000000000E+00 0. -1.
<scales pt_clust_3="34.18746" pt_clust_4="14000.00000" pt_clust_5="86.61632" pt_clust_6="49.84740"></scales>
<clustering>
<clus scale="   34.187">  1  3  2 -1</clus>
<clus scale="   49.847">  2  6  1 -1</clus>
<clus scale="   86.616">  1  5  2 -1</clus>
<clus scale="   34.187">  1  3  2 -1</clus>
</clustering>
</event>
<event>
 6    0  0.2433432E+002  0.1222112E+03  0.7546771E-02  0.1239493E+00
         21   -1    0    0  503  502  0.00000000000E+00  0.00000000000E+00  0.33904366584E+02  0.33904366584E+02  0.00000000000E+00 0. -1.
          2   -1    0    0  504    0 -0.00000000000E+00 -0.00000000000E+00 -0.14592983392E+04  0.14592983392E+04  0.00000000000E+00 0. -1.
         21    1    1    2  503  501 -0.67634264863E+02 -0.15822749586E+02 -0.72903591703E+02  0.10069601219E+03  0.00000000000E+00 0. -1.
         21    1    1    2  504  505 -0.52320040676E+02 -0.10584937673E+03 -0.31336676153E+03  0.33487341555E+03  0.00000000000E+00 0. -1.
         21    1    1    2  505  502  0.43899966918E+02  0.23132057891E+02 -0.11617700122E+03  0.12633049833E+03  0.00000000000E+00 0. -1.
          2    1    1    2  501    0  0.76054338620E+02  0.98540068427E+02 -0.92294661820E+03  0.93130277974E+03  0.00000000000E+00 0. -1.
<scales pt_clust_3="46.70676" pt_clust_4="122.21122" pt_clust_5="49.62156" pt_clust_6="14000.00000"></scales>
<clustering>
<clus scale="   49.622">  1  5  2 -1</clus>
<clus scale="   46.707">  1  3  2 -1</clus>
<clus scale="  122.211">  1  4  2 -1</clus>
<clus scale="   49.622">  1  3  2 -1</clus>
</clustering>
</event>
<event>
 6    0  0.2433432E+002  0.1218428E+03  0.7546771E-02  0.1240088E+00
          2   -1    0    0  503    0 -0.00000000000E+00  0.00000000000E+00  0.29017768487E+04  0.29017768487E+04  0.00000000000E+00 0. -1.
         21   -1    0    0  505  502  0.00000000000E+00 -0.00000000000E+00 -0.36654504050E+02  0.36654504050E+02  0.00000000000E+00 0.  1.
         21    1    1    2  503  504 -0.52052543570E+02 -0.78250266267E+02  0.33350417557E+03  0.34649329948E+03  0.00000000000E+00 0. -1.
         21    1    1    2  504  502  0.10137165395E+02 -0.31770759754E+02  0.37052114710E+02  0.49849799419E+02  0.00000000000E+00 0. -1.
         21    1    1    2  505  501  0.36211377076E+02  0.15380622710E+03  0.24156304218E+03  0.28865259859E+03  0.00000000000E+00 0.  1.
          2    1    1    2  501    0  0.57040010987E+01 -0.43785201083E+02  0.22530030122E+04  0.22534356553E+04  0.00000000000E+00 0. -1.
<scales pt_clust_3="121.84278" pt_clust_4="33.34881" pt_clust_5="14000.00000" pt_clust_6="44.38981"></scales>
<clustering>
<clus scale="   33.349">  2  4  1 -1</clus>
<clus scale="   44.390">  1  6  2 -1</clus>
<clus scale="  121.843">  1  3  2 -1</clus>
<clus scale="   33.349">  2  3  1 -1</clus>
</clustering>
</event>
<event>
 6    0  0.2433432E+002  0.2475935E+03  0.7546771E-02  0.1114835E+00
         21   -1    0    0  505  502  0.00000000000E+00  0.00000000000E+00  0.28808962878E+03  0.28808962878E+03  0.00000000000E+00 0. -1.
         -3   -1    0    0    0  501 -0.00000000000E+00 -0.00000000000E+00 -0.14355657442E+04  0.14355657442E+04  0.00000000000E+00 0.  1.
         21    1    1    2  503  502 -0.74553921362E+02  0.41841673888E+02  0.20336785304E+03  0.22060710894E+03  0.00000000000E+00 0. -1.
         21    1    1    2  504  501  0.26928841633E+03 -0.96510922855E+02 -0.74267199620E+03  0.79585947461E+03  0.00000000000E+00 0.  1.
         21    1    1    2  505  504 -0.21223181186E+03 -0.64332207543E+02 -0.27692223562E+03  0.35477725333E+03  0.00000000000E+00 0.  1.
         -3    1    1    2    0  503  0.17497316897E+02  0.11900145651E+03 -0.33124973661E+03  0.35241153606E+03  0.00000000000E+00 0.  1.
<scales pt_clust_3="85.49276" pt_clust_4="247.59352" pt_clust_5="14000.00000" pt_clust_6="125.02251"></scales>
<clustering>
<clus scale="   85.493">  1  3  2 -1</clus>
<clus scale="  125.023">  2  6  1 -1</clus>
<clus scale="  247.594">  2  4  1 -1</clus>
<clus scale="   85.493">  1  3  2 -1</clus>
</clustering>
</event>
<event>
 6    0  0.2433432E+002  0.9044581E+02  0.7546771E-02  0.1301776E+00
          2   -1    0    0  504    0 -0.00000000000E+00  0.00000000000E+00  0.17790627408E+04  0.17790627408E+04  0.00000000000E+00 0. -1.
         21   -1    0    0  505  502  0.00000000000E+00 -0.00000000000E+00 -0.71456760715E+02  0.71456760715E+02  0.00000000000E+00 0.  1.
         21    1    1    2  503  501  0.73939807028E+02 -0.18590396205E+02  0.82589502293E+02  0.11239983889E+03  0.00000000000E+00 0.  1.
         21    1    1    2  504  502 -0.56637485293E+02  0.17503884837E+02 -0.18377215634E+02  0.62063779930E+02  0.00000000000E+00 0.  1.
         21    1    1    2  505  503  0.23260402035E+02 -0.50517387849E+02  0.33708888095E+02  0.65033390766E+02  0.00000000000E+00 0.  1.
          2    1    1    2  501    0 -0.40562723769E+02  0.51603899217E+02  0.16096848053E+04  0.16110224919E+04  0.00000000000E+00 0. -1.
<scales pt_clust_3="52.18656" pt_clust_4="59.28061" pt_clust_5="52.18656" pt_clust_6="66.68564"></scales>
<clustering>
<clus scale="   52.187">  3  5 -1 -1</clus>
<clus scale="   59.281">  2  4  1 -1</clus>
<clus scale="   66.686">  1  6  2 -1</clus>
<clus scale="   59.281">  2  3  1 -1</clus>
</clustering>
</event>
<event>
 6    0  0.2433432E+002  0.1855108E+03  0.7546771E-02  0.1162574E+00
          2   -1    0    0  502    0 -0.00000000000E+00  0.00000000000E+00  0.11601882411E+04  0.11601882411E+04  0.00000000000E+00 0.  1.
         21   -1    0    0  504  502  0.00000000000E+00 -0.00000000000E+00 -0.63651674483E+03  0.63651674483E+03  0.00000000000E+00 0.  1.
         21    1    1    2  503  505 -0.15913667005E+02  0.68878209239E+02  0.14793409577E+03  0.16395715659E+03  0.00000000000E+00 0.  1.
         21    1    1    2  504  503  0.55863904878E+02 -0.16903704324E+03 -0.60442994511E+03  0.63010305221E+03  0.00000000000E+00 0.  1.
         21    1    1    2  505  501  0.43535631893E+02  0.60292250412E+02  0.15087194429E+03  0.16820478673E+03  0.00000000000E+00 0. -1.
          2    1    1    2  501    0 -0.83485869766E+02  0.39866583589E+02  0.82929540127E+03  0.83443999036E+03  0.00000000000E+00 0.  1.
<scales pt_clust_3="58.48686" pt_clust_4="175.54412" pt_clust_5="58.48686" pt_clust_6="92.51613"></scales>
<clustering>
<clus scale="   58.487">  3  5 -1 -1</clus>
<clus scale="   92.516">  1  6  2 -1</clus>
<clus scale="  175.544">  2  4  1 -1</clus>
<clus scale="  175.544">  2  3  1 -1</clus>
</clustering>
</event>
<event>
 6    0  0.2433432E+002  0.1807587E+03  0.7546771E-02  0.1167071E+00
          1   -1    0    0  505    0 -0.00000000000E+00  0.00000000000E+00  0.21791338294E+04  0.21791338294E+04  0.00000000000E+00 0. -1.
         21   -1    0    0  501  502  0.00000000000E+00 -0.00000000000E+00 -0.40760555347E+02  0.40760555347E+02  0.00000000000E+00 0.  1.
         21    1    1    2  503  502 -0.84502068854E+00 -0.31773960015E+02  0.86744212374E+01  0.32947597466E+02  0.00000000000E+00 0.  1.
         21    1    1    2  504  503  0.66986123809E+02  0.49383086829E+01  0.18891883210E+03  0.20050399696E+03  0.00000000000E+00 0.  1.
         21    1    1    2  505  504  0.97437390082E+02  0.52610933546E+02  0.14207579733E+03  0.18013186143E+03  0.00000000000E+00 0.  1.
          1    1    1    2  501    0 -0.16357849320E+03 -0.25775282214E+02  0.17987042234E+04  0.18063109289E+04  0.00000000000E+00 0. -1.
<scales pt_clust_3="31.78519" pt_clust_4="57.15567" pt_clust_5="57.15567" pt_clust_6="166.41665"></scales>
<clustering>
<clus scale="   31.785">  2  3  1 -1</clus>
<clus scale="   57.156">  4  5 -1 -1</clus>
<clus scale="  166.417">  1  6  2 -1</clus>
<clus scale="   31.785">  2  3  1 -1</clus>
</clustering>
</event>
<event>
 6    0  0.2433432E+002  0.1359093E+03  0.7546771E-02  0.1218942E+00
         21   -1    0    0  501  502  0.00000000000E+00  0.00000000000E+00  0.70728633563E+02  0.70728633563E+02  0.00000000000E+00 0. -1.
          2   -1    0    0  505    0 -0.00000000000E+00 -0.00000000000E+00 -0.24218940390E+04  0.24218940390E+04  0.00000000000E+00 0. -1.
         21    1    1    2  503  502 -0.16745651231E+01 -0.35089105649E+02 -0.31641942488E+02  0.47278557804E+02  0.00000000000E+00 0. -1.
         21    1    1    2  504  503 -0.20935403609E+02 -0.48944265858E+02  0.27684904226E+02  0.60002385008E+02  0.00000000000E+00 0. -1.
         21    1    1    2  505  504  0.11314587157E+03 -0.25026144001E+02 -0.18370320914E+03  0.21719844656E+03  0.00000000000E+00 0. -1.
          2    1    1    2  501    0 -0.90535902839E+02  0.10905951551E+03 -0.21635051580E+04  0.21681432831E+04  0.00000000000E+00 0. -1.
<scales pt_clust_3="35.12904" pt_clust_4="76.65430" pt_clust_5="135.90930" pt_clust_6="14000.00000"></scales>
<clustering>
<clus scale="   35.129">  1  3  2 -1</clus>
<clus scale="   76.654">  1  4  2 -1</clus>
<clus scale="  135.909">  1  5  2 -1</clus>
<clus scale="   35.129">  1  3  2 -1</clus>
</clustering>
</event>
<event>
 6    0  0.4774130E+002  0.9249896E+02  0.7546771E-02  0.1296911E+00
         21   -1    0    0  503  502  0.00000000000E+00  0.00000000000E+00  0.39113874501E+03  0.39113874501E+03  0.00000000000E+00 0. -1.
          2   -1    0    0  504    0 -0.00000000000E+00 -0.00000000000E+00 -0.90735234408E+03  0.90735234408E+03  0.00000000000E+00 0.  1.
         21    1    1    2  503  501  0.59576103695E+02 -0.44579870455E+02  0.32052247110E+03  0.32904609322E+03  0.00000000000E+00 0. -1.
         21    1    1    2  504  505 -0.53260278855E+02 -0.16282371942E+02  0.37232966908E+00  0.55694807381E+02  0.00000000000E+00 0. -1.
         21    1    1    2  505  502 -0.71370464528E+01 -0.32002527303E+02  0.28336670964E+02  0.43336660083E+02  0.00000000000E+00 0.  1.
          2    1    1    2  501    0  0.82122161327E+00  0.92864769701E+02 -0.86544507080E+03  0.87041352841E+03  0.00000000000E+00 0.  1.
<scales pt_clust_3="14000.00000" pt_clust_4="57.01470" pt_clust_5="32.78871" pt_clust_6="92.49896"></scales>
<clustering>
<clus scale="   32.789">  1  5  2 -1</clus>
<clus scale="   57.015">  1  4  2 -1</clus>
<clus scale="   92.499">  2  6  1 -1</clus>
<clus scale="   32.789">  1  3  2 -1</clus>
</clustering>
</event>
<event>
 6    0  0.2433432E+002  0.1254350E+03  0.7546771E-02  0.1234391E+00
          1   -1    0    0  502    0 -0.00000000000E+00  0.00000000000E+00  0.34055382641E+04  0.34055382641E+04  0.00000000000E+00 0. -1.
         21   -1    0    0  503  502  0.00000000000E+00 -0.00000000000E+00 -0.10292041624E+03  0.10292041624E+03  0.00000000000E+00 0.  1.
         21    1    1    2  503  504  0.42777610586E+02 -0.30658047012E+02 -0.91693634562E+02  0.10572399176E+03  0.00000000000E+00 0.  1.
         21    1    1    2  504  505  0.86323821756E+02  0.10703860911E+02  0.90853937197E+03  0.91269390556E+03  0.00000000000E+00 0. -1.
         21    1    1    2  505  501 -0.34946814643E+02 -0.23421508877E+02  0.70843976816E+03  0.70968778491E+03  0.00000000000E+00 0. -1.
          1    1    1    2  501    0 -0.94154617698E+02  0.43375694977E+02  0.17773323423E+04  0.17803529981E+04  0.00000000000E+00 0. -1.
<scales pt_clust_3="52.62927" pt_clust_4="107.51359" pt_clust_5="41.16071" pt_clust_6="41.16071"></scales>
<clustering>
<clus scale="   41.161">  5  6 -1 -1</clus>
<clus scale="   52.629">  2  3  1 -1</clus>
<clus scale="  107.514">  2  4  1 -1</clus>
<clus scale="   52.629">  2  3  1 -1</clus>
</clustering>
</event>
<event>
 6    0  0.2433432E+002  0.1048004E+03  0.7546771E-02  0.1270513E+00
         -4   -1    0    0    0  501 -0.00000000000E+00  0.00000000000E+00  0.29341138288E+03  0.29341138288E+03  0.00000000000E+00 0.  1.
         21   -1    0    0  505  502  0.00000000000E+00 -0.00000000000E+00 -0.27419725963E+03  0.27419725963E+03  0.00000000000E+00 0.  1.
         21    1    1    2  503  502  0.31808960402E+02  0.56836837019E+01 -0.75791138952E+02  0.82391813707E+02  0.00000000000E+00 0.  1.
         21    1    1    2  504  503  0.97594775713E+02 -0.67374744311E+02 -0.45634538069E+02  0.12706930189E+03  0.00000000000E+00 0.  1.
         21    1    1    2  505  501 -0.91465519280E+02  0.54149931079E+02 -0.80697982316E+02  0.13345531313E+03  0.00000000000E+00 0.  1.
         -4    1    1    2    0  504 -0.37938216835E+02  0.75411295296E+01  0.22133778259E+03  0.22469221378E+03  0.00000000000E+00 0.  1.
<scales pt_clust_3="32.31276" pt_clust_4="104.80036" pt_clust_5="14000.00000" pt_clust_6="38.42191"></scales>
<clustering>
<clus scale="   32.313">  2  3  1 -1</clus>
<clus scale="   38.422">  1  6  2 -1</clus>
<clus scale="  104.800">  1  4  2 -1</clus>
<clus scale="   32.313">  2  3  1 -1</clus>
</clustering>
</event>
<event>
 6    0  0.2433432E+002  0.1415737E+03  0.7546771E-02  0.1211227E+00
          1   -1    0    0  504    0 -0.00000000000E+00  0.00000000000E+00  0.60161525308E+03  0.60161525308E+03  0.00000000000E+00 0. -1.
         21   -1    0    0  501  502  0.00000000000E+00 -0.00000000000E+00 -0.13519796372E+03  0.13519796372E+03  0.00000000000E+00 0.  1.
         21    1    1    2  503  505 -0.21486585593E+02  0.49557553319E+02 -0.19356716038E+02  0.57378627617E+02  0.00000000000E+00 0.  1.
         21    1    1    2  504  503 -0.86310263631E+01  0.48135674506E+02  0.19734588206E+02  0.52735109252E+02  0.00000000000E+00 0.  1.
         21    1    1    2  505  502  0.30845892118E+01  0.40914457382E+02 -0.65185815559E+02  0.77024009656E+02  0.00000000000E+00 0.  1.
          1    1    1    2  501    0  0.27033022744E+02 -0.13860768521E+03  0.53122523275E+03  0.54967547028E+03  0.00000000000E+00 0. -1.
<scales pt_clust_3="38.92879" pt_clust_4="38.92879" pt_clust_5="41.03057" pt_clust_6="135.53320"></scales>
<clustering>
<clus scale="   38.929">  3  4 -1 -1</clus>
<clus scale="   41.031">  2  5  1 -1</clus>
<clus scale="  135.533">  1  6  2 -1</clus>
<clus scale="   41.031">  2  3  1 -1</clus>
</clustering>
</event>
<event>
 6    0  0.2433432E+002  0.2131930E+03  0.7546771E-02  0.1139062E+00
         21   -1    0    0  505  502  0.00000000000E+00  0.00000000000E+00  0.58205065073E+02  0.58205065073E+02  0.00000000000E+00 0.  1.
         -2   -1    0    0    0  501 -0.00000000000E+00 -0.00000000000E+00 -0.14565491357E+04  0.14565491357E+04  0.00000000000E+00 0.  1.
         21    1    1    2  503  502 -0.16493596051E+02  0.28232997648E+02 -0.50987777742E+02  0.60571398745E+02  0.00000000000E+00 0. -1.
         21    1    1    2  504  501  0.35108485756E+02 -0.35081523329E+02 -0.61734877512E+02  0.79211830887E+02  0.00000000000E+00 0.  1.
         21    1    1    2  505  504 -0.49401650302E+01 -0.18685742368E+03 -0.20657996613E+03  0.27859537760E+03  0.00000000000E+00 0.  1.
         -2    1    1    2    0  503 -0.13674724675E+02  0.19370594936E+03 -0.10790414492E+04  0.10963755935E+04  0.00000000000E+00 0.  1.
<scales pt_clust_3="32.69772" pt_clust_4="39.34012" pt_clust_5="39.34012" pt_clust_6="198.96018"></scales>
<clustering>
<clus scale="   32.698">  1  3  2 -1</clus>
<clus scale="   39.340">  4  5 -1 -1</clus>
<clus scale="  198.960">  2  6  1 -1</clus>
<clus scale="   32.698">  1  3  2 -1</clus>
</clustering>
</event>
<event>
 6    0  0.2433432E+002  0.9388363E+02  0.7546771E-02  0.1293710E+00
          1   -1    0    0  504    0 -0.00000000000E+00  0.00000000000E+00  0.31735772050E+04  0.31735772050E+04  0.00000000000E+00 0.  1.
         21   -1    0    0  503  502  0.00000000000E+00 -0.00000000000E+00 -0.15000047010E+03  0.15000047010E+03  0.00000000000E+00 0. -1.
         21    1    1    2  503  501 -0.10006500300E+03  0.76069789431E+02  0.41840485420E+03  0.43687783156E+03  0.00000000000E+00 0. -1.
         21    1    1    2  504  505 -0.44453917526E+01 -0.46373721389E+02  0.10632694840E+03  0.11608489781E+03  0.00000000000E+00 0. -1.
         21    1    1    2  505  502  0.93635912449E+02  0.45186425491E+01 -0.11957902620E+03  0.15194487730E+03  0.00000000000E+00 0. -1.
          1    1    1    2  501    0  0.10874482303E+02 -0.34214710591E+02  0.26184239586E+04  0.26186700685E+04  0.00000000000E+00 0.  1.
<scales pt_clust_3="14000.00000" pt_clust_4="53.27722" pt_clust_5="93.88363" pt_clust_6="35.90126"></scales>
<clustering>
<clus scale="   35.901">  1  6  2 -1</clus>
<clus scale="   53.277">  1  4  2 -1</clus>
<clus scale="   93.884">  2  5  1 -1</clus>
<clus scale="   93.884">  2  3  1 -1</clus>
</clustering>
</event>
<event>
 6    0  0.2433432E+002  0.6096259E+02  0.7546771E-02  0.1393836E+00
         -2   -1    0    0    0  501 -0.00000000000E+00  0.00000000000E+00  0.72121719784E+03  0.72121719784E+03  0.00000000000E+00 0.  1.
         21   -1    0    0  504  502  0.00000000000E+00 -0.00000000000E+00 -0.30208673338E+03  0.30208673338E+03  0.00000000000E+00 0. -1.
         21    1    1    2  503  501  0.22741691466E+02 -0.38996831077E+02  0.24154061919E+02  0.51199180384E+02  0.00000000000E+00 0.  1.
         21    1    1    2  504  503  0.30019919476E+02  0.53018861234E+02 -0.27377841387E+03  0.28047605087E+03  0.00000000000E+00 0. -1.
         21    1    1    2  505  502 -0.33048963730E+01 -0.69592128020E+02  0.12757089781E+03  0.14535584127E+03  0.00000000000E+00 0.  1.
         -2    1    1    2    0  505 -0.49456714569E+02  0.55570097864E+02  0.54118391860E+03  0.54627285869E+03  0.00000000000E+00 0.  1.
<scales pt_clust_3="45.14352" pt_clust_4="14000.00000" pt_clust_5="60.96259" pt_clust_6="39.83158"></scales>
<clustering>
<clus scale="   45.144">  1  3  2 -1</clus>
<clus scale="   39.832">  1  6  2 -1</clus>
<clus scale="   60.963">  1  5  2 -1</clus>
<clus scale="   60.963">  2  3  1 -1</clus>
</clustering>
</event>
<event>
 6    0  0.2433432E+002  0.1099165E+03  0.7546771E-02  0.1260725E+00
         21   -1    0    0  505  502  0.00000000000E+00  0.00000000000E+00  0.55592129297E+03  0.55592129297E+03  0.00000000000E+00 0.  1.
          3   -1    0    0  504    0 -0.00000000000E+00 -0.00000000000E+00 -0.15402573409E+03  0.15402573409E+03  0.00000000000E+00 0. -1.
         21    1    1    2  503  502 -0.41837852606E+02  0.77686755119E+01  0.22487798561E+03  0.22886866680E+03  0.00000000000E+00 0.  1.
         21    1    1    2  504  503  0.47852698471E+02  0.11175822514E+03  0.22720730878E+03  0.25768768461E+03  0.00000000000E+00 0.  1.
         21    1    1    2  505  501 -0.28981340857E+02 -0.11202781688E+02  0.59753266131E+02  0.67348891964E+02  0.00000000000E+00 0.  1.
          3    1    1    2  501    0  0.22966494993E+02 -0.10832411896E+03 -0.10994300165E+03  0.15604178368E+03  0.00000000000E+00 0. -1.
<scales pt_clust_3="55.25334" pt_clust_4="14000.00000" pt_clust_5="31.07122" pt_clust_6="109.91655"></scales>
<clustering>
<clus scale="   31.071">  1  5  2 -1</clus>
<clus scale="   55.253">  1  3  2 -1</clus>
<clus scale="  109.917">  2  6  1 -1</clus>
<clus scale="   31.071">  1  3  2 -1</clus>
</clustering>
</event>
<event>
 6    0  0.2433432E+002  0.2153047E+03  0.7546771E-02  0.1137433E+00
         21   -1    0    0  504  502  0.00000000000E+00  0.00000000000E+00  0.11107946409E+03  0.11107946409E+03  0.00000000000E+00 0.  1.
          1   -1    0    0  505    0 -0.00000000000E+00 -0.00000000000E+00 -0.15320183717E+04  0.15320183717E+04  0.00000000000E+00 0.  1.
         21    1    1    2  503  502 -0.73790893752E+02  0.71208519129E+02 -0.87339442376E+02  0.13469939641E+03  0.00000000000E+00 0.  1.
         21    1    1    2  504  501  0.18266307499E+03  0.13045050370E+03 -0.10854366326E+03  0.24932881846E+03  0.00000000000E+00 0.  1.
         21    1    1    2  505  503 -0.78977272425E+02 -0.24042328245E+01 -0.21371545265E+03  0.22785408620E+03  0.00000000000E+00 0.  1.
          1    1    1    2  501    0 -0.29894908813E+02 -0.19925479001E+03 -0.10113403493E+04  0.10312155348E+04  0.00000000000E+00 0.  1.
<scales pt_clust_3="107.32367" pt_clust_4="14000.00000" pt_clust_5="79.01386" pt_clust_6="215.30470"></scales>
<clustering>
<clus scale="   79.014">  2  5  1 -1</clus>
<clus scale="  107.324">  1  3  2 -1</clus>
<clus scale="  215.305">  2  6  1 -1</clus>
<clus scale="  107.324">  1  3  2 -1</clus>
</clustering>
</event>
<event>
 6    0  0.2433432E+002  0.1909822E+03  0.7546771E-02  0.1157578E+00
         21   -1    0    0  501  502  0.00000000000E+00  0.00000000000E+00  0.61407632653E+03  0.61407632653E+03  0.00000000000E+00 0. -1.
          1   -1    0    0  503    0 -0.00000000000E+00 -0.00000000000E+00 -0.54583627595E+03  0.54583627595E+03  0.00000000000E+00 0.  1.
         21    1    1    2  503  505  0.94083365313E+01  0.15465528891E+03  0.64771055310E+02  0.16793470395E+03  0.00000000000E+00 0. -1.
         21    1    1    2  504  502  0.29553123188E+02 -0.12304590780E+02  0.38933669355E+02  0.50404569772E+02  0.00000000000E+00 0. -1.
         21    1    1    2  505  504  0.17860033413E+02 -0.20168007126E+03  0.42662844010E+03  0.47223474865E+03  0.00000000000E+00 0. -1.
          1    1    1    2  501    0 -0.56821493133E+02  0.59329373130E+02 -0.46209311418E+03  0.46933858010E+03  0.00000000000E+00 0.  1.
<scales pt_clust_3="14000.00000" pt_clust_4="32.01234" pt_clust_5="190.98223" pt_clust_6="81.96366"></scales>
<clustering>
<clus scale="   32.012">  1  4  2 -1</clus>
<clus scale="   81.964">  2  6  1 -1</clus>
<clus scale="  190.982">  1  5  2 -1</clus>
<clus scale="   32.012">  1  3  2 -1</clus>
</clustering>
</event>
<event>
 6    0  0.2433432E+002  0.1963668E+03  0.7546771E-02  0.1152841E+00
          2   -1    0    0  503    0 -0.00000000000E+00  0.00000000000E+00  0.62775246618E+03  0.62775246618E+03  0.00000000000E+00 0. -1.
         21   -1    0    0  504  502  0.00000000000E+00 -0.00000000000E+00 -0.52515863186E+03  0.52515863186E+03  0.00000000000E+00 0.  1.
         21    1    1    2  503  505 -0.49491757466E+02  0.32927161324E+02  0.41100957339E+02  0.72269777252E+02  0.00000000000E+00 0. -1.
         21    1    1    2  504  501  0.13511237342E+03 -0.19442707749E+03 -0.14083696893E+03  0.27548555993E+03  0.00000000000E+00 0. -1.
         21    1    1    2  505  502 -0.12473931061E+03  0.13084337674E+03 -0.27289443891E+03  0.32733967012E+03  0.00000000000E+00 0.  1.
          2    1    1    2  501    0  0.39118694651E+02  0.30656539424E+02  0.47522428483E+03  0.47781609074E+03  0.00000000000E+00 0. -1.
<scales pt_clust_3="56.44488" pt_clust_4="196.36676" pt_clust_5="14000.00000" pt_clust_6="49.70006"></scales>
<clustering>
<clus scale="   49.700">  1  6  2 -1</clus>
<clus scale="   56.445">  1  3  2 -1</clus>
<clus scale="  196.367">  1  4  2 -1</clus>
<clus scale="  196.367">  2  3  1 -1</clus>
</clustering>
</event>
<event>
 6    0  0.2433432E+002  0.3408383E+03  0.7546771E-02  0.1066439E+00
          2   -1    0    0  504    0 -0.00000000000E+00  0.00000000000E+00  0.27096035236E+04  0.27096035236E+04  0.00000000000E+00 0. -1.
         21   -1    0    0  503  502  0.00000000000E+00 -0.00000000000E+00 -0.13595745998E+03  0.13595745998E+03  0.00000000000E+00 0.  1.
         21    1    1    2  503  501 -0.86243700193E+02 -0.50679560539E+02  0.12602689935E+03  0.16090112815E+03  0.00000000000E+00 0.  1.
         21    1    1    2  504  505  0.80428628391E+02  0.30869454905E+03  0.33188802992E+03  0.46033765138E+03  0.00000000000E+00 0.  1.
         21    1    1    2  505  502 -0.10438295354E+03  0.80640518315E+02  0.72956338663E+02  0.15073593312E+03  0.00000000000E+00 0.  1.
          2    1    1    2  501    0  0.11019802534E+03 -0.33865550682E+03  0.20427747957E+04  0.20735862709E+04  0.00000000000E+00 0. -1.
<scales pt_clust_3="100.03196" pt_clust_4="14000.00000" pt_clust_5="147.31569" pt_clust_6="340.83834"></scales>
<clustering>
<clus scale="  100.032">  2  3  1 -1</clus>
<clus scale="  147.316">  2  5  1 -1</clus>
<clus scale="  340.838">  1  6  2 -1</clus>
<clus scale="  100.032">  2  3  1 -1</clus>
</clustering>
</event>
<event>
 6    0  0.2433432E+002  0.1257965E+03  0.7546771E-02  0.1233830E+00
         -4   -1    0    0    0  501 -0.00000000000E+00  0.00000000000E+00  0.84430554409E+02  0.84430554409E+02  0.00000000000E+00 0.  1.
         21   -1    0    0  505  502  0.00000000000E+00 -0.00000000000E+00 -0.25985087569E+04  0.25985087569E+04  0.00000000000E+00 0. -1.
         21    1    1    2  503  502 -0.10774241326E+03 -0.84066275852E+02 -0.13134575791E+04  0.13205477570E+04  0.00000000000E+00 0. -1.
         21    1    1    2  504  501  0.55322512639E+02  0.48325978126E+02 -0.73139926373E+03  0.73507881452E+03  0.00000000000E+00 0. -1.
         21    1    1    2  505  504  0.38767212037E+02 -0.43540556123E+01 -0.54184121796E+03  0.54324373905E+03  0.00000000000E+00 0. -1.
         -4    1    1    2    0  503  0.13652688587E+02  0.40094353338E+02  0.72619858289E+02  0.84069000786E+02  0.00000000000E+00 0.  1.
<scales pt_clust_3="116.80732" pt_clust_4="34.03186" pt_clust_5="34.03186" pt_clust_6="42.35508"></scales>
<clustering>
<clus scale="   34.032">  4  5 -1 -1</clus>
<clus scale="   42.355">  1  6  2 -1</clus>
<clus scale="  116.807">  1  3  2 -1</clus>
<clus scale="  125.797">  2  3  1 -1</clus>
</clustering>
</event>
<event>
 6    0  0.2433432E+002  0.8032342E+02  0.7546771E-02  0.1328136E+00
         21   -1    0    0  503  502  0.00000000000E+00  0.00000000000E+00  0.27719034183E+02  0.27719034183E+02  0.00000000000E+00 0. -1.
         -2   -1    0    0    0  501 -0.00000000000E+00 -0.00000000000E+00 -0.86475138994E+03  0.86475138994E+03  0.00000000000E+00 0. -1.
         21    1    1    2  503  504 -0.44824865589E+01 -0.41367901410E+02 -0.23522611375E+02  0.47798631766E+02  0.00000000000E+00 0. -1.
         21    1    1    2  504  501 -0.69299063420E+02 -0.40321567897E+02 -0.23334133028E+03  0.24673136291E+03  0.00000000000E+00 0. -1.
         21    1    1    2  505  502  0.23747422197E+02  0.90496310282E+02 -0.35621000890E+03  0.36829212953E+03  0.00000000000E+00 0. -1.
         -2    1    1    2    0  505  0.50034127782E+02 -0.88068409752E+01 -0.22395840521E+03  0.22964829992E+03  0.00000000000E+00 0. -1.
<scales pt_clust_3="41.61005" pt_clust_4="14000.00000" pt_clust_5="80.32342" pt_clust_6="51.86366"></scales>
<clustering>
<clus scale="   41.610">  1  3  2 -1</clus>
<clus scale="   51.864">  2  6  1 -1</clus>
<clus scale="   80.323">  1  5  2 -1</clus>
<clus scale="   41.610">  1  3  2 -1</clus>
</clustering>
</event>
<event>
 6    0  0.2433432E+002  0.7932556E+02  0.7546771E-02  0.1330976E+00
          1   -1    0    0  505    0 -0.00000000000E+00  0.00000000000E+00  0.34771219408E+03  0.34771219408E+03  0.00000000000E+00 0.  1.
         21   -1    0    0  504  502  0.00000000000E+00 -0.00000000000E+00 -0.24073495754E+03  0.24073495754E+03  0.00000000000E+00 0.  1.
         21    1    1    2  503  502 -0.30679775947E+02  0.69429183497E+02 -0.16722764173E+03  0.18364842589E+03  0.00000000000E+00 0.  1.
         21    1    1    2  504  501  0.10010437860E+03 -0.87471720911E+02  0.59152363848E+02  0.14550323269E+03  0.00000000000E+00 0.  1.
         21    1    1    2  505  503 -0.42024571573E+02  0.35820972574E+02  0.15873056303E+02  0.57455727377E+02  0.00000000000E+00 0.  1.
          1    1    1    2  501    0 -0.27400031081E+02 -0.17778435161E+02  0.19917945813E+03  0.20183976566E+03  0.00000000000E+00 0.  1.
<scales pt_clust_3="79.32556" pt_clust_4="14000.00000" pt_clust_5="58.06682" pt_clust_6="32.66243"></scales>
<clustering>
<clus scale="   32.662">  1  6  2 -1</clus>
<clus scale="   58.067">  1  5  2 -1</clus>
<clus scale="   79.326">  2  3  1 -1</clus>
<clus scale="   79.326">  2  3  1 -1</clus>
</clustering>
</event>
<event>
 6    0  0.2433432E+002  0.1440184E+03  0.7546771E-02  0.1208022E+00
          2   -1    0    0  504    0 -0.00000000000E+00  0.00000000000E+00  0.24074244416E+04  0.24074244416E+04  0.00000000000E+00 0.  1.
         21   -1    0    0  501  502  0.00000000000E+00 -0.00000000000E+00 -0.69090585439E+02  0.69090585439E+02  0.00000000000E+00 0.  1.
         21    1    1    2  503  502  0.30275332752E+02  0.18713134824E+02  0.26386603814E+02  0.44306094942E+02  0.00000000000E+00 0.  1.
         21    1    1    2  504  505 -0.92018059006E+02 -0.11649504365E+03  0.97971834337E+02  0.17786764378E+03  0.00000000000E+00 0.  1.
         21    1    1    2  505  503 -0.83085653822E+02  0.77344298460E+02  0.16571449220E+03  0.20086477865E+03  0.00000000000E+00 0.  1.
          2    1    1    2  501    0  0.14482838008E+03  0.20437610369E+02  0.20482609258E+04  0.20534765097E+04  0.00000000000E+00 0.  1.
<scales pt_clust_3="35.59181" pt_clust_4="14000.00000" pt_clust_5="111.21699" pt_clust_6="144.01840"></scales>
<clustering>
<clus scale="   35.592">  2  3  1 -1</clus>
<clus scale="  111.217">  2  5  1 -1</clus>
<clus scale="  144.018">  1  6  2 -1</clus>
<clus scale="   35.592">  2  3  1 -1</clus>
</clustering>
</event>
<event>
 6    0  0.2433432E+002  0.1165374E+03  0.7546771E-02  0.1248921E+00
         21   -1    0    0  505  502  0.00000000000E+00  0.00000000000E+00  0.53572082807E+03  0.53572082807E+03  0.00000000000E+00 0.  1.
          1   -1    0    0  504    0 -0.00000000000E+00 -0.00000000000E+00 -0.37596180839E+04  0.37596180839E+04  0.00000000000E+00 0. -1.
         21    1    1    2  503  502 -0.49110852748E+02 -0.59920258067E+02  0.17732192280E+03  0.19350808120E+03  0.00000000000E+00 0.  1.
         21    1    1    2  504  503 -0.32070681015E+02 -0.92191305102E+02  0.32087446312E+03  0.33539258548E+03  0.00000000000E+00 0.  1.
         21    1    1    2  505  501  0.56910884203E+02  0.46449583974E+02 -0.41744581701E+02  0.84492737519E+02  0.00000000000E+00 0. -1.
          1    1    1    2  501    0  0.24270649560E+02  0.10566197920E+03 -0.36803490601E+04  0.36819455078E+04  0.00000000000E+00 0. -1.
<scales pt_clust_3="37.88087" pt_clust_4="37.88087" pt_clust_5="73.46028" pt_clust_6="108.50370"></scales>
<clustering>
<clus scale="   37.881">  3  4 -1 -1</clus>
<clus scale="   73.460">  1  5  2 -1</clus>
<clus scale="  108.504">  2  6  1 -1</clus>
<clus scale="   73.460">  1  3  2 -1</clus>
</clustering>
</event>
<event>
 6    0  0.2433432E+002  0.8584737E+02  0.7546771E-02  0.1313231E+00
          1   -1    0    0  504    0 -0.00000000000E+00  0.00000000000E+00  0.13514231912E+04  0.13514231912E+04  0.00000000000E+00 0. -1.
         21   -1    0    0  503  502  0.00000000000E+00 -0.00000000000E+00 -0.31927325552E+03  0.31927325552E+03  0.00000000000E+00 0. -1.
         21    1    1    2  503  501  0.20944929698E+02 -0.78782811606E+02  0.89070659166E+03  0.89442923360E+03  0.00000000000E+00 0. -1.
         21    1    1    2  504  505 -0.48295136796E+02  0.30455979830E+02  0.49525859918E+02  0.75583051978E+02  0.00000000000E+00 0.  1.
         21    1    1    2  505  502  0.50800389489E+02  0.69495045648E+02 -0.29764483715E+03  0.30984300867E+03  0.00000000000E+00 0. -1.
          1    1    1    2  501    0 -0.23450182391E+02 -0.21168213872E+02  0.38956232120E+03  0.39084115243E+03  0.00000000000E+00 0. -1.
<scales pt_clust_3="85.84737" pt_clust_4="57.68629" pt_clust_5="14000.00000" pt_clust_6="31.59121"></scales>
<clustering>
<clus scale="   31.591">  1  6  2 -1</clus>
<clus scale="   57.686">  1  4  2 -1</clus>
<clus scale="   85.847">  1  3  2 -1</clus>
<clus scale="   85.847">  2  3  1 -1</clus>
</clustering>
</event>
<event>
 6    0  0.2433432E+002  0.1178548E+03  0.7546771E-02  0.1246679E+00
          2   -1    0    0  504    0 -0.00000000000E+00  0.00000000000E+00  0.76444869587E+03  0.76444869587E+03  0.00000000000E+00 0. -1.
         21   -1    0    0  503  502  0.00000000000E+00 -0.00000000000E+00 -0.76533528449E+02  0.76533528449E+02  0.00000000000E+00 0.  1.
         21    1    1    2  503  501  0.34636813397E+02  0.11254223981E+02 -0.46990939135E+02  0.59451785175E+02  0.00000000000E+00 0.  1.
         21    1    1    2  504  505 -0.51230021393E+02  0.53850217419E+02  0.13270954803E+03  0.15210583535E+03  0.00000000000E+00 0.  1.
         21    1    1    2  505  502  0.50161323683E+01  0.40036574996E+02  0.38095412546E+02  0.55491885699E+02  0.00000000000E+00 0. -1.
          2    1    1    2  501    0  0.11577075628E+02 -0.10514101640E+03  0.56410114598E+03  0.57393271810E+03  0.00000000000E+00 0. -1.
<scales pt_clust_3="36.41931" pt_clust_4="45.29476" pt_clust_5="45.29476" pt_clust_6="104.48790"></scales>
<clustering>
<clus scale="   36.419">  2  3  1 -1</clus>
<clus scale="   45.295">  4  5 -1 -1</clus>
<clus scale="  104.488">  1  6  2 -1</clus>
<clus scale="   36.419">  2  3  1 -1</clus>
</clustering>
</event>
<event>
 6    0  0.2433432E+002  0.1939967E+03  0.7546771E-02  0.1154905E+00
          2   -1    0    0  504    0 -0.00000000000E+00  0.00000000000E+00  0.61463210997E+03  0.61463210997E+03  0.00000000000E+00 0.  1.
         21   -1    0    0  503  502  0.00000000000E+00 -0.00000000000E+00 -0.19811572327E+03  0.19811572327E+03  0.00000000000E+00 0.  1.
         21    1    1    2  503  505 -0.32154201832E+02  0.19793027624E+02 -0.26432461473E+02  0.46090472524E+02  0.00000000000E+00 0. -1.
         21    1    1    2  504  502 -0.37164095708E+02 -0.82897909357E+02  0.15461498307E+02  0.92153628879E+02  0.00000000000E+00 0.  1.
         21    1    1    2  505  501 -0.92258364717E+02 -0.42898231806E+02 -0.81310924387E+02  0.13024335137E+03  0.00000000000E+00 0.  1.
          2    1    1    2  501    0  0.16157666226E+03  0.10600311354E+03  0.50879827425E+03  0.54426038047E+03  0.00000000000E+00 0.  1.
<scales pt_clust_3="35.89874" pt_clust_4="90.84731" pt_clust_5="35.89874" pt_clust_6="184.82983"></scales>
<clustering>
<clus scale="   35.899">  3  5 -1 -1</clus>
<clus scale="   90.847">  2  4  1 -1</clus>
<clus scale="  184.830">  1  6  2 -1</clus>
<clus scale="   90.847">  2  3  1 -1</clus>
</clustering>
</event>
<event>
 6    0  0.2433432E+002  0.1424150E+03  0.7546771E-02  0.1210116E+00
          2   -1    0    0  505    0 -0.00000000000E+00  0.00000000000E+00  0.77189629280E+03  0.77189629280E+03  0.00000000000E+00 0. -1.
         21   -1    0    0  504  502  0.00000000000E+00 -0.00000000000E+00 -0.13673492495E+03  0.13673492495E+03  0.00000000000E+00 0. -1.
         21    1    1    2  503  501 -0.90320487609E+02 -0.87323820363E+02  0.74466020201E+01  0.12585186517E+03  0.00000000000E+00 0. -1.
         21    1    1    2  504  503 -0.75344266155E+02  0.61892165433E+02 -0.20018720674E+02  0.99539679334E+02  0.00000000000E+00 0. -1.
         21    1    1    2  505  502  0.13473009226E+03  0.25309907662E+02  0.25693557804E+03  0.29121929958E+03  0.00000000000E+00 0. -1.
          2    1    1    2  501    0  0.30934661505E+02  0.12174726834E+00  0.39079790846E+03  0.39202037366E+03  0.00000000000E+00 0. -1.
<scales pt_clust_3="14000.00000" pt_clust_4="95.03842" pt_clust_5="142.41500" pt_clust_6="30.93490"></scales>
<clustering>
<clus scale="   30.935">  1  6  2 -1</clus>
<clus scale="   95.038">  2  4  1 -1</clus>
<clus scale="  142.415">  1  5  2 -1</clus>
<clus scale="   95.038">  2  3  1 -1</clus>
</clustering>
</event>
<event>
 6    0  0.2433432E+002  0.6392986E+02  0.7546771E-02  0.1382043E+00
          1   -1    0    0  503    0 -0.00000000000E+00  0.00000000000E+00  0.23201921491E+04  0.23201921491E+04  0.00000000000E+00 0. -1.
         21   -1    0    0  504  502  0.00000000000E+00 -0.00000000000E+00 -0.31297005092E+04  0.31297005092E+04  0.00000000000E+00 0.  1.
         21    1    1    2  503  502 -0.32657052403E+02  0.12455838928E+02 -0.50469782779E+03  0.50590663997E+03  0.00000000000E+00 0. -1.
         21    1    1    2  504  505  0.76333990065E+02  0.31970261766E+02 -0.25211775459E+04  0.25225354692E+04  0.00000000000E+00 0.  1.
         21    1    1    2  505  501 -0.85046624170E+02 -0.31635111777E+02 -0.82223814511E+02  0.12245188546E+03  0.00000000000E+00 0.  1.
          1    1    1    2  501    0  0.41369686508E+02 -0.12790988916E+02  0.22985908281E+04  0.22989986636E+04  0.00000000000E+00 0. -1.
<scales pt_clust_3="34.95184" pt_clust_4="63.92986" pt_clust_5="14000.00000" pt_clust_6="43.29926"></scales>
<clustering>
<clus scale="   34.952">  2  3  1 -1</clus>
<clus scale="   43.299">  1  6  2 -1</clus>
<clus scale="   63.930">  2  4  1 -1</clus>
<clus scale="   34.952">  2  3  1 -1</clus>
</clustering>
</event>
<event>
 6    0  0.2433432E+002  0.1481824E+03  0.7546771E-02  0.1202724E+00
         21   -1    0    0  501  502  0.00000000000E+00  0.00000000000E+00  0.30861389274E+02  0.30861389274E+02  0.00000000000E+00 0. -1.
          2   -1    0    0  505    0 -0.00000000000E+00 -0.00000000000E+00 -0.23939531836E+04  0.23939531836E+04  0.00000000000E+00 0. -1.
         21    1    1    2  503  504 -0.27576345031E+02 -0.26077802295E+02 -0.61923379337E+02  0.72629274307E+02  0.00000000000E+00 0.  1.
         21    1    1    2  504  502 -0.11102404201E+03  0.15118854955E+02 -0.11800022321E+03  0.16272360110E+03  0.00000000000E+00 0. -1.
         21    1    1    2  505  503  0.41111238641E+02 -0.10041311922E+02 -0.23760680855E+03  0.24134613599E+03  0.00000000000E+00 0.  1.
          2    1    1    2  501    0  0.97489148396E+02  0.21000259262E+02 -0.19455613832E+04  0.19481155614E+04  0.00000000000E+00 0. -1.
<scales pt_clust_3="35.34589" pt_clust_4="35.34589" pt_clust_5="42.31976" pt_clust_6="135.16550"></scales>
<clustering>
<clus scale="   35.346">  3  4 -1 -1</clus>
<clus scale="   42.320">  2  5  1 -1</clus>
<clus scale="  135.166">  2  6  1 -1</clus>
<clus scale="  148.182">  1  3  2 -1</clus>
</clustering>
</event>
<event>
 6    0  0.2433432E+002  0.1350067E+03  0.7546771E-02  0.1220210E+00
         21   -1    0    0  504  502  0.00000000000E+00  0.00000000000E+00  0.25657274356E+03  0.25657274356E+03  0.00000000000E+00 0. -1.
          1   -1    0    0  503    0 -0.00000000000E+00 -0.00000000000E+00 -0.99529023673E+03  0.99529023673E+03  0.00000000000E+00 0. -1.
         21    1    1    2  503  502 -0.56100027978E+02 -0.80236935884E+01 -0.26668493050E+02  0.62632270592E+02  0.00000000000E+00 0.  1.
         21    1    1    2  504  505 -0.29834886955E+02 -0.30100495780E+02  0.13890989322E+03  0.14523125958E+03  0.00000000000E+00 0. -1.
         21    1    1    2  505  501 -0.12920221285E+02 -0.60628838657E+02  0.80789549362E+02  0.10183191779E+03  0.00000000000E+00 0. -1.
          1    1    1    2  501    0  0.98855136218E+02  0.98753028026E+02 -0.93174844270E+03  0.94216753232E+03  0.00000000000E+00 0. -1.
<scales pt_clust_3="62.10837" pt_clust_4="42.38113" pt_clust_5="135.00672" pt_clust_6="14000.00000"></scales>
<clustering>
<clus scale="   42.381">  1  4  2 -1</clus>
<clus scale="   62.108">  1  3  2 -1</clus>
<clus scale="  135.007">  1  5  2 -1</clus>
<clus scale="   42.381">  1  3  2 -1</clus>
</clustering>
</event>
<event>
 6    0  0.2433432E+002  0.1076385E+03  0.7546771E-02  0.1265007E+00
         21   -1    0    0  505  502  0.00000000000E+00  0.00000000000E+00  0.20501992394E+03  0.20501992394E+03  0.00000000000E+00 0.  1.
          2   -1    0    0  504    0 -0.00000000000E+00 -0.00000000000E+00 -0.43777080223E+03  0.43777080223E+03  0.00000000000E+00 0. -1.
         21    1    1    2  503  501 -0.31660624434E+02 -0.39846102037E+02  0.20994757585E+02  0.55053490653E+02  0.00000000000E+00 0.  1.
         21    1    1    2  504  502  0.88585597796E+02 -0.14827544211E+02  0.47962198205E+02  0.10182159231E+03  0.00000000000E+00 0.  1.
         21    1    1    2  505  503 -0.10220905023E+03 -0.30549960704E+02  0.52428873721E+02  0.11886453150E+03  0.00000000000E+00 0.  1.
          2    1    1    2  501    0  0.45284076870E+02  0.85223606952E+02 -0.35413670779E+03  0.36705111171E+03  0.00000000000E+00 0. -1.
<scales pt_clust_3="30.73261" pt_clust_4="89.81795" pt_clust_5="30.73261" pt_clust_6="98.01165"></scales>
<clustering>
<clus scale="   30.733">  3  5 -1 -1</clus>
<clus scale="   89.818">  1  4  2 -1</clus>
<clus scale="   98.012">  2  6  1 -1</clus>
<clus scale="   89.818">  1  3  2 -1</clus>
</clustering>
</event>
<event>
 6    0  0.2433432E+002  0.1514557E+03  0.7546771E-02  0.1198696E+00
         21   -1    0    0  504  502  0.00000000000E+00  0.00000000000E+00  0.23466163215E+02  0.23466163215E+02  0.00000000000E+00 0.  1.
          2   -1    0    0  505    0 -0.00000000000E+00 -0.00000000000E+00 -0.33687174870E+04  0.33687174870E+04  0.00000000000E+00 0.  1.
         21    1    1    2  503  502  0.50443634215E+01 -0.67612616322E+02 -0.15420298528E+03  0.16845020676E+03  0.00000000000E+00 0.  1.
         21    1    1    2  504  501  0.42283433146E+02  0.18069836810E+02 -0.48310355411E+02  0.66695563278E+02  0.00000000000E+00 0.  1.
         21    1    1    2  505  503  0.45303238692E+02 -0.61566250440E+02 -0.26867590250E+03  0.27933765806E+03  0.00000000000E+00 0.  1.
          2    1    1    2  501    0 -0.92631035260E+02  0.11110902995E+03 -0.28740620806E+04  0.28777002221E+04  0.00000000000E+00 0.  1.
<scales pt_clust_3="43.89936" pt_clust_4="45.98269" pt_clust_5="43.89936" pt_clust_6="143.08557"></scales>
<clustering>
<clus scale="   45.983">  1  4  2 -1</clus>
<clus scale="   43.899">  3  5 -1 -1</clus>
<clus scale="  143.086">  2  6  1 -1</clus>
<clus scale="   45.983">  1  3  2 -1</clus>
</clustering>
</event>
<event>
 6    0  0.2433432E+002  0.1018734E+03  0.7546771E-02  0.1276405E+00
          4   -1    0    0  503    0 -0.00000000000E+00  0.00000000000E+00  0.16085659622E+04  0.16085659622E+04  0.00000000000E+00 0. -1.
         21   -1    0    0  505  502  0.00000000000E+00 -0.00000000000E+00 -0.29936720038E+02  0.29936720038E+02  0.00000000000E+00 0.  1.
         21    1    1    2  503  502 -0.59908836781E+02 -0.91327516890E+02  0.10348221645E+03  0.15046047051E+03  0.00000000000E+00 0.  1.
         21    1    1    2  504  501  0.36208102210E+02  0.62681518382E+02  0.50812989011E+03  0.51326015298E+03  0.00000000000E+00 0. -1.
         21    1    1    2  505  504 -0.26442423281E+02  0.14635432322E+02  0.69880050120E+02  0.76135530687E+02  0.00000000000E+00 0.  1.
          4    1    1    2  501    0  0.50143157853E+02  0.14010566186E+02  0.89713708546E+03  0.89864652804E+03  0.00000000000E+00 0. -1.
<scales pt_clust_3="101.87335" pt_clust_4="14000.00000" pt_clust_5="30.22247" pt_clust_6="51.46113"></scales>
<clustering>
<clus scale="   30.222">  2  5  1 -1</clus>
<clus scale="   51.461">  1  6  2 -1</clus>
<clus scale="  101.873">  2  3  1 -1</clus>
<clus scale="   30.222">  2  3  1 -1</clus>
</clustering>
</event>
<event>
 6    0  0.2433432E+002  0.9566232E+02  0.7546771E-02  0.1289691E+00
         -2   -1    0    0    0  501 -0.00000000000E+00  0.00000000000E+00  0.19197863865E+03  0.19197863865E+03  0.00000000000E+00 0.  1.
         21   -1    0    0  505  502  0.00000000000E+00 -0.00000000000E+00 -0.51606665814E+03  0.51606665814E+03  0.00000000000E+00 0. -1.
         21    1    1    2  503  504  0.65535243520E+02  0.11687689030E+02 -0.10705026908E+03  0.12606042332E+03  0.00000000000E+00 0. -1.
         21    1    1    2  504  502  0.43760001714E+02  0.38917733110E+01 -0.27274473395E+03  0.27626033654E+03  0.00000000000E+00 0. -1.
         21    1    1    2  505  501 -0.12386930399E+02 -0.39528325862E+02 -0.10705476804E+03  0.11478958119E+03  0.00000000000E+00 0. -1.
         -2    1    1    2    0  503 -0.96908314835E+02  0.23948863521E+02  0.16276175157E+03  0.19093495574E+03  0.00000000000E+00 0.  1.
<scales pt_clust_3="14000.00000" pt_clust_4="42.12856" pt_clust_5="41.42372" pt_clust_6="95.66232"></scales>
<clustering>
<clus scale="   41.424">  2  5  1 -1</clus>
<clus scale="   42.129">  2  4  1 -1</clus>
<clus scale="   95.662">  1  6  2 -1</clus>
<clus scale="   41.424">  2  3  1 -1</clus>
</clustering>
</event>
<event>
 6    0  0.2433432E+002  0.1033032E+03  0.7546771E-02  0.1273499E+00
          2   -1    0    0  504    0 -0.00000000000E+00  0.00000000000E+00  0.26740333070E+04  0.26740333070E+04  0.00000000000E+00 0. -1.
         21   -1    0    0  501  502  0.00000000000E+00 -0.00000000000E+00 -0.29010540328E+03  0.29010540328E+03  0.00000000000E+00 0.  1.
         21    1    1    2  503  505  0.54939446238E+02  0.72862662758E+01  0.43273842567E+02  0.70313994906E+02  0.00000000000E+00 0.  1.
         21    1    1    2  504  503  0.11206356961E+03  0.27232035283E+02  0.87737112266E+01  0.11565814018E+03  0.00000000000E+00 0.  1.
         21    1    1    2  505  502 -0.79140621620E+02 -0.34493315876E+02 -0.21400676466E+03  0.23076377998E+03  0.00000000000E+00 0.  1.
          2    1    1    2  501    0 -0.87862394230E+02 -0.24985682658E-01  0.25458871146E+04  0.25474027952E+04  0.00000000000E+00 0. -1.
<scales pt_clust_3="36.65031" pt_clust_4="36.65031" pt_clust_5="86.33091" pt_clust_6="88.74899"></scales>
<clustering>
<clus scale="   36.650">  3  4 -1 -1</clus>
<clus scale="   86.331">  2  5  1 -1</clus>
<clus scale="   88.749">  1  6  2 -1</clus>
<clus scale="   86.331">  2  3  1 -1</clus>
</clustering>
</event>
<event>
 6    0  0.2433432E+002  0.8109349E+02  0.7546771E-02  0.1325977E+00
         21   -1    0    0  504  502  0.00000000000E+00  0.00000000000E+00  0.15963762479E+03  0.15963762479E+03  0.00000000000E+00 0.  1.
          2   -1    0    0  505    0 -0.00000000000E+00 -0.00000000000E+00 -0.14056251568E+03  0.14056251568E+03  0.00000000000E+00 0.  1.
         21    1    1    2  503  502  0.43739535021E+02  0.62329711476E+02  0.64809681175E+02  0.99992172846E+02  0.00000000000E+00 0.  1.
         21    1    1    2  504  501  0.61247769207E+01  0.45102766469E+02 -0.31256247778E+02  0.55215264743E+02  0.00000000000E+00 0.  1.
         21    1    1    2  505  503 -0.19276579934E+02 -0.96174130824E+02  0.17150770909E+02  0.99575091848E+02  0.00000000000E+00 0.  1.
          2    1    1    2  501    0 -0.30587732007E+02 -0.11258347121E+02 -0.31629095194E+02  0.45417611034E+02  0.00000000000E+00 0.  1.
<scales pt_clust_3="81.09349" pt_clust_4="40.90759" pt_clust_5="14000.00000" pt_clust_6="32.59386"></scales>
<clustering>
<clus scale="   32.594">  2  6  1 -1</clus>
<clus scale="   40.908">  2  4  1 -1</clus>
<clus scale="   81.093">  1  3  2 -1</clus>
<clus scale="   81.093">  1  3  2 -1</clus>
</clustering>
</event>
<event>
 6    0  0.2433432E+002  0.8144988E+02  0.7546771E-02  0.1324987E+00
          2   -1    0    0  504    0 -0.00000000000E+00  0.00000000000E+00  0.63906123833E+03  0.63906123833E+03  0.00000000000E+00 0.  1.
         21   -1    0    0  503  502  0.00000000000E+00 -0.00000000000E+00 -0.15612729877E+03  0.15612729877E+03  0.00000000000E+00 0.  1.
         21    1    1    2  503  505  0.51099856952E+02 -0.23617037915E+02  0.24045781014E+02  0.61214046141E+02  0.00000000000E+00 0.  1.
         21    1    1    2  504  502  0.20151506529E+02 -0.88426216705E+02 -0.76840561754E+02  0.11886862894E+03  0.00000000000E+00 0.  1.
         21    1    1    2  505  501 -0.75472749866E+02  0.30891731604E+02  0.88858452242E+01  0.82032879379E+02  0.00000000000E+00 0.  1.
          2    1    1    2  501    0  0.42213863852E+01  0.81151523016E+02  0.52684287508E+03  0.53307298263E+03  0.00000000000E+00 0.  1.
<scales pt_clust_3="56.29352" pt_clust_4="14000.00000" pt_clust_5="66.59952" pt_clust_6="81.44988"></scales>
<clustering>
<clus scale="   56.294">  2  3  1 -1</clus>
<clus scale="   66.600">  2  5  1 -1</clus>
<clus scale="   81.450">  1  6  2 -1</clus>
<clus scale="   56.294">  2  3  1 -1</clus>
</clustering>
</event>
<event>
 6    0  0.2433432E+002  0.1755306E+03  0.7546771E-02  0.1172200E+00
         21   -1    0    0  504  502  0.00000000000E+00  0.00000000000E+00  0.25005892573E+03  0.25005892573E+03  0.00000000000E+00 0.  1.
          3   -1    0    0  505    0 -0.00000000000E+00 -0.00000000000E+00 -0.42503072033E+03  0.42503072033E+03  0.00000000000E+00 0.  1.
         21    1    1    2  503  502  0.31442911375E+02 -0.26303720210E+02  0.88727940873E+02  0.97740420830E+02  0.00000000000E+00 0. -1.
         21    1    1    2  504  501 -0.29142173675E+02 -0.24407054629E+02  0.31130256229E+02  0.49133119737E+02  0.00000000000E+00 0.  1.
         21    1    1    2  505  503  0.46635327336E+02 -0.12835815556E+03  0.42630719806E+02  0.14306658634E+03  0.00000000000E+00 0.  1.
          3    1    1    2  501    0 -0.48936065035E+02  0.17906893040E+03 -0.33746071150E+03  0.38514951915E+03  0.00000000000E+00 0.  1.
<scales pt_clust_3="41.49573" pt_clust_4="38.01277" pt_clust_5="175.53060" pt_clust_6="14000.00000"></scales>
<clustering>
<clus scale="   38.013">  1  4  2 -1</clus>
<clus scale="   41.496">  1  3  2 -1</clus>
<clus scale="  175.531">  1  5  2 -1</clus>
<clus scale="   38.013">  1  3  2 -1</clus>
</clustering>
</event>
<event>
 6    0  0.2433432E+002  0.1226261E+03  0.7546771E-02  0.1238827E+00
         21   -1    0    0  503  502  0.00000000000E+00  0.00000000000E+00  0.15014091100E+03  0.15014091100E+03  0.00000000000E+00 0.  1.
         -2   -1    0    0    0  501 -0.00000000000E+00 -0.00000000000E+00 -0.45908402133E+03  0.45908402133E+03  0.00000000000E+00 0.  1.
         21    1    1    2  503  504 -0.21792766602E+02  0.25413758736E+02  0.53165766161E+02  0.62828198293E+02  0.00000000000E+00 0.  1.
         21    1    1    2  504  501 -0.83995430005E+02  0.22669525923E+02 -0.65326329810E+01  0.87245716003E+02  0.00000000000E+00 0. -1.
         21    1    1    2  505  502 -0.28138493469E+02 -0.63550464682E+02  0.93411021355E+01  0.70126261594E+02  0.00000000000E+00 0.  1.
         -2    1    1    2    0  505  0.13392669008E+03  0.15467180024E+02 -0.36491734564E+03  0.38902475644E+03  0.00000000000E+00 0.  1.
<scales pt_clust_3="33.47811" pt_clust_4="14000.00000" pt_clust_5="64.61290" pt_clust_6="122.62609"></scales>
<clustering>
<clus scale="   33.478">  1  3  2 -1</clus>
<clus scale="   64.613">  1  5  2 -1</clus>
<clus scale="  122.626">  2  6  1 -1</clus>
<clus scale="   33.478">  1  3  2 -1</clus>
</clustering>
</event>
<event>
 6    0  0.2433432E+002  0.1139749E+03  0.7546771E-02  0.1253381E+00
          1   -1    0    0  503    0 -0.00000000000E+00  0.00000000000E+00  0.11036493473E+04  0.11036493473E+04  0.00000000000E+00 0. -1.
         21   -1    0    0  504  502  0.00000000000E+00 -0.00000000000E+00 -0.13611065890E+04  0.13611065890E+04  0.00000000000E+00 0.  1.
         21    1    1    2  503  502  0.97957845971E+02 -0.24487680881E+02 -0.65009264003E+03  0.65788739669E+03  0.00000000000E+00 0. -1.
         21    1    1    2  504  505 -0.22141318240E+02 -0.71866920040E+02 -0.68203718337E+03  0.68617039551E+03  0.00000000000E+00 0.  1.
         21    1    1    2  505  501 -0.42430690867E+02  0.58421276530E+02  0.35790228005E+02  0.80587526947E+02  0.00000000000E+00 0. -1.
          1    1    1    2  501    0 -0.33385836864E+02  0.37933324391E+02  0.10388823537E+04  0.10401106172E+04  0.00000000000E+00 0. -1.
<scales pt_clust_3="113.97490" pt_clust_4="74.36214" pt_clust_5="14000.00000" pt_clust_6="50.53267"></scales>
<clustering>
<clus scale="   50.533">  1  6  2 -1</clus>
<clus scale="   74.362">  2  4  1 -1</clus>
<clus scale="  113.975">  2  3  1 -1</clus>
<clus scale="   74.362">  2  3  1 -1</clus>
</clustering>
</event>
<event>
 6    0  0.2433432E+002  0.1392149E+03  0.7546771E-02  0.1214389E+00
         21   -1    0    0  504  502  0.00000000000E+00  0.00000000000E+00  0.12614196183E+03  0.12614196183E+03  0.00000000000E+00 0.  1.
          1   -1    0    0  503    0 -0.00000000000E+00 -0.00000000000E+00 -0.99404100885E+03  0.99404100885E+03  0.00000000000E+00 0.  1.
         21    1    1    2  503  505  0.13986000305E+02  0.55617861416E+02 -0.20746242352E+03  0.21524314596E+03  0.00000000000E+00 0.  1.
         21    1    1    2  504  501  0.58451899764E+01 -0.34495708536E+02  0.97562695332E+02  0.10364651308E+03  0.00000000000E+00 0.  1.
         21    1    1    2  505  502  0.13894332571E+02  0.77681896395E+02 -0.63532586145E+03  0.64020815344E+03  0.00000000000E+00 0.  1.
          1    1    1    2  501    0 -0.33725522852E+02 -0.98804049275E+02 -0.12267345739E+03  0.16108515820E+03  0.00000000000E+00 0.  1.
<scales pt_clust_3="45.28173" pt_clust_4="34.98743" pt_clust_5="45.28173" pt_clust_6="128.14868"></scales>
<clustering>
<clus scale="   34.987">  1  4  2 -1</clus>
<clus scale="   45.282">  3  5 -1 -1</clus>
<clus scale="  128.149">  1  6  2 -1</clus>
<clus scale="   34.987">  1  3  2 -1</clus>
</clustering>
</event>
<event>
 6    0  0.2433432E+002  0.1669521E+03  0.7546771E-02  0.1181064E+00
         21   -1    0    0  504  502  0.00000000000E+00  0.00000000000E+00  0.46011446135E+03  0.46011446135E+03  0.00000000000E+00 0. -1.
         -4   -1    0    0    0  501 -0.00000000000E+00 -0.00000000000E+00 -0.65939880836E+03  0.65939880836E+03  0.00000000000E+00 0. -1.
         21    1    1    2  503  501  0.26984753331E+03 -0.29817934508E+02  0.11328037862E+03  0.29417553370E+03  0.00000000000E+00 0. -1.
         21    1    1    2  504  503 -0.11088232221E+03  0.14624458684E+02  0.20603021028E+03  0.23442954532E+03  0.00000000000E+00 0. -1.
         21    1    1    2  505  502 -0.40157249647E+02  0.18161840405E+02  0.13190322264E+02  0.46004801353E+02  0.00000000000E+00 0.  1.
         -4    1    1    2    0  505 -0.11880796145E+03 -0.29683645813E+01 -0.53178525817E+03  0.54490338933E+03  0.00000000000E+00 0. -1.
<scales pt_clust_3="14000.00000" pt_clust_4="166.95214" pt_clust_5="44.07332" pt_clust_6="119.45010"></scales>
<clustering>
<clus scale="   44.073">  1  5  2 -1</clus>
<clus scale="  119.450">  2  6  1 -1</clus>
<clus scale="  166.952">  1  4  2 -1</clus>
<clus scale="   44.073">  1  3  2 -1</clus>
</clustering>
</event>
<event>
 6    0  0.2433432E+002  0.1118840E+03  0.7546771E-02  0.1257120E+00
          1   -1    0    0  505    0 -0.00000000000E+00  0.00000000000E+00  0.42103923190E+03  0.42103923190E+03  0.00000000000E+00 0.  1.
         21   -1    0    0  504  502  0.00000000000E+00 -0.00000000000E+00 -0.44458524347E+03  0.44458524347E+03  0.00000000000E+00 0.  1.
         21    1    1    2  503  502  0.56115992675E+02  0.87002122839E+01 -0.26454321123E+03  0.27056941612E+03  0.00000000000E+00 0.  1.
         21    1    1    2  504  501 -0.17660599624E+02  0.26583746454E+02 -0.84245265137E+02  0.90088051664E+02  0.00000000000E+00 0.  1.
         21    1    1    2  505  503  0.60442117746E+02  0.26712801806E+02 -0.67968468780E+02  0.94797342400E+02  0.00000000000E+00 0.  1.
          1    1    1    2  501    0 -0.98897510796E+02 -0.61996760543E+02  0.39321093358E+03  0.41016966519E+03  0.00000000000E+00 0.  1.
<scales pt_clust_3="51.55589" pt_clust_4="31.91539" pt_clust_5="111.88396" pt_clust_6="14000.00000"></scales>
<clustering>
<clus scale="   31.915">  2  4  1 -1</clus>
<clus scale="   51.556">  2  3  1 -1</clus>
<clus scale="  111.884">  2  5  1 -1</clus>
<clus scale="   31.915">  2  3  1 -1</clus>
</clustering>
</event>
<event>
 6    0  0.2433432E+002  0.1563662E+03  0.7546771E-02  0.1192861E+00
         21   -1    0    0  503  502  0.00000000000E+00  0.00000000000E+00  0.14267964434E+03  0.14267964434E+03  0.00000000000E+00 0. -1.
         -2   -1    0    0    0  501 -0.00000000000E+00 -0.00000000000E+00 -0.76826074748E+03  0.76826074748E+03  0.00000000000E+00 0.  1.
         21    1    1    2  503  501 -0.17043992908E+03 -0.16706240476E+02  0.63553710922E+02  0.18266894117E+03  0.00000000000E+00 0. -1.
         21    1    1    2  504  505  0.68735630076E+02  0.28791470617E+01 -0.18314179513E+03  0.19563689185E+03  0.00000000000E+00 0.  1.
         21    1    1    2  505  502  0.37109300802E+02 -0.16600080405E+02 -0.28058514927E+02  0.49395780542E+02  0.00000000000E+00 0. -1.
         -2    1    1    2    0  504  0.64594998205E+02  0.30427173820E+02 -0.47793450401E+03  0.48323877826E+03  0.00000000000E+00 0.  1.
<scales pt_clust_3="139.59390" pt_clust_4="69.75902" pt_clust_5="40.65296" pt_clust_6="69.75902"></scales>
<clustering>
<clus scale="   40.653">  1  5  2 -1</clus>
<clus scale="   69.759">  4  6 -1 -1</clus>
<clus scale="  139.594">  1  3  2 -1</clus>
<clus scale="   40.653">  1  3  2 -1</clus>
</clustering>
</event>
<event>
 6    0  0.2433432E+002  0.1103745E+03  0.7546771E-02  0.1259878E+00
         21   -1    0    0  503  502  0.00000000000E+00  0.00000000000E+00  0.85241549652E+02  0.85241549652E+02  0.00000000000E+00 0. -1.
         -4   -1    0    0    0  501 -0.00000000000E+00 -0.00000000000E+00 -0.84991877574E+03  0.84991877574E+03  0.00000000000E+00 0. -1.
         21    1    1    2  503  501  0.51146857043E+01 -0.78501304025E+02 -0.40735053637E+01  0.78773143833E+02  0.00000000000E+00 0. -1.
         21    1    1    2  504  505 -0.68971759122E+02 -0.15327061077E+02 -0.65887135735E+02  0.96608162248E+02  0.00000000000E+00 0. -1.
         21    1    1    2  505  502  0.30033154188E+02 -0.15946174621E+02  0.17580234841E+02  0.38279700790E+02  0.00000000000E+00 0. -1.
         -4    1    1    2    0  504  0.33823919229E+02  0.10977453972E+03 -0.71229681983E+03  0.72149931852E+03  0.00000000000E+00 0. -1.
<scales pt_clust_3="110.37448" pt_clust_4="63.99788" pt_clust_5="34.00398" pt_clust_6="14000.00000"></scales>
<clustering>
<clus scale="   34.004">  1  5  2 -1</clus>
<clus scale="   63.998">  1  4  2 -1</clus>
<clus scale="  110.374">  1  3  2 -1</clus>
<clus scale="   34.004">  1  3  2 -1</clus>
</clustering>
</event>
<event>
 6    0  0.2433432E+002  0.1475763E+03  0.7546771E-02  0.1203483E+00
         21   -1    0    0  504  502  0.00000000000E+00  0.00000000000E+00  0.75844543616E+02  0.75844543616E+02  0.00000000000E+00 0.  1.
          1   -1    0    0  503    0 -0.00000000000E+00 -0.00000000000E+00 -0.12237052580E+04  0.12237052580E+04  0.00000000000E+00 0.  1.
         21    1    1    2  503  505 -0.10333388061E+03  0.38068484722E+02 -0.76835337090E+02  0.13427870060E+03  0.00000000000E+00 0.  1.
         21    1    1    2  504  501  0.27800388963E+02 -0.54467587532E+02  0.39336955623E+01  0.61278492792E+02  0.00000000000E+00 0.  1.
         21    1    1    2  505  502 -0.58892247875E+02  0.30484303033E+02 -0.10181348166E+03  0.12150545107E+03  0.00000000000E+00 0. -1.
          1    1    1    2  501    0  0.13442573952E+03 -0.14085200223E+02 -0.97314559122E+03  0.98248715718E+03  0.00000000000E+00 0.  1.
<scales pt_clust_3="38.74845" pt_clust_4="61.15210" pt_clust_5="38.74845" pt_clust_6="138.87206"></scales>
<clustering>
<clus scale="   38.748">  3  5 -1 -1</clus>
<clus scale="   61.152">  1  4  2 -1</clus>
<clus scale="  138.872">  2  6  1 -1</clus>
<clus scale="   61.152">  1  3  2 -1</clus>
</clustering>
</event>
<event>
 6    0  0.2433432E+002  0.1427291E+03  0.7546771E-02  0.1209703E+00
          1   -1    0    0  505    0 -0.00000000000E+00  0.00000000000E+00  0.55252498463E+03  0.55252498463E+03  0.00000000000E+00 0.  1.
         21   -1    0    0  503  502  0.00000000000E+00 -0.00000000000E+00 -0.13398900490E+04  0.13398900490E+04  0.00000000000E+00 0.  1.
         21    1    1    2  503  504  0.42476314712E+02  0.23135128149E+00 -0.11764346915E+03  0.12507708291E+03  0.00000000000E+00 0. -1.
         21    1    1    2  504  501  0.69200858365E+02  0.69261691227E+02 -0.19175206891E+03  0.21530164096E+03  0.00000000000E+00 0.  1.
         21    1    1    2  505  502 -0.24269141207E+03 -0.14726005668E+02 -0.99065159238E+03  0.10200522311E+04  0.00000000000E+00 0.  1.
          1    1    1    2  501    0  0.13101423899E+03 -0.54767036841E+02  0.51268206603E+03  0.53198407868E+03  0.00000000000E+00 0.  1.
<scales pt_clust_3="35.04597" pt_clust_4="141.88755" pt_clust_5="142.72907" pt_clust_6="14000.00000"></scales>
<clustering>
<clus scale="   35.046">  3  4 -1 -1</clus>
<clus scale="  141.888">  2  3  1 -1</clus>
<clus scale="  142.729">  2  5  1 -1</clus>
<clus scale="  141.888">  2  3  1 -1</clus>
</clustering>
</event>
<event>
 6    0  0.2433432E+002  0.6772078E+02  0.7546771E-02  0.1368020E+00
          1   -1    0    0  503    0 -0.00000000000E+00  0.00000000000E+00  0.15849150723E+04  0.15849150723E+04  0.00000000000E+00 0. -1.
         21   -1    0    0  504  502  0.00000000000E+00 -0.00000000000E+00 -0.44777916656E+02  0.44777916656E+02  0.00000000000E+00 0.  1.
         21    1    1    2  503  502 -0.85320254495E+02 -0.22333285111E+02  0.21615402080E+03  0.23345423997E+03  0.00000000000E+00 0.  1.
         21    1    1    2  504  505 -0.12628988595E+02  0.54032927403E+02  0.23167453158E+02  0.60131351910E+02  0.00000000000E+00 0. -1.
         21    1    1    2  505  501  0.57549921301E+02 -0.76703559015E+02  0.11937697175E+03  0.15312181683E+03  0.00000000000E+00 0.  1.
          1    1    1    2  501    0  0.40399321789E+02  0.45003916723E+02  0.11814387100E+04  0.11829855803E+04  0.00000000000E+00 0. -1.
<scales pt_clust_3="14000.00000" pt_clust_4="55.48918" pt_clust_5="67.72078" pt_clust_6="61.42600"></scales>
<clustering>
<clus scale="   55.489">  2  4  1 -1</clus>
<clus scale="   61.426">  1  6  2 -1</clus>
<clus scale="   67.721">  2  5  1 -1</clus>
<clus scale="   55.489">  2  3  1 -1</clus>
</clustering>
</event>
<event>
 6    0  0.2433432E+002  0.9069671E+02  0.7546771E-02  0.1301173E+00
          2   -1    0    0  503    0 -0.00000000000E+00  0.00000000000E+00  0.15121337073E+04  0.15121337073E+04  0.00000000000E+00 0.  1.
         21   -1    0    0  505  502  0.00000000000E+00 -0.00000000000E+00 -0.39482076198E+03  0.39482076198E+03  0.00000000000E+00 0.  1.
         21    1    1    2  503  504 -0.40114967479E+02 -0.91221464036E+02 -0.87106306789E+02  0.13235586424E+03  0.00000000000E+00 0.  1.
         21    1    1    2  504  502 -0.74260440937E+01  0.10362251905E+03 -0.26447669463E+03  0.28414907107E+03  0.00000000000E+00 0.  1.
         21    1    1    2  505  501  0.71084183523E+01 -0.36223287403E+02  0.22371616766E+02  0.43164167993E+02  0.00000000000E+00 0.  1.
          2    1    1    2  501    0  0.40432593220E+02  0.23822232393E+02  0.14465243300E+04  0.14472853660E+04  0.00000000000E+00 0.  1.
<scales pt_clust_3="14000.00000" pt_clust_4="90.69671" pt_clust_5="36.91417" pt_clust_6="46.91647"></scales>
<clustering>
<clus scale="   36.914">  2  5  1 -1</clus>
<clus scale="   46.916">  1  6  2 -1</clus>
<clus scale="   90.697">  2  4  1 -1</clus>
<clus scale="   36.914">  2  3  1 -1</clus>
</clustering>
</event>
<event>
 6    0  0.2433432E+002  0.9331564E+02  0.7546771E-02  0.1295015E+00
         21   -1    0    0  505  502  0.00000000000E+00  0.00000000000E+00  0.30417960513E+03  0.30417960513E+03  0.00000000000E+00 0. -1.
          2   -1    0    0  503    0 -0.00000000000E+00 -0.00000000000E+00 -0.14773762194E+04  0.14773762194E+04  0.00000000000E+00 0.  1.
         21    1    1    2  503  502  0.80118461471E+02  0.35665713659E+02  0.76750496646E+02  0.11654033523E+03  0.00000000000E+00 0. -1.
         21    1    1    2  504  501 -0.21184397978E+02 -0.76871150586E+02 -0.14293580856E+02  0.81007771009E+02  0.00000000000E+00 0. -1.
         21    1    1    2  505  504 -0.69963756878E+02  0.82257795943E+02  0.15708393137E+03  0.19062170329E+03  0.00000000000E+00 0. -1.
          2    1    1    2  501    0  0.11029693385E+02 -0.41052359016E+02 -0.13927374614E+04  0.13933860150E+04  0.00000000000E+00 0.  1.
<scales pt_clust_3="86.70454" pt_clust_4="14000.00000" pt_clust_5="93.31564" pt_clust_6="42.50824"></scales>
<clustering>
<clus scale="   42.508">  2  6  1 -1</clus>
<clus scale="   86.705">  1  3  2 -1</clus>
<clus scale="   93.316">  1  5  2 -1</clus>
<clus scale="   86.705">  1  3  2 -1</clus>
</clustering>
</event>
<event>
 6    0  0.2433432E+002  0.1817596E+03  0.7546771E-02  0.1166111E+00
          2   -1    0    0  504    0 -0.00000000000E+00  0.00000000000E+00  0.24692103272E+04  0.24692103272E+04  0.00000000000E+00 0. -1.
         21   -1    0    0  503  502  0.00000000000E+00 -0.00000000000E+00 -0.28157171402E+03  0.28157171402E+03  0.00000000000E+00 0.  1.
         21    1    1    2  503  505 -0.48404220408E+02 -0.10951047329E+03 -0.22252618465E+03  0.25269233302E+03  0.00000000000E+00 0.  1.
         21    1    1    2  504  502 -0.48636876511E+02 -0.54789678522E+02 -0.41635986024E+01  0.73381129608E+02  0.00000000000E+00 0. -1.
         21    1    1    2  505  501  0.66942826141E+02  0.89267307705E+02  0.73360687710E+03  0.74204382912E+03  0.00000000000E+00 0. -1.
          2    1    1    2  501    0  0.30098270778E+02  0.75032844106E+02  0.16807215193E+04  0.16826647495E+04  0.00000000000E+00 0. -1.
<scales pt_clust_3="181.75959" pt_clust_4="73.26291" pt_clust_5="14000.00000" pt_clust_6="80.56861"></scales>
<clustering>
<clus scale="   73.263">  2  4  1 -1</clus>
<clus scale="   80.569">  1  6  2 -1</clus>
<clus scale="  181.760">  2  3  1 -1</clus>
<clus scale="   73.263">  2  3  1 -1</clus>
</clustering>
</event>
<event>
 6    0  0.2433432E+002  0.7996440E+02  0.7546771E-02  0.1329152E+00
         21   -1    0    0  505  502  0.00000000000E+00  0.00000000000E+00  0.15686006167E+03  0.15686006167E+03  0.00000000000E+00 0.  1.
         -4   -1    0    0    0  501 -0.00000000000E+00 -0.00000000000E+00 -0.25573463873E+03  0.25573463873E+03  0.00000000000E+00 0.  1.
         21    1    1    2  503  502  0.13406318331E+02 -0.36816409749E+02  0.13214461451E+01  0.39203617409E+02  0.00000000000E+00 0.  1.
         21    1    1    2  504  501  0.69510368362E+02  0.14482855349E+02  0.35789243381E+02  0.79512982278E+02  0.00000000000E+00 0.  1.
         21    1    1    2  505  504 -0.11383359634E+02  0.61707615889E+02  0.56721621361E+02  0.84585773420E+02  0.00000000000E+00 0. -1.
         -4    1    1    2    0  503 -0.71533327059E+02 -0.39374061489E+02 -0.19270688795E+03  0.20929232729E+03  0.00000000000E+00 0.  1.
<scales pt_clust_3="39.18134" pt_clust_4="14000.00000" pt_clust_5="42.89605" pt_clust_6="79.96440"></scales>
<clustering>
<clus scale="   39.181">  1  3  2 -1</clus>
<clus scale="   42.896">  1  5  2 -1</clus>
<clus scale="   79.964">  2  6  1 -1</clus>
<clus scale="   39.181">  1  3  2 -1</clus>
</clustering>
</event>
<event>
 6    0  0.2433432E+002  0.1142443E+03  0.7546771E-02  0.1252906E+00
          2   -1    0    0  505    0 -0.00000000000E+00  0.00000000000E+00  0.22223839791E+03  0.22223839791E+03  0.00000000000E+00 0. -1.
         21   -1    0    0  504  502  0.00000000000E+00 -0.00000000000E+00 -0.26608938442E+03  0.26608938442E+03  0.00000000000E+00 0. -1.
         21    1    1    2  503  502 -0.10271697591E+02 -0.36566828889E+02 -0.10871326646E+03  0.11515734909E+03  0.00000000000E+00 0. -1.
         21    1    1    2  504  501  0.13539686961E+03  0.40907480327E+02 -0.52442769509E+02  0.15085084793E+03  0.00000000000E+00 0.  1.
         21    1    1    2  505  503 -0.88490727342E+02 -0.22455737456E+02 -0.69075099909E+01  0.91556445237E+02  0.00000000000E+00 0. -1.
          2    1    1    2  501    0 -0.36634444675E+02  0.18115086018E+02  0.12421255944E+03  0.13076314007E+03  0.00000000000E+00 0. -1.
<scales pt_clust_3="37.98211" pt_clust_4="14000.00000" pt_clust_5="114.24431" pt_clust_6="40.72754"></scales>
<clustering>
<clus scale="   37.982">  2  3  1 -1</clus>
<clus scale="   40.728">  1  6  2 -1</clus>
<clus scale="  114.244">  1  5  2 -1</clus>
<clus scale="   37.982">  2  3  1 -1</clus>
</clustering>
</event>
<event>
 6    0  0.2433432E+002  0.1487409E+03  0.7546771E-02  0.1202029E+00
         -1   -1    0    0    0  501 -0.00000000000E+00  0.00000000000E+00  0.49140062252E+03  0.49140062252E+03  0.00000000000E+00 0. -1.
         21   -1    0    0  504  502  0.00000000000E+00 -0.00000000000E+00 -0.82644095672E+02  0.82644095672E+02  0.00000000000E+00 0. -1.
         21    1    1    2  503  505 -0.90908339093E+02 -0.10031726526E+02  0.18700283415E+03  0.20817065507E+03  0.00000000000E+00 0. -1.
         21    1    1    2  504  503 -0.30156650089E+02 -0.24409619365E+02  0.89604603720E+01  0.39818876330E+02  0.00000000000E+00 0. -1.
         21    1    1    2  505  501 -0.38715684276E+02  0.32319432155E+02  0.14309382376E+03  0.15172110038E+03  0.00000000000E+00 0. -1.
         -1    1    1    2    0  502  0.15978067346E+03  0.21219137356E+01  0.69699408571E+02  0.17433408641E+03  0.00000000000E+00 0. -1.
<scales pt_clust_3="41.45748" pt_clust_4="38.79759" pt_clust_5="41.45748" pt_clust_6="137.34887"></scales>
<clustering>
<clus scale="   38.798">  2  4  1 -1</clus>
<clus scale="   41.457">  3  5 -1 -1</clus>
<clus scale="  137.349">  2  6  1 -1</clus>
<clus scale="   38.798">  2  3  1 -1</clus>
</clustering>
</event>
<event>
 6    0  0.2433432E+002  0.8133843E+02  0.7546771E-02  0.1325296E+00
          2   -1    0    0  505    0 -0.00000000000E+00  0.00000000000E+00  0.33339659268E+03  0.33339659268E+03  0.00000000000E+00 0. -1.
         21   -1    0    0  503  502  0.00000000000E+00 -0.00000000000E+00 -0.13811038859E+03  0.13811038859E+03  0.00000000000E+00 0.  1.
         21    1    1    2  503  504  0.16789615845E+02 -0.28212794180E+02  0.93355040750E+01  0.34132163599E+02  0.00000000000E+00 0. -1.
         21    1    1    2  504  501 -0.81226028045E+02 -0.84171989218E+02 -0.46310736793E+02  0.12580650120E+03  0.00000000000E+00 0.  1.
         21    1    1    2  505  502  0.38088077857E+01  0.62137786790E+02 -0.41454797953E+01  0.62392279703E+02  0.00000000000E+00 0. -1.
          2    1    1    2  501    0  0.60627604414E+02  0.50246996608E+02  0.23640691660E+03  0.24917603677E+03  0.00000000000E+00 0. -1.
<scales pt_clust_3="32.83067" pt_clust_4="81.33843" pt_clust_5="55.29073" pt_clust_6="14000.00000"></scales>
<clustering>
<clus scale="   32.831">  2  3  1 -1</clus>
<clus scale="   55.291">  2  5  1 -1</clus>
<clus scale="   81.338">  2  4  1 -1</clus>
<clus scale="   32.831">  2  3  1 -1</clus>
</clustering>
</event>
<event>
 6    0  0.2433432E+002  0.1216842E+03  0.7546771E-02  0.1240344E+00
         21   -1    0    0  505  502  0.00000000000E+00  0.00000000000E+00  0.24779698511E+03  0.24779698511E+03  0.00000000000E+00 0.  1.
          3   -1    0    0  504    0 -0.00000000000E+00 -0.00000000000E+00 -0.63342353990E+03  0.63342353990E+03  0.00000000000E+00 0. -1.
         21    1    1    2  503  501  0.70929211041E+02  0.16577966607E+03  0.75088993391E+02  0.19532590097E+03  0.00000000000E+00 0.  1.
         21    1    1    2  504  502  0.32037017461E+02  0.26079242470E+01  0.42814504268E+01  0.32426880431E+02  0.00000000000E+00 0. -1.
         21    1    1    2  505  503 -0.73729969795E+02 -0.53115890220E+02  0.64078947277E+02  0.11119135634E+03  0.00000000000E+00 0.  1.
          3    1    1    2  501    0 -0.29236258707E+02 -0.11527170010E+03 -0.52907594589E+03  0.54227638727E+03  0.00000000000E+00 0. -1.
<scales pt_clust_3="14000.00000" pt_clust_4="32.14299" pt_clust_5="80.60971" pt_clust_6="121.68422"></scales>
<clustering>
<clus scale="   32.143">  1  4  2 -1</clus>
<clus scale="   80.610">  1  5  2 -1</clus>
<clus scale="  121.684">  2  6  1 -1</clus>
<clus scale="   32.143">  1  3  2 -1</clus>
</clustering>
</event>
<event>
 6    0  0.2433432E+002  0.1454979E+03  0.7546771E-02  0.1206117E+00
         21   -1    0    0  505  502  0.00000000000E+00  0.00000000000E+00  0.32467907135E+03  0.32467907135E+03  0.00000000000E+00 0. -1.
          2   -1    0    0  504    0 -0.00000000000E+00 -0.00000000000E+00 -0.56394694633E+03  0.56394694633E+03  0.00000000000E+00 0. -1.
         21    1    1    2  503  502 -0.35548844763E+02 -0.13680328651E+03  0.14116200378E+03  0.19976378769E+03  0.00000000000E+00 0. -1.
         21    1    1    2  504  503 -0.40278637683E+02  0.10608983661E+02 -0.91862796372E+01  0.42653334237E+02  0.00000000000E+00 0. -1.
         21    1    1    2  505  501  0.11541835077E+03  0.11883660896E+03  0.86371824670E+02  0.18682512524E+03  0.00000000000E+00 0. -1.
          2    1    1    2  501    0 -0.39590868327E+02  0.73576938912E+01 -0.45761542380E+03  0.45938377051E+03  0.00000000000E+00 0. -1.
<scales pt_clust_3="14000.00000" pt_clust_4="51.52897" pt_clust_5="145.49790" pt_clust_6="40.26875"></scales>
<clustering>
<clus scale="   40.269">  2  6  1 -1</clus>
<clus scale="   51.529">  2  4  1 -1</clus>
<clus scale="  145.498">  2  5  1 -1</clus>
<clus scale="  145.498">  1  3  2 -1</clus>
</clustering>
</event>
<event>
 6    0  0.2433432E+002  0.1459331E+03  0.7546771E-02  0.1205561E+00
         -2   -1    0    0    0  501 -0.00000000000E+00  0.00000000000E+00  0.49932355995E+03  0.49932355995E+03  0.00000000000E+00 0. -1.
         21   -1    0    0  503  502  0.00000000000E+00 -0.00000000000E+00 -0.24964932645E+04  0.24964932645E+04  0.00000000000E+00 0. -1.
         21    1    1    2  503  504 -0.18502229148E+01  0.14846010264E+03 -0.23782854665E+04  0.23829153543E+04  0.00000000000E+00 0. -1.
         21    1    1    2  504  501 -0.18003438975E+02 -0.65297603679E+02 -0.89842666939E+02  0.11251491307E+03  0.00000000000E+00 0. -1.
         21    1    1    2  505  502 -0.36138370764E+02 -0.53235581702E+02  0.72635296442E+02  0.97035536222E+02  0.00000000000E+00 0.  1.
         -2    1    1    2    0  505  0.55992032653E+02 -0.29926917255E+02  0.39832313252E+03  0.40335102082E+03  0.00000000000E+00 0. -1.
<scales pt_clust_3="145.93311" pt_clust_4="69.70727" pt_clust_5="14000.00000" pt_clust_6="63.48802"></scales>
<clustering>
<clus scale="   63.488">  1  6  2 -1</clus>
<clus scale="   69.707">  1  4  2 -1</clus>
<clus scale="  145.933">  2  3  1 -1</clus>
<clus scale="  145.933">  2  3  1 -1</clus>
</clustering>
</event>
<event>
 6    0  0.2433432E+002  0.1838463E+03  0.7546771E-02  0.1164132E+00
         21   -1    0    0  504  502  0.00000000000E+00  0.00000000000E+00  0.58339643061E+03  0.58339643061E+03  0.00000000000E+00 0. -1.
          2   -1    0    0  502    0 -0.00000000000E+00 -0.00000000000E+00 -0.14566898238E+04  0.14566898238E+04  0.00000000000E+00 0. -1.
         21    1    1    2  503  501  0.99700094337E+02 -0.91475984753E+02 -0.10323354801E+03  0.17019145111E+03  0.00000000000E+00 0.  1.
         21    1    1    2  504  505  0.22629383195E+01  0.12263976633E+03  0.34084276603E+03  0.36224221776E+03  0.00000000000E+00 0. -1.
         21    1    1    2  505  503 -0.16924921198E+03  0.43136196276E+02  0.15756579771E+03  0.23522969157E+03  0.00000000000E+00 0. -1.
          2    1    1    2  501    0  0.67286179322E+02 -0.74299977852E+02 -0.12684684089E+04  0.12724228940E+04  0.00000000000E+00 0. -1.
<scales pt_clust_3="14000.00000" pt_clust_4="118.52978" pt_clust_5="183.84633" pt_clust_6="100.23930"></scales>
<clustering>
<clus scale="  100.239">  2  6  1 -1</clus>
<clus scale="  118.530">  1  4  2 -1</clus>
<clus scale="  183.846">  1  5  2 -1</clus>
<clus scale="  118.530">  1  3  2 -1</clus>
</clustering>
</event>
<event>
 6    0  0.2433432E+002  0.1686042E+03  0.7546771E-02  0.1179311E+00
         21   -1    0    0  504  502  0.00000000000E+00  0.00000000000E+00  0.12769182905E+04  0.12769182905E+04  0.00000000000E+00 0. -1.
          2   -1    0    0  505    0 -0.00000000000E+00 -0.00000000000E+00 -0.77949246856E+03  0.77949246856E+03  0.00000000000E+00 0. -1.
         21    1    1    2  503  501  0.25611257898E+02  0.98861729098E+02  0.41338447474E+03  0.42581251974E+03  0.00000000000E+00 0. -1.
         21    1    1    2  504  503  0.12986584947E+01  0.59451616166E+02  0.45999440780E+03  0.46382220342E+03  0.00000000000E+00 0. -1.
         21    1    1    2  505  502  0.34288407754E+02 -0.10597561214E+02  0.38628504875E+03  0.38794863332E+03  0.00000000000E+00 0. -1.
          2    1    1    2  501    0 -0.61198324146E+02 -0.14771578405E+03 -0.76223810932E+03  0.77882740260E+03  0.00000000000E+00 0. -1.
<scales pt_clust_3="39.99744" pt_clust_4="39.99744" pt_clust_5="35.88876" pt_clust_6="159.86045"></scales>
<clustering>
<clus scale="   35.889">  1  5  2 -1</clus>
<clus scale="   39.997">  3  4 -1 -1</clus>
<clus scale="  159.860">  2  6  1 -1</clus>
<clus scale="   35.889">  1  3  2 -1</clus>
</clustering>
</event>
<event>
 6    0  0.2433432E+002  0.9399527E+02  0.7546771E-02  0.1293455E+00
         21   -1    0    0  501  502  0.00000000000E+00  0.00000000000E+00  0.24553154831E+02  0.24553154831E+02  0.00000000000E+00 0. -1.
          2   -1    0    0  504    0 -0.00000000000E+00 -0.00000000000E+00 -0.26255996117E+04  0.26255996117E+04  0.00000000000E+00 0.  1.
         21    1    1    2  503  502  0.44137882220E+02 -0.69181720478E+01 -0.68807099318E+02  0.82039202019E+02  0.00000000000E+00 0. -1.
         21    1    1    2  504  505 -0.67688872211E+02  0.47104314715E+02 -0.11981177421E+03  0.14544917024E+03  0.00000000000E+00 0. -1.
         21    1    1    2  505  503 -0.45445467865E+02 -0.20351685797E+01 -0.11199833196E+03  0.12088448545E+03  0.00000000000E+00 0. -1.
          2    1    1    2  501    0  0.68996457856E+02 -0.38150974087E+02 -0.23004292514E+04  0.23017799089E+04  0.00000000000E+00 0.  1.
<scales pt_clust_3="44.67677" pt_clust_4="36.13540" pt_clust_5="36.13540" pt_clust_6="80.42404"></scales>
<clustering>
<clus scale="   36.135">  4  5 -1 -1</clus>
<clus scale="   44.677">  1  3  2 -1</clus>
<clus scale="   80.424">  2  6  1 -1</clus>
<clus scale="   44.677">  1  3  2 -1</clus>
</clustering>
</event>
<event>
 6    0  0.2433432E+002  0.1359376E+03  0.7546771E-02  0.1218902E+00
         21   -1    0    0  505  502  0.00000000000E+00  0.00000000000E+00  0.14628121550E+03  0.14628121550E+03  0.00000000000E+00 0.  1.
          2   -1    0    0  503    0 -0.00000000000E+00 -0.00000000000E+00 -0.42123922677E+03  0.42123922677E+03  0.00000000000E+00 0.  1.
         21    1    1    2  503  504  0.97923463891E+02 -0.11196995645E+02 -0.44539785952E+02  0.10815807887E+03  0.00000000000E+00 0.  1.
         21    1    1    2  504  502  0.49035496563E+02 -0.25015506488E+02  0.14117178889E+02  0.56829131859E+02  0.00000000000E+00 0.  1.
         21    1    1    2  505  501 -0.10532295960E+03 -0.60171327585E+02  0.15325471623E+02  0.12226358641E+03  0.00000000000E+00 0.  1.
          2    1    1    2  501    0 -0.41636000855E+02  0.96383829718E+02 -0.25986087583E+03  0.28026964514E+03  0.00000000000E+00 0.  1.
<scales pt_clust_3="43.49320" pt_clust_4="43.49320" pt_clust_5="122.84973" pt_clust_6="104.99238"></scales>
<clustering>
<clus scale="   43.493">  3  4 -1 -1</clus>
<clus scale="  104.992">  2  6  1 -1</clus>
<clus scale="  122.850">  1  5  2 -1</clus>
<clus scale="  122.850">  1  3  2 -1</clus>
</clustering>
</event>
<event>
 6    0  0.2433432E+002  0.2524048E+03  0.7546771E-02  0.1111794E+00
         21   -1    0    0  503  502  0.00000000000E+00  0.00000000000E+00  0.51162881196E+03  0.51162881196E+03  0.00000000000E+00 0.  1.
          2   -1    0    0  505    0 -0.00000000000E+00 -0.00000000000E+00 -0.24527153959E+03  0.24527153959E+03  0.00000000000E+00 0.  1.
         21    1    1    2  503  501 -0.43644976559E+02 -0.24257835675E+02  0.18002586353E+03  0.18682247753E+03  0.00000000000E+00 0.  1.
         21    1    1    2  504  502  0.56144237853E+02 -0.32761288123E+02 -0.27896923296E+02  0.70736947721E+02  0.00000000000E+00 0.  1.
         21    1    1    2  505  504  0.19178674083E+03  0.52078091734E+02 -0.82974803174E+02  0.21535807289E+03  0.00000000000E+00 0.  1.
          2    1    1    2  501    0 -0.20428600212E+03  0.49410320642E+01  0.19720313530E+03  0.28398285341E+03  0.00000000000E+00 0.  1.
<scales pt_clust_3="49.93322" pt_clust_4="50.87736" pt_clust_5="50.87736" pt_clust_6="236.62899"></scales>
<clustering>
<clus scale="   49.933">  1  3  2 -1</clus>
<clus scale="   50.877">  4  5 -1 -1</clus>
<clus scale="  236.629">  1  6  2 -1</clus>
<clus scale="   49.933">  1  3  2 -1</clus>
</clustering>
</event>
<event>
 6    0  0.2433432E+002  0.1060018E+03  0.7546771E-02  0.1268158E+00
         21   -1    0    0  505  502  0.00000000000E+00  0.00000000000E+00  0.71235789277E+03  0.71235789277E+03  0.00000000000E+00 0. -1.
          4   -1    0    0  503    0 -0.00000000000E+00 -0.00000000000E+00 -0.40271551405E+03  0.40271551405E+03  0.00000000000E+00 0. -1.
         21    1    1    2  503  504 -0.67173523264E+02  0.58429162384E+02  0.45295508730E+02  0.99889600839E+02  0.00000000000E+00 0. -1.
         21    1    1    2  504  502  0.73344674756E+02 -0.11285768249E+03  0.47085757295E+03  0.48971742037E+03  0.00000000000E+00 0. -1.
         21    1    1    2  505  501 -0.38013194041E+02  0.90398683851E+01  0.15493854643E+03  0.15978947184E+03  0.00000000000E+00 0. -1.
          4    1    1    2  501    0  0.31842042549E+02  0.45388651723E+02 -0.36144924939E+03  0.36567691376E+03  0.00000000000E+00 0. -1.
<scales pt_clust_3="106.00180" pt_clust_4="14000.00000" pt_clust_5="39.07329" pt_clust_6="55.38928"></scales>
<clustering>
<clus scale="   39.073">  1  5  2 -1</clus>
<clus scale="   55.389">  2  6  1 -1</clus>
<clus scale="  106.002">  2  3  1 -1</clus>
<clus scale="   39.073">  1  3  2 -1</clus>
</clustering>
</event>
<event>
 6    0  0.2433432E+002  0.8231002E+02  0.7546771E-02  0.1322621E+00
          4   -1    0    0  503    0 -0.00000000000E+00  0.00000000000E+00  0.11262920300E+03  0.11262920300E+03  0.00000000000E+00 0.  1.
         21   -1    0    0  504  502  0.00000000000E+00 -0.00000000000E+00 -0.47582763677E+03  0.47582763677E+03  0.00000000000E+00 0.  1.
         21    1    1    2  503  502 -0.22938329711E+02 -0.13010348295E+03 -0.17985506630E+03  0.22316121553E+03  0.00000000000E+00 0.  1.
         21    1    1    2  504  505  0.82412554839E+00  0.33870502823E+02 -0.30871758424E+02  0.45836182351E+02  0.00000000000E+00 0.  1.
         21    1    1    2  505  501 -0.39270334858E+01  0.47414409909E+02 -0.22401804394E+03  0.22901447961E+03  0.00000000000E+00 0.  1.
          4    1    1    2  501    0  0.26041237649E+02  0.48818570215E+02  0.71546434894E+02  0.90444962282E+02  0.00000000000E+00 0.  1.
<scales pt_clust_3="82.31002" pt_clust_4="33.88053" pt_clust_5="14000.00000" pt_clust_6="55.98475"></scales>
<clustering>
<clus scale="   33.881">  2  4  1 -1</clus>
<clus scale="   55.985">  1  6  2 -1</clus>
<clus scale="   82.310">  1  3  2 -1</clus>
<clus scale="   33.881">  2  3  1 -1</clus>
</clustering>
</event>
<event>
 6    0  0.2433432E+002  0.8397536E+02  0.7546771E-02  0.1318134E+00
          1   -1    0    0  504    0 -0.00000000000E+00  0.00000000000E+00  0.18651700982E+04  0.18651700982E+04  0.00000000000E+00 0.  1.
         21   -1    0    0  503  502  0.00000000000E+00 -0.00000000000E+00 -0.22855926925E+02  0.22855926925E+02  0.00000000000E+00 0.  1.
         21    1    1    2  503  501 -0.25214383315E+02  0.16994437680E+02  0.25582877319E+02  0.39737383531E+02  0.00000000000E+00 0.  1.
         21    1    1    2  504  505  0.50872481781E+02 -0.22542877129E+02  0.10328429705E+04  0.10343407526E+04  0.00000000000E+00 0. -1.
         21    1    1    2  505  502  0.56267161305E+02 -0.72290494240E+02  0.21112506520E+03  0.23014278645E+03  0.00000000000E+00 0.  1.
          1    1    1    2  501    0 -0.81925259771E+02  0.77838933689E+02  0.57276325829E+03  0.58380510261E+03  0.00000000000E+00 0.  1.
<scales pt_clust_3="30.40684" pt_clust_4="54.22312" pt_clust_5="83.97536" pt_clust_6="14000.00000"></scales>
<clustering>
<clus scale="   30.407">  2  3  1 -1</clus>
<clus scale="   54.223">  1  4  2 -1</clus>
<clus scale="   83.975">  2  5  1 -1</clus>
<clus scale="   30.407">  2  3  1 -1</clus>
</clustering>
</event>
<event>
 6    0  0.2433432E+002  0.8701963E+02  0.7546771E-02  0.1310234E+00
          2   -1    0    0  505    0 -0.00000000000E+00  0.00000000000E+00  0.22728200327E+04  0.22728200327E+04  0.00000000000E+00 0. -1.
         21   -1    0    0  504  502  0.00000000000E+00 -0.00000000000E+00 -0.50123165885E+02  0.50123165885E+02  0.00000000000E+00 0.  1.
         21    1    1    2  503  502  0.12617663372E+02 -0.43737836326E+02 -0.30416824386E+02  0.54748396882E+02  0.00000000000E+00 0.  1.
         21    1    1    2  504  501 -0.17983687429E+02 -0.64359342125E+02  0.26339864843E+03  0.27174323529E+03  0.00000000000E+00 0. -1.
         21    1    1    2  505  503 -0.54823425946E+02  0.28172145069E+02  0.60709958892E+03  0.61022060654E+03  0.00000000000E+00 0.  1.
          2    1    1    2  501    0  0.60189450004E+02  0.79925033382E+02  0.13826154539E+04  0.13862309599E+04  0.00000000000E+00 0. -1.
<scales pt_clust_3="45.52146" pt_clust_4="14000.00000" pt_clust_5="55.60319" pt_clust_6="87.01963"></scales>
<clustering>
<clus scale="   45.521">  2  3  1 -1</clus>
<clus scale="   55.603">  1  5  2 -1</clus>
<clus scale="   87.020">  1  6  2 -1</clus>
<clus scale="   45.521">  2  3  1 -1</clus>
</clustering>
</event>
<event>
 6    0  0.2433432E+002  0.2427848E+03  0.7546771E-02  0.1117951E+00
         21   -1    0    0  505  502  0.00000000000E+00  0.00000000000E+00  0.72283467632E+03  0.72283467632E+03  0.00000000000E+00 0.  1.
          2   -1    0    0  504    0 -0.00000000000E+00 -0.00000000000E+00 -0.18830780483E+04  0.18830780483E+04  0.00000000000E+00 0. -1.
         21    1    1    2  503  501 -0.15456953003E+02 -0.98501192017E+02  0.94849757650E+02  0.13761496558E+03  0.00000000000E+00 0.  1.
         21    1    1    2  504  502  0.57077700847E+02  0.25323768942E+03  0.34063199645E+03  0.42827251637E+03  0.00000000000E+00 0.  1.
         21    1    1    2  505  503 -0.26157526364E+02 -0.11539974367E+03  0.20612802738E+03  0.23767642015E+03  0.00000000000E+00 0.  1.
          2    1    1    2  501    0 -0.15463221480E+02 -0.39336753733E+02 -0.18018531535E+04  0.18023488226E+04  0.00000000000E+00 0. -1.
<scales pt_clust_3="49.22921" pt_clust_4="237.01021" pt_clust_5="49.22921" pt_clust_6="42.26691"></scales>
<clustering>
<clus scale="   42.267">  2  6  1 -1</clus>
<clus scale="   49.229">  3  5 -1 -1</clus>
<clus scale="  237.010">  2  4  1 -1</clus>
<clus scale="  242.785">  1  3  2 -1</clus>
</clustering>
</event>
<event>
 6    0  0.2433432E+002  0.9710862E+02  0.7546771E-02  0.1286496E+00
         21   -1    0    0  504  502  0.00000000000E+00  0.00000000000E+00  0.30702216475E+02  0.30702216475E+02  0.00000000000E+00 0.  1.
          1   -1    0    0  503    0 -0.00000000000E+00 -0.00000000000E+00 -0.21583293727E+04  0.21583293727E+04  0.00000000000E+00 0. -1.
         21    1    1    2  503  502 -0.43677757092E+01  0.35540820493E+02 -0.44410483153E+02  0.57048386480E+02  0.00000000000E+00 0.  1.
         21    1    1    2  504  505 -0.85474643496E+02  0.75149163743E+01 -0.70483387818E+02  0.11104186871E+03  0.00000000000E+00 0.  1.
         21    1    1    2  505  501  0.10503518537E+03 -0.11095997114E+02 -0.71822761586E+03  0.72595207797E+03  0.00000000000E+00 0. -1.
          1    1    1    2  501    0 -0.15192766167E+02 -0.31959739754E+02 -0.12945056694E+04  0.12949892560E+04  0.00000000000E+00 0. -1.
<scales pt_clust_3="34.07191" pt_clust_4="97.10862" pt_clust_5="14000.00000" pt_clust_6="35.38708"></scales>
<clustering>
<clus scale="   35.387">  2  6  1 -1</clus>
<clus scale="   34.072">  1  3  2 -1</clus>
<clus scale="   97.109">  1  4  2 -1</clus>
<clus scale="   34.072">  1  3  2 -1</clus>
</clustering>
</event>
<event>
 6    0  0.2433432E+002  0.9879540E+02  0.7546771E-02  0.1282850E+00
          2   -1    0    0  503    0 -0.00000000000E+00  0.00000000000E+00  0.28036977898E+04  0.28036977898E+04  0.00000000000E+00 0. -1.
         21   -1    0    0  505  502  0.00000000000E+00 -0.00000000000E+00 -0.29502466081E+02  0.29502466081E+02  0.00000000000E+00 0. -1.
         21    1    1    2  503  504 -0.14655884431E+02  0.13377689731E+03  0.26263152841E+03  0.29510400356E+03  0.00000000000E+00 0. -1.
         21    1    1    2  504  502 -0.40278016015E+02 -0.48216343906E+02  0.84474854845E+02  0.10527647171E+03  0.00000000000E+00 0. -1.
         21    1    1    2  505  501  0.33914106220E+02  0.86965751899E+01  0.16515749146E+03  0.16882770509E+03  0.00000000000E+00 0. -1.
          2    1    1    2  501    0  0.21019794226E+02 -0.94257128596E+02  0.22619314490E+04  0.22639920755E+04  0.00000000000E+00 0. -1.
<scales pt_clust_3="14000.00000" pt_clust_4="52.70752" pt_clust_5="35.01138" pt_clust_6="98.79540"></scales>
<clustering>
<clus scale="   35.011">  2  5  1 -1</clus>
<clus scale="   52.708">  2  4  1 -1</clus>
<clus scale="   98.795">  1  6  2 -1</clus>
<clus scale="   35.011">  2  3  1 -1</clus>
</clustering>
</event>
<event>
 6    0  0.2433432E+002  0.1397227E+03  0.7546771E-02  0.1213703E+00
         21   -1    0    0  503  502  0.00000000000E+00  0.00000000000E+00  0.12946434794E+04  0.12946434794E+04  0.00000000000E+00 0.  1.
          2   -1    0    0  505    0 -0.00000000000E+00 -0.00000000000E+00 -0.45153090860E+03  0.45153090860E+03  0.00000000000E+00 0. -1.
         21    1    1    2  503  504 -0.19009338051E+02 -0.56582890430E+02 -0.62169954641E+02  0.86186319579E+02  0.00000000000E+00 0.  1.
         21    1    1    2  504  501 -0.44441381769E+02 -0.29356314384E+02 -0.10082311941E+03  0.11402688725E+03  0.00000000000E+00 0.  1.
         21    1    1    2  505  502  0.98332155449E+02  0.88784885269E+02  0.12714424978E+04  0.12783262470E+04  0.00000000000E+00 0.  1.
          2    1    1    2  501    0 -0.34881435628E+02 -0.28456804548E+01 -0.26533685294E+03  0.26763493414E+03  0.00000000000E+00 0. -1.
<scales pt_clust_3="44.19032" pt_clust_4="44.19032" pt_clust_5="131.96741" pt_clust_6="34.99732"></scales>
<clustering>
<clus scale="   34.997">  2  6  1 -1</clus>
<clus scale="   44.190">  3  4 -1 -1</clus>
<clus scale="  131.967">  1  5  2 -1</clus>
<clus scale="  131.967">  1  3  2 -1</clus>
</clustering>
</event>
<event>
 6    0  0.2433432E+002  0.1057677E+03  0.7546771E-02  0.1268614E+00
         21   -1    0    0  505  502  0.00000000000E+00  0.00000000000E+00  0.10475780838E+04  0.10475780838E+04  0.00000000000E+00 0. -1.
          2   -1    0    0  504    0 -0.00000000000E+00 -0.00000000000E+00 -0.13384718816E+04  0.13384718816E+04  0.00000000000E+00 0.  1.
         21    1    1    2  503  502  0.30442554721E+02 -0.68149887756E+02  0.60057463921E+03  0.60519505418E+03  0.00000000000E+00 0. -1.
         21    1    1    2  504  503 -0.78590785175E+02 -0.65378665737E+02  0.36815798433E+03  0.38208792558E+03  0.00000000000E+00 0. -1.
         21    1    1    2  505  501  0.22355687100E+02  0.30819392737E+02  0.62079757661E+02  0.72825188126E+02  0.00000000000E+00 0.  1.
          2    1    1    2  501    0  0.25792543354E+02  0.10270916076E+03 -0.13217061790E+04  0.13259417976E+04  0.00000000000E+00 0.  1.
<scales pt_clust_3="66.12865" pt_clust_4="105.76767" pt_clust_5="38.07377" pt_clust_6="14000.00000"></scales>
<clustering>
<clus scale="   38.074">  1  5  2 -1</clus>
<clus scale="   66.129">  1  3  2 -1</clus>
<clus scale="  105.768">  1  4  2 -1</clus>
<clus scale="   38.074">  1  3  2 -1</clus>
</clustering>
</event>
<event>
 6    0  0.2433432E+002  0.1071779E+03  0.7546771E-02  0.1265887E+00
         -1   -1    0    0    0  501 -0.00000000000E+00  0.00000000000E+00  0.65964308356E+03  0.65964308356E+03  0.00000000000E+00 0. -1.
         21   -1    0    0  505  502  0.00000000000E+00 -0.00000000000E+00 -0.14883614248E+04  0.14883614248E+04  0.00000000000E+00 0. -1.
         21    1    1    2  503  501 -0.52428011239E+02 -0.25550375979E+02  0.26203408221E+01  0.58381369128E+02  0.00000000000E+00 0. -1.
         21    1    1    2  504  502  0.54303204308E+02 -0.23438913148E+02 -0.11654468188E+04  0.11669466603E+04  0.00000000000E+00 0. -1.
         21    1    1    2  505  503  0.25483933444E+02 -0.50505110996E+02 -0.28727091205E+03  0.29278793351E+03  0.00000000000E+00 0.  1.
         -1    1    1    2    0  504 -0.27359126512E+02  0.99494400123E+02  0.62137904873E+03  0.62988854543E+03  0.00000000000E+00 0. -1.
<scales pt_clust_3="58.31918" pt_clust_4="14000.00000" pt_clust_5="56.57028" pt_clust_6="107.17793"></scales>
<clustering>
<clus scale="   56.570">  2  5  1 -1</clus>
<clus scale="   58.319">  1  3  2 -1</clus>
<clus scale="  107.178">  1  6  2 -1</clus>
<clus scale="   56.570">  2  3  1 -1</clus>
</clustering>
</event>
<event>
 6    0  0.2433432E+002  0.1186944E+03  0.7546771E-02  0.1245267E+00
          2   -1    0    0  504    0 -0.00000000000E+00  0.00000000000E+00  0.17729164924E+04  0.17729164924E+04  0.00000000000E+00 0.  1.
         21   -1    0    0  505  502  0.00000000000E+00 -0.00000000000E+00 -0.58621546811E+03  0.58621546811E+03  0.00000000000E+00 0.  1.
         21    1    1    2  503  501  0.22989079018E+02 -0.55964457263E+02 -0.42937327956E+02  0.74189840024E+02  0.00000000000E+00 0. -1.
         21    1    1    2  504  502  0.10417691106E+03 -0.50107419418E+01 -0.42127180937E+03  0.43399063780E+03  0.00000000000E+00 0.  1.
         21    1    1    2  505  503 -0.44764045608E+02 -0.24736108259E+02 -0.91321446265E+02  0.10466757559E+03  0.00000000000E+00 0.  1.
          2    1    1    2  501    0 -0.82401944466E+02  0.85711307463E+02  0.17422316079E+04  0.17462839071E+04  0.00000000000E+00 0.  1.
<scales pt_clust_3="61.50921" pt_clust_4="118.69436" pt_clust_5="51.14386" pt_clust_6="14000.00000"></scales>
<clustering>
<clus scale="   51.144">  2  5  1 -1</clus>
<clus scale="   61.509">  2  3  1 -1</clus>
<clus scale="  118.694">  2  4  1 -1</clus>
<clus scale="   51.144">  2  3  1 -1</clus>
</clustering>
</event>
<event>
 6    0  0.2433432E+002  0.9014359E+02  0.7546771E-02  0.1302504E+00
          2   -1    0    0  505    0 -0.00000000000E+00  0.00000000000E+00  0.99035295412E+03  0.99035295412E+03  0.00000000000E+00 0. -1.
         21   -1    0    0  503  502  0.00000000000E+00 -0.00000000000E+00 -0.90646740304E+02  0.90646740304E+02  0.00000000000E+00 0.  1.
         21    1    1    2  503  501 -0.31522808648E+02  0.15394889250E+02 -0.35135693415E+01  0.35256705030E+02  0.00000000000E+00 0.  1.
         21    1    1    2  504  502  0.72380234915E+02  0.57367907376E+02 -0.67053335766E+01  0.92600954106E+02  0.00000000000E+00 0.  1.
         21    1    1    2  505  504 -0.77965729737E+02 -0.68945952909E+02  0.10671007137E+03  0.14906119135E+03  0.00000000000E+00 0.  1.
          2    1    1    2  501    0  0.37108303470E+02 -0.38168437174E+01  0.80321504536E+03  0.80408084393E+03  0.00000000000E+00 0. -1.
<scales pt_clust_3="35.08119" pt_clust_4="14000.00000" pt_clust_5="90.14359" pt_clust_6="37.10410"></scales>
<clustering>
<clus scale="   35.081">  2  3  1 -1</clus>
<clus scale="   37.104">  1  6  2 -1</clus>
<clus scale="   90.144">  1  5  2 -1</clus>
<clus scale="   35.081">  2  3  1 -1</clus>
</clustering>
</event>
<event>
 6    0  0.2433432E+002  0.8329557E+02  0.7546771E-02  0.1319951E+00
          1   -1    0    0  503    0 -0.00000000000E+00  0.00000000000E+00  0.68991710698E+03  0.68991710698E+03  0.00000000000E+00 0. -1.
         21   -1    0    0  501  502  0.00000000000E+00 -0.00000000000E+00 -0.58590855961E+02  0.58590855961E+02  0.00000000000E+00 0. -1.
         21    1    1    2  503  504  0.86932964807E+02  0.70370079398E+02  0.80289219157E+02  0.13767950885E+03  0.00000000000E+00 0. -1.
         21    1    1    2  504  505 -0.44053202065E+02 -0.52334856080E+01  0.61309477034E+02  0.75676455770E+02  0.00000000000E+00 0. -1.
         21    1    1    2  505  502 -0.33529700240E+02  0.17579378092E+02 -0.54526749692E+00  0.37862549424E+02  0.00000000000E+00 0. -1.
          1    1    1    2  501    0 -0.93500625015E+01 -0.82715971882E+02  0.49027282233E+03  0.49728944890E+03  0.00000000000E+00 0. -1.
<scales pt_clust_3="14000.00000" pt_clust_4="50.20938" pt_clust_5="37.85862" pt_clust_6="83.29557"></scales>
<clustering>
<clus scale="   37.859">  2  5  1 -1</clus>
<clus scale="   50.209">  2  4  1 -1</clus>
<clus scale="   83.296">  1  6  2 -1</clus>
<clus scale="   37.859">  2  3  1 -1</clus>
</clustering>
</event>
<event>
 6    0  0.2433432E+002  0.1066057E+03  0.7546771E-02  0.1266988E+00
         21   -1    0    0  501  502  0.00000000000E+00  0.00000000000E+00  0.12993514707E+04  0.12993514707E+04  0.00000000000E+00 0.  1.
          2   -1    0    0  505    0 -0.00000000000E+00 -0.00000000000E+00 -0.81743657684E+03  0.81743657684E+03  0.00000000000E+00 0. -1.
         21    1    1    2  503  504  0.38226040431E+02  0.43294274373E+02 -0.40711292843E+02  0.70661401949E+02  0.00000000000E+00 0. -1.
         21    1    1    2  504  502 -0.12583453929E+02 -0.35710282369E+02  0.12473704424E+04  0.12479449459E+04  0.00000000000E+00 0.  1.
         21    1    1    2  505  503  0.50941149876E+02  0.53494655509E+02 -0.74663075534E+01  0.74245704705E+02  0.00000000000E+00 0. -1.
          2    1    1    2  501    0 -0.76583736377E+02 -0.61078647513E+02 -0.71727794814E+03  0.72393599493E+03  0.00000000000E+00 0. -1.
<scales pt_clust_3="32.58582" pt_clust_4="37.86248" pt_clust_5="32.58582" pt_clust_6="100.03330"></scales>
<clustering>
<clus scale="   32.586">  3  5 -1 -1</clus>
<clus scale="   37.862">  1  4  2 -1</clus>
<clus scale="  100.033">  2  6  1 -1</clus>
<clus scale="   37.862">  1  3  2 -1</clus>
</clustering>
</event>
<event>
 6    0  0.2433432E+002  0.1040774E+03  0.7546771E-02  0.1271948E+00
          2   -1    0    0  505    0 -0.00000000000E+00  0.00000000000E+00  0.42357864148E+03  0.42357864148E+03  0.00000000000E+00 0.  1.
         21   -1    0    0  503  502  0.00000000000E+00 -0.00000000000E+00 -0.18777251455E+03  0.18777251455E+03  0.00000000000E+00 0. -1.
         21    1    1    2  503  501  0.61889128153E+02  0.13904814296E+03  0.39189275335E+02  0.15716376664E+03  0.00000000000E+00 0. -1.
         21    1    1    2  504  502 -0.42218646956E+02 -0.46033259538E+02 -0.99305635918E+02  0.11731617305E+03  0.00000000000E+00 0. -1.
         21    1    1    2  505  504 -0.42348531366E+02 -0.95215328684E+01  0.20167527208E+02  0.47862165128E+02  0.00000000000E+00 0. -1.
          2    1    1    2  501    0  0.22678050169E+02 -0.83493350552E+02  0.27575496031E+03  0.28900905121E+03  0.00000000000E+00 0.  1.
<scales pt_clust_3="14000.00000" pt_clust_4="63.28827" pt_clust_5="43.40573" pt_clust_6="104.07737"></scales>
<clustering>
<clus scale="   43.406">  1  5  2 -1</clus>
<clus scale="   63.288">  2  4  1 -1</clus>
<clus scale="  104.077">  1  6  2 -1</clus>
<clus scale="   63.288">  2  3  1 -1</clus>
</clustering>
</event>
<event>
 6    0  0.2433432E+002  0.1634962E+03  0.7546771E-02  0.1184805E+00
         21   -1    0    0  505  502  0.00000000000E+00  0.00000000000E+00  0.55494029422E+03  0.55494029422E+03  0.00000000000E+00 0. -1.
         -2   -1    0    0    0  501 -0.00000000000E+00 -0.00000000000E+00 -0.13907717768E+04  0.13907717768E+04  0.00000000000E+00 0. -1.
         21    1    1    2  503  504 -0.76208052315E+02  0.47389325941E+02 -0.39453169195E+02  0.98030444304E+02  0.00000000000E+00 0.  1.
         21    1    1    2  504  502  0.17961029857E+03 -0.44369914188E+02  0.43017688089E+03  0.46827416915E+03  0.00000000000E+00 0. -1.
         21    1    1    2  505  501 -0.94079560042E+02 -0.34350535692E+02  0.43312769977E+02  0.10911882955E+03  0.00000000000E+00 0.  1.
         -2    1    1    2    0  503 -0.93226862152E+01  0.31331123939E+02 -0.12698679642E+04  0.12702886280E+04  0.00000000000E+00 0. -1.
<scales pt_clust_3="163.49616" pt_clust_4="14000.00000" pt_clust_5="100.00873" pt_clust_6="32.68871"></scales>
<clustering>
<clus scale="   32.689">  2  6  1 -1</clus>
<clus scale="  100.009">  2  5  1 -1</clus>
<clus scale="  163.496">  2  3  1 -1</clus>
<clus scale="  163.496">  1  3  2 -1</clus>
</clustering>
</event>
<event>
 6    0  0.2433432E+002  0.1367878E+03  0.7546771E-02  0.1217718E+00
         -1   -1    0    0    0  501 -0.00000000000E+00  0.00000000000E+00  0.12671213739E+03  0.12671213739E+03  0.00000000000E+00 0. -1.
         21   -1    0    0  505  502  0.00000000000E+00 -0.00000000000E+00 -0.16435661896E+04  0.16435661896E+04  0.00000000000E+00 0.  1.
         21    1    1    2  503  501 -0.26533658484E+01 -0.45260954771E+02 -0.11854642782E+03  0.12692064421E+03  0.00000000000E+00 0.  1.
         21    1    1    2  504  502 -0.14048522677E+02 -0.62519689639E+02 -0.12064230024E+04  0.12081235588E+04  0.00000000000E+00 0.  1.
         21    1    1    2  505  503 -0.29271126110E+02 -0.23636339533E+02 -0.27200884405E+03  0.27459840970E+03  0.00000000000E+00 0.  1.
         -1    1    1    2    0  504  0.45973014635E+02  0.13141698394E+03  0.80124222070E+02  0.16063571429E+03  0.00000000000E+00 0. -1.
<scales pt_clust_3="47.67082" pt_clust_4="14000.00000" pt_clust_5="37.62280" pt_clust_6="136.78777"></scales>
<clustering>
<clus scale="   37.623">  2  5  1 -1</clus>
<clus scale="   47.671">  2  3  1 -1</clus>
<clus scale="  136.788">  1  6  2 -1</clus>
<clus scale="   37.623">  2  3  1 -1</clus>
</clustering>
</event>
<event>
 6    0  0.2433432E+002  0.1556579E+03  0.7546771E-02  0.1193688E+00
         21   -1    0    0  501  502  0.00000000000E+00  0.00000000000E+00  0.13582262870E+03  0.13582262870E+03  0.00000000000E+00 0. -1.
          2   -1    0    0  505    0 -0.00000000000E+00 -0.00000000000E+00 -0.22153780259E+04  0.22153780259E+04  0.00000000000E+00 0. -1.
         21    1    1    2  503  504 -0.95363656185E+02  0.91996291140E+02 -0.54170631993E+03  0.55767668192E+03  0.00000000000E+00 0. -1.
         21    1    1    2  504  502  0.12706896577E+03 -0.60096594098E+02  0.86940930110E+02  0.16527809296E+03  0.00000000000E+00 0. -1.
         21    1    1    2  505  503 -0.41929361373E+02  0.11853596930E+02 -0.35542630537E+03  0.35808719281E+03  0.00000000000E+00 0. -1.
          2    1    1    2  501    0  0.10224051792E+02 -0.43753293973E+02 -0.12693637020E+04  0.12701586869E+04  0.00000000000E+00 0. -1.
<scales pt_clust_3="36.90752" pt_clust_4="141.72875" pt_clust_5="36.90752" pt_clust_6="44.93197"></scales>
<clustering>
<clus scale="   36.908">  3  5 -1 -1</clus>
<clus scale="   44.932">  2  6  1 -1</clus>
<clus scale="  141.729">  1  4  2 -1</clus>
<clus scale="  141.729">  1  3  2 -1</clus>
</clustering>
</event>
<event>
 6    0  0.2433432E+002  0.8232521E+02  0.7546771E-02  0.1322579E+00
          2   -1    0    0  505    0 -0.00000000000E+00  0.00000000000E+00  0.37494754533E+03  0.37494754533E+03  0.00000000000E+00 0.  1.
         21   -1    0    0  503  502  0.00000000000E+00 -0.00000000000E+00 -0.96381507120E+02  0.96381507120E+02  0.00000000000E+00 0.  1.
         21    1    1    2  503  501 -0.17037960208E+02 -0.29762735776E+02 -0.12028034931E+02  0.36342621716E+02  0.00000000000E+00 0. -1.
         21    1    1    2  504  502  0.53288492907E+02 -0.14670437265E+02 -0.31708750945E+02  0.63720719490E+02  0.00000000000E+00 0.  1.
         21    1    1    2  505  504  0.57796975773E+02  0.35895997321E+02  0.54102730824E+02  0.86925936951E+02  0.00000000000E+00 0. -1.
          2    1    1    2  501    0 -0.94047508472E+02  0.85371757200E+01  0.26820009326E+03  0.28433977429E+03  0.00000000000E+00 0.  1.
<scales pt_clust_3="34.29450" pt_clust_4="54.27378" pt_clust_5="82.32521" pt_clust_6="14000.00000"></scales>
<clustering>
<clus scale="   34.294">  2  3  1 -1</clus>
<clus scale="   54.274">  2  4  1 -1</clus>
<clus scale="   82.325">  2  5  1 -1</clus>
<clus scale="   34.294">  2  3  1 -1</clus>
</clustering>
</event>
<event>
 6    0  0.2433432E+002  0.3564778E+03  0.7546771E-02  0.1059987E+00
         21   -1    0    0  501  502  0.00000000000E+00  0.00000000000E+00  0.21425822539E+03  0.21425822539E+03  0.00000000000E+00 0.  1.
          1   -1    0    0  504    0 -0.00000000000E+00 -0.00000000000E+00 -0.61334845743E+03  0.61334845743E+03  0.00000000000E+00 0.  1.
         21    1    1    2  503  505  0.30193915319E+01 -0.21637215510E+03 -0.61675688657E+02  0.22501092596E+03  0.00000000000E+00 0.  1.
         21    1    1    2  504  503  0.27019937571E+02 -0.26323802938E+02 -0.29318783563E+02  0.47776675241E+02  0.00000000000E+00 0.  1.
         21    1    1    2  505  502 -0.22656114520E+02 -0.85516802732E+02  0.19978981881E+02  0.90694998713E+02  0.00000000000E+00 0.  1.
          1    1    1    2  501    0 -0.73832145834E+01  0.32821276077E+03 -0.32807474171E+03  0.46412408291E+03  0.00000000000E+00 0.  1.
<scales pt_clust_3="60.52785" pt_clust_4="33.21711" pt_clust_5="60.52785" pt_clust_6="328.29579"></scales>
<clustering>
<clus scale="   33.217">  3  4 -1 -1</clus>
<clus scale="   60.528">  3  5 -1 -1</clus>
<clus scale="  328.296">  2  6  1 -1</clus>
<clus scale="  356.478">  1  3  2 -1</clus>
</clustering>
</event>
<event>
 6    0  0.2433432E+002  0.1819667E+03  0.7546771E-02  0.1165913E+00
         21   -1    0    0  501  502  0.00000000000E+00  0.00000000000E+00  0.59510484407E+02  0.59510484407E+02  0.00000000000E+00 0. -1.
          2   -1    0    0  503    0 -0.00000000000E+00 -0.00000000000E+00 -0.19574767928E+04  0.19574767928E+04  0.00000000000E+00 0.  1.
         21    1    1    2  503  505  0.31161959888E+02 -0.66546708567E+02 -0.36739444353E+03  0.37467080124E+03  0.00000000000E+00 0.  1.
         21    1    1    2  504  502 -0.88715577857E+02  0.15693604631E+03 -0.12048009616E+03  0.21682903393E+03  0.00000000000E+00 0. -1.
         21    1    1    2  505  504  0.53459252753E+02 -0.54252575078E+02 -0.18783815309E+03  0.20269288434E+03  0.00000000000E+00 0.  1.
          2    1    1    2  501    0  0.40943652158E+01 -0.36136762662E+02 -0.12222536157E+04  0.12227945577E+04  0.00000000000E+00 0.  1.
<scales pt_clust_3="55.26795" pt_clust_4="172.62537" pt_clust_5="55.26795" pt_clust_6="36.36797"></scales>
<clustering>
<clus scale="   36.368">  2  6  1 -1</clus>
<clus scale="   55.268">  3  5 -1 -1</clus>
<clus scale="  172.625">  1  4  2 -1</clus>
<clus scale="  172.625">  1  3  2 -1</clus>
</clustering>
</event>
<event>
 6    0  0.2433432E+002  0.1330310E+03  0.7546771E-02  0.1223026E+00
         21   -1    0    0  503  502  0.00000000000E+00  0.00000000000E+00  0.11069875985E+03  0.11069875985E+03  0.00000000000E+00 0.  1.
          2   -1    0    0  505    0 -0.00000000000E+00 -0.00000000000E+00 -0.86072947309E+03  0.86072947309E+03  0.00000000000E+00 0.  1.
         21    1    1    2  503  504 -0.88899291038E+02 -0.42149336058E+01 -0.32620433837E+03  0.33812737243E+03  0.00000000000E+00 0. -1.
         21    1    1    2  504  501 -0.68143198798E+02 -0.29551709760E+02 -0.21586028604E+03  0.22828154149E+03  0.00000000000E+00 0.  1.
         21    1    1    2  505  502  0.56089410006E+02  0.71549960184E+01  0.80424811066E+02  0.98312593892E+02  0.00000000000E+00 0.  1.
          2    1    1    2  501    0  0.10095307983E+03  0.26611647347E+02 -0.28839089989E+03  0.30670672513E+03  0.00000000000E+00 0.  1.
<scales pt_clust_3="31.41406" pt_clust_4="31.41406" pt_clust_5="56.54393" pt_clust_6="128.50987"></scales>
<clustering>
<clus scale="   31.414">  3  4 -1 -1</clus>
<clus scale="   56.544">  1  5  2 -1</clus>
<clus scale="  128.510">  2  6  1 -1</clus>
<clus scale="   56.544">  1  3  2 -1</clus>
</clustering>
</event>
<event>
 6    0  0.2433432E+002  0.1603765E+03  0.7546771E-02  0.1188272E+00
         21   -1    0    0  504  502  0.00000000000E+00  0.00000000000E+00  0.92908671030E+02  0.92908671030E+02  0.00000000000E+00 0. -1.
          1   -1    0    0  505    0 -0.00000000000E+00 -0.00000000000E+00 -0.15499032249E+04  0.15499032249E+04  0.00000000000E+00 0. -1.
         21    1    1    2  503  501 -0.23645851224E+02 -0.46711722833E+02 -0.10016205497E+03  0.11302012470E+03  0.00000000000E+00 0. -1.
         21    1    1    2  504  503  0.26681336004E+02 -0.97024552731E+02 -0.10087480318E+03  0.14248292333E+03  0.00000000000E+00 0. -1.
         21    1    1    2  505  502 -0.57503905066E+02  0.53970868739E+01  0.47879793900E+02  0.75022012160E+02  0.00000000000E+00 0. -1.
          1    1    1    2  501    0  0.54468420286E+02  0.13833918869E+03 -0.13038374896E+04  0.13122868357E+04  0.00000000000E+00 0. -1.
<scales pt_clust_3="46.72805" pt_clust_4="46.72805" pt_clust_5="57.75662" pt_clust_6="146.71049"></scales>
<clustering>
<clus scale="   46.728">  3  4 -1 -1</clus>
<clus scale="   57.757">  1  5  2 -1</clus>
<clus scale="  146.710">  2  6  1 -1</clus>
<clus scale="   57.757">  1  3  2 -1</clus>
</clustering>
</event>
<event>
 6    0  0.2433432E+002  0.9233143E+02  0.7546771E-02  0.1297302E+00
         21   -1    0    0  504  502  0.00000000000E+00  0.00000000000E+00  0.31317629670E+03  0.31317629670E+03  0.00000000000E+00 0. -1.
          2   -1    0    0  505    0 -0.00000000000E+00 -0.00000000000E+00 -0.20728759303E+04  0.20728759303E+04  0.00000000000E+00 0.  1.
         21    1    1    2  503  501 -0.24111883058E+02 -0.55149112370E+02 -0.85723124287E+02  0.10474378997E+03  0.00000000000E+00 0.  1.
         21    1    1    2  504  503 -0.26945443740E+02  0.89989656984E+02  0.29187989458E+03  0.30662365884E+03  0.00000000000E+00 0. -1.
         21    1    1    2  505  502  0.11460223034E+02 -0.52867442095E+02 -0.17211568009E+03  0.18041649171E+03  0.00000000000E+00 0. -1.
          2    1    1    2  501    0  0.39597103764E+02  0.18026897481E+02 -0.17937407238E+04  0.17942682865E+04  0.00000000000E+00 0.  1.
<scales pt_clust_3="50.12439" pt_clust_4="92.33143" pt_clust_5="14000.00000" pt_clust_6="43.50747"></scales>
<clustering>
<clus scale="   43.507">  2  6  1 -1</clus>
<clus scale="   50.124">  2  3  1 -1</clus>
<clus scale="   92.331">  1  4  2 -1</clus>
<clus scale="   92.331">  1  3  2 -1</clus>
</clustering>
</event>
<event>
 6    0  0.2433432E+002  0.9693664E+02  0.7546771E-02  0.1286873E+00
          2   -1    0    0  504    0 -0.00000000000E+00  0.00000000000E+00  0.69979659140E+03  0.69979659140E+03  0.00000000000E+00 0. -1.
         21   -1    0    0  505  502  0.00000000000E+00 -0.00000000000E+00 -0.43859958313E+03  0.43859958313E+03  0.00000000000E+00 0.  1.
         21    1    1    2  503  502 -0.33141363284E+02  0.26527524196E+02 -0.10534095997E+03  0.11357278437E+03  0.00000000000E+00 0.  1.
         21    1    1    2  504  503 -0.33132018908E+02 -0.11973510373E+03 -0.27738369338E+03  0.30393410321E+03  0.00000000000E+00 0.  1.
         21    1    1    2  505  501 -0.68964515977E+01  0.29748290285E+02 -0.28354893908E+02  0.41671594979E+02  0.00000000000E+00 0.  1.
          2    1    1    2  501    0  0.73169833790E+02  0.63459289247E+02  0.67227655553E+03  0.67921769197E+03  0.00000000000E+00 0. -1.
<scales pt_clust_3="49.22069" pt_clust_4="96.93664" pt_clust_5="30.53722" pt_clust_6="14000.00000"></scales>
<clustering>
<clus scale="   30.537">  2  5  1 -1</clus>
<clus scale="   49.221">  2  3  1 -1</clus>
<clus scale="   96.937">  2  4  1 -1</clus>
<clus scale="   30.537">  2  3  1 -1</clus>
</clustering>
</event>
<event>
 6    0  0.2433432E+002  0.6754783E+02  0.7546771E-02  0.1368636E+00
         21   -1    0    0  503  502  0.00000000000E+00  0.00000000000E+00  0.27489980245E+04  0.27489980245E+04  0.00000000000E+00 0. -1.
         -3   -1    0    0    0  501 -0.00000000000E+00 -0.00000000000E+00 -0.15855923004E+03  0.15855923004E+03  0.00000000000E+00 0.  1.
         21    1    1    2  503  501 -0.61141143118E+02 -0.42540609528E+02  0.28100563025E+03  0.29070966113E+03  0.00000000000E+00 0. -1.
         21    1    1    2  504  502  0.32494627627E+02 -0.58412482178E+02  0.23313467063E+04  0.23323047365E+04  0.00000000000E+00 0. -1.
         21    1    1    2  505  504 -0.21556993451E+02  0.99896160004E+02  0.10593027678E+03  0.14719093141E+03  0.00000000000E+00 0. -1.
         -3    1    1    2    0  505  0.50203508943E+02  0.10569317016E+01 -0.12784381887E+03  0.13735192550E+03  0.00000000000E+00 0.  1.
<scales pt_clust_3="66.87204" pt_clust_4="14000.00000" pt_clust_5="67.54783" pt_clust_6="50.21463"></scales>
<clustering>
<clus scale="   50.215">  2  6  1 -1</clus>
<clus scale="   66.872">  2  3  1 -1</clus>
<clus scale="   67.548">  2  5  1 -1</clus>
<clus scale="   67.548">  1  3  2 -1</clus>
</clustering>
</event>
<event>
 6    0  0.2433432E+002  0.2896526E+03  0.7546771E-02  0.1090531E+00
          2   -1    0    0  505    0 -0.00000000000E+00  0.00000000000E+00  0.16472217835E+04  0.16472217835E+04  0.00000000000E+00 0. -1.
         21   -1    0    0  503  502  0.00000000000E+00 -0.00000000000E+00 -0.15425851387E+03  0.15425851387E+03  0.00000000000E+00 0. -1.
         21    1    1    2  503  501 -0.10287660727E+02  0.53968426097E+02  0.26100778516E+02  0.60824975279E+02  0.00000000000E+00 0.  1.
         21    1    1    2  504  502 -0.33888229617E+02 -0.41312128111E+02 -0.16475743877E+02  0.55915598646E+02  0.00000000000E+00 0. -1.
         21    1    1    2  505  504 -0.26625685592E+02 -0.29319477996E+03  0.17010673765E+03  0.34001236496E+03  0.00000000000E+00 0. -1.
          2    1    1    2  501    0  0.70801575936E+02  0.28053848198E+03  0.13132314974E+04  0.13447273585E+04  0.00000000000E+00 0. -1.
<scales pt_clust_3="50.26890" pt_clust_4="53.43317" pt_clust_5="14000.00000" pt_clust_6="289.65255"></scales>
<clustering>
<clus scale="   53.433">  2  4  1 -1</clus>
<clus scale="   50.269">  2  3  1 -1</clus>
<clus scale="  289.653">  1  6  2 -1</clus>
<clus scale="   53.433">  2  3  1 -1</clus>
</clustering>
</event>
<event>
 6    0  0.2433432E+002  0.2209265E+03  0.7546771E-02  0.1133194E+00
         -3   -1    0    0    0  501 -0.00000000000E+00  0.00000000000E+00  0.17821566070E+03  0.17821566070E+03  0.00000000000E+00 0.  1.
         21   -1    0    0  504  502  0.00000000000E+00 -0.00000000000E+00 -0.97345929324E+03  0.97345929324E+03  0.00000000000E+00 0.  1.
         21    1    1    2  503  505  0.15891960075E+03 -0.24177575272E+02 -0.37038452717E+02  0.16496012132E+03  0.00000000000E+00 0.  1.
         21    1    1    2  504  503  0.32491332426E+02  0.95309222250E+01 -0.71658156236E+03  0.71738111257E+03  0.00000000000E+00 0.  1.
         21    1    1    2  505  501  0.19313751515E+02 -0.41632164434E+02 -0.20300590674E+02  0.50183384649E+02  0.00000000000E+00 0. -1.
         -3    1    1    2    0  502 -0.21072468469E+03  0.56278817482E+02 -0.21323026785E+02  0.21915033540E+03  0.00000000000E+00 0.  1.
<scales pt_clust_3="43.22159" pt_clust_4="33.86038" pt_clust_5="43.22159" pt_clust_6="204.71348"></scales>
<clustering>
<clus scale="   33.860">  2  4  1 -1</clus>
<clus scale="   43.222">  3  5 -1 -1</clus>
<clus scale="  204.713">  1  6  2 -1</clus>
<clus scale="   33.860">  2  3  1 -1</clus>
</clustering>
</event>
<event>
 6    0  0.3310980E+002  0.1207867E+03  0.7546771E-02  0.1241805E+00
         21   -1    0    0  503  502  0.00000000000E+00  0.00000000000E+00  0.18870909573E+03  0.18870909573E+03  0.00000000000E+00 0. -1.
          2   -1    0    0  504    0 -0.00000000000E+00 -0.00000000000E+00 -0.17050711664E+04  0.17050711664E+04  0.00000000000E+00 0.  1.
         21    1    1    2  503  501 -0.96003065523E+02  0.67934899826E+02  0.14553732391E+03  0.18711721422E+03  0.00000000000E+00 0. -1.
         21    1    1    2  504  505  0.97930585245E+01 -0.40138068522E+02 -0.82805279878E+02  0.92540169200E+02  0.00000000000E+00 0. -1.
         21    1    1    2  505  502  0.20693204956E+02  0.28135528286E+02 -0.23259120439E+01  0.35003236281E+02  0.00000000000E+00 0. -1.
          2    1    1    2  501    0  0.65516802042E+02 -0.55932359590E+02 -0.15767682027E+04  0.15791196425E+04  0.00000000000E+00 0.  1.
<scales pt_clust_3="120.78668" pt_clust_4="40.68915" pt_clust_5="34.92587" pt_clust_6="14000.00000"></scales>
<clustering>
<clus scale="   34.926">  1  5  2 -1</clus>
<clus scale="   40.689">  2  4  1 -1</clus>
<clus scale="  120.787">  1  3  2 -1</clus>
<clus scale="   34.926">  1  3  2 -1</clus>
</clustering>
</event>
<event>
 6    0  0.2433432E+002  0.2139819E+03  0.7546771E-02  0.1138451E+00
         21   -1    0    0  504  502  0.00000000000E+00  0.00000000000E+00  0.32132392375E+03  0.32132392375E+03  0.00000000000E+00 0. -1.
          2   -1    0    0  505    0 -0.00000000000E+00 -0.00000000000E+00 -0.20109386939E+03  0.20109386939E+03  0.00000000000E+00 0. -1.
         21    1    1    2  503  502  0.81491807094E+02  0.67816567949E+02  0.25790858191E+02  0.10911081467E+03  0.00000000000E+00 0. -1.
         21    1    1    2  504  501 -0.20841081494E+02 -0.30881439451E+02  0.91290956404E+02  0.98600470088E+02  0.00000000000E+00 0. -1.
         21    1    1    2  505  503  0.80607910281E+02  0.89493964252E+02 -0.25121720909E+02  0.12303619670E+03  0.00000000000E+00 0. -1.
          2    1    1    2  501    0 -0.14125863588E+03 -0.12642909275E+03  0.28269960676E+02  0.19167031168E+03  0.00000000000E+00 0. -1.
<scales pt_clust_3="49.33244" pt_clust_4="37.25606" pt_clust_5="49.33244" pt_clust_6="207.16998"></scales>
<clustering>
<clus scale="   37.256">  1  4  2 -1</clus>
<clus scale="   49.332">  3  5 -1 -1</clus>
<clus scale="  207.170">  2  6  1 -1</clus>
<clus scale="   37.256">  1  3  2 -1</clus>
</clustering>
</event>
<event>
 6    0  0.2433432E+002  0.1305773E+03  0.7546771E-02  0.1226602E+00
          1   -1    0    0  505    0 -0.00000000000E+00  0.00000000000E+00  0.92162651723E+02  0.92162651723E+02  0.00000000000E+00 0.  1.
         21   -1    0    0  503  502  0.00000000000E+00 -0.00000000000E+00 -0.31880867198E+03  0.31880867198E+03  0.00000000000E+00 0.  1.
         21    1    1    2  503  501  0.24492977564E+02  0.37676390257E+02 -0.11491326401E+03  0.12338749766E+03  0.00000000000E+00 0.  1.
         21    1    1    2  504  502 -0.49623972913E+02 -0.29918351752E+01 -0.20900630537E+02  0.53928898767E+02  0.00000000000E+00 0.  1.
         21    1    1    2  505  504 -0.60633089957E+02  0.49691437179E+02 -0.81342634970E+02  0.11297006148E+03  0.00000000000E+00 0.  1.
          1    1    1    2  501    0  0.85764085306E+02 -0.84375992261E+02 -0.94894907407E+01  0.12068486580E+03  0.00000000000E+00 0.  1.
<scales pt_clust_3="44.93792" pt_clust_4="44.08088" pt_clust_5="44.08088" pt_clust_6="118.26375"></scales>
<clustering>
<clus scale="   44.081">  4  5 -1 -1</clus>
<clus scale="   44.938">  2  3  1 -1</clus>
<clus scale="  118.264">  1  6  2 -1</clus>
<clus scale="   44.938">  2  3  1 -1</clus>
</clustering>
</event>
<event>
 6    0  0.2433432E+002  0.1043770E+03  0.7546771E-02  0.1271352E+00
         -3   -1    0    0    0  501 -0.00000000000E+00  0.00000000000E+00  0.22575150683E+04  0.22575150683E+04  0.00000000000E+00 0. -1.
         21   -1    0    0  503  502  0.00000000000E+00 -0.00000000000E+00 -0.29272076566E+02  0.29272076566E+02  0.00000000000E+00 0. -1.
         21    1    1    2  503  504  0.35022844527E+02  0.33024988332E+01  0.32359620125E+02  0.47798024561E+02  0.00000000000E+00 0. -1.
         21    1    1    2  504  501 -0.40393864208E+02 -0.86118789531E+02  0.20244434640E+03  0.22367794608E+03  0.00000000000E+00 0. -1.
         21    1    1    2  505  502 -0.99868826227E+02  0.69622394803E+02  0.39448311946E+03  0.41284136403E+03  0.00000000000E+00 0. -1.
         -3    1    1    2    0  505  0.10523984591E+03  0.13193895895E+02  0.15989559057E+04  0.16024698102E+04  0.00000000000E+00 0. -1.
<scales pt_clust_3="35.17821" pt_clust_4="87.60390" pt_clust_5="104.37702" pt_clust_6="14000.00000"></scales>
<clustering>
<clus scale="   35.178">  2  3  1 -1</clus>
<clus scale="   87.604">  2  4  1 -1</clus>
<clus scale="  104.377">  2  5  1 -1</clus>
<clus scale="   35.178">  2  3  1 -1</clus>
</clustering>
</event>
<event>
 6    0  0.2433432E+002  0.9615168E+02  0.7546771E-02  0.1288603E+00
          2   -1    0    0  504    0 -0.00000000000E+00  0.00000000000E+00  0.85809278385E+03  0.85809278385E+03  0.00000000000E+00 0. -1.
         21   -1    0    0  505  502  0.00000000000E+00 -0.00000000000E+00 -0.89953501057E+03  0.89953501057E+03  0.00000000000E+00 0.  1.
         21    1    1    2  503  502 -0.12096532779E+02  0.34678538380E+02 -0.84326411168E+03  0.84406355754E+03  0.00000000000E+00 0.  1.
         21    1    1    2  504  503  0.25473031390E+02  0.76189685886E+02 -0.14283152454E+02  0.81595048916E+02  0.00000000000E+00 0. -1.
         21    1    1    2  505  501 -0.53607633698E+02 -0.50780210729E+02  0.23359350149E+03  0.24498639172E+03  0.00000000000E+00 0.  1.
          2    1    1    2  501    0  0.40231135087E+02 -0.60088013536E+02  0.58251153592E+03  0.58698279624E+03  0.00000000000E+00 0. -1.
<scales pt_clust_3="36.72774" pt_clust_4="14000.00000" pt_clust_5="96.15168" pt_clust_6="70.89124"></scales>
<clustering>
<clus scale="   36.728">  2  3  1 -1</clus>
<clus scale="   70.891">  1  6  2 -1</clus>
<clus scale="   96.152">  1  5  2 -1</clus>
<clus scale="   36.728">  2  3  1 -1</clus>
</clustering>
</event>
<event>
 6    0  0.2433432E+002  0.9379119E+02  0.7546771E-02  0.1293922E+00
          2   -1    0    0  504    0 -0.00000000000E+00  0.00000000000E+00  0.14125973226E+03  0.14125973226E+03  0.00000000000E+00 0. -1.
         21   -1    0    0  503  502  0.00000000000E+00 -0.00000000000E+00 -0.80203464948E+03  0.80203464948E+03  0.00000000000E+00 0.  1.
         21    1    1    2  503  501 -0.20815548461E+02 -0.11277428118E+03 -0.12605618150E+03  0.17041562853E+03  0.00000000000E+00 0. -1.
         21    1    1    2  504  505  0.34670982560E+02  0.28383778692E+02 -0.10776101065E+03  0.11670540408E+03  0.00000000000E+00 0.  1.
         21    1    1    2  505  502  0.25154210168E+02  0.86729264536E+02 -0.53433172702E+03  0.54190875073E+03  0.00000000000E+00 0.  1.
          2    1    1    2  501    0 -0.39009644268E+02 -0.23387620458E+01  0.10737400195E+03  0.11426459840E+03  0.00000000000E+00 0. -1.
<scales pt_clust_3="14000.00000" pt_clust_4="40.29597" pt_clust_5="93.79119" pt_clust_6="39.07969"></scales>
<clustering>
<clus scale="   39.080">  1  6  2 -1</clus>
<clus scale="   40.296">  1  4  2 -1</clus>
<clus scale="   93.791">  2  5  1 -1</clus>
<clus scale="   93.791">  2  3  1 -1</clus>
</clustering>
</event>
<event>
 6    0  0.2433432E+002  0.1327991E+03  0.7546771E-02  0.1223361E+00
         21   -1    0    0  501  502  0.00000000000E+00  0.00000000000E+00  0.20749576750E+03  0.20749576750E+03  0.00000000000E+00 0. -1.
          1   -1    0    0  504    0 -0.00000000000E+00 -0.00000000000E+00 -0.10004949962E+04  0.10004949962E+04  0.00000000000E+00 0. -1.
         21    1    1    2  503  505 -0.42152319691E+02  0.30867014883E+02  0.55953345390E+02  0.76553037324E+02  0.00000000000E+00 0.  1.
         21    1    1    2  504  503  0.86670002053E+01 -0.10954333337E+03 -0.17241132984E+03  0.20445176799E+03  0.00000000000E+00 0.  1.
         21    1    1    2  505  502 -0.42122847957E+01  0.81554004640E+02  0.11140682037E+03  0.13813138181E+03  0.00000000000E+00 0. -1.
          1    1    1    2  501    0  0.37697604282E+02 -0.28776861538E+01 -0.78794806467E+03  0.78885457662E+03  0.00000000000E+00 0. -1.
<scales pt_clust_3="45.27996" pt_clust_4="119.76550" pt_clust_5="45.27996" pt_clust_6="37.80728"></scales>
<clustering>
<clus scale="   37.807">  2  6  1 -1</clus>
<clus scale="   45.280">  3  5 -1 -1</clus>
<clus scale="  119.766">  2  4  1 -1</clus>
<clus scale="  132.799">  1  3  2 -1</clus>
</clustering>
</event>
<event>
 6    0  0.2433432E+002  0.9068932E+02  0.7546771E-02  0.1301191E+00
          2   -1    0    0  505    0 -0.00000000000E+00  0.00000000000E+00  0.25467111243E+03  0.25467111243E+03  0.00000000000E+00 0. -1.
         21   -1    0    0  503  502  0.00000000000E+00 -0.00000000000E+00 -0.62909862264E+03  0.62909862264E+03  0.00000000000E+00 0.  1.
         21    1    1    2  503  501  0.51431538616E+02  0.38640795552E+02 -0.65184256265E+02  0.91582211756E+02  0.00000000000E+00 0.  1.
         21    1    1    2  504  502  0.41570504617E+02 -0.63765671045E+02 -0.25210675746E+03  0.26334765010E+03  0.00000000000E+00 0.  1.
         21    1    1    2  505  504 -0.17250401972E+03 -0.13423128830E+02 -0.25728681900E+03  0.31005535706E+03  0.00000000000E+00 0.  1.
          2    1    1    2  501    0  0.79501976490E+02  0.38548004324E+02  0.20015032252E+03  0.21878451616E+03  0.00000000000E+00 0. -1.
<scales pt_clust_3="64.32973" pt_clust_4="79.97156" pt_clust_5="90.68932" pt_clust_6="14000.00000"></scales>
<clustering>
<clus scale="   64.330">  2  3  1 -1</clus>
<clus scale="   79.972">  2  4  1 -1</clus>
<clus scale="   90.689">  2  5  1 -1</clus>
<clus scale="   64.330">  2  3  1 -1</clus>
</clustering>
</event>
<event>
 6    0  0.2433432E+002  0.6071679E+02  0.7546771E-02  0.1394848E+00
         21   -1    0    0  505  502  0.00000000000E+00  0.00000000000E+00  0.68708421780E+03  0.68708421780E+03  0.00000000000E+00 0.  1.
          2   -1    0    0  504    0 -0.00000000000E+00 -0.00000000000E+00 -0.27181181990E+04  0.27181181990E+04  0.00000000000E+00 0. -1.
         21    1    1    2  503  502  0.40293250785E+02 -0.51191530506E+02  0.92713266995E+02  0.11331314456E+03  0.00000000000E+00 0. -1.
         21    1    1    2  504  503 -0.69419941732E+02  0.39996786939E+02  0.53858161309E+03  0.54450805800E+03  0.00000000000E+00 0.  1.
         21    1    1    2  505  501 -0.18624013793E+02  0.48677689026E+02  0.26085009057E+02  0.58282064104E+02  0.00000000000E+00 0.  1.
          2    1    1    2  501    0  0.47750704741E+02 -0.37482945459E+02 -0.26884138704E+04  0.26890991501E+04  0.00000000000E+00 0. -1.
<scales pt_clust_3="57.25040" pt_clust_4="60.71679" pt_clust_5="52.11882" pt_clust_6="14000.00000"></scales>
<clustering>
<clus scale="   52.119">  1  5  2 -1</clus>
<clus scale="   57.250">  1  3  2 -1</clus>
<clus scale="   60.717">  1  4  2 -1</clus>
<clus scale="   52.119">  1  3  2 -1</clus>
</clustering>
</event>
<event>
 6    0  0.2433432E+002  0.6331039E+02  0.7546771E-02  0.1384442E+00
          1   -1    0    0  505    0 -0.00000000000E+00  0.00000000000E+00  0.96544246811E+03  0.96544246811E+03  0.00000000000E+00 0.  1.
         21   -1    0    0  503  502  0.00000000000E+00 -0.00000000000E+00 -0.12299025568E+03  0.12299025568E+03  0.00000000000E+00 0.  1.
         21    1    1    2  503  504 -0.60490776821E+02  0.17717186456E+02 -0.10046813359E+03  0.11860387280E+03  0.00000000000E+00 0.  1.
         21    1    1    2  504  501  0.19356539214E+02 -0.58788786014E+02  0.27083593680E+03  0.27781810890E+03  0.00000000000E+00 0. -1.
         21    1    1    2  505  502 -0.34621122232E+02 -0.20163107543E+02  0.59510265016E+02  0.71740118850E+02  0.00000000000E+00 0.  1.
          1    1    1    2  501    0  0.75755359839E+02  0.61234707101E+02  0.61257414421E+03  0.62027062324E+03  0.00000000000E+00 0.  1.
<scales pt_clust_3="63.31039" pt_clust_4="60.10956" pt_clust_5="40.06461" pt_clust_6="14000.00000"></scales>
<clustering>
<clus scale="   40.065">  1  5  2 -1</clus>
<clus scale="   63.310">  2  3  1 -1</clus>
<clus scale="   60.110">  2  4  1 -1</clus>
<clus scale="   63.310">  2  3  1 -1</clus>
</clustering>
</event>
<event>
 6    0  0.2433432E+002  0.1811727E+03  0.7546771E-02  0.1166673E+00
         -3   -1    0    0    0  501 -0.00000000000E+00  0.00000000000E+00  0.17740030873E+04  0.17740030873E+04  0.00000000000E+00 0.  1.
         21   -1    0    0  505  502  0.00000000000E+00 -0.00000000000E+00 -0.10207694704E+04  0.10207694704E+04  0.00000000000E+00 0. -1.
         21    1    1    2  503  504  0.13436157579E+03 -0.57853103050E+02 -0.18846220808E+03  0.23857497449E+03  0.00000000000E+00 0. -1.
         21    1    1    2  504  502  0.89228945185E+02  0.25235037523E+02 -0.53212481377E+03  0.54014389676E+03  0.00000000000E+00 0. -1.
         21    1    1    2  505  501 -0.23673782031E+03 -0.95749126090E+02 -0.20795826230E+03  0.32933164071E+03  0.00000000000E+00 0. -1.
         -3    1    1    2    0  503  0.13147299341E+02  0.12836719162E+03  0.16817789011E+04  0.16867220457E+04  0.00000000000E+00 0.  1.
<scales pt_clust_3="14000.00000" pt_clust_4="92.72870" pt_clust_5="181.17270" pt_clust_6="129.21384"></scales>
<clustering>
<clus scale="   92.729">  2  4  1 -1</clus>
<clus scale="  129.214">  1  6  2 -1</clus>
<clus scale="  181.173">  1  5  2 -1</clus>
<clus scale="   92.729">  2  3  1 -1</clus>
</clustering>
</event>
<event>
 6    0  0.2433432E+002  0.1280366E+03  0.7546771E-02  0.1230399E+00
          2   -1    0    0  505    0 -0.00000000000E+00  0.00000000000E+00  0.15567053031E+04  0.15567053031E+04  0.00000000000E+00 0. -1.
         21   -1    0    0  501  502  0.00000000000E+00 -0.00000000000E+00 -0.66544565735E+02  0.66544565735E+02  0.00000000000E+00 0.  1.
         21    1    1    2  503  502  0.70387472092E+02 -0.87626506236E+02  0.10347454649E+02  0.11287103544E+03  0.00000000000E+00 0.  1.
         21    1    1    2  504  503 -0.65589160755E+02  0.10955724068E+03  0.36072966891E+03  0.38266254197E+03  0.00000000000E+00 0.  1.
         21    1    1    2  505  504 -0.43051405423E+02  0.33949853066E+02  0.24721987750E+03  0.25322654653E+03  0.00000000000E+00 0. -1.
          2    1    1    2  501    0  0.38253094086E+02 -0.55880587509E+02  0.87186373634E+03  0.87448974495E+03  0.00000000000E+00 0. -1.
<scales pt_clust_3="118.48267" pt_clust_4="31.80061" pt_clust_5="31.80061" pt_clust_6="67.71956"></scales>
<clustering>
<clus scale="   31.801">  4  5 -1 -1</clus>
<clus scale="   67.720">  1  6  2 -1</clus>
<clus scale="  118.483">  2  3  1 -1</clus>
<clus scale="  118.483">  2  3  1 -1</clus>
</clustering>
</event>
<event>
 6    0  0.2433432E+002  0.1203896E+03  0.7546771E-02  0.1242456E+00
         -3   -1    0    0    0  501 -0.00000000000E+00  0.00000000000E+00  0.45910538488E+03  0.45910538488E+03  0.00000000000E+00 0.  1.
         21   -1    0    0  504  502  0.00000000000E+00 -0.00000000000E+00 -0.30355512061E+03  0.30355512061E+03  0.00000000000E+00 0.  1.
         21    1    1    2  503  502 -0.42473454093E+02  0.68437440167E+02  0.69590236656E+02  0.10644472066E+03  0.00000000000E+00 0.  1.
         21    1    1    2  504  501  0.11082440811E+03 -0.57804432984E+00 -0.25564244266E+03  0.27863137307E+03  0.00000000000E+00 0.  1.
         21    1    1    2  505  503 -0.45674541239E+02  0.86753622291E+01  0.28644925525E+02  0.54607301576E+02  0.00000000000E+00 0. -1.
         -3    1    1    2    0  505 -0.22676412775E+02 -0.76534758066E+02  0.31295754475E+03  0.32297711019E+03  0.00000000000E+00 0.  1.
<scales pt_clust_3="38.52359" pt_clust_4="109.19025" pt_clust_5="38.52359" pt_clust_6="79.82349"></scales>
<clustering>
<clus scale="   38.524">  3  5 -1 -1</clus>
<clus scale="   79.823">  1  6  2 -1</clus>
<clus scale="  109.190">  2  4  1 -1</clus>
<clus scale="  109.190">  2  3  1 -1</clus>
</clustering>
</event>
<event>
 6    0  0.2433432E+002  0.1216351E+03  0.7546771E-02  0.1240424E+00
         21   -1    0    0  503  502  0.00000000000E+00  0.00000000000E+00  0.54513358737E+03  0.54513358737E+03  0.00000000000E+00 0.  1.
          2   -1    0    0  504    0 -0.00000000000E+00 -0.00000000000E+00 -0.15298509136E+04  0.15298509136E+04  0.00000000000E+00 0.  1.
         21    1    1    2  503  501 -0.45086984542E+02  0.43597022929E+02  0.80726714952E+02  0.10222690003E+03  0.00000000000E+00 0.  1.
         21    1    1    2  504  505  0.17933328724E+02  0.52628796351E+02 -0.16785002708E+02  0.58078660456E+02  0.00000000000E+00 0.  1.
         21    1    1    2  505  502 -0.37922138496E+02  0.85518015803E+01  0.42956380926E+03  0.43131924155E+03  0.00000000000E+00 0.  1.
          2    1    1    2  501    0  0.65075794313E+02 -0.10477762086E+03 -0.14782228477E+04  0.14833596989E+04  0.00000000000E+00 0.  1.
<scales pt_clust_3="14000.00000" pt_clust_4="55.29521" pt_clust_5="38.87444" pt_clust_6="121.63514"></scales>
<clustering>
<clus scale="   38.874">  1  5  2 -1</clus>
<clus scale="   55.295">  1  4  2 -1</clus>
<clus scale="  121.635">  2  6  1 -1</clus>
<clus scale="   38.874">  1  3  2 -1</clus>
</clustering>
</event>
<event>
 6    0  0.2433432E+002  0.9520830E+02  0.7546771E-02  0.1290708E+00
          1   -1    0    0  504    0 -0.00000000000E+00  0.00000000000E+00  0.10288674758E+04  0.10288674758E+04  0.00000000000E+00 0. -1.
         21   -1    0    0  503  502  0.00000000000E+00 -0.00000000000E+00 -0.34062795785E+02  0.34062795785E+02  0.00000000000E+00 0. -1.
         21    1    1    2  503  501 -0.54374303782E+02  0.75330751279E+02  0.17962474515E+03  0.20222842548E+03  0.00000000000E+00 0. -1.
         21    1    1    2  504  505  0.86034244826E+02 -0.45133541961E+02  0.10491870750E+03  0.14299252804E+03  0.00000000000E+00 0. -1.
         21    1    1    2  505  502  0.64731233817E+01 -0.29630427238E+02  0.69688328043E+02  0.76002148720E+02  0.00000000000E+00 0.  1.
          1    1    1    2  501    0 -0.38133064426E+02 -0.56678207927E+00  0.64057289934E+03  0.64170716936E+03  0.00000000000E+00 0. -1.
<scales pt_clust_3="95.20830" pt_clust_4="14000.00000" pt_clust_5="30.32925" pt_clust_6="38.03050"></scales>
<clustering>
<clus scale="   30.329">  2  5  1 -1</clus>
<clus scale="   38.030">  1  6  2 -1</clus>
<clus scale="   95.208">  1  3  2 -1</clus>
<clus scale="   30.329">  2  3  1 -1</clus>
</clustering>
</event>
<event>
 6    0  0.2433432E+002  0.1345172E+03  0.7546771E-02  0.1220903E+00
          1   -1    0    0  503    0 -0.00000000000E+00  0.00000000000E+00  0.11616159103E+04  0.11616159103E+04  0.00000000000E+00 0.  1.
         21   -1    0    0  505  502  0.00000000000E+00 -0.00000000000E+00 -0.38022299168E+03  0.38022299168E+03  0.00000000000E+00 0. -1.
         21    1    1    2  503  504 -0.23461188146E+02 -0.18624081736E+03  0.25059422881E+03  0.31310307714E+03  0.00000000000E+00 0. -1.
         21    1    1    2  504  502  0.26720353438E+02 -0.14399518885E+02 -0.33027586772E+03  0.33166771358E+03  0.00000000000E+00 0. -1.
         21    1    1    2  505  501 -0.18943902821E+02  0.75954988843E+02  0.10691385192E+03  0.13250888090E+03  0.00000000000E+00 0. -1.
          1    1    1    2  501    0  0.15684737529E+02  0.12468534740E+03  0.75416070559E+03  0.76455923034E+03  0.00000000000E+00 0.  1.
<scales pt_clust_3="134.51723" pt_clust_4="30.35331" pt_clust_5="73.20379" pt_clust_6="14000.00000"></scales>
<clustering>
<clus scale="   30.353">  2  4  1 -1</clus>
<clus scale="   73.204">  2  5  1 -1</clus>
<clus scale="  134.517">  2  3  1 -1</clus>
<clus scale="   30.353">  2  3  1 -1</clus>
</clustering>
</event>
<event>
 6    0  0.2433432E+002  0.1313561E+03  0.7546771E-02  0.1225457E+00
         21   -1    0    0  504  502  0.00000000000E+00  0.00000000000E+00  0.60661864661E+02  0.60661864661E+02  0.00000000000E+00 0.  1.
          1   -1    0    0  503    0 -0.00000000000E+00 -0.00000000000E+00 -0.55353958642E+03  0.55353958642E+03  0.00000000000E+00 0.  1.
         21    1    1    2  503  505  0.21044067419E+02  0.48161440139E+02 -0.75550079429E+02  0.92033643802E+02  0.00000000000E+00 0.  1.
         21    1    1    2  504  501 -0.45396891117E+02 -0.27554670231E+01 -0.16665216958E+02  0.48437586417E+02  0.00000000000E+00 0.  1.
         21    1    1    2  505  502  0.78890351915E+02  0.52062543227E+02 -0.52565750626E+02  0.10815430723E+03  0.00000000000E+00 0.  1.
          1    1    1    2  501    0 -0.54537528218E+02 -0.97468516343E+02 -0.34809667474E+03  0.36557591363E+03  0.00000000000E+00 0.  1.
<scales pt_clust_3="44.92614" pt_clust_4="45.48044" pt_clust_5="44.92614" pt_clust_6="116.72447"></scales>
<clustering>
<clus scale="   44.926">  3  5 -1 -1</clus>
<clus scale="   45.480">  1  4  2 -1</clus>
<clus scale="  116.724">  2  6  1 -1</clus>
<clus scale="   45.480">  1  3  2 -1</clus>
</clustering>
</event>
<event>
 6    0  0.2433432E+002  0.1439117E+03  0.7546771E-02  0.1208160E+00
          2   -1    0    0  504    0 -0.00000000000E+00  0.00000000000E+00  0.89519678510E+03  0.89519678510E+03  0.00000000000E+00 0.  1.
         21   -1    0    0  505  502  0.00000000000E+00 -0.00000000000E+00 -0.14625169016E+04  0.14625169016E+04  0.00000000000E+00 0.  1.
         21    1    1    2  503  501 -0.53208724630E+02 -0.50046163378E+02  0.10786169519E+03  0.13026869207E+03  0.00000000000E+00 0.  1.
         21    1    1    2  504  502  0.53802384941E+02  0.12465938003E+03 -0.14437870249E+04  0.14501571056E+04  0.00000000000E+00 0.  1.
         21    1    1    2  505  503 -0.12961550935E+02 -0.45823036845E+02  0.13952675309E+03  0.14742953346E+03  0.00000000000E+00 0.  1.
          2    1    1    2  501    0  0.12367890624E+02 -0.28790179811E+02  0.62907846008E+03  0.62985835560E+03  0.00000000000E+00 0.  1.
<scales pt_clust_3="42.81104" pt_clust_4="135.51648" pt_clust_5="42.81104" pt_clust_6="31.33431"></scales>
<clustering>
<clus scale="   31.334">  1  6  2 -1</clus>
<clus scale="   42.811">  3  5 -1 -1</clus>
<clus scale="  135.516">  2  4  1 -1</clus>
<clus scale="  135.516">  2  3  1 -1</clus>
</clustering>
</event>
<event>
 6    0  0.2433432E+002  0.9430683E+02  0.7546771E-02  0.1292745E+00
          4   -1    0    0  502    0 -0.00000000000E+00  0.00000000000E+00  0.53655119904E+03  0.53655119904E+03  0.00000000000E+00 0. -1.
         21   -1    0    0  505  502  0.00000000000E+00 -0.00000000000E+00 -0.71044944948E+03  0.71044944948E+03  0.00000000000E+00 0. -1.
         21    1    1    2  503  504 -0.10563716478E+03  0.61980117840E+02 -0.72437041654E+02  0.14229501254E+03  0.00000000000E+00 0. -1.
         21    1    1    2  504  501 -0.11148865553E+02 -0.40683279240E+02 -0.65710198598E+02  0.78084932046E+02  0.00000000000E+00 0.  1.
         21    1    1    2  505  503  0.92787215989E+02  0.65050643154E+00 -0.52659145270E+03  0.53470407579E+03  0.00000000000E+00 0. -1.
          4    1    1    2  501    0  0.23998814345E+02 -0.21947345031E+02  0.49084044251E+03  0.49191662815E+03  0.00000000000E+00 0. -1.
<scales pt_clust_3="94.30683" pt_clust_4="44.39114" pt_clust_5="14000.00000" pt_clust_6="32.52121"></scales>
<clustering>
<clus scale="   32.521">  1  6  2 -1</clus>
<clus scale="   44.391">  1  4  2 -1</clus>
<clus scale="   94.307">  1  3  2 -1</clus>
<clus scale="   94.307">  2  3  1 -1</clus>
</clustering>
</event>
<event>
 6    0  0.2433432E+002  0.8977438E+02  0.7546771E-02  0.1303399E+00
         21   -1    0    0  501  502  0.00000000000E+00  0.00000000000E+00  0.13822305595E+03  0.13822305595E+03  0.00000000000E+00 0. -1.
          2   -1    0    0  504    0 -0.00000000000E+00 -0.00000000000E+00 -0.22548817123E+04  0.22548817123E+04  0.00000000000E+00 0.  1.
         21    1    1    2  503  505 -0.69505909747E+02  0.35913832704E+02 -0.66201363612E+01  0.78515610388E+02  0.00000000000E+00 0. -1.
         21    1    1    2  504  503  0.41657608118E+02 -0.10798695921E+03 -0.39738977668E+02  0.12237534891E+03  0.00000000000E+00 0. -1.
         21    1    1    2  505  502 -0.16369668617E+01  0.39397830358E+02  0.54328403789E+02  0.67130054042E+02  0.00000000000E+00 0. -1.
          2    1    1    2  501    0  0.29485268490E+02  0.32675296150E+02 -0.21246279461E+04  0.21250837549E+04  0.00000000000E+00 0.  1.
<scales pt_clust_3="14000.00000" pt_clust_4="89.77438" pt_clust_5="39.43182" pt_clust_6="44.09487"></scales>
<clustering>
<clus scale="   39.432">  1  5  2 -1</clus>
<clus scale="   44.095">  2  6  1 -1</clus>
<clus scale="   89.774">  2  4  1 -1</clus>
<clus scale="   39.432">  1  3  2 -1</clus>
</clustering>
</event>
<event>
 6    0  0.2433432E+002  0.2096727E+03  0.7546771E-02  0.1141825E+00
         21   -1    0    0  505  502  0.00000000000E+00  0.00000000000E+00  0.28318253211E+03  0.28318253211E+03  0.00000000000E+00 0. -1.
          1   -1    0    0  502    0 -0.00000000000E+00 -0.00000000000E+00 -0.10543739459E+04  0.10543739459E+04  0.00000000000E+00 0.  1.
         21    1    1    2  503  501  0.15110653358E+03  0.79074866857E+02 -0.88391916753E+02  0.19209151467E+03  0.00000000000E+00 0. -1.
         21    1    1    2  504  503  0.43215956094E+02  0.41847403007E+02  0.93332176518E-01  0.60156734539E+02  0.00000000000E+00 0.  1.
         21    1    1    2  505  504 -0.18056816752E+03 -0.71993640571E+02  0.15330394714E+03  0.24756826859E+03  0.00000000000E+00 0. -1.
          1    1    1    2  501    0 -0.13754322155E+02 -0.48928629293E+02 -0.83619677637E+03  0.83773996023E+03  0.00000000000E+00 0.  1.
<scales pt_clust_3="34.87985" pt_clust_4="34.87985" pt_clust_5="201.27977" pt_clust_6="50.82511"></scales>
<clustering>
<clus scale="   34.880">  3  4 -1 -1</clus>
<clus scale="   50.825">  2  6  1 -1</clus>
<clus scale="  201.280">  1  5  2 -1</clus>
<clus scale="  201.280">  1  3  2 -1</clus>
</clustering>
</event>
<event>
 6    0  0.2433432E+002  0.9941867E+02  0.7546771E-02  0.1281523E+00
         -1   -1    0    0    0  501 -0.00000000000E+00  0.00000000000E+00  0.59045995948E+02  0.59045995948E+02  0.00000000000E+00 0. -1.
         21   -1    0    0  505  502  0.00000000000E+00 -0.00000000000E+00 -0.42015480079E+03  0.42015480079E+03  0.00000000000E+00 0.  1.
         21    1    1    2  503  502  0.10753762178E+02 -0.59482745914E+02 -0.48845630384E+02  0.77715738883E+02  0.00000000000E+00 0. -1.
         21    1    1    2  504  501 -0.34169647753E+02  0.29205639119E+02 -0.30033733504E+02  0.54060700441E+02  0.00000000000E+00 0. -1.
         21    1    1    2  505  504  0.11138273686E+02  0.88065372233E+02 -0.27369875406E+03  0.28773352064E+03  0.00000000000E+00 0.  1.
         -1    1    1    2    0  503  0.12277611889E+02 -0.57788265438E+02 -0.85306868968E+01  0.59690836776E+02  0.00000000000E+00 0. -1.
<scales pt_clust_3="35.72148" pt_clust_4="44.95035" pt_clust_5="92.62009" pt_clust_6="35.72148"></scales>
<clustering>
<clus scale="   35.721">  3  6 -1 -1</clus>
<clus scale="   44.950">  1  4  2 -1</clus>
<clus scale="   92.620">  2  5  1 -1</clus>
<clus scale="   92.620">  2  3  1 -1</clus>
</clustering>
</event>
<event>
 6    0  0.2433432E+002  0.1311850E+03  0.7546771E-02  0.1225708E+00
         21   -1    0    0  503  502  0.00000000000E+00  0.00000000000E+00  0.54697626790E+03  0.54697626790E+03  0.00000000000E+00 0.  1.
          2   -1    0    0  504    0 -0.00000000000E+00 -0.00000000000E+00 -0.55121892481E+03  0.55121892481E+03  0.00000000000E+00 0.  1.
         21    1    1    2  503  501 -0.66285390725E+02  0.11003511070E+03  0.47817754688E+03  0.49513154308E+03  0.00000000000E+00 0.  1.
         21    1    1    2  504  505  0.16966029598E+02 -0.45765986160E+02  0.25729234459E+02  0.55175766015E+02  0.00000000000E+00 0.  1.
         21    1    1    2  505  502  0.18267926024E+02 -0.48939376428E+02 -0.16158541628E+02  0.54679778291E+02  0.00000000000E+00 0.  1.
          2    1    1    2  501    0  0.31051435103E+02 -0.15329748112E+02 -0.49199089662E+03  0.49320810533E+03  0.00000000000E+00 0.  1.
<scales pt_clust_3="124.27149" pt_clust_4="37.67915" pt_clust_5="37.67915" pt_clust_6="34.62936"></scales>
<clustering>
<clus scale="   34.629">  2  6  1 -1</clus>
<clus scale="   37.679">  4  5 -1 -1</clus>
<clus scale="  124.271">  1  3  2 -1</clus>
<clus scale="  124.271">  1  3  2 -1</clus>
</clustering>
</event>
<event>
 6    0  0.2433432E+002  0.2872579E+03  0.7546771E-02  0.1091790E+00
         21   -1    0    0  505  502  0.00000000000E+00  0.00000000000E+00  0.71969846439E+03  0.71969846439E+03  0.00000000000E+00 0.  1.
          1   -1    0    0  504    0 -0.00000000000E+00 -0.00000000000E+00 -0.11441211956E+03  0.11441211956E+03  0.00000000000E+00 0. -1.
         21    1    1    2  503  502  0.19051529594E+03  0.12497086269E+03  0.26989851332E+03  0.35321240352E+03  0.00000000000E+00 0.  1.
         21    1    1    2  504  503  0.58883321321E+02 -0.77707778676E+01  0.72928725967E+02  0.94054396972E+02  0.00000000000E+00 0. -1.
         21    1    1    2  505  501 -0.12723420822E+03 -0.97766305846E+02  0.14539965551E+03  0.21653603423E+03  0.00000000000E+00 0. -1.
          1    1    1    2  501    0 -0.12216440904E+03 -0.19433778976E+02  0.11705945004E+03  0.17030774922E+03  0.00000000000E+00 0. -1.
<scales pt_clust_3="41.42037" pt_clust_4="41.42037" pt_clust_5="61.00699" pt_clust_6="284.18890"></scales>
<clustering>
<clus scale="   41.420">  3  4 -1 -1</clus>
<clus scale="   61.007">  5  6 -1 -1</clus>
<clus scale="  284.189">  2  5  1 -1</clus>
<clus scale="  287.258">  1  3  2 -1</clus>
</clustering>
</event>
<event>
 6    0  0.2433432E+002  0.1017184E+03  0.7546771E-02  0.1276723E+00
          2   -1    0    0  505    0 -0.00000000000E+00  0.00000000000E+00  0.21232498189E+03  0.21232498189E+03  0.00000000000E+00 0.  1.
         21   -1    0    0  503  502  0.00000000000E+00 -0.00000000000E+00 -0.29949200789E+03  0.29949200789E+03  0.00000000000E+00 0.  1.
         21    1    1    2  503  501 -0.66154795678E+02 -0.79813771135E+02 -0.19800097777E+03  0.22349738757E+03  0.00000000000E+00 0.  1.
         21    1    1    2  504  502  0.10609589445E+03 -0.19265415782E+02  0.64913535298E+02  0.12586207582E+03  0.00000000000E+00 0.  1.
         21    1    1    2  505  504 -0.26830843431E+02 -0.20500445383E+02  0.20269362020E+00  0.33766899544E+02  0.00000000000E+00 0.  1.
          2    1    1    2  501    0 -0.13110255343E+02  0.11957963230E+03  0.45717722854E+02  0.12869062685E+03  0.00000000000E+00 0.  1.
<scales pt_clust_3="101.71835" pt_clust_4="97.49342" pt_clust_5="33.76629" pt_clust_6="14000.00000"></scales>
<clustering>
<clus scale="   33.766">  1  5  2 -1</clus>
<clus scale="   97.493">  1  4  2 -1</clus>
<clus scale="  101.718">  2  3  1 -1</clus>
<clus scale="  101.718">  2  3  1 -1</clus>
</clustering>
</event>
<event>
 6    0  0.2433432E+002  0.1603733E+03  0.7546771E-02  0.1188276E+00
          1   -1    0    0  505    0 -0.00000000000E+00  0.00000000000E+00  0.85310372839E+03  0.85310372839E+03  0.00000000000E+00 0.  1.
         21   -1    0    0  501  502  0.00000000000E+00 -0.00000000000E+00 -0.16254415828E+03  0.16254415828E+03  0.00000000000E+00 0.  1.
         21    1    1    2  503  504  0.60805553493E+02 -0.50378619773E+02 -0.16539811609E+01  0.78981366913E+02  0.00000000000E+00 0.  1.
         21    1    1    2  504  502  0.38216873699E+02  0.16027005772E+02 -0.52390536853E+02  0.66799421412E+02  0.00000000000E+00 0.  1.
         21    1    1    2  505  503  0.60678749863E+02  0.99759897288E+02  0.12193810918E+02  0.11739947537E+03  0.00000000000E+00 0.  1.
          1    1    1    2  501    0 -0.15970117705E+03 -0.65408283287E+02  0.73241027721E+03  0.75246762298E+03  0.00000000000E+00 0.  1.
<scales pt_clust_3="87.67229" pt_clust_4="41.44146" pt_clust_5="160.37326" pt_clust_6="14000.00000"></scales>
<clustering>
<clus scale="   41.441">  2  4  1 -1</clus>
<clus scale="   87.672">  2  3  1 -1</clus>
<clus scale="  160.373">  2  5  1 -1</clus>
<clus scale="   41.441">  2  3  1 -1</clus>
</clustering>
</event>
<event>
 6    0  0.2433432E+002  0.2656715E+03  0.7546771E-02  0.1103783E+00
         21   -1    0    0  505  502  0.00000000000E+00  0.00000000000E+00  0.99978339284E+03  0.99978339284E+03  0.00000000000E+00 0. -1.
          2   -1    0    0  504    0 -0.00000000000E+00 -0.00000000000E+00 -0.28447863729E+04  0.28447863729E+04  0.00000000000E+00 0. -1.
         21    1    1    2  503  502  0.72780920137E+02 -0.18651562132E+03  0.33534038716E+03  0.39056153752E+03  0.00000000000E+00 0. -1.
         21    1    1    2  504  503 -0.19094653437E+02 -0.30398584903E+02  0.62521065287E+02  0.72094128462E+02  0.00000000000E+00 0.  1.
         21    1    1    2  505  501 -0.10807456254E+03  0.27073784084E+03  0.53166015239E+03  0.60633456702E+03  0.00000000000E+00 0. -1.
          2    1    1    2  501    0  0.54388295842E+02 -0.53823634625E+02 -0.27745245849E+04  0.27755795328E+04  0.00000000000E+00 0. -1.
<scales pt_clust_3="32.31073" pt_clust_4="32.31073" pt_clust_5="254.47748" pt_clust_6="76.51843"></scales>
<clustering>
<clus scale="   32.311">  3  4 -1 -1</clus>
<clus scale="   76.518">  2  6  1 -1</clus>
<clus scale="  254.477">  2  5  1 -1</clus>
<clus scale="  265.671">  1  3  2 -1</clus>
</clustering>
</event>
<event>
 6    0  0.2433432E+002  0.1625073E+03  0.7546771E-02  0.1185895E+00
         21   -1    0    0  504  502  0.00000000000E+00  0.00000000000E+00  0.12164616364E+03  0.12164616364E+03  0.00000000000E+00 0. -1.
          2   -1    0    0  503    0 -0.00000000000E+00 -0.00000000000E+00 -0.74847560139E+03  0.74847560139E+03  0.00000000000E+00 0.  1.
         21    1    1    2  503  502  0.46596970645E+02  0.27744506205E+02 -0.52877183119E+02  0.75743196344E+02  0.00000000000E+00 0. -1.
         21    1    1    2  504  505 -0.39134387551E+02  0.11574470105E+02  0.27685079800E+02  0.49314625526E+02  0.00000000000E+00 0.  1.
         21    1    1    2  505  501 -0.16270652210E+03 -0.76686920668E+02 -0.75229881937E+02  0.19497136013E+03  0.00000000000E+00 0. -1.
          2    1    1    2  501    0  0.15524393900E+03  0.37367944358E+02 -0.52640745249E+03  0.55009258303E+03  0.00000000000E+00 0.  1.
<scales pt_clust_3="50.58999" pt_clust_4="40.81015" pt_clust_5="14000.00000" pt_clust_6="162.50728"></scales>
<clustering>
<clus scale="   40.810">  1  4  2 -1</clus>
<clus scale="   50.590">  1  3  2 -1</clus>
<clus scale="  162.507">  2  6  1 -1</clus>
<clus scale="   40.810">  1  3  2 -1</clus>
</clustering>
</event>
<event>
 6    0  0.2433432E+002  0.9324737E+02  0.7546771E-02  0.1295173E+00
         21   -1    0    0  505  502  0.00000000000E+00  0.00000000000E+00  0.89665584419E+02  0.89665584419E+02  0.00000000000E+00 0.  1.
          2   -1    0    0  504    0 -0.00000000000E+00 -0.00000000000E+00 -0.12593127914E+04  0.12593127914E+04  0.00000000000E+00 0. -1.
         21    1    1    2  503  501 -0.47967462019E+02 -0.32676272875E+02 -0.11354520887E+03  0.12751913848E+03  0.00000000000E+00 0.  1.
         21    1    1    2  504  502  0.54360393190E+01 -0.65686076094E+02 -0.30648108764E+02  0.72687809755E+02  0.00000000000E+00 0.  1.
         21    1    1    2  505  503  0.37909009175E+02  0.23966661478E+01  0.53464209364E+02  0.65583981796E+02  0.00000000000E+00 0.  1.
          2    1    1    2  501    0  0.46224135249E+01  0.95965682821E+02 -0.10789180987E+04  0.10831874458E+04  0.00000000000E+00 0. -1.
<scales pt_clust_3="50.66368" pt_clust_4="14000.00000" pt_clust_5="37.98469" pt_clust_6="93.24737"></scales>
<clustering>
<clus scale="   37.985">  1  5  2 -1</clus>
<clus scale="   50.664">  1  3  2 -1</clus>
<clus scale="   93.247">  2  6  1 -1</clus>
<clus scale="   37.985">  1  3  2 -1</clus>
</clustering>
</event>
<event>
 6    0  0.2433432E+002  0.9907009E+02  0.7546771E-02  0.1282264E+00
         21   -1    0    0  504  502  0.00000000000E+00  0.00000000000E+00  0.18878175877E+03  0.18878175877E+03  0.00000000000E+00 0.  1.
         -3   -1    0    0    0  501 -0.00000000000E+00 -0.00000000000E+00 -0.14664578960E+04  0.14664578960E+04  0.00000000000E+00 0.  1.
         21    1    1    2  503  502  0.82642372502E+02  0.33267246322E+02  0.63181125674E+02  0.10921687622E+03  0.00000000000E+00 0.  1.
         21    1    1    2  504  505 -0.10311850642E+03 -0.48983471392E+02  0.59816974408E+02  0.12888319232E+03  0.00000000000E+00 0.  1.
         21    1    1    2  505  501  0.67861182172E+01  0.49303576736E+02 -0.69556397131E+02  0.85527694119E+02  0.00000000000E+00 0.  1.
         -3    1    1    2    0  503  0.13690015704E+02 -0.33587351666E+02 -0.13311178402E+04  0.13316118921E+04  0.00000000000E+00 0.  1.
<scales pt_clust_3="14000.00000" pt_clust_4="99.07009" pt_clust_5="33.40562" pt_clust_6="36.27019"></scales>
<clustering>
<clus scale="   36.270">  2  6  1 -1</clus>
<clus scale="   33.406">  2  5  1 -1</clus>
<clus scale="   99.070">  2  4  1 -1</clus>
<clus scale="   99.070">  1  3  2 -1</clus>
</clustering>
</event>
<event>
 6    0  0.2433432E+002  0.9436102E+02  0.7546771E-02  0.1292622E+00
          2   -1    0    0  502    0 -0.00000000000E+00  0.00000000000E+00  0.20919827738E+03  0.20919827738E+03  0.00000000000E+00 0. -1.
         21   -1    0    0  505  502  0.00000000000E+00 -0.00000000000E+00 -0.40583472816E+03  0.40583472816E+03  0.00000000000E+00 0. -1.
         21    1    1    2  503  501 -0.69226355973E+02 -0.80957074846E+02 -0.41240890608E+02  0.11422411036E+03  0.00000000000E+00 0. -1.
         21    1    1    2  504  503  0.35934428877E+02  0.33083917356E+02 -0.16369591365E+03  0.17082792778E+03  0.00000000000E+00 0. -1.
         21    1    1    2  505  504  0.43868137450E+02 -0.39511603715E+01 -0.15353160288E+03  0.15972469513E+03  0.00000000000E+00 0. -1.
          2    1    1    2  501    0 -0.10576210354E+02  0.51824317861E+02  0.16183195636E+03  0.17025627227E+03  0.00000000000E+00 0. -1.
<scales pt_clust_3="86.54149" pt_clust_4="35.71532" pt_clust_5="35.71532" pt_clust_6="52.89250"></scales>
<clustering>
<clus scale="   35.715">  4  5 -1 -1</clus>
<clus scale="   52.892">  1  6  2 -1</clus>
<clus scale="   86.541">  1  3  2 -1</clus>
<clus scale="   94.361">  2  3  1 -1</clus>
</clustering>
</event>
<event>
 6    0  0.2433432E+002  0.7717294E+02  0.7546771E-02  0.1337271E+00
          2   -1    0    0  504    0 -0.00000000000E+00  0.00000000000E+00  0.24921246227E+04  0.24921246227E+04  0.00000000000E+00 0.  1.
         21   -1    0    0  505  502  0.00000000000E+00 -0.00000000000E+00 -0.43182444914E+02  0.43182444914E+02  0.00000000000E+00 0.  1.
         21    1    1    2  503  502  0.92813864503E+02 -0.49795553986E+02  0.16830578264E+03  0.19854683858E+03  0.00000000000E+00 0.  1.
         21    1    1    2  504  503 -0.66710585846E+02 -0.64951979315E+02  0.14194197071E+03  0.16975448427E+03  0.00000000000E+00 0.  1.
         21    1    1    2  505  501 -0.39721264863E+02  0.54273276969E+02  0.68901981187E+02  0.96285255812E+02  0.00000000000E+00 0.  1.
          2    1    1    2  501    0  0.13617986206E+02  0.60474256332E+02  0.20697924433E+04  0.20707204890E+04  0.00000000000E+00 0.  1.
<scales pt_clust_3="14000.00000" pt_clust_4="74.96746" pt_clust_5="77.17294" pt_clust_6="61.98859"></scales>
<clustering>
<clus scale="   61.989">  1  6  2 -1</clus>
<clus scale="   74.967">  1  4  2 -1</clus>
<clus scale="   77.173">  2  5  1 -1</clus>
<clus scale="   77.173">  2  3  1 -1</clus>
</clustering>
</event>
<event>
 6    0  0.2433432E+002  0.7384440E+02  0.7546771E-02  0.1347487E+00
         21   -1    0    0  505  502  0.00000000000E+00  0.00000000000E+00  0.24993771235E+02  0.24993771235E+02  0.00000000000E+00 0. -1.
         -2   -1    0    0    0  501 -0.00000000000E+00 -0.00000000000E+00 -0.22167854554E+04  0.22167854554E+04  0.00000000000E+00 0. -1.
         21    1    1    2  503  501 -0.91789498222E+02 -0.71164550242E+02 -0.31735580784E+03  0.33794143570E+03  0.00000000000E+00 0. -1.
         21    1    1    2  504  502  0.75638118329E+01  0.54490005995E+02 -0.12815926611E+03  0.13946744958E+03  0.00000000000E+00 0. -1.
         21    1    1    2  505  503  0.47299658977E+02 -0.48167010048E+01 -0.55608973438E+02  0.73162943316E+02  0.00000000000E+00 0. -1.
         -2    1    1    2    0  504  0.36926027412E+02  0.21491245252E+02 -0.16906676368E+04  0.16912073981E+04  0.00000000000E+00 0. -1.
<scales pt_clust_3="14000.00000" pt_clust_4="73.84440" pt_clust_5="51.86702" pt_clust_6="42.72476"></scales>
<clustering>
<clus scale="   42.725">  2  6  1 -1</clus>
<clus scale="   51.867">  1  5  2 -1</clus>
<clus scale="   73.844">  1  4  2 -1</clus>
<clus scale="   51.867">  1  3  2 -1</clus>
</clustering>
</event>
<event>
 6    0  0.2433432E+002  0.1390866E+03  0.7546771E-02  0.1214563E+00
          1   -1    0    0  503    0 -0.00000000000E+00  0.00000000000E+00  0.17609445310E+04  0.17609445310E+04  0.00000000000E+00 0.  1.
         21   -1    0    0  504  502  0.00000000000E+00 -0.00000000000E+00 -0.96541577550E+02  0.96541577550E+02  0.00000000000E+00 0.  1.
         21    1    1    2  503  505 -0.23777304706E+02  0.54380790262E+02  0.82384801570E+02  0.10153760928E+03  0.00000000000E+00 0.  1.
         21    1    1    2  504  501  0.99379935388E+02 -0.26404546387E+01  0.96837285996E+02  0.13878329697E+03  0.00000000000E+00 0. -1.
         21    1    1    2  505  502  0.51552481045E+02  0.24444520195E+02 -0.49383594485E+02  0.75458149154E+02  0.00000000000E+00 0.  1.
          1    1    1    2  501    0 -0.12715511173E+03 -0.76184855819E+02  0.15345644603E+04  0.15417070531E+04  0.00000000000E+00 0.  1.
<scales pt_clust_3="61.94484" pt_clust_4="139.08657" pt_clust_5="57.05430" pt_clust_6="14000.00000"></scales>
<clustering>
<clus scale="   57.054">  2  5  1 -1</clus>
<clus scale="   61.945">  2  3  1 -1</clus>
<clus scale="  139.087">  2  4  1 -1</clus>
<clus scale="   57.054">  2  3  1 -1</clus>
</clustering>
</event>
<event>
 6    0  0.2433432E+002  0.3132225E+03  0.7546771E-02  0.1078811E+00
          2   -1    0    0  502    0 -0.00000000000E+00  0.00000000000E+00  0.83025523837E+03  0.83025523837E+03  0.00000000000E+00 0.  1.
         21   -1    0    0  504  502  0.00000000000E+00 -0.00000000000E+00 -0.32660221608E+03  0.32660221608E+03  0.00000000000E+00 0.  1.
         21    1    1    2  503  501  0.14162533050E+03 -0.78168108747E+02 -0.52932430931E+02  0.17020525758E+03  0.00000000000E+00 0. -1.
         21    1    1    2  504  505  0.38836395420E+02 -0.24251273059E+02 -0.99359429547E+02  0.10940149037E+03  0.00000000000E+00 0.  1.
         21    1    1    2  505  503  0.38287446451E+02 -0.67825135998E+02 -0.67156958447E+02  0.10284082213E+03  0.00000000000E+00 0.  1.
          2    1    1    2  501    0 -0.21874917237E+03  0.17024451780E+03  0.72310184121E+03  0.77440988437E+03  0.00000000000E+00 0.  1.
<scales pt_clust_3="110.35938" pt_clust_4="41.23908" pt_clust_5="110.35938" pt_clust_6="277.19018"></scales>
<clustering>
<clus scale="   41.239">  4  5 -1 -1</clus>
<clus scale="  110.359">  3  4 -1 -1</clus>
<clus scale="  277.190">  1  6  2 -1</clus>
<clus scale="  313.223">  2  3  1 -1</clus>
</clustering>
</event>
<event>
 6    0  0.2433432E+002  0.1893379E+03  0.7546771E-02  0.1159060E+00
          2   -1    0    0  504    0 -0.00000000000E+00  0.00000000000E+00  0.47352729211E+04  0.47352729211E+04  0.00000000000E+00 0.  1.
         21   -1    0    0  505  502  0.00000000000E+00 -0.00000000000E+00 -0.21304070073E+02  0.21304070073E+02  0.00000000000E+00 0.  1.
         21    1    1    2  503  502  0.11193708903E+03  0.10675719601E+03  0.53173169943E+03  0.55377397102E+03  0.00000000000E+00 0.  1.
         21    1    1    2  504  503  0.13009866522E+02  0.51984096605E+02  0.14521645082E+03  0.15478830872E+03  0.00000000000E+00 0.  1.
         21    1    1    2  505  501 -0.12331098224E+03 -0.88046603751E+02  0.11275547752E+04  0.11376895771E+04  0.00000000000E+00 0.  1.
          2    1    1    2  501    0 -0.16359733066E+01 -0.70694688866E+02  0.29094659256E+04  0.29103251343E+04  0.00000000000E+00 0.  1.
<scales pt_clust_3="32.19062" pt_clust_4="32.19062" pt_clust_5="181.26686" pt_clust_6="70.71362"></scales>
<clustering>
<clus scale="   32.191">  3  4 -1 -1</clus>
<clus scale="   70.714">  1  6  2 -1</clus>
<clus scale="  181.267">  1  5  2 -1</clus>
<clus scale="  189.338">  2  3  1 -1</clus>
</clustering>
</event>
<event>
 6    0  0.2433432E+002  0.1406578E+03  0.7546771E-02  0.1212447E+00
          2   -1    0    0  504    0 -0.00000000000E+00  0.00000000000E+00  0.75872349885E+03  0.75872349885E+03  0.00000000000E+00 0. -1.
         21   -1    0    0  505  502  0.00000000000E+00 -0.00000000000E+00 -0.63731391195E+03  0.63731391195E+03  0.00000000000E+00 0.  1.
         21    1    1    2  503  502 -0.12913479989E+02 -0.39991344927E+02 -0.36255672316E+03  0.36498416834E+03  0.00000000000E+00 0.  1.
         21    1    1    2  504  503 -0.10535975309E+03 -0.16512412932E+01 -0.13809484219E+03  0.17370546799E+03  0.00000000000E+00 0.  1.
         21    1    1    2  505  501 -0.22888563725E+02  0.59366912175E+02 -0.10157572719E+03  0.11985802003E+03  0.00000000000E+00 0. -1.
          2    1    1    2  501    0  0.14116179680E+03 -0.17724325955E+02  0.72363687944E+03  0.73748975444E+03  0.00000000000E+00 0. -1.
<scales pt_clust_3="42.02458" pt_clust_4="140.65779" pt_clust_5="51.52685" pt_clust_6="14000.00000"></scales>
<clustering>
<clus scale="   42.025">  2  3  1 -1</clus>
<clus scale="   51.527">  2  5  1 -1</clus>
<clus scale="  140.658">  2  4  1 -1</clus>
<clus scale="   42.025">  2  3  1 -1</clus>
</clustering>
</event>
<event>
 6    0  0.2433432E+002  0.2283377E+03  0.7546771E-02  0.1127815E+00
          2   -1    0    0  505    0 -0.00000000000E+00  0.00000000000E+00  0.11439862994E+04  0.11439862994E+04  0.00000000000E+00 0.  1.
         21   -1    0    0  503  502  0.00000000000E+00 -0.00000000000E+00 -0.19338127170E+03  0.19338127170E+03  0.00000000000E+00 0.  1.
         21    1    1    2  503  504  0.21455503446E+03 -0.51381828930E+02 -0.30874560926E+02  0.22277161773E+03  0.00000000000E+00 0.  1.
         21    1    1    2  504  501 -0.19921276125E+03 -0.18490268092E+02  0.20816332706E+03  0.28872060022E+03  0.00000000000E+00 0.  1.
         21    1    1    2  505  502  0.57741358869E+02 -0.54591825850E+02  0.64022424473E+02  0.10204510184E+03  0.00000000000E+00 0.  1.
          2    1    1    2  501    0 -0.73083632081E+02  0.12446392287E+03  0.70929383713E+03  0.72383025135E+03  0.00000000000E+00 0.  1.
<scales pt_clust_3="228.33771" pt_clust_4="14000.00000" pt_clust_5="79.46277" pt_clust_6="141.15670"></scales>
<clustering>
<clus scale="   79.463">  2  5  1 -1</clus>
<clus scale="  141.157">  1  6  2 -1</clus>
<clus scale="  228.338">  2  3  1 -1</clus>
<clus scale="   79.463">  2  3  1 -1</clus>
</clustering>
</event>
<event>
 6    0  0.2433432E+002  0.1173237E+03  0.7546771E-02  0.1247579E+00
          2   -1    0    0  503    0 -0.00000000000E+00  0.00000000000E+00  0.12204748881E+04  0.12204748881E+04  0.00000000000E+00 0. -1.
         21   -1    0    0  504  502  0.00000000000E+00 -0.00000000000E+00 -0.22245639429E+03  0.22245639429E+03  0.00000000000E+00 0. -1.
         21    1    1    2  503  505 -0.72132587379E+02  0.56495871350E+02  0.12449465326E+03  0.15457623469E+03  0.00000000000E+00 0. -1.
         21    1    1    2  504  501  0.53754757963E+02  0.98075701818E+02 -0.40506675740E+02  0.11895044376E+03  0.00000000000E+00 0. -1.
         21    1    1    2  505  502 -0.22905177264E+02 -0.12196262236E+03 -0.96689606916E+02  0.15731626897E+03  0.00000000000E+00 0. -1.
          2    1    1    2  501    0  0.41283006680E+02 -0.32608950808E+02  0.10107201232E+04  0.10120883349E+04  0.00000000000E+00 0. -1.
<scales pt_clust_3="56.51295" pt_clust_4="117.32369" pt_clust_5="14000.00000" pt_clust_6="52.60827"></scales>
<clustering>
<clus scale="   52.608">  1  6  2 -1</clus>
<clus scale="   56.513">  1  3  2 -1</clus>
<clus scale="  117.324">  1  4  2 -1</clus>
<clus scale="  117.324">  2  3  1 -1</clus>
</clustering>
</event>
<event>
 6    0  0.2433432E+002  0.1538847E+03  0.7546771E-02  0.1195779E+00
         -1   -1    0    0    0  501 -0.00000000000E+00  0.00000000000E+00  0.13466344401E+04  0.13466344401E+04  0.00000000000E+00 0.  1.
         21   -1    0    0  504  502  0.00000000000E+00 -0.00000000000E+00 -0.55966058464E+02  0.55966058464E+02  0.00000000000E+00 0.  1.
         21    1    1    2  503  501 -0.57172862853E+02  0.87314995041E+02  0.43636356595E+03  0.44867115608E+03  0.00000000000E+00 0.  1.
         21    1    1    2  504  503 -0.57288951371E+01  0.62003872182E+02  0.34056319941E+03  0.34620888666E+03  0.00000000000E+00 0.  1.
         21    1    1    2  505  502  0.13639487915E+02 -0.14549467396E+03  0.71427182927E+02  0.16265478242E+03  0.00000000000E+00 0.  1.
         -1    1    1    2    0  505  0.49262270075E+02 -0.38241932597E+01  0.44231443336E+03  0.44506567343E+03  0.00000000000E+00 0.  1.
<scales pt_clust_3="34.25130" pt_clust_4="34.25130" pt_clust_5="147.35734" pt_clust_6="49.41048"></scales>
<clustering>
<clus scale="   34.251">  3  4 -1 -1</clus>
<clus scale="   49.410">  1  6  2 -1</clus>
<clus scale="  147.357">  2  5  1 -1</clus>
<clus scale="  147.357">  2  3  1 -1</clus>
</clustering>
</event>
<event>
 6    0  0.2433432E+002  0.1052093E+03  0.7546771E-02  0.1269708E+00
          2   -1    0    0  505    0 -0.00000000000E+00  0.00000000000E+00  0.19269422798E+04  0.19269422798E+04  0.00000000000E+00 0.  1.
         21   -1    0    0  503  502  0.00000000000E+00 -0.00000000000E+00 -0.24936001709E+02  0.24936001709E+02  0.00000000000E+00 0.  1.
         21    1    1    2  503  504 -0.28924968619E+02  0.90352930161E+01  0.18308088965E+02  0.35404469365E+02  0.00000000000E+00 0.  1.
         21    1    1    2  504  501 -0.62289752059E+02 -0.37802757273E+02  0.17135803277E+03  0.18620589965E+03  0.00000000000E+00 0.  1.
         21    1    1    2  505  502  0.35020990600E+02 -0.75480590937E+02  0.25738998798E+03  0.27050581381E+03  0.00000000000E+00 0.  1.
          2    1    1    2  501    0  0.56193730077E+02  0.10424805519E+03  0.14549501683E+04  0.14597620987E+04  0.00000000000E+00 0.  1.
<scales pt_clust_3="30.30331" pt_clust_4="14000.00000" pt_clust_5="75.59291" pt_clust_6="105.20929"></scales>
<clustering>
<clus scale="   30.303">  2  3  1 -1</clus>
<clus scale="   75.593">  2  5  1 -1</clus>
<clus scale="  105.209">  1  6  2 -1</clus>
<clus scale="   30.303">  2  3  1 -1</clus>
</clustering>
</event>
<event>
 6    0  0.2433432E+002  0.8655724E+02  0.7546771E-02  0.1311410E+00
          2   -1    0    0  503    0 -0.00000000000E+00  0.00000000000E+00  0.19512550198E+04  0.19512550198E+04  0.00000000000E+00 0. -1.
         21   -1    0    0  504  502  0.00000000000E+00 -0.00000000000E+00 -0.12213456143E+03  0.12213456143E+03  0.00000000000E+00 0.  1.
         21    1    1    2  503  505  0.28460529041E+02  0.12814501976E+02  0.11422692596E+04  0.11426956177E+04  0.00000000000E+00 0. -1.
         21    1    1    2  504  501  0.87414802803E+01 -0.29398727796E+02 -0.95427449621E+02  0.10023520746E+03  0.00000000000E+00 0.  1.
         21    1    1    2  505  502  0.75282127298E+02  0.11364412389E+02  0.53550060844E+02  0.93081456671E+02  0.00000000000E+00 0.  1.
          2    1    1    2  501    0 -0.11248413662E+03  0.52198134307E+01  0.72872858750E+03  0.73737729941E+03  0.00000000000E+00 0. -1.
<scales pt_clust_3="31.17757" pt_clust_4="30.67081" pt_clust_5="86.55724" pt_clust_6="14000.00000"></scales>
<clustering>
<clus scale="   30.671">  2  4  1 -1</clus>
<clus scale="   31.178">  1  3  2 -1</clus>
<clus scale="   86.557">  2  5  1 -1</clus>
<clus scale="   30.671">  2  3  1 -1</clus>
</clustering>
</event>
<event>
 6    0  0.2433432E+002  0.2322833E+03  0.7546771E-02  0.1125043E+00
          2   -1    0    0  504    0 -0.00000000000E+00  0.00000000000E+00  0.52561142515E+03  0.52561142515E+03  0.00000000000E+00 0.  1.
         21   -1    0    0  505  502  0.00000000000E+00 -0.00000000000E+00 -0.29786656759E+03  0.29786656759E+03  0.00000000000E+00 0. -1.
         21    1    1    2  503  501 -0.70302347143E+02 -0.51440258810E+02  0.83636029415E+02  0.12076218637E+03  0.00000000000E+00 0.  1.
         21    1    1    2  504  502  0.22325114943E+03  0.76378376736E+02 -0.19729300971E+03  0.30756993324E+03  0.00000000000E+00 0. -1.
         21    1    1    2  505  503 -0.99101353505E+02  0.68564442847E+01  0.83497831988E+02  0.12976893712E+03  0.00000000000E+00 0.  1.
          2    1    1    2  501    0 -0.53847448782E+02 -0.31794562210E+02  0.25790400586E+03  0.26537693601E+03  0.00000000000E+00 0.  1.
<scales pt_clust_3="60.30271" pt_clust_4="223.17869" pt_clust_5="60.30271" pt_clust_6="62.53353"></scales>
<clustering>
<clus scale="   60.303">  3  5 -1 -1</clus>
<clus scale="   62.534">  1  6  2 -1</clus>
<clus scale="  223.179">  2  4  1 -1</clus>
<clus scale="  223.179">  2  3  1 -1</clus>
</clustering>
</event>
<event>
 6    0  0.2433432E+002  0.1324534E+03  0.7546771E-02  0.1223860E+00
          1   -1    0    0  502    0 -0.00000000000E+00  0.00000000000E+00  0.26182373170E+04  0.26182373170E+04  0.00000000000E+00 0. -1.
         21   -1    0    0  504  502  0.00000000000E+00 -0.00000000000E+00 -0.99206519561E+02  0.99206519561E+02  0.00000000000E+00 0. -1.
         21    1    1    2  503  505 -0.14796164889E+02  0.49635509280E+02  0.15023877309E+03  0.15891601309E+03  0.00000000000E+00 0. -1.
         21    1    1    2  504  503  0.30774528987E+02 -0.10672363636E+03 -0.49258324637E+02  0.12150468607E+03  0.00000000000E+00 0. -1.
         21    1    1    2  505  501 -0.11648638703E+03  0.57509897700E+02  0.50858752839E+03  0.52491688936E+03  0.00000000000E+00 0.  1.
          1    1    1    2  501    0  0.10050802294E+03 -0.42177062361E+00  0.19094628206E+04  0.19121062481E+04  0.00000000000E+00 0. -1.
<scales pt_clust_3="44.01913" pt_clust_4="112.62243" pt_clust_5="44.01913" pt_clust_6="100.50891"></scales>
<clustering>
<clus scale="   44.019">  3  5 -1 -1</clus>
<clus scale="  100.509">  1  6  2 -1</clus>
<clus scale="  112.622">  2  4  1 -1</clus>
<clus scale="  112.622">  2  3  1 -1</clus>
</clustering>
</event>
<event>
 6    0  0.2433432E+002  0.1622629E+03  0.7546771E-02  0.1186165E+00
         -2   -1    0    0    0  501 -0.00000000000E+00  0.00000000000E+00  0.26460339265E+03  0.26460339265E+03  0.00000000000E+00 0.  1.
         21   -1    0    0  501  502  0.00000000000E+00 -0.00000000000E+00 -0.45222879000E+03  0.45222879000E+03  0.00000000000E+00 0.  1.
         21    1    1    2  503  504 -0.34161897882E+02 -0.87173953380E+02 -0.65727807248E+02  0.11439614530E+03  0.00000000000E+00 0.  1.
         21    1    1    2  504  505 -0.36768848716E+02 -0.77671167666E+02 -0.11571758220E+03  0.14413645393E+03  0.00000000000E+00 0.  1.
         21    1    1    2  505  502  0.57231790136E+02  0.13190623330E+03 -0.20827101356E+03  0.25308407156E+03  0.00000000000E+00 0.  1.
         -2    1    1    2    0  503  0.13698956463E+02  0.32938887747E+02  0.20209100566E+03  0.20521551185E+03  0.00000000000E+00 0.  1.
<scales pt_clust_3="40.90994" pt_clust_4="40.90994" pt_clust_5="156.90020" pt_clust_6="35.67396"></scales>
<clustering>
<clus scale="   35.674">  1  6  2 -1</clus>
<clus scale="   40.910">  3  4 -1 -1</clus>
<clus scale="  156.900">  2  5  1 -1</clus>
<clus scale="  156.900">  2  3  1 -1</clus>
</clustering>
</event>
<event>
 6    0  0.2433432E+002  0.1321904E+03  0.7546771E-02  0.1224241E+00
         21   -1    0    0  504  502  0.00000000000E+00  0.00000000000E+00  0.19615533209E+03  0.19615533209E+03  0.00000000000E+00 0.  1.
          1   -1    0    0  503    0 -0.00000000000E+00 -0.00000000000E+00 -0.11877769655E+04  0.11877769655E+04  0.00000000000E+00 0. -1.
         21    1    1    2  503  502  0.65810259789E+01  0.10226353474E+03  0.36321386861E+02  0.10872158747E+03  0.00000000000E+00 0.  1.
         21    1    1    2  504  505  0.50985425967E+02  0.76165688368E+01  0.91897036248E+02  0.10536883340E+03  0.00000000000E+00 0.  1.
         21    1    1    2  505  501  0.50181149100E+02 -0.27155093061E+02 -0.18245913741E+02  0.59903757581E+02  0.00000000000E+00 0.  1.
          1    1    1    2  501    0 -0.10774760105E+03 -0.82725010511E+02 -0.11015941428E+04  0.11099381192E+04  0.00000000000E+00 0. -1.
<scales pt_clust_3="132.19042" pt_clust_4="51.55120" pt_clust_5="66.19155" pt_clust_6="14000.00000"></scales>
<clustering>
<clus scale="   51.551">  1  4  2 -1</clus>
<clus scale="   66.192">  1  5  2 -1</clus>
<clus scale="  132.190">  1  3  2 -1</clus>
<clus scale="   51.551">  1  3  2 -1</clus>
</clustering>
</event>
<event>
 6    0  0.2433432E+002  0.2222424E+03  0.7546771E-02  0.1132222E+00
         21   -1    0    0  503  502  0.00000000000E+00  0.00000000000E+00  0.80117754659E+02  0.80117754659E+02  0.00000000000E+00 0. -1.
         -1   -1    0    0    0  501 -0.00000000000E+00 -0.00000000000E+00 -0.11409608185E+04  0.11409608185E+04  0.00000000000E+00 0. -1.
         21    1    1    2  503  501 -0.19150171234E+03  0.10588018440E+03 -0.12675369938E+03  0.25288341105E+03  0.00000000000E+00 0. -1.
         21    1    1    2  504  505  0.71494112278E+02 -0.68167307433E+02 -0.45642166885E+03  0.46698921795E+03  0.00000000000E+00 0. -1.
         21    1    1    2  505  502  0.79175796026E+02 -0.57891921888E+02 -0.24098540879E+03  0.26018118407E+03  0.00000000000E+00 0. -1.
         -1    1    1    2    0  504  0.40831804037E+02  0.20179044924E+02 -0.23668228680E+03  0.24102476005E+03  0.00000000000E+00 0. -1.
<scales pt_clust_3="213.50375" pt_clust_4="60.42921" pt_clust_5="60.42921" pt_clust_6="45.54591"></scales>
<clustering>
<clus scale="   45.546">  2  6  1 -1</clus>
<clus scale="   60.429">  4  5 -1 -1</clus>
<clus scale="  213.504">  1  3  2 -1</clus>
<clus scale="  213.504">  1  3  2 -1</clus>
</clustering>
</event>
<event>
 6    0  0.2433432E+002  0.1728255E+03  0.7546771E-02  0.1174933E+00
          2   -1    0    0  505    0 -0.00000000000E+00  0.00000000000E+00  0.35281936088E+03  0.35281936088E+03  0.00000000000E+00 0. -1.
         21   -1    0    0  503  502  0.00000000000E+00 -0.00000000000E+00 -0.11260973245E+03  0.11260973245E+03  0.00000000000E+00 0. -1.
         21    1    1    2  503  501  0.14473771277E+03 -0.28988208210E+02  0.44811013145E+02  0.15426389277E+03  0.00000000000E+00 0. -1.
         21    1    1    2  504  502 -0.12714189571E+03  0.48413421452E+02  0.78792238703E+02  0.15721684993E+03  0.00000000000E+00 0. -1.
         21    1    1    2  505  504 -0.56455362213E+02 -0.17272245273E+02  0.52776206918E+02  0.79188802214E+02  0.00000000000E+00 0. -1.
          2    1    1    2  501    0  0.38859545154E+02 -0.21529679693E+01  0.63830169666E+02  0.74759548422E+02  0.00000000000E+00 0. -1.
<scales pt_clust_3="161.14899" pt_clust_4="40.44399" pt_clust_5="40.44399" pt_clust_6="38.91914"></scales>
<clustering>
<clus scale="   38.919">  1  6  2 -1</clus>
<clus scale="   40.444">  4  5 -1 -1</clus>
<clus scale="  161.149">  2  3  1 -1</clus>
<clus scale="  161.149">  2  3  1 -1</clus>
</clustering>
</event>
<event>
 6    0  0.2433432E+002  0.9416645E+02  0.7546771E-02  0.1293065E+00
          2   -1    0    0  503    0 -0.00000000000E+00  0.00000000000E+00  0.23599001127E+03  0.23599001127E+03  0.00000000000E+00 0.  1.
         21   -1    0    0  505  502  0.00000000000E+00 -0.00000000000E+00 -0.22268841148E+03  0.22268841148E+03  0.00000000000E+00 0. -1.
         21    1    1    2  503  502  0.34315631950E+02  0.21897100190E+01 -0.61511920163E+02  0.70470374969E+02  0.00000000000E+00 0. -1.
         21    1    1    2  504  501  0.36072557987E+02 -0.56751955593E+02 -0.27720348854E+02  0.72735353467E+02  0.00000000000E+00 0. -1.
         21    1    1    2  505  504 -0.31076140812E+02 -0.38622757634E+02 -0.87291427960E+02  0.10038544382E+03  0.00000000000E+00 0. -1.
          2    1    1    2  501    0 -0.39312049125E+02  0.93185003208E+02  0.18982529678E+03  0.21508725049E+03  0.00000000000E+00 0.  1.
<scales pt_clust_3="34.38542" pt_clust_4="14000.00000" pt_clust_5="38.76782" pt_clust_6="94.16645"></scales>
<clustering>
<clus scale="   34.385">  2  3  1 -1</clus>
<clus scale="   38.768">  2  5  1 -1</clus>
<clus scale="   94.166">  1  6  2 -1</clus>
<clus scale="   34.385">  2  3  1 -1</clus>
</clustering>
</event>
<event>
 6    0  0.2433432E+002  0.1414476E+03  0.7546771E-02  0.1211394E+00
         21   -1    0    0  504  502  0.00000000000E+00  0.00000000000E+00  0.14291028654E+04  0.14291028654E+04  0.00000000000E+00 0.  1.
          2   -1    0    0  502    0 -0.00000000000E+00 -0.00000000000E+00 -0.70338323775E+02  0.70338323775E+02  0.00000000000E+00 0.  1.
         21    1    1    2  503  501  0.97350286307E+02  0.11993599446E+03  0.30905078642E+03  0.34550558548E+03  0.00000000000E+00 0.  1.
         21    1    1    2  504  505 -0.68655401740E+02 -0.47604527646E+02  0.81963147128E+03  0.82387833079E+03  0.00000000000E+00 0.  1.
         21    1    1    2  505  503 -0.30556508519E+02 -0.38331733222E+02  0.27181258998E+03  0.27619758518E+03  0.00000000000E+00 0.  1.
          2    1    1    2  501    0  0.18616239518E+01 -0.33999733591E+02 -0.41730306006E+02  0.53859687776E+02  0.00000000000E+00 0.  1.
<scales pt_clust_3="135.34617" pt_clust_4="31.47918" pt_clust_5="31.47918" pt_clust_6="34.05066"></scales>
<clustering>
<clus scale="   31.479">  4  5 -1 -1</clus>
<clus scale="   34.051">  2  6  1 -1</clus>
<clus scale="  135.346">  2  3  1 -1</clus>
<clus scale="  141.448">  1  3  2 -1</clus>
</clustering>
</event>
<event>
 6    0  0.2433432E+002  0.1300489E+03  0.7546771E-02  0.1227383E+00
         21   -1    0    0  505  502  0.00000000000E+00  0.00000000000E+00  0.16278657747E+03  0.16278657747E+03  0.00000000000E+00 0.  1.
          1   -1    0    0  504    0 -0.00000000000E+00 -0.00000000000E+00 -0.21206417455E+04  0.21206417455E+04  0.00000000000E+00 0.  1.
         21    1    1    2  503  501  0.14707159101E+03  0.30447758976E+02 -0.11633580623E+03  0.18997667941E+03  0.00000000000E+00 0.  1.
         21    1    1    2  504  502 -0.62506681455E+02 -0.11627663479E+03 -0.17114755073E+03  0.21614537965E+03  0.00000000000E+00 0.  1.
         21    1    1    2  505  503 -0.43416915816E+02  0.87340541914E+02  0.80184717205E+02  0.12626554444E+03  0.00000000000E+00 0.  1.
          1    1    1    2  501    0 -0.41147993737E+02 -0.15116661021E+01 -0.17505565282E+04  0.17510407194E+04  0.00000000000E+00 0.  1.
<scales pt_clust_3="130.04891" pt_clust_4="14000.00000" pt_clust_5="98.62110" pt_clust_6="41.17575"></scales>
<clustering>
<clus scale="   41.176">  2  6  1 -1</clus>
<clus scale="   98.621">  1  5  2 -1</clus>
<clus scale="  130.049">  1  3  2 -1</clus>
<clus scale="   98.621">  1  3  2 -1</clus>
</clustering>
</event>
<event>
 6    0  0.2433432E+002  0.2656306E+03  0.7546771E-02  0.1103807E+00
         21   -1    0    0  505  502  0.00000000000E+00  0.00000000000E+00  0.20613928908E+03  0.20613928908E+03  0.00000000000E+00 0.  1.
          4   -1    0    0  503    0 -0.00000000000E+00 -0.00000000000E+00 -0.64878726771E+03  0.64878726771E+03  0.00000000000E+00 0. -1.
         21    1    1    2  503  504 -0.63357769084E+02  0.47221500556E+02  0.49290709923E+02  0.93132438510E+02  0.00000000000E+00 0.  1.
         21    1    1    2  504  502 -0.11238781876E+03  0.12895253736E+03  0.32319509180E+02  0.17408138721E+03  0.00000000000E+00 0.  1.
         21    1    1    2  505  501  0.19596153193E+02 -0.46733187403E+02 -0.46880828582E+02  0.69034861579E+02  0.00000000000E+00 0. -1.
          4    1    1    2  501    0  0.15614943466E+03 -0.12944085051E+03 -0.47737736916E+03  0.51867786950E+03  0.00000000000E+00 0. -1.
<scales pt_clust_3="36.08794" pt_clust_4="254.44646" pt_clust_5="46.45048" pt_clust_6="46.45048"></scales>
<clustering>
<clus scale="   36.088">  3  4 -1 -1</clus>
<clus scale="   46.450">  5  6 -1 -1</clus>
<clus scale="  254.446">  1  3  2 -1</clus>
<clus scale="  254.446">  1  3  2 -1</clus>
</clustering>
</event>
<event>
 6    0  0.2433432E+002  0.7882672E+02  0.7546771E-02  0.1332414E+00
         21   -1    0    0  503  502  0.00000000000E+00  0.00000000000E+00  0.40369228082E+03  0.40369228082E+03  0.00000000000E+00 0.  1.
         -1   -1    0    0    0  501 -0.00000000000E+00 -0.00000000000E+00 -0.98749835636E+02  0.98749835636E+02  0.00000000000E+00 0. -1.
         21    1    1    2  503  504 -0.85777271842E+02 -0.51843457182E+02  0.18099185377E+03  0.20689015334E+03  0.00000000000E+00 0. -1.
         21    1    1    2  504  501  0.15534070398E+02 -0.30918643040E+02  0.84043781561E+01  0.35607631243E+02  0.00000000000E+00 0. -1.
         21    1    1    2  505  502  0.65996908970E+02  0.18689295763E+02  0.16513390038E+03  0.17881299400E+03  0.00000000000E+00 0.  1.
         -1    1    1    2    0  505  0.42462924740E+01  0.64072804459E+02 -0.49587687121E+02  0.81131337872E+02  0.00000000000E+00 0. -1.
<scales pt_clust_3="14000.00000" pt_clust_4="34.60159" pt_clust_5="78.82672" pt_clust_6="43.45999"></scales>
<clustering>
<clus scale="   34.602">  2  4  1 -1</clus>
<clus scale="   43.460">  2  6  1 -1</clus>
<clus scale="   78.827">  1  5  2 -1</clus>
<clus scale="   78.827">  1  3  2 -1</clus>
</clustering>
</event>
<event>
 6    0  0.2433432E+002  0.1052312E+03  0.7546771E-02  0.1269665E+00
         21   -1    0    0  503  502  0.00000000000E+00  0.00000000000E+00  0.18293062895E+03  0.18293062895E+03  0.00000000000E+00 0. -1.
         -2   -1    0    0    0  501 -0.00000000000E+00 -0.00000000000E+00 -0.87300708445E+03  0.87300708445E+03  0.00000000000E+00 0.  1.
         21    1    1    2  503  505 -0.11054285875E+02  0.35714856300E+02  0.14075029255E+03  0.14563101679E+03  0.00000000000E+00 0. -1.
         21    1    1    2  504  501  0.49979689350E+02  0.42367760681E+02 -0.49987222951E+03  0.50414803613E+03  0.00000000000E+00 0.  1.
         21    1    1    2  505  504 -0.31909156202E+02  0.70194478407E+02 -0.17296201714E+03  0.18937084892E+03  0.00000000000E+00 0.  1.
         -2    1    1    2    0  502 -0.70162472735E+01 -0.14827709539E+03 -0.15799250141E+03  0.21678781156E+03  0.00000000000E+00 0.  1.
<scales pt_clust_3="37.38647" pt_clust_4="66.33555" pt_clust_5="14000.00000" pt_clust_6="105.23119"></scales>
<clustering>
<clus scale="   37.386">  1  3  2 -1</clus>
<clus scale="   66.336">  2  4  1 -1</clus>
<clus scale="  105.231">  1  6  2 -1</clus>
<clus scale="   37.386">  1  3  2 -1</clus>
</clustering>
</event>
<event>
 6    0  0.2433432E+002  0.8754545E+02  0.7546771E-02  0.1308907E+00
          2   -1    0    0  503    0 -0.00000000000E+00  0.00000000000E+00  0.59560519839E+03  0.59560519839E+03  0.00000000000E+00 0.  1.
         21   -1    0    0  505  502  0.00000000000E+00 -0.00000000000E+00 -0.22936661429E+03  0.22936661429E+03  0.00000000000E+00 0.  1.
         21    1    1    2  503  504  0.92346691780E+02  0.77276973984E+02 -0.12663430596E+02  0.12107850621E+03  0.00000000000E+00 0.  1.
         21    1    1    2  504  502 -0.34096381461E+02  0.55951544732E+00 -0.14396595760E+03  0.14794956314E+03  0.00000000000E+00 0.  1.
         21    1    1    2  505  501  0.22132432863E+02 -0.47199771903E+02  0.40632772681E+02  0.66096030652E+02  0.00000000000E+00 0.  1.
          2    1    1    2  501    0 -0.80382743181E+02 -0.30636717528E+02  0.48223519962E+03  0.48984771267E+03  0.00000000000E+00 0.  1.
<scales pt_clust_3="87.54545" pt_clust_4="34.10097" pt_clust_5="50.06314" pt_clust_6="14000.00000"></scales>
<clustering>
<clus scale="   34.101">  2  4  1 -1</clus>
<clus scale="   50.063">  2  5  1 -1</clus>
<clus scale="   87.545">  2  3  1 -1</clus>
<clus scale="   34.101">  2  3  1 -1</clus>
</clustering>
</event>
<event>
 6    0  0.2433432E+002  0.8793509E+02  0.7546771E-02  0.1307931E+00
          1   -1    0    0  504    0 -0.00000000000E+00  0.00000000000E+00  0.16605144575E+04  0.16605144575E+04  0.00000000000E+00 0. -1.
         21   -1    0    0  505  502  0.00000000000E+00 -0.00000000000E+00 -0.20938880864E+03  0.20938880864E+03  0.00000000000E+00 0. -1.
         21    1    1    2  503  501 -0.44190437954E+02 -0.72055120708E+02  0.19348111764E+03  0.21113900187E+03  0.00000000000E+00 0. -1.
         21    1    1    2  504  502 -0.61158023132E+02  0.69649972967E+02 -0.16845862667E+03  0.19227514511E+03  0.00000000000E+00 0. -1.
         21    1    1    2  505  503  0.68171321281E+02 -0.21361045033E+02  0.44466478080E+02  0.84148030059E+02  0.00000000000E+00 0. -1.
          1    1    1    2  501    0  0.37177139805E+02  0.23766192774E+02  0.13816366799E+04  0.13823410892E+04  0.00000000000E+00 0. -1.
<scales pt_clust_3="57.42446" pt_clust_4="87.93509" pt_clust_5="14000.00000" pt_clust_6="44.12450"></scales>
<clustering>
<clus scale="   44.125">  1  6  2 -1</clus>
<clus scale="   57.424">  1  3  2 -1</clus>
<clus scale="   87.935">  2  4  1 -1</clus>
<clus scale="   87.935">  2  3  1 -1</clus>
</clustering>
</event>
<event>
 6    0  0.2433432E+002  0.8928522E+02  0.7546771E-02  0.1304592E+00
          1   -1    0    0  503    0 -0.00000000000E+00  0.00000000000E+00  0.17873499064E+04  0.17873499064E+04  0.00000000000E+00 0.  1.
         21   -1    0    0  505  502  0.00000000000E+00 -0.00000000000E+00 -0.11449654431E+03  0.11449654431E+03  0.00000000000E+00 0.  1.
         21    1    1    2  503  502 -0.27122793808E+02  0.22659451063E+02  0.25134730793E+02  0.43368783225E+02  0.00000000000E+00 0.  1.
         21    1    1    2  504  501  0.78729286255E+02  0.16505375404E+02  0.56256824920E+02  0.98160879588E+02  0.00000000000E+00 0.  1.
         21    1    1    2  505  504 -0.58026945425E+02 -0.80448735754E+02 -0.54935890769E+02  0.11338905403E+03  0.00000000000E+00 0.  1.
          1    1    1    2  501    0  0.64204529782E+01  0.41283909287E+02  0.16463976971E+04  0.16469277338E+04  0.00000000000E+00 0.  1.
<scales pt_clust_3="35.34256" pt_clust_4="14000.00000" pt_clust_5="89.28522" pt_clust_6="41.82608"></scales>
<clustering>
<clus scale="   35.343">  2  3  1 -1</clus>
<clus scale="   41.826">  1  6  2 -1</clus>
<clus scale="   89.285">  2  5  1 -1</clus>
<clus scale="   35.343">  2  3  1 -1</clus>
</clustering>
</event>
<event>
 6    0  0.2433432E+002  0.1249774E+03  0.7546771E-02  0.1235105E+00
          2   -1    0    0  502    0 -0.00000000000E+00  0.00000000000E+00  0.14025314805E+04  0.14025314805E+04  0.00000000000E+00 0. -1.
         21   -1    0    0  505  502  0.00000000000E+00 -0.00000000000E+00 -0.12908808295E+03  0.12908808295E+03  0.00000000000E+00 0.  1.
         21    1    1    2  503  501 -0.25425780094E+02  0.76717103793E+02  0.99199244565E+02  0.12795497032E+03  0.00000000000E+00 0.  1.
         21    1    1    2  504  503  0.21396348977E+02 -0.86204108999E+02 -0.30206185149E+02  0.93815594542E+02  0.00000000000E+00 0.  1.
         21    1    1    2  505  504  0.28273051772E+02 -0.35164032389E+02 -0.42428230269E+02  0.61935687241E+02  0.00000000000E+00 0.  1.
          2    1    1    2  501    0 -0.24243620654E+02  0.44651037595E+02  0.12468785684E+04  0.12479133114E+04  0.00000000000E+00 0. -1.
<scales pt_clust_3="117.61770" pt_clust_4="30.11648" pt_clust_5="30.11648" pt_clust_6="50.80815"></scales>
<clustering>
<clus scale="   30.116">  4  5 -1 -1</clus>
<clus scale="   50.808">  1  6  2 -1</clus>
<clus scale="  117.618">  1  3  2 -1</clus>
<clus scale="  124.977">  2  3  1 -1</clus>
</clustering>
</event>
<event>
 6    0  0.2433432E+002  0.2967456E+03  0.7546771E-02  0.1086879E+00
         21   -1    0    0  504  502  0.00000000000E+00  0.00000000000E+00  0.45908914735E+03  0.45908914735E+03  0.00000000000E+00 0.  1.
          1   -1    0    0  503    0 -0.00000000000E+00 -0.00000000000E+00 -0.85520630126E+03  0.85520630126E+03  0.00000000000E+00 0.  1.
         21    1    1    2  503  502 -0.25703316368E+03  0.31609884488E+03  0.71589844389E+02  0.41365400130E+03  0.00000000000E+00 0.  1.
         21    1    1    2  504  505  0.11458041872E+02 -0.25627805082E+03  0.62324370544E+02  0.26399631289E+03  0.00000000000E+00 0.  1.
         21    1    1    2  505  501  0.16233214083E+03  0.19960576895E+02 -0.10062936630E+03  0.19203233566E+03  0.00000000000E+00 0. -1.
          1    1    1    2  501    0  0.83242980981E+02 -0.79781370959E+02 -0.42940200254E+03  0.44461279876E+03  0.00000000000E+00 0.  1.
<scales pt_clust_3="14000.00000" pt_clust_4="296.74559" pt_clust_5="191.62468" pt_clust_6="115.30161"></scales>
<clustering>
<clus scale="  115.302">  2  6  1 -1</clus>
<clus scale="  191.625">  2  5  1 -1</clus>
<clus scale="  296.746">  1  4  2 -1</clus>
<clus scale="  296.746">  1  3  2 -1</clus>
</clustering>
</event>
<event>
 6    0  0.2433432E+002  0.9778051E+02  0.7546771E-02  0.1285034E+00
          2   -1    0    0  503    0 -0.00000000000E+00  0.00000000000E+00  0.13598471278E+04  0.13598471278E+04  0.00000000000E+00 0.  1.
         21   -1    0    0  504  502  0.00000000000E+00 -0.00000000000E+00 -0.12888841131E+03  0.12888841131E+03  0.00000000000E+00 0.  1.
         21    1    1    2  503  505  0.35689184374E+02 -0.78006541483E+02  0.12761403941E+03  0.15376632093E+03  0.00000000000E+00 0.  1.
         21    1    1    2  504  501 -0.77378994933E+02  0.66832035073E+02 -0.60789371277E+01  0.10242550095E+03  0.00000000000E+00 0.  1.
         21    1    1    2  505  502 -0.25685744930E+02 -0.22837867200E+02 -0.55444258119E+02  0.65233361321E+02  0.00000000000E+00 0.  1.
          2    1    1    2  501    0  0.67375555489E+02  0.34012373610E+02  0.11648678723E+04  0.11673103559E+04  0.00000000000E+00 0.  1.
<scales pt_clust_3="14000.00000" pt_clust_4="97.78051" pt_clust_5="34.37042" pt_clust_6="74.88219"></scales>
<clustering>
<clus scale="   34.370">  2  5  1 -1</clus>
<clus scale="   74.882">  1  6  2 -1</clus>
<clus scale="   97.781">  2  4  1 -1</clus>
<clus scale="   34.370">  2  3  1 -1</clus>
</clustering>
</event>
<event>
 6    0  0.2433432E+002  0.1135364E+03  0.7546771E-02  0.1254158E+00
         21   -1    0    0  504  502  0.00000000000E+00  0.00000000000E+00  0.97038185697E+03  0.97038185697E+03  0.00000000000E+00 0.  1.
          2   -1    0    0  505    0 -0.00000000000E+00 -0.00000000000E+00 -0.48679367402E+03  0.48679367402E+03  0.00000000000E+00 0.  1.
         21    1    1    2  503  501 -0.83887569584E+02 -0.94367573606E+01  0.72858066986E+03  0.73345481743E+03  0.00000000000E+00 0.  1.
         21    1    1    2  504  503 -0.25422190822E+02  0.37454434641E+02  0.19768866503E+03  0.20280515463E+03  0.00000000000E+00 0.  1.
         21    1    1    2  505  502  0.14994947258E+02  0.36024121536E+02  0.20383852030E+02  0.44023711784E+02  0.00000000000E+00 0. -1.
          2    1    1    2  501    0  0.94314813148E+02 -0.64041798816E+02 -0.46306500398E+03  0.47689184715E+03  0.00000000000E+00 0.  1.
<scales pt_clust_3="113.53643" pt_clust_4="50.31637" pt_clust_5="39.02033" pt_clust_6="14000.00000"></scales>
<clustering>
<clus scale="   39.020">  1  5  2 -1</clus>
<clus scale="   50.316">  1  4  2 -1</clus>
<clus scale="  113.536">  1  3  2 -1</clus>
<clus scale="   39.020">  1  3  2 -1</clus>
</clustering>
</event>
<event>
 6    0  0.2433432E+002  0.1415574E+03  0.7546771E-02  0.1211249E+00
         21   -1    0    0  505  502  0.00000000000E+00  0.00000000000E+00  0.73599461245E+03  0.73599461245E+03  0.00000000000E+00 0.  1.
          2   -1    0    0  503    0 -0.00000000000E+00 -0.00000000000E+00 -0.13002805444E+03  0.13002805444E+03  0.00000000000E+00 0.  1.
         21    1    1    2  503  504 -0.63751906706E+02  0.44971199955E+02  0.25036159746E+01  0.78057559064E+02  0.00000000000E+00 0.  1.
         21    1    1    2  504  502 -0.18775917950E+02  0.76601062514E+02  0.29074459580E+02  0.84057016798E+02  0.00000000000E+00 0.  1.
         21    1    1    2  505  501  0.10352562415E+03 -0.73219359002E+02  0.62083388510E+03  0.63365080468E+03  0.00000000000E+00 0.  1.
          2    1    1    2  501    0 -0.20997799497E+02 -0.48352903467E+02 -0.46445402642E+02  0.70257286341E+02  0.00000000000E+00 0.  1.
<scales pt_clust_3="55.27313" pt_clust_4="55.27313" pt_clust_5="127.84837" pt_clust_6="52.71538"></scales>
<clustering>
<clus scale="   52.715">  2  6  1 -1</clus>
<clus scale="   55.273">  3  4 -1 -1</clus>
<clus scale="  127.848">  1  5  2 -1</clus>
<clus scale="  127.848">  1  3  2 -1</clus>
</clustering>
</event>
<event>
 6    0  0.2433432E+002  0.6333063E+02  0.7546771E-02  0.1384363E+00
         21   -1    0    0  503  502  0.00000000000E+00  0.00000000000E+00  0.14639549346E+03  0.14639549346E+03  0.00000000000E+00 0. -1.
          4   -1    0    0  504    0 -0.00000000000E+00 -0.00000000000E+00 -0.14691166466E+03  0.14691166466E+03  0.00000000000E+00 0.  1.
         21    1    1    2  503  505 -0.50980156746E+02 -0.41308989780E+02  0.34380703246E+02  0.74077268944E+02  0.00000000000E+00 0.  1.
         21    1    1    2  504  502  0.55310599839E+02  0.26568656541E+02  0.11452463318E+02  0.62420468446E+02  0.00000000000E+00 0. -1.
         21    1    1    2  505  501 -0.61978565506E+02  0.22517940789E+02  0.19675030748E+02  0.68815020704E+02  0.00000000000E+00 0. -1.
          4    1    1    2  501    0  0.57648122414E+02 -0.77776075503E+01 -0.66024368512E+02  0.87994400018E+02  0.00000000000E+00 0.  1.
<scales pt_clust_3="63.33063" pt_clust_4="14000.00000" pt_clust_5="46.16948" pt_clust_6="58.17042"></scales>
<clustering>
<clus scale="   58.170">  2  6  1 -1</clus>
<clus scale="   46.169">  2  5  1 -1</clus>
<clus scale="   63.331">  1  3  2 -1</clus>
<clus scale="   63.331">  1  3  2 -1</clus>
</clustering>
</event>
<event>
 6    0  0.2433432E+002  0.1087507E+03  0.7546771E-02  0.1262901E+00
          2   -1    0    0  504    0 -0.00000000000E+00  0.00000000000E+00  0.10703302214E+04  0.10703302214E+04  0.00000000000E+00 0. -1.
         21   -1    0    0  503  502  0.00000000000E+00 -0.00000000000E+00 -0.93715867211E+02  0.93715867211E+02  0.00000000000E+00 0.  1.
         21    1    1    2  503  505  0.15323833964E+02 -0.66671471813E+02  0.43148788277E+02  0.80880918460E+02  0.00000000000E+00 0.  1.
         21    1    1    2  504  502  0.38425343274E+02  0.32820198195E+02 -0.29940930835E+02  0.58737822181E+02  0.00000000000E+00 0.  1.
         21    1    1    2  505  501  0.59539921676E+01 -0.43145004801E+02 -0.11193525911E+02  0.44969283787E+02  0.00000000000E+00 0.  1.
          2    1    1    2  501    0 -0.59703169406E+02  0.76996278420E+02  0.97460002265E+03  0.97945806417E+03  0.00000000000E+00 0. -1.
<scales pt_clust_3="38.30578" pt_clust_4="50.53387" pt_clust_5="38.30578" pt_clust_6="97.58069"></scales>
<clustering>
<clus scale="   38.306">  3  5 -1 -1</clus>
<clus scale="   50.534">  2  4  1 -1</clus>
<clus scale="   97.581">  1  6  2 -1</clus>
<clus scale="   50.534">  2  3  1 -1</clus>
</clustering>
</event>
<event>
 6    0  0.2433432E+002  0.1055990E+03  0.7546771E-02  0.1268944E+00
         21   -1    0    0  503  502  0.00000000000E+00  0.00000000000E+00  0.88903842304E+02  0.88903842304E+02  0.00000000000E+00 0. -1.
          4   -1    0    0  505    0 -0.00000000000E+00 -0.00000000000E+00 -0.11622203302E+04  0.11622203302E+04  0.00000000000E+00 0.  1.
         21    1    1    2  503  501 -0.66482938864E+02  0.31409882005E+02  0.31072971958E+02  0.79825380888E+02  0.00000000000E+00 0. -1.
         21    1    1    2  504  502  0.35127536522E+02  0.14091399903E+02  0.38967423556E+01  0.38048600163E+02  0.00000000000E+00 0.  1.
         21    1    1    2  505  504 -0.88333037542E+01  0.54951684922E+02 -0.70416514131E+02  0.89756339015E+02  0.00000000000E+00 0.  1.
          4    1    1    2  501    0  0.40188706096E+02 -0.10045296683E+03 -0.10378696880E+04  0.10434938524E+04  0.00000000000E+00 0.  1.
<scales pt_clust_3="105.59896" pt_clust_4="37.84853" pt_clust_5="57.08640" pt_clust_6="14000.00000"></scales>
<clustering>
<clus scale="   37.849">  1  4  2 -1</clus>
<clus scale="   57.086">  1  5  2 -1</clus>
<clus scale="  105.599">  1  3  2 -1</clus>
<clus scale="   37.849">  1  3  2 -1</clus>
</clustering>
</event>
<event>
 6    0  0.2433432E+002  0.1444303E+03  0.7546771E-02  0.1207489E+00
         21   -1    0    0  504  502  0.00000000000E+00  0.00000000000E+00  0.26007802185E+03  0.26007802185E+03  0.00000000000E+00 0. -1.
          1   -1    0    0  505    0 -0.00000000000E+00 -0.00000000000E+00 -0.18319321247E+04  0.18319321247E+04  0.00000000000E+00 0. -1.
         21    1    1    2  503  501 -0.82369391722E+02 -0.69062727967E+01  0.90283185931E+02  0.12240697267E+03  0.00000000000E+00 0. -1.
         21    1    1    2  504  503 -0.94103964041E+02 -0.54350685032E+02  0.11746021596E+03  0.16002017168E+03  0.00000000000E+00 0. -1.
         21    1    1    2  505  502  0.41598923883E+02  0.32766087794E+02 -0.44928796304E+02  0.69445544961E+02  0.00000000000E+00 0. -1.
          1    1    1    2  501    0  0.13487443188E+03  0.28490870035E+02 -0.17346687084E+04  0.17401374572E+04  0.00000000000E+00 0. -1.
<scales pt_clust_3="36.09124" pt_clust_4="36.09124" pt_clust_5="52.95363" pt_clust_6="138.37484"></scales>
<clustering>
<clus scale="   36.091">  3  4 -1 -1</clus>
<clus scale="   52.954">  1  5  2 -1</clus>
<clus scale="  138.375">  2  6  1 -1</clus>
<clus scale="   52.954">  1  3  2 -1</clus>
</clustering>
</event>
<event>
 6    0  0.2433432E+002  0.1327725E+03  0.7546771E-02  0.1223399E+00
          2   -1    0    0  505    0 -0.00000000000E+00  0.00000000000E+00  0.11808511410E+04  0.11808511410E+04  0.00000000000E+00 0.  1.
         21   -1    0    0  504  502  0.00000000000E+00 -0.00000000000E+00 -0.10622025610E+03  0.10622025610E+03  0.00000000000E+00 0.  1.
         21    1    1    2  503  502  0.10641022008E+03  0.92710354682E+02 -0.32042433477E+02  0.14472409042E+03  0.00000000000E+00 0.  1.
         21    1    1    2  504  501 -0.10159840991E+03 -0.18028101155E+02  0.27768499710E+03  0.29623674138E+03  0.00000000000E+00 0.  1.
         21    1    1    2  505  503  0.14612546375E+02 -0.11119008097E+03  0.40916810066E+03  0.42425852403E+03  0.00000000000E+00 0.  1.
          2    1    1    2  501    0 -0.19424356553E+02  0.36507827439E+02  0.41982022062E+03  0.42185204128E+03  0.00000000000E+00 0.  1.
<scales pt_clust_3="132.77247" pt_clust_4="14000.00000" pt_clust_5="91.25904" pt_clust_6="41.35368"></scales>
<clustering>
<clus scale="   41.354">  1  6  2 -1</clus>
<clus scale="   91.259">  1  5  2 -1</clus>
<clus scale="  132.772">  2  3  1 -1</clus>
<clus scale="  132.772">  2  3  1 -1</clus>
</clustering>
</event>
<event>
 6    0  0.2433432E+002  0.1059221E+03  0.7546771E-02  0.1268313E+00
         21   -1    0    0  505  502  0.00000000000E+00  0.00000000000E+00  0.41611435494E+03  0.41611435494E+03  0.00000000000E+00 0. -1.
          2   -1    0    0  504    0 -0.00000000000E+00 -0.00000000000E+00 -0.38490126356E+03  0.38490126356E+03  0.00000000000E+00 0.  1.
         21    1    1    2  503  502  0.37772266111E+01 -0.34141928315E+02  0.20352804416E+02  0.39927125586E+02  0.00000000000E+00 0. -1.
         21    1    1    2  504  503 -0.69789790736E+02  0.13985361982E+02  0.22257611992E+02  0.74576179389E+02  0.00000000000E+00 0. -1.
         21    1    1    2  505  501  0.12622589122E+03  0.70930102819E+01  0.32280435507E+03  0.34667843611E+03  0.00000000000E+00 0. -1.
          2    1    1    2  501    0 -0.60213327091E+02  0.13063556051E+02 -0.33420168010E+03  0.33983387741E+03  0.00000000000E+00 0.  1.
<scales pt_clust_3="34.35024" pt_clust_4="14000.00000" pt_clust_5="105.92211" pt_clust_6="61.53484"></scales>
<clustering>
<clus scale="   34.350">  1  3  2 -1</clus>
<clus scale="   61.535">  2  6  1 -1</clus>
<clus scale="  105.922">  1  5  2 -1</clus>
<clus scale="   34.350">  1  3  2 -1</clus>
</clustering>
</event>
<event>
 6    0  0.2433432E+002  0.1027977E+03  0.7546771E-02  0.1274520E+00
          3   -1    0    0  504    0 -0.00000000000E+00  0.00000000000E+00  0.31036898337E+03  0.31036898337E+03  0.00000000000E+00 0.  1.
         21   -1    0    0  503  502  0.00000000000E+00 -0.00000000000E+00 -0.16246367154E+03  0.16246367154E+03  0.00000000000E+00 0. -1.
         21    1    1    2  503  501  0.33616424147E+02 -0.52636957008E+00 -0.47785186808E+02  0.58427434614E+02  0.00000000000E+00 0. -1.
         21    1    1    2  504  505 -0.53540331422E+02  0.58044213414E+02  0.39742528931E+02  0.88403429828E+02  0.00000000000E+00 0.  1.
         21    1    1    2  505  502  0.75737287049E+02 -0.84559561583E+02 -0.40088270482E+02  0.12038905903E+03  0.00000000000E+00 0. -1.
          3    1    1    2  501    0 -0.55813379774E+02  0.27041717739E+02  0.19603624019E+03  0.20561273143E+03  0.00000000000E+00 0.  1.
<scales pt_clust_3="33.62054" pt_clust_4="102.79770" pt_clust_5="14000.00000" pt_clust_6="60.68776"></scales>
<clustering>
<clus scale="   33.621">  2  3  1 -1</clus>
<clus scale="   60.688">  1  6  2 -1</clus>
<clus scale="  102.798">  1  4  2 -1</clus>
<clus scale="   33.621">  2  3  1 -1</clus>
</clustering>
</event>
<event>
 6    0  0.2433432E+002  0.1030717E+03  0.7546771E-02  0.1273966E+00
         21   -1    0    0  504  502  0.00000000000E+00  0.00000000000E+00  0.24959528630E+03  0.24959528630E+03  0.00000000000E+00 0.  1.
         -3   -1    0    0    0  501 -0.00000000000E+00 -0.00000000000E+00 -0.29597357378E+03  0.29597357378E+03  0.00000000000E+00 0.  1.
         21    1    1    2  503  505 -0.87253074734E+02 -0.38409957636E+02  0.10447311311E+03  0.14143215780E+03  0.00000000000E+00 0.  1.
         21    1    1    2  504  501  0.11311471901E+03  0.42839058237E+02  0.18801810895E+02  0.12240764952E+03  0.00000000000E+00 0.  1.
         21    1    1    2  505  502  0.13726511384E+02 -0.29179776294E+02  0.48717394377E+02  0.58423120203E+02  0.00000000000E+00 0.  1.
         -3    1    1    2    0  503 -0.39588155658E+02  0.24750675692E+02 -0.21837060586E+03  0.22330593257E+03  0.00000000000E+00 0.  1.
<scales pt_clust_3="14000.00000" pt_clust_4="103.07170" pt_clust_5="32.24712" pt_clust_6="46.34779"></scales>
<clustering>
<clus scale="   32.247">  1  5  2 -1</clus>
<clus scale="   46.348">  2  6  1 -1</clus>
<clus scale="  103.072">  2  4  1 -1</clus>
<clus scale="   32.247">  1  3  2 -1</clus>
</clustering>
</event>
<event>
 6    0  0.2433432E+002  0.9245007E+02  0.7546771E-02  0.1297025E+00
         -1   -1    0    0    0  501 -0.00000000000E+00  0.00000000000E+00  0.23016397209E+03  0.23016397209E+03  0.00000000000E+00 0.  1.
         21   -1    0    0  505  502  0.00000000000E+00 -0.00000000000E+00 -0.22522026217E+03  0.22522026217E+03  0.00000000000E+00 0.  1.
         21    1    1    2  503  504 -0.66134514882E+02  0.21251617024E+01  0.32530402478E+02  0.73732743448E+02  0.00000000000E+00 0.  1.
         21    1    1    2  504  502  0.38505563486E+02 -0.97016391015E+02 -0.13135474637E+03  0.16777642248E+03  0.00000000000E+00 0.  1.
         21    1    1    2  505  501  0.55864452262E+02  0.79040657100E+02 -0.83744097703E+01  0.97151393404E+02  0.00000000000E+00 0.  1.
         -1    1    1    2    0  503 -0.28235500866E+02  0.15850572212E+02  0.11214246358E+03  0.11672367492E+03  0.00000000000E+00 0.  1.
<scales pt_clust_3="79.65416" pt_clust_4="14000.00000" pt_clust_5="92.45007" pt_clust_6="32.38030"></scales>
<clustering>
<clus scale="   32.380">  1  6  2 -1</clus>
<clus scale="   79.654">  1  3  2 -1</clus>
<clus scale="   92.450">  1  5  2 -1</clus>
<clus scale="   92.450">  2  3  1 -1</clus>
</clustering>
</event>
<event>
 6    0  0.2433432E+002  0.1484799E+03  0.7546771E-02  0.1202353E+00
         -2   -1    0    0    0  501 -0.00000000000E+00  0.00000000000E+00  0.12785304259E+03  0.12785304259E+03  0.00000000000E+00 0. -1.
         21   -1    0    0  503  502  0.00000000000E+00 -0.00000000000E+00 -0.39087737066E+03  0.39087737066E+03  0.00000000000E+00 0. -1.
         21    1    1    2  503  504  0.61043319896E+02 -0.32188987377E+02 -0.13032687478E+03  0.14747037704E+03  0.00000000000E+00 0. -1.
         21    1    1    2  504  501  0.12872871149E+03  0.39722349669E+02 -0.57229705387E+02  0.14637002905E+03  0.00000000000E+00 0. -1.
         21    1    1    2  505  502 -0.30759892438E+02  0.23383633030E+02 -0.46283789132E+02  0.60292241731E+02  0.00000000000E+00 0. -1.
         -2    1    1    2    0  505 -0.15901213895E+03 -0.30916995321E+02 -0.29183958766E+02  0.16459776542E+03  0.00000000000E+00 0. -1.
<scales pt_clust_3="53.39150" pt_clust_4="148.47993" pt_clust_5="38.63891" pt_clust_6="14000.00000"></scales>
<clustering>
<clus scale="   38.639">  2  5  1 -1</clus>
<clus scale="   53.392">  2  3  1 -1</clus>
<clus scale="  148.480">  2  4  1 -1</clus>
<clus scale="   38.639">  2  3  1 -1</clus>
</clustering>
</event>
<event>
 6    0  0.2433432E+002  0.8660010E+02  0.7546771E-02  0.1311300E+00
          2   -1    0    0  505    0 -0.00000000000E+00  0.00000000000E+00  0.24502735571E+04  0.24502735571E+04  0.00000000000E+00 0. -1.
         21   -1    0    0  503  502  0.00000000000E+00 -0.00000000000E+00 -0.34729134294E+03  0.34729134294E+03  0.00000000000E+00 0.  1.
         21    1    1    2  503  504  0.19034083140E+02 -0.60775992907E+02 -0.75045367456E+02  0.98426748454E+02  0.00000000000E+00 0. -1.
         21    1    1    2  504  501  0.31711968200E+02  0.97692636586E+02 -0.23976693419E+03  0.26084033987E+03  0.00000000000E+00 0.  1.
         21    1    1    2  505  502  0.35159747994E+02 -0.24977745668E+02  0.39689930198E+02  0.58612167822E+02  0.00000000000E+00 0. -1.
          2    1    1    2  501    0 -0.85905799334E+02 -0.11938898012E+02  0.23781045856E+04  0.23796856439E+04  0.00000000000E+00 0. -1.
<scales pt_clust_3="72.81329" pt_clust_4="14000.00000" pt_clust_5="43.12883" pt_clust_6="86.60010"></scales>
<clustering>
<clus scale="   43.129">  2  5  1 -1</clus>
<clus scale="   72.813">  2  3  1 -1</clus>
<clus scale="   86.600">  1  6  2 -1</clus>
<clus scale="   43.129">  2  3  1 -1</clus>
</clustering>
</event>
<event>
 6    0  0.2433432E+002  0.9466067E+02  0.7546771E-02  0.1291942E+00
          1   -1    0    0  505    0 -0.00000000000E+00  0.00000000000E+00  0.29529350585E+03  0.29529350585E+03  0.00000000000E+00 0.  1.
         21   -1    0    0  503  502  0.00000000000E+00 -0.00000000000E+00 -0.66586931219E+03  0.66586931219E+03  0.00000000000E+00 0. -1.
         21    1    1    2  503  501  0.10170132418E+03  0.72092975276E+02 -0.11133716856E+03  0.16714221946E+03  0.00000000000E+00 0.  1.
         21    1    1    2  504  502 -0.41355432473E+02  0.32933668334E+02 -0.45374423891E+03  0.45681367389E+03  0.00000000000E+00 0. -1.
         21    1    1    2  505  504 -0.20280997002E+02 -0.77684734008E+02 -0.45543479001E+02  0.92306257734E+02  0.00000000000E+00 0.  1.
          1    1    1    2  501    0 -0.40064894701E+02 -0.27341909601E+02  0.24004908013E+03  0.24490066696E+03  0.00000000000E+00 0.  1.
<scales pt_clust_3="14000.00000" pt_clust_4="53.29956" pt_clust_5="94.66067" pt_clust_6="48.50542"></scales>
<clustering>
<clus scale="   48.505">  1  6  2 -1</clus>
<clus scale="   53.300">  2  4  1 -1</clus>
<clus scale="   94.661">  2  5  1 -1</clus>
<clus scale="   53.300">  2  3  1 -1</clus>
</clustering>
</event>
<event>
 6    0  0.2433432E+002  0.7806299E+02  0.7546771E-02  0.1334640E+00
         21   -1    0    0  505  502  0.00000000000E+00  0.00000000000E+00  0.15070461294E+03  0.15070461294E+03  0.00000000000E+00 0. -1.
          2   -1    0    0  504    0 -0.00000000000E+00 -0.00000000000E+00 -0.26768538840E+04  0.26768538840E+04  0.00000000000E+00 0. -1.
         21    1    1    2  503  502 -0.94684513063E+02  0.17125189472E+02  0.10548751128E+03  0.14277970501E+03  0.00000000000E+00 0. -1.
         21    1    1    2  504  503 -0.17649975718E+02 -0.66836767354E+02 -0.62217493505E+02  0.93003718266E+02  0.00000000000E+00 0.  1.
         21    1    1    2  505  501  0.41954250623E+02  0.13150903282E+02 -0.35217997888E+02  0.56333052267E+02  0.00000000000E+00 0.  1.
          2    1    1    2  501    0  0.70380238159E+02  0.36560674601E+02 -0.25342012910E+04  0.25354420214E+04  0.00000000000E+00 0. -1.
<scales pt_clust_3="64.31894" pt_clust_4="14000.00000" pt_clust_5="43.96709" pt_clust_6="78.06299"></scales>
<clustering>
<clus scale="   43.967">  1  5  2 -1</clus>
<clus scale="   64.319">  1  3  2 -1</clus>
<clus scale="   78.063">  2  6  1 -1</clus>
<clus scale="   43.967">  1  3  2 -1</clus>
</clustering>
</event>
<event>
 6    0  0.2433432E+002  0.1404934E+03  0.7546771E-02  0.1212667E+00
          2   -1    0    0  503    0 -0.00000000000E+00  0.00000000000E+00  0.20022381479E+04  0.20022381479E+04  0.00000000000E+00 0.  1.
         21   -1    0    0  504  502  0.00000000000E+00 -0.00000000000E+00 -0.72492617134E+03  0.72492617134E+03  0.00000000000E+00 0.  1.
         21    1    1    2  503  502  0.14265339838E+02  0.71626137588E+02  0.21776388205E+02  0.76210331253E+02  0.00000000000E+00 0. -1.
         21    1    1    2  504  505 -0.13983997024E+03 -0.17072993572E+02 -0.68197363124E+03  0.69637255696E+03  0.00000000000E+00 0.  1.
         21    1    1    2  505  501  0.12017962000E+03 -0.23224828199E+02  0.43927328679E+03  0.45600828303E+03  0.00000000000E+00 0. -1.
          2    1    1    2  501    0  0.53950104030E+01 -0.31328315816E+02  0.14982359328E+04  0.14985731480E+04  0.00000000000E+00 0.  1.
<scales pt_clust_3="70.15642" pt_clust_4="14000.00000" pt_clust_5="140.49339" pt_clust_6="31.78946"></scales>
<clustering>
<clus scale="   31.789">  1  6  2 -1</clus>
<clus scale="   70.156">  1  3  2 -1</clus>
<clus scale="  140.493">  1  5  2 -1</clus>
<clus scale="  140.493">  2  3  1 -1</clus>
</clustering>
</event>
<event>
 6    0  0.2433432E+002  0.2561770E+03  0.7546771E-02  0.1109462E+00
          2   -1    0    0  503    0 -0.00000000000E+00  0.00000000000E+00  0.29680945485E+03  0.29680945485E+03  0.00000000000E+00 0.  1.
         21   -1    0    0  505  502  0.00000000000E+00 -0.00000000000E+00 -0.15721454345E+04  0.15721454345E+04  0.00000000000E+00 0. -1.
         21    1    1    2  503  502  0.15137334938E+03 -0.27652260481E+03 -0.90926003013E+03  0.96235775275E+03  0.00000000000E+00 0. -1.
         21    1    1    2  504  501 -0.35800432401E+02  0.53668233518E+02 -0.36622069741E+02  0.74183058990E+02  0.00000000000E+00 0. -1.
         21    1    1    2  505  504 -0.10200415549E+03  0.18667835523E+03 -0.55979639160E+03  0.59885361825E+03  0.00000000000E+00 0.  1.
          2    1    1    2  501    0 -0.13568761487E+02  0.36176016060E+02  0.23034251182E+03  0.23356045937E+03  0.00000000000E+00 0.  1.
<scales pt_clust_3="256.17696" pt_clust_4="75.45075" pt_clust_5="14000.00000" pt_clust_6="38.63697"></scales>
<clustering>
<clus scale="   38.637">  1  6  2 -1</clus>
<clus scale="   75.451">  1  4  2 -1</clus>
<clus scale="  256.177">  1  3  2 -1</clus>
<clus scale="  256.177">  2  3  1 -1</clus>
</clustering>
</event>
<event>
 6    0  0.2433432E+002  0.1365806E+03  0.7546771E-02  0.1218006E+00
          2   -1    0    0  504    0 -0.00000000000E+00  0.00000000000E+00  0.75489631598E+03  0.75489631598E+03  0.00000000000E+00 0.  1.
         21   -1    0    0  503  502  0.00000000000E+00 -0.00000000000E+00 -0.44191598231E+03  0.44191598231E+03  0.00000000000E+00 0.  1.
         21    1    1    2  503  501  0.25252974945E+01  0.30517701377E+02 -0.72219827789E+02  0.78443678844E+02  0.00000000000E+00 0.  1.
         21    1    1    2  504  505  0.66483436715E+02  0.97717879464E+01 -0.27247853015E+03  0.28064227157E+03  0.00000000000E+00 0.  1.
         21    1    1    2  505  502  0.63900745118E+02 -0.23315578988E+01 -0.71291954943E+02  0.95766822170E+02  0.00000000000E+00 0. -1.
          2    1    1    2  501    0 -0.13290947933E+03 -0.37957931425E+02  0.72897064656E+03  0.74195952571E+03  0.00000000000E+00 0.  1.
<scales pt_clust_3="30.62201" pt_clust_4="14000.00000" pt_clust_5="64.64162" pt_clust_6="136.58056"></scales>
<clustering>
<clus scale="   30.622">  2  3  1 -1</clus>
<clus scale="   64.642">  2  5  1 -1</clus>
<clus scale="  136.581">  1  6  2 -1</clus>
<clus scale="   30.622">  2  3  1 -1</clus>
</clustering>
</event>
<event>
 6    0  0.2433432E+002  0.1266326E+03  0.7546771E-02  0.1232540E+00
         21   -1    0    0  503  502  0.00000000000E+00  0.00000000000E+00  0.71985985761E+03  0.71985985761E+03  0.00000000000E+00 0.  1.
          2   -1    0    0  505    0 -0.00000000000E+00 -0.00000000000E+00 -0.23219793981E+04  0.23219793981E+04  0.00000000000E+00 0. -1.
         21    1    1    2  503  504  0.62974004921E+02  0.13255540821E+03 -0.11373610953E+04  0.11467898337E+04  0.00000000000E+00 0. -1.
         21    1    1    2  504  501  0.43990425327E+02 -0.15137880488E+02 -0.32566886623E+03  0.32897495859E+03  0.00000000000E+00 0. -1.
         21    1    1    2  505  502 -0.84097380782E+02 -0.94581405859E+02  0.70756920530E+03  0.71879913194E+03  0.00000000000E+00 0.  1.
          2    1    1    2  501    0 -0.22867049465E+02 -0.22836121860E+02 -0.84665878424E+03  0.84727533149E+03  0.00000000000E+00 0. -1.
<scales pt_clust_3="14000.00000" pt_clust_4="43.84876" pt_clust_5="126.63261" pt_clust_6="32.31703"></scales>
<clustering>
<clus scale="   32.317">  2  6  1 -1</clus>
<clus scale="   43.849">  2  4  1 -1</clus>
<clus scale="  126.633">  1  5  2 -1</clus>
<clus scale="  126.633">  1  3  2 -1</clus>
</clustering>
</event>
<event>
 6    0  0.2433432E+002  0.1047255E+03  0.7546771E-02  0.1270661E+00
         21   -1    0    0  504  502  0.00000000000E+00  0.00000000000E+00  0.16825635726E+03  0.16825635726E+03  0.00000000000E+00 0.  1.
         -1   -1    0    0    0  501 -0.00000000000E+00 -0.00000000000E+00 -0.36542643970E+03  0.36542643970E+03  0.00000000000E+00 0. -1.
         21    1    1    2  503  502 -0.37381618491E+02 -0.24814823349E+02 -0.75056828531E+01  0.45491715004E+02  0.00000000000E+00 0. -1.
         21    1    1    2  504  501 -0.38515210694E+00  0.86886419327E+02  0.44045759922E+02  0.97413690889E+02  0.00000000000E+00 0.  1.
         21    1    1    2  505  503 -0.51605890468E+02  0.53126827958E+01  0.58306149487E+02  0.78044856316E+02  0.00000000000E+00 0.  1.
         -1    1    1    2    0  505  0.89372661066E+02 -0.67384278773E+02 -0.29201630900E+03  0.31273253475E+03  0.00000000000E+00 0. -1.
<scales pt_clust_3="44.86826" pt_clust_4="104.72551" pt_clust_5="68.94327" pt_clust_6="14000.00000"></scales>
<clustering>
<clus scale="   44.868">  1  3  2 -1</clus>
<clus scale="   68.943">  1  5  2 -1</clus>
<clus scale="  104.726">  1  4  2 -1</clus>
<clus scale="   44.868">  1  3  2 -1</clus>
</clustering>
</event>
<event>
 6    0  0.2433432E+002  0.1157998E+03  0.7546771E-02  0.1250191E+00
          2   -1    0    0  505    0 -0.00000000000E+00  0.00000000000E+00  0.18178856313E+03  0.18178856313E+03  0.00000000000E+00 0.  1.
         21   -1    0    0  503  502  0.00000000000E+00 -0.00000000000E+00 -0.30145854245E+03  0.30145854245E+03  0.00000000000E+00 0.  1.
         21    1    1    2  503  504  0.70023983015E+02 -0.39166724033E+02 -0.64578855515E+02  0.10299426706E+03  0.00000000000E+00 0.  1.
         21    1    1    2  504  501  0.89664549754E+02 -0.62859385495E+02 -0.40875127012E+02  0.11688374496E+03  0.00000000000E+00 0.  1.
         21    1    1    2  505  502 -0.91541847280E+02  0.30058151030E+02 -0.95146664975E+02  0.13541155823E+03  0.00000000000E+00 0.  1.
          2    1    1    2  501    0 -0.68146685489E+02  0.71967958498E+02  0.80930668180E+02  0.12795753532E+03  0.00000000000E+00 0.  1.
<scales pt_clust_3="31.05263" pt_clust_4="31.05263" pt_clust_5="96.35041" pt_clust_6="109.97071"></scales>
<clustering>
<clus scale="   31.053">  3  4 -1 -1</clus>
<clus scale="   96.350">  2  5  1 -1</clus>
<clus scale="  109.971">  1  6  2 -1</clus>
<clus scale="   96.350">  2  3  1 -1</clus>
</clustering>
</event>
<event>
 6    0  0.2433432E+002  0.1029125E+03  0.7546771E-02  0.1274288E+00
          1   -1    0    0  505    0 -0.00000000000E+00  0.00000000000E+00  0.53176640112E+03  0.53176640112E+03  0.00000000000E+00 0. -1.
         21   -1    0    0  503  502  0.00000000000E+00 -0.00000000000E+00 -0.15781224921E+03  0.15781224921E+03  0.00000000000E+00 0. -1.
         21    1    1    2  503  504 -0.14190624540E+02 -0.36940482569E+02  0.89273109152E+01  0.40566857870E+02  0.00000000000E+00 0. -1.
         21    1    1    2  504  501 -0.90917293736E+02  0.65831285072E+02 -0.45073016013E+01  0.11233889870E+03  0.00000000000E+00 0. -1.
         21    1    1    2  505  502  0.10143435001E+03  0.72320858048E+02 -0.26949871551E+02  0.12745795168E+03  0.00000000000E+00 0. -1.
          1    1    1    2  501    0  0.36735682658E+01 -0.10121166055E+03  0.39648401415E+03  0.40921494207E+03  0.00000000000E+00 0. -1.
<scales pt_clust_3="39.57238" pt_clust_4="95.25945" pt_clust_5="14000.00000" pt_clust_6="102.91252"></scales>
<clustering>
<clus scale="   39.572">  2  3  1 -1</clus>
<clus scale="  102.913">  1  6  2 -1</clus>
<clus scale="   95.259">  1  4  2 -1</clus>
<clus scale="   39.572">  2  3  1 -1</clus>
</clustering>
</event>
<event>
 6    0  0.2433432E+002  0.7308064E+02  0.7546771E-02  0.1349920E+00
          2   -1    0    0  505    0 -0.00000000000E+00  0.00000000000E+00  0.24911932480E+04  0.24911932480E+04  0.00000000000E+00 0. -1.
         21   -1    0    0  504  502  0.00000000000E+00 -0.00000000000E+00 -0.31974421372E+02  0.31974421372E+02  0.00000000000E+00 0.  1.
         21    1    1    2  503  502  0.46826236112E+02 -0.53393919131E+02  0.38981212776E+02  0.81013220761E+02  0.00000000000E+00 0.  1.
         21    1    1    2  504  501 -0.82791248600E+02  0.32902254698E+02  0.23797860161E+03  0.25410778035E+03  0.00000000000E+00 0.  1.
         21    1    1    2  505  503 -0.15972900112E+02  0.59868289556E+02  0.41636968287E+03  0.42095493636E+03  0.00000000000E+00 0.  1.
          2    1    1    2  501    0  0.51937912600E+02 -0.39376625124E+02  0.17658893294E+04  0.17670917319E+04  0.00000000000E+00 0. -1.
<scales pt_clust_3="14000.00000" pt_clust_4="73.08064" pt_clust_5="61.96245" pt_clust_6="40.05562"></scales>
<clustering>
<clus scale="   61.962">  1  5  2 -1</clus>
<clus scale="   40.056">  1  6  2 -1</clus>
<clus scale="   73.081">  1  4  2 -1</clus>
<clus scale="   73.081">  2  3  1 -1</clus>
</clustering>
</event>
<event>
 6    0  0.2433432E+002  0.1245521E+03  0.7546771E-02  0.1235771E+00
         21   -1    0    0  504  502  0.00000000000E+00  0.00000000000E+00  0.63348187224E+03  0.63348187224E+03  0.00000000000E+00 0. -1.
          2   -1    0    0  503    0 -0.00000000000E+00 -0.00000000000E+00 -0.11795513712E+03  0.11795513712E+03  0.00000000000E+00 0. -1.
         21    1    1    2  503  505  0.85474931505E+02 -0.15149548039E+03  0.16259622251E+03  0.23810580856E+03  0.00000000000E+00 0. -1.
         21    1    1    2  504  501 -0.52028884301E+01  0.51532596034E+02  0.24130179348E+03  0.24679796199E+03  0.00000000000E+00 0. -1.
         21    1    1    2  505  502 -0.64639148946E+02  0.61283486432E+02  0.17168074906E+03  0.19341190471E+03  0.00000000000E+00 0. -1.
          2    1    1    2  501    0 -0.15632894129E+02  0.38679397922E+02 -0.60052029931E+02  0.73121334105E+02  0.00000000000E+00 0. -1.
<scales pt_clust_3="124.55208" pt_clust_4="53.94099" pt_clust_5="14000.00000" pt_clust_6="41.71910"></scales>
<clustering>
<clus scale="   41.719">  2  6  1 -1</clus>
<clus scale="   53.941">  1  4  2 -1</clus>
<clus scale="  124.552">  2  3  1 -1</clus>
<clus scale="   53.941">  1  3  2 -1</clus>
</clustering>
</event>
<event>
 6    0  0.2433432E+002  0.7696063E+02  0.7546771E-02  0.1337905E+00
         21   -1    0    0  504  502  0.00000000000E+00  0.00000000000E+00  0.15000043980E+04  0.15000043980E+04  0.00000000000E+00 0.  1.
         -2   -1    0    0    0  501 -0.00000000000E+00 -0.00000000000E+00 -0.10101026713E+03  0.10101026713E+03  0.00000000000E+00 0.  1.
         21    1    1    2  503  501  0.69903310782E+02 -0.75702894392E+02  0.29456711994E+03  0.31206920583E+03  0.00000000000E+00 0.  1.
         21    1    1    2  504  503 -0.25719518444E+02  0.57481934629E+02  0.10214118847E+04  0.10233513105E+04  0.00000000000E+00 0.  1.
         21    1    1    2  505  502  0.22233933257E+02  0.21431112821E+02  0.16052575876E+03  0.16346913963E+03  0.00000000000E+00 0.  1.
         -2    1    1    2    0  505 -0.66417725595E+02 -0.32101530575E+01 -0.77510632515E+02  0.10212500922E+03  0.00000000000E+00 0.  1.
<scales pt_clust_3="76.96063" pt_clust_4="14000.00000" pt_clust_5="30.88107" pt_clust_6="66.28173"></scales>
<clustering>
<clus scale="   30.881">  1  5  2 -1</clus>
<clus scale="   66.282">  2  6  1 -1</clus>
<clus scale="   76.961">  2  3  1 -1</clus>
<clus scale="   30.881">  1  3  2 -1</clus>
</clustering>
</event>
<event>
 6    0  0.2433432E+002  0.1237173E+03  0.7546771E-02  0.1237088E+00
         21   -1    0    0  503  502  0.00000000000E+00  0.00000000000E+00  0.19164275379E+04  0.19164275379E+04  0.00000000000E+00 0. -1.
          2   -1    0    0  505    0 -0.00000000000E+00 -0.00000000000E+00 -0.14023642435E+03  0.14023642435E+03  0.00000000000E+00 0. -1.
         21    1    1    2  503  504  0.50145966052E+02 -0.15495107759E+03  0.10803946454E+04  0.10926010452E+04  0.00000000000E+00 0. -1.
         21    1    1    2  504  501 -0.14899773749E+02  0.55078521700E+02  0.13036673523E+03  0.14230647373E+03  0.00000000000E+00 0. -1.
         21    1    1    2  505  502 -0.81010269116E+02  0.68167569970E+02  0.68327125230E+03  0.69142540126E+03  0.00000000000E+00 0. -1.
          2    1    1    2  501    0  0.45764076813E+02  0.31704985924E+02 -0.11784151928E+03  0.13033104206E+03  0.00000000000E+00 0. -1.
<scales pt_clust_3="123.71725" pt_clust_4="66.82865" pt_clust_5="14000.00000" pt_clust_6="55.67366"></scales>
<clustering>
<clus scale="   55.674">  2  6  1 -1</clus>
<clus scale="   66.829">  2  4  1 -1</clus>
<clus scale="  123.717">  2  3  1 -1</clus>
<clus scale="  123.717">  1  3  2 -1</clus>
</clustering>
</event>
<event>
 6    0  0.2433432E+002  0.1458462E+03  0.7546771E-02  0.1205672E+00
          2   -1    0    0  505    0 -0.00000000000E+00  0.00000000000E+00  0.51741002663E+03  0.51741002663E+03  0.00000000000E+00 0.  1.
         21   -1    0    0  503  502  0.00000000000E+00 -0.00000000000E+00 -0.81083078967E+02  0.81083078967E+02  0.00000000000E+00 0. -1.
         21    1    1    2  503  504  0.75398068015E+01 -0.41196239108E+02  0.54872736860E+02  0.69028950838E+02  0.00000000000E+00 0.  1.
         21    1    1    2  504  501  0.73328848832E+02 -0.55248924587E+02  0.24441575860E+03  0.26109122312E+03  0.00000000000E+00 0.  1.
         21    1    1    2  505  502 -0.11351420601E+03  0.74500472735E+02  0.10867855204E+02  0.13621272217E+03  0.00000000000E+00 0. -1.
          2    1    1    2  501    0  0.32645550375E+02  0.21944690960E+02  0.12617059700E+03  0.13216020947E+03  0.00000000000E+00 0.  1.
<scales pt_clust_3="37.09531" pt_clust_4="37.09531" pt_clust_5="133.06691" pt_clust_6="39.33575"></scales>
<clustering>
<clus scale="   39.336">  1  6  2 -1</clus>
<clus scale="   37.095">  3  4 -1 -1</clus>
<clus scale="  133.067">  2  5  1 -1</clus>
<clus scale="  133.067">  2  3  1 -1</clus>
</clustering>
</event>
<event>
 6    0  0.2433432E+002  0.1020155E+03  0.7546771E-02  0.1276114E+00
         21   -1    0    0  501  502  0.00000000000E+00  0.00000000000E+00  0.18689869003E+03  0.18689869003E+03  0.00000000000E+00 0. -1.
          1   -1    0    0  504    0 -0.00000000000E+00 -0.00000000000E+00 -0.50754737434E+03  0.50754737434E+03  0.00000000000E+00 0.  1.
         21    1    1    2  503  502  0.15298285843E+02  0.32504321785E+02  0.11335593931E+03  0.11891230997E+03  0.00000000000E+00 0. -1.
         21    1    1    2  504  505  0.24635854486E+02  0.22921523504E+02 -0.52275529724E+02  0.62169546998E+02  0.00000000000E+00 0. -1.
         21    1    1    2  505  503 -0.10365099044E+03 -0.84658804911E+02 -0.90360200147E+01  0.13413534480E+03  0.00000000000E+00 0. -1.
          1    1    1    2  501    0  0.63716850106E+02  0.29232959623E+02 -0.37269307388E+03  0.37922886261E+03  0.00000000000E+00 0.  1.
<scales pt_clust_3="36.11724" pt_clust_4="33.64999" pt_clust_5="14000.00000" pt_clust_6="102.01553"></scales>
<clustering>
<clus scale="   33.650">  2  4  1 -1</clus>
<clus scale="   36.117">  1  3  2 -1</clus>
<clus scale="  102.016">  2  6  1 -1</clus>
<clus scale="   36.117">  1  3  2 -1</clus>
</clustering>
</event>
<event>
 6    0  0.2433432E+002  0.1896932E+03  0.7546771E-02  0.1158738E+00
         21   -1    0    0  503  502  0.00000000000E+00  0.00000000000E+00  0.47574402125E+03  0.47574402125E+03  0.00000000000E+00 0.  1.
          3   -1    0    0  504    0 -0.00000000000E+00 -0.00000000000E+00 -0.17851365092E+03  0.17851365092E+03  0.00000000000E+00 0.  1.
         21    1    1    2  503  505  0.27777109014E+02 -0.42523294604E+02  0.10866359861E+03  0.11994822230E+03  0.00000000000E+00 0.  1.
         21    1    1    2  504  502 -0.13411168316E+02 -0.39512095256E+02  0.15771891036E+03  0.16314508816E+03  0.00000000000E+00 0.  1.
         21    1    1    2  505  501  0.18928751018E+02 -0.10509732017E+03  0.12050092498E+03  0.16100999113E+03  0.00000000000E+00 0.  1.
          3    1    1    2  501    0 -0.33294691716E+02  0.18713271003E+03 -0.89653063609E+02  0.21015437058E+03  0.00000000000E+00 0.  1.
<scales pt_clust_3="34.12145" pt_clust_4="41.72607" pt_clust_5="34.12145" pt_clust_6="183.12747"></scales>
<clustering>
<clus scale="   34.121">  3  5 -1 -1</clus>
<clus scale="   41.726">  1  4  2 -1</clus>
<clus scale="  183.127">  2  6  1 -1</clus>
<clus scale="   41.726">  1  3  2 -1</clus>
</clustering>
</event>
<event>
 6    0  0.2433432E+002  0.6822248E+02  0.7546771E-02  0.1366244E+00
          2   -1    0    0  503    0 -0.00000000000E+00  0.00000000000E+00  0.90362202360E+03  0.90362202360E+03  0.00000000000E+00 0. -1.
         21   -1    0    0  504  502  0.00000000000E+00 -0.00000000000E+00 -0.30778111267E+03  0.30778111267E+03  0.00000000000E+00 0.  1.
         21    1    1    2  503  505 -0.12861249527E+03 -0.10357984425E+02  0.85162089845E+02  0.15459962266E+03  0.00000000000E+00 0. -1.
         21    1    1    2  504  501  0.30575679564E+02 -0.30005326228E+02 -0.55436958197E+01  0.43196346445E+02  0.00000000000E+00 0. -1.
         21    1    1    2  505  502  0.39819179984E+02  0.89947323749E+01 -0.24557489345E+03  0.24894477419E+03  0.00000000000E+00 0.  1.
          2    1    1    2  501    0  0.58217635719E+02  0.31368578278E+02  0.76179741035E+03  0.76466239298E+03  0.00000000000E+00 0. -1.
<scales pt_clust_3="68.22248" pt_clust_4="53.55877" pt_clust_5="40.82245" pt_clust_6="14000.00000"></scales>
<clustering>
<clus scale="   40.822">  2  5  1 -1</clus>
<clus scale="   53.559">  2  4  1 -1</clus>
<clus scale="   68.222">  2  3  1 -1</clus>
<clus scale="   40.822">  2  3  1 -1</clus>
</clustering>
</event>
<event>
 6    0  0.2433432E+002  0.1072642E+03  0.7546771E-02  0.1265722E+00
          1   -1    0    0  505    0 -0.00000000000E+00  0.00000000000E+00  0.56125777818E+03  0.56125777818E+03  0.00000000000E+00 0. -1.
         21   -1    0    0  503  502  0.00000000000E+00 -0.00000000000E+00 -0.16298768537E+03  0.16298768537E+03  0.00000000000E+00 0. -1.
         21    1    1    2  503  501  0.10924656732E+03  0.66564948184E+01 -0.11952187797E+03  0.16206356996E+03  0.00000000000E+00 0. -1.
         21    1    1    2  504  502 -0.27399025402E+02 -0.67363848343E+02  0.13555302302E+03  0.15382853021E+03  0.00000000000E+00 0. -1.
         21    1    1    2  505  504 -0.79577650190E+01  0.45747743985E+02  0.52423556476E+02  0.70031502750E+02  0.00000000000E+00 0.  1.
          1    1    1    2  501    0 -0.73889776897E+02  0.14959609540E+02  0.32981539129E+03  0.33832186063E+03  0.00000000000E+00 0. -1.
<scales pt_clust_3="107.26422" pt_clust_4="61.73999" pt_clust_5="46.43471" pt_clust_6="14000.00000"></scales>
<clustering>
<clus scale="   46.435">  1  5  2 -1</clus>
<clus scale="   61.740">  1  4  2 -1</clus>
<clus scale="  107.264">  2  3  1 -1</clus>
<clus scale="  107.264">  2  3  1 -1</clus>
</clustering>
</event>
<event>
 6    0  0.2433432E+002  0.1123573E+03  0.7546771E-02  0.1256266E+00
          2   -1    0    0  504    0 -0.00000000000E+00  0.00000000000E+00  0.22438359848E+04  0.22438359848E+04  0.00000000000E+00 0. -1.
         21   -1    0    0  503  502  0.00000000000E+00 -0.00000000000E+00 -0.26769888540E+02  0.26769888540E+02  0.00000000000E+00 0. -1.
         21    1    1    2  503  505 -0.41633398855E+02  0.84108981577E+01  0.41705374104E+02  0.59526643927E+02  0.00000000000E+00 0. -1.
         21    1    1    2  504  502  0.11589792096E+02  0.33944889432E+02  0.27887254081E+02  0.45434323365E+02  0.00000000000E+00 0. -1.
         21    1    1    2  505  501 -0.69730978958E+02 -0.17765231952E+02  0.15908125876E+03  0.17459914026E+03  0.00000000000E+00 0. -1.
          2    1    1    2  501    0  0.99774585716E+02 -0.24590555638E+02  0.19883922094E+04  0.19910457658E+04  0.00000000000E+00 0. -1.
<scales pt_clust_3="34.44533" pt_clust_4="35.86891" pt_clust_5="34.44533" pt_clust_6="103.02467"></scales>
<clustering>
<clus scale="   34.445">  3  5 -1 -1</clus>
<clus scale="   35.869">  2  4  1 -1</clus>
<clus scale="  103.025">  1  6  2 -1</clus>
<clus scale="   35.869">  2  3  1 -1</clus>
</clustering>
</event>
<event>
 6    0  0.2433432E+002  0.8619109E+02  0.7546771E-02  0.1312347E+00
         21   -1    0    0  504  502  0.00000000000E+00  0.00000000000E+00  0.39925710956E+02  0.39925710956E+02  0.00000000000E+00 0. -1.
          2   -1    0    0  505    0 -0.00000000000E+00 -0.00000000000E+00 -0.44611285245E+04  0.44611285245E+04  0.00000000000E+00 0. -1.
         21    1    1    2  503  501 -0.48061495709E+02 -0.24258129574E+02 -0.26791184216E+03  0.27326748688E+03  0.00000000000E+00 0.  1.
         21    1    1    2  504  503  0.42376835483E+02 -0.23953565704E+02 -0.99796412302E+02  0.11103555018E+03  0.00000000000E+00 0. -1.
         21    1    1    2  505  502 -0.50836186667E+02  0.11264891356E+03 -0.91361958634E+02  0.15369158431E+03  0.00000000000E+00 0. -1.
          2    1    1    2  501    0  0.56520846893E+02 -0.64437218282E+02 -0.39621326005E+04  0.39630596141E+04  0.00000000000E+00 0. -1.
<scales pt_clust_3="51.82238" pt_clust_4="48.67822" pt_clust_5="86.19109" pt_clust_6="14000.00000"></scales>
<clustering>
<clus scale="   48.678">  1  4  2 -1</clus>
<clus scale="   51.822">  1  3  2 -1</clus>
<clus scale="   86.191">  1  5  2 -1</clus>
<clus scale="   48.678">  1  3  2 -1</clus>
</clustering>
</event>
<event>
 6    0  0.2467129E+002  0.8404635E+02  0.7546771E-02  0.1317945E+00
         21   -1    0    0  504  502  0.00000000000E+00  0.00000000000E+00  0.58283728676E+03  0.58283728676E+03  0.00000000000E+00 0. -1.
          1   -1    0    0  505    0 -0.00000000000E+00 -0.00000000000E+00 -0.10550944315E+04  0.10550944315E+04  0.00000000000E+00 0.  1.
         21    1    1    2  503  501  0.50638152071E+02 -0.85937372977E+02  0.46252366047E+02  0.10994878755E+03  0.00000000000E+00 0.  1.
         21    1    1    2  504  503  0.80478369756E+02  0.57796461497E+02  0.46214760855E+03  0.47264956474E+03  0.00000000000E+00 0. -1.
         21    1    1    2  505  502 -0.50398940910E+02  0.33810584622E+02  0.98871979551E+01  0.61489556518E+02  0.00000000000E+00 0.  1.
          1    1    1    2  501    0 -0.80717580918E+02 -0.56696731426E+01 -0.99054431729E+03  0.99384380945E+03  0.00000000000E+00 0.  1.
<scales pt_clust_3="84.04635" pt_clust_4="14000.00000" pt_clust_5="60.68945" pt_clust_6="81.06098"></scales>
<clustering>
<clus scale="   60.689">  1  5  2 -1</clus>
<clus scale="   81.061">  2  6  1 -1</clus>
<clus scale="   84.046">  2  3  1 -1</clus>
<clus scale="   60.689">  1  3  2 -1</clus>
</clustering>
</event>
<event>
 6    0  0.2433432E+002  0.1328598E+03  0.7546771E-02  0.1223273E+00
         21   -1    0    0  505  502  0.00000000000E+00  0.00000000000E+00  0.30340058467E+03  0.30340058467E+03  0.00000000000E+00 0. -1.
          1   -1    0    0  503    0 -0.00000000000E+00 -0.00000000000E+00 -0.14210482853E+04  0.14210482853E+04  0.00000000000E+00 0. -1.
         21    1    1    2  503  504  0.24660032058E+02 -0.31348235347E+02 -0.14907528697E+03  0.15431872934E+03  0.00000000000E+00 0.  1.
         21    1    1    2  504  502 -0.15051176304E+03  0.36485793815E+02 -0.12497275909E+04  0.12592871219E+04  0.00000000000E+00 0. -1.
         21    1    1    2  505  501  0.76044804266E+02  0.93600804023E+01  0.20359239138E+03  0.21753226241E+03  0.00000000000E+00 0. -1.
          1    1    1    2  501    0  0.49806926717E+02 -0.14497638870E+02  0.77562785888E+02  0.93310756274E+02  0.00000000000E+00 0. -1.
<scales pt_clust_3="39.88520" pt_clust_4="126.26014" pt_clust_5="34.02653" pt_clust_6="34.02653"></scales>
<clustering>
<clus scale="   34.027">  5  6 -1 -1</clus>
<clus scale="   39.885">  2  3  1 -1</clus>
<clus scale="  126.260">  2  4  1 -1</clus>
<clus scale="  132.860">  1  3  2 -1</clus>
</clustering>
</event>
<event>
 6    0  0.2433432E+002  0.9090649E+02  0.7546771E-02  0.1300671E+00
         21   -1    0    0  505  502  0.00000000000E+00  0.00000000000E+00  0.14593446350E+03  0.14593446350E+03  0.00000000000E+00 0. -1.
          2   -1    0    0  504    0 -0.00000000000E+00 -0.00000000000E+00 -0.32513198753E+04  0.32513198753E+04  0.00000000000E+00 0. -1.
         21    1    1    2  503  501  0.79056081395E+02  0.10644344518E+03 -0.76535000502E+02  0.15309368808E+03  0.00000000000E+00 0. -1.
         21    1    1    2  504  502  0.42590169179E+02 -0.96518106858E+02  0.70331420064E+02  0.12679186137E+03  0.00000000000E+00 0. -1.
         21    1    1    2  505  503 -0.37043368684E+02  0.22299557199E+02 -0.47069856299E+02  0.63914417676E+02  0.00000000000E+00 0. -1.
          2    1    1    2  501    0 -0.84602881889E+02 -0.32224895526E+02 -0.30521119751E+04  0.30534543717E+04  0.00000000000E+00 0. -1.
<scales pt_clust_3="90.90649" pt_clust_4="82.11661" pt_clust_5="43.23750" pt_clust_6="14000.00000"></scales>
<clustering>
<clus scale="   43.238">  1  5  2 -1</clus>
<clus scale="   82.117">  1  4  2 -1</clus>
<clus scale="   90.906">  1  3  2 -1</clus>
<clus scale="   43.238">  1  3  2 -1</clus>
</clustering>
</event>
<event>
 6    0  0.2433432E+002  0.5926170E+02  0.7546771E-02  0.1400956E+00
         21   -1    0    0  501  502  0.00000000000E+00  0.00000000000E+00  0.23477751985E+02  0.23477751985E+02  0.00000000000E+00 0.  1.
          1   -1    0    0  503    0 -0.00000000000E+00 -0.00000000000E+00 -0.27714115227E+04  0.27714115227E+04  0.00000000000E+00 0.  1.
         21    1    1    2  503  505 -0.51421408022E+02  0.64006930126E+02 -0.26977936929E+03  0.28199637657E+03  0.00000000000E+00 0.  1.
         21    1    1    2  504  502  0.56872175920E+02  0.15607154620E+01 -0.11193013142E+03  0.12555968520E+03  0.00000000000E+00 0.  1.
         21    1    1    2  505  504 -0.49874131433E+02 -0.50396504509E+02 -0.11158994379E+03  0.13221025757E+03  0.00000000000E+00 0.  1.
          1    1    1    2  501    0  0.44423363536E+02 -0.15171141079E+02 -0.22546343262E+04  0.22551229553E+04  0.00000000000E+00 0.  1.
<scales pt_clust_3="62.38754" pt_clust_4="14000.00000" pt_clust_5="59.26170" pt_clust_6="46.94250"></scales>
<clustering>
<clus scale="   46.943">  2  6  1 -1</clus>
<clus scale="   62.388">  2  3  1 -1</clus>
<clus scale="   59.262">  2  5  1 -1</clus>
<clus scale="   59.262">  1  3  2 -1</clus>
</clustering>
</event>
<event>
 6    0  0.2433432E+002  0.1859261E+03  0.7546771E-02  0.1162188E+00
          1   -1    0    0  505    0 -0.00000000000E+00  0.00000000000E+00  0.20385418672E+04  0.20385418672E+04  0.00000000000E+00 0.  1.
         21   -1    0    0  501  502  0.00000000000E+00 -0.00000000000E+00 -0.89719647912E+02  0.89719647912E+02  0.00000000000E+00 0.  1.
         21    1    1    2  503  504 -0.85159140526E+01 -0.72101638019E+02  0.93483101294E+02  0.11836493241E+03  0.00000000000E+00 0.  1.
         21    1    1    2  504  502  0.19502402316E+03  0.73190596993E+02  0.12419088949E+03  0.24251723677E+03  0.00000000000E+00 0.  1.
         21    1    1    2  505  503 -0.64210075073E+02 -0.76804263088E+02  0.15395610011E+03  0.18364179625E+03  0.00000000000E+00 0.  1.
          1    1    1    2  501    0 -0.12229803403E+03  0.75715304114E+02  0.15771921284E+04  0.15837375497E+04  0.00000000000E+00 0.  1.
<scales pt_clust_3="42.74929" pt_clust_4="179.02136" pt_clust_5="42.74929" pt_clust_6="143.83886"></scales>
<clustering>
<clus scale="   42.749">  3  5 -1 -1</clus>
<clus scale="  143.839">  1  6  2 -1</clus>
<clus scale="  179.021">  2  4  1 -1</clus>
<clus scale="  179.021">  2  3  1 -1</clus>
</clustering>
</event>
<event>
 6    0  0.2433432E+002  0.9272491E+02  0.7546771E-02  0.1296384E+00
         21   -1    0    0  504  502  0.00000000000E+00  0.00000000000E+00  0.21785525441E+03  0.21785525441E+03  0.00000000000E+00 0. -1.
          2   -1    0    0  505    0 -0.00000000000E+00 -0.00000000000E+00 -0.28888903011E+03  0.28888903011E+03  0.00000000000E+00 0. -1.
         21    1    1    2  503  502 -0.27483769157E+02  0.94740351874E+02  0.16745618973E+03  0.19435191617E+03  0.00000000000E+00 0. -1.
         21    1    1    2  504  501 -0.45126914888E+02 -0.73529472175E+02 -0.44476186080E+02  0.97062623362E+02  0.00000000000E+00 0. -1.
         21    1    1    2  505  503  0.28706420045E+02 -0.36926692484E+02 -0.95915402829E+02  0.10671177849E+03  0.00000000000E+00 0. -1.
          2    1    1    2  501    0  0.43904264000E+02  0.15715812785E+02 -0.98098376525E+02  0.10861796650E+03  0.00000000000E+00 0. -1.
<scales pt_clust_3="14000.00000" pt_clust_4="92.72491" pt_clust_5="59.82267" pt_clust_6="46.63230"></scales>
<clustering>
<clus scale="   46.632">  2  6  1 -1</clus>
<clus scale="   59.823">  2  5  1 -1</clus>
<clus scale="   92.725">  2  4  1 -1</clus>
<clus scale="   92.725">  1  3  2 -1</clus>
</clustering>
</event>
<event>
 6    0  0.2433432E+002  0.1051530E+03  0.7546771E-02  0.1269818E+00
          1   -1    0    0  503    0 -0.00000000000E+00  0.00000000000E+00  0.27803631714E+03  0.27803631714E+03  0.00000000000E+00 0.  1.
         21   -1    0    0  505  502  0.00000000000E+00 -0.00000000000E+00 -0.34103633798E+03  0.34103633798E+03  0.00000000000E+00 0.  1.
         21    1    1    2  503  502 -0.36539901817E+02 -0.64651863327E+01 -0.19720848012E+03  0.20066924949E+03  0.00000000000E+00 0.  1.
         21    1    1    2  504  501 -0.28056524704E+02 -0.11333025334E+03 -0.41400026051E+02  0.12387444069E+03  0.00000000000E+00 0.  1.
         21    1    1    2  505  504  0.92855566019E+02  0.54146404935E+02  0.28030329101E+01  0.10752602616E+03  0.00000000000E+00 0.  1.
          1    1    1    2  501    0 -0.28259139497E+02  0.65649034733E+02  0.17280545242E+03  0.18700293878E+03  0.00000000000E+00 0.  1.
<scales pt_clust_3="37.10745" pt_clust_4="14000.00000" pt_clust_5="105.15302" pt_clust_6="71.92061"></scales>
<clustering>
<clus scale="   37.107">  2  3  1 -1</clus>
<clus scale="   71.921">  1  6  2 -1</clus>
<clus scale="  105.153">  2  5  1 -1</clus>
<clus scale="   37.107">  2  3  1 -1</clus>
</clustering>
</event>
<event>
 6    0  0.2433432E+002  0.1114986E+03  0.7546771E-02  0.1257820E+00
         21   -1    0    0  501  502  0.00000000000E+00  0.00000000000E+00  0.96111619065E+03  0.96111619065E+03  0.00000000000E+00 0.  1.
          4   -1    0    0  503    0 -0.00000000000E+00 -0.00000000000E+00 -0.12683764982E+03  0.12683764982E+03  0.00000000000E+00 0. -1.
         21    1    1    2  503  504  0.57304733537E+02 -0.38287651678E+02  0.75833337664E+02  0.10247181007E+03  0.00000000000E+00 0. -1.
         21    1    1    2  504  505  0.59477212201E+02  0.62055409033E+01  0.88265061158E+02  0.10661504833E+03  0.00000000000E+00 0. -1.
         21    1    1    2  505  502 -0.17593865420E+02  0.45510205258E+02  0.74954258442E+03  0.75112902270E+03  0.00000000000E+00 0.  1.
          4    1    1    2  501    0 -0.99188080317E+02 -0.13428094484E+02 -0.79362442415E+02  0.12773795937E+03  0.00000000000E+00 0. -1.
<scales pt_clust_3="42.90710" pt_clust_4="42.90710" pt_clust_5="48.79265" pt_clust_6="101.53914"></scales>
<clustering>
<clus scale="   42.907">  3  4 -1 -1</clus>
<clus scale="   48.793">  1  5  2 -1</clus>
<clus scale="  101.539">  2  6  1 -1</clus>
<clus scale="   48.793">  1  3  2 -1</clus>
</clustering>
</event>
<event>
 6    0  0.2433432E+002  0.1451680E+03  0.7546771E-02  0.1206539E+00
         21   -1    0    0  505  502  0.00000000000E+00  0.00000000000E+00  0.51180807890E+03  0.51180807890E+03  0.00000000000E+00 0. -1.
          2   -1    0    0  503    0 -0.00000000000E+00 -0.00000000000E+00 -0.13062251581E+04  0.13062251581E+04  0.00000000000E+00 0. -1.
         21    1    1    2  503  504  0.11193162413E+02  0.75073004888E+02 -0.39899908338E+01  0.76007650764E+02  0.00000000000E+00 0. -1.
         21    1    1    2  504  502  0.71991524457E+01  0.35886461413E+02  0.46144423233E+03  0.46289355737E+03  0.00000000000E+00 0. -1.
         21    1    1    2  505  501  0.69546534308E+02  0.19075466827E+02 -0.15345725648E+03  0.16955743403E+03  0.00000000000E+00 0. -1.
          2    1    1    2  501    0 -0.87938849167E+02 -0.13003493313E+03 -0.10984140642E+04  0.11095745948E+04  0.00000000000E+00 0. -1.
<scales pt_clust_3="14000.00000" pt_clust_4="36.60145" pt_clust_5="74.96831" pt_clust_6="145.16801"></scales>
<clustering>
<clus scale="   36.601">  1  4  2 -1</clus>
<clus scale="   74.968">  1  5  2 -1</clus>
<clus scale="  145.168">  2  6  1 -1</clus>
<clus scale="   36.601">  1  3  2 -1</clus>
</clustering>
</event>
<event>
 6    0  0.2433432E+002  0.8697705E+02  0.7546771E-02  0.1310342E+00
          1   -1    0    0  504    0 -0.00000000000E+00  0.00000000000E+00  0.13096527577E+04  0.13096527577E+04  0.00000000000E+00 0. -1.
         21   -1    0    0  503  502  0.00000000000E+00 -0.00000000000E+00 -0.82590020857E+02  0.82590020857E+02  0.00000000000E+00 0. -1.
         21    1    1    2  503  501 -0.69284604670E+02 -0.43479532245E+02  0.28017969458E+02  0.86462898292E+02  0.00000000000E+00 0. -1.
         21    1    1    2  504  505  0.71877702995E+01 -0.80966494345E+02  0.70479845571E+02  0.10758552821E+03  0.00000000000E+00 0. -1.
         21    1    1    2  505  502  0.22742325434E+02  0.45149661313E+02 -0.13800681145E+02  0.52403855611E+02  0.00000000000E+00 0. -1.
          1    1    1    2  501    0  0.39354508936E+02  0.79296365278E+02  0.11423656030E+04  0.11457904964E+04  0.00000000000E+00 0. -1.
<scales pt_clust_3="58.33251" pt_clust_4="86.97705" pt_clust_5="50.55398" pt_clust_6="14000.00000"></scales>
<clustering>
<clus scale="   50.554">  2  5  1 -1</clus>
<clus scale="   58.333">  2  3  1 -1</clus>
<clus scale="   86.977">  2  4  1 -1</clus>
<clus scale="   50.554">  2  3  1 -1</clus>
</clustering>
</event>
<event>
 6    0  0.2433432E+002  0.1029907E+03  0.7546771E-02  0.1274130E+00
          2   -1    0    0  503    0 -0.00000000000E+00  0.00000000000E+00  0.12512787165E+04  0.12512787165E+04  0.00000000000E+00 0.  1.
         21   -1    0    0  504  502  0.00000000000E+00 -0.00000000000E+00 -0.15297315490E+03  0.15297315490E+03  0.00000000000E+00 0. -1.
         21    1    1    2  503  502 -0.54283880595E+02 -0.61585319917E+02  0.82576340857E+01  0.82508665256E+02  0.00000000000E+00 0. -1.
         21    1    1    2  504  505  0.52979766126E+02  0.14684756696E+02 -0.57623733716E+02  0.79642905430E+02  0.00000000000E+00 0. -1.
         21    1    1    2  505  501  0.63228423835E+02 -0.24402859674E+01 -0.24060805077E+02  0.67695723035E+02  0.00000000000E+00 0. -1.
          2    1    1    2  501    0 -0.61924309366E+02  0.49340849189E+02  0.11717324663E+04  0.11744045777E+04  0.00000000000E+00 0.  1.
<scales pt_clust_3="96.04713" pt_clust_4="34.65242" pt_clust_5="34.65242" pt_clust_6="79.17790"></scales>
<clustering>
<clus scale="   34.652">  4  5 -1 -1</clus>
<clus scale="   79.178">  1  6  2 -1</clus>
<clus scale="   96.047">  1  3  2 -1</clus>
<clus scale="  102.991">  2  3  1 -1</clus>
</clustering>
</event>
<event>
 6    0  0.2433432E+002  0.1028558E+03  0.7546771E-02  0.1274403E+00
         21   -1    0    0  505  502  0.00000000000E+00  0.00000000000E+00  0.13698293318E+03  0.13698293318E+03  0.00000000000E+00 0.  1.
          2   -1    0    0  502    0 -0.00000000000E+00 -0.00000000000E+00 -0.79090169353E+03  0.79090169353E+03  0.00000000000E+00 0. -1.
         21    1    1    2  503  504 -0.85283849207E+00  0.59583314063E+02 -0.50974926365E+02  0.78417738849E+02  0.00000000000E+00 0. -1.
         21    1    1    2  504  501 -0.33894235702E+02  0.69455728647E+02 -0.14208763723E+03  0.16174614094E+03  0.00000000000E+00 0. -1.
         21    1    1    2  505  503 -0.12150344115E+02 -0.58739929511E+02  0.10212208142E+03  0.11843533972E+03  0.00000000000E+00 0.  1.
          2    1    1    2  501    0  0.46897418310E+02 -0.70299113200E+02 -0.56297827817E+03  0.56928540720E+03  0.00000000000E+00 0. -1.
<scales pt_clust_3="44.31606" pt_clust_4="44.31606" pt_clust_5="59.98342" pt_clust_6="89.62266"></scales>
<clustering>
<clus scale="   44.316">  3  4 -1 -1</clus>
<clus scale="   59.983">  1  5  2 -1</clus>
<clus scale="   89.623">  2  6  1 -1</clus>
<clus scale="   59.983">  1  3  2 -1</clus>
</clustering>
</event>
<event>
 6    0  0.2433432E+002  0.9203093E+02  0.7546771E-02  0.1298007E+00
         21   -1    0    0  505  502  0.00000000000E+00  0.00000000000E+00  0.12095621832E+03  0.12095621832E+03  0.00000000000E+00 0.  1.
          2   -1    0    0  502    0 -0.00000000000E+00 -0.00000000000E+00 -0.82304365540E+03  0.82304365540E+03  0.00000000000E+00 0. -1.
         21    1    1    2  503  501  0.14424395420E+02 -0.83965382806E+02 -0.35390743819E+02  0.92253744861E+02  0.00000000000E+00 0.  1.
         21    1    1    2  504  503  0.65879786671E+02  0.11536309981E+03 -0.24850286783E+02  0.13515297940E+03  0.00000000000E+00 0.  1.
         21    1    1    2  505  504 -0.56175228977E+02 -0.49870487187E+02 -0.10995561486E+01  0.75126099770E+02  0.00000000000E+00 0.  1.
          2    1    1    2  501    0 -0.24128953114E+02  0.18472770186E+02 -0.64074685033E+03  0.64146704968E+03  0.00000000000E+00 0. -1.
<scales pt_clust_3="92.03093" pt_clust_4="14000.00000" pt_clust_5="76.58435" pt_clust_6="30.38831"></scales>
<clustering>
<clus scale="   30.388">  2  6  1 -1</clus>
<clus scale="   76.584">  1  5  2 -1</clus>
<clus scale="   92.031">  2  3  1 -1</clus>
<clus scale="   76.584">  1  3  2 -1</clus>
</clustering>
</event>
<event>
 6    0  0.2433432E+002  0.7090184E+02  0.7546771E-02  0.1357053E+00
          1   -1    0    0  504    0 -0.00000000000E+00  0.00000000000E+00  0.50565343163E+03  0.50565343163E+03  0.00000000000E+00 0.  1.
         21   -1    0    0  505  502  0.00000000000E+00 -0.00000000000E+00 -0.17776701284E+04  0.17776701284E+04  0.00000000000E+00 0.  1.
         21    1    1    2  503  501  0.56611952452E+01 -0.11691883483E+03 -0.14885599062E+04  0.14931552690E+04  0.00000000000E+00 0.  1.
         21    1    1    2  504  502 -0.30251609592E+02 -0.19137946639E+02 -0.23956019449E+02  0.43073329942E+02  0.00000000000E+00 0.  1.
         21    1    1    2  505  503 -0.12463116979E+01  0.47442600115E+02 -0.24670277901E+03  0.25122622230E+03  0.00000000000E+00 0.  1.
          1    1    1    2  501    0  0.25836726045E+02  0.88614181357E+02  0.48720200791E+03  0.49586873875E+03  0.00000000000E+00 0.  1.
<scales pt_clust_3="14000.00000" pt_clust_4="35.79694" pt_clust_5="47.37558" pt_clust_6="70.90184"></scales>
<clustering>
<clus scale="   35.797">  1  4  2 -1</clus>
<clus scale="   47.376">  2  5  1 -1</clus>
<clus scale="   70.902">  1  6  2 -1</clus>
<clus scale="   47.376">  2  3  1 -1</clus>
</clustering>
</event>
<event>
 6    0  0.2433432E+002  0.9275449E+02  0.7546771E-02  0.1296315E+00
          2   -1    0    0  503    0 -0.00000000000E+00  0.00000000000E+00  0.49985851807E+03  0.49985851807E+03  0.00000000000E+00 0. -1.
         21   -1    0    0  504  502  0.00000000000E+00 -0.00000000000E+00 -0.11269731662E+03  0.11269731662E+03  0.00000000000E+00 0. -1.
         21    1    1    2  503  502 -0.13997709045E+03  0.35982598810E+02  0.34690236597E+02  0.14863292294E+03  0.00000000000E+00 0. -1.
         21    1    1    2  504  505  0.43568371311E+02  0.19181368713E+02 -0.21648546605E+02  0.52295195329E+02  0.00000000000E+00 0. -1.
         21    1    1    2  505  501  0.40587564054E+02 -0.49103758401E+02  0.45600806211E+02  0.78345152831E+02  0.00000000000E+00 0. -1.
          2    1    1    2  501    0  0.55821155083E+02 -0.60602091223E+01  0.32851870525E+03  0.33328256359E+03  0.00000000000E+00 0. -1.
<scales pt_clust_3="92.75449" pt_clust_4="47.60386" pt_clust_5="14000.00000" pt_clust_6="57.45133"></scales>
<clustering>
<clus scale="   47.604">  2  4  1 -1</clus>
<clus scale="   57.451">  1  6  2 -1</clus>
<clus scale="   92.754">  2  3  1 -1</clus>
<clus scale="   47.604">  2  3  1 -1</clus>
</clustering>
</event>
<event>
 6    0  0.2433432E+002  0.9310530E+02  0.7546771E-02  0.1295501E+00
          2   -1    0    0  505    0 -0.00000000000E+00  0.00000000000E+00  0.29217525547E+04  0.29217525547E+04  0.00000000000E+00 0.  1.
         21   -1    0    0  501  502  0.00000000000E+00 -0.00000000000E+00 -0.12361876438E+02  0.12361876438E+02  0.00000000000E+00 0.  1.
         21    1    1    2  503  504 -0.67483381695E+02 -0.16112097888E+02  0.41336322667E+03  0.41914527752E+03  0.00000000000E+00 0.  1.
         21    1    1    2  504  502  0.23846127567E+01 -0.39327091248E+02  0.19444212735E+03  0.19839366767E+03  0.00000000000E+00 0. -1.
         21    1    1    2  505  503 -0.81988724674E+02  0.14743889330E+02  0.13736895326E+04  0.13762130886E+04  0.00000000000E+00 0.  1.
          2    1    1    2  501    0  0.14708749361E+03  0.40695299806E+02  0.92789579158E+03  0.94036239729E+03  0.00000000000E+00 0.  1.
<scales pt_clust_3="72.09057" pt_clust_4="39.39932" pt_clust_5="14000.00000" pt_clust_6="93.10530"></scales>
<clustering>
<clus scale="   39.399">  2  4  1 -1</clus>
<clus scale="   72.091">  2  3  1 -1</clus>
<clus scale="   93.105">  2  6  1 -1</clus>
<clus scale="   39.399">  2  3  1 -1</clus>
</clustering>
</event>
<event>
 6    0  0.2433432E+002  0.1550233E+03  0.7546771E-02  0.1194433E+00
          2   -1    0    0  503    0 -0.00000000000E+00  0.00000000000E+00  0.22761241321E+04  0.22761241321E+04  0.00000000000E+00 0. -1.
         21   -1    0    0  505  502  0.00000000000E+00 -0.00000000000E+00 -0.86794866441E+02  0.86794866441E+02  0.00000000000E+00 0. -1.
         21    1    1    2  503  502 -0.10830770012E+02 -0.38744614264E+02  0.21653129322E+03  0.22023680814E+03  0.00000000000E+00 0. -1.
         21    1    1    2  504  501  0.14598514354E+03  0.29403201624E+02  0.27505530761E+03  0.31278048636E+03  0.00000000000E+00 0. -1.
         21    1    1    2  505  504  0.85047142736E+00  0.39628208913E+02 -0.57114745035E+02  0.69521308559E+02  0.00000000000E+00 0. -1.
          2    1    1    2  501    0 -0.13600484496E+03 -0.30286796274E+02  0.17548574098E+04  0.17603803955E+04  0.00000000000E+00 0. -1.
<scales pt_clust_3="37.20809" pt_clust_4="155.02326" pt_clust_5="39.63733" pt_clust_6="14000.00000"></scales>
<clustering>
<clus scale="   39.637">  2  5  1 -1</clus>
<clus scale="   37.208">  1  3  2 -1</clus>
<clus scale="  155.023">  2  4  1 -1</clus>
<clus scale="   39.637">  2  3  1 -1</clus>
</clustering>
</event>
<event>
 6    0  0.2433432E+002  0.9348534E+02  0.7546771E-02  0.1294624E+00
          3   -1    0    0  505    0 -0.00000000000E+00  0.00000000000E+00  0.26967741238E+04  0.26967741238E+04  0.00000000000E+00 0.  1.
         21   -1    0    0  503  502  0.00000000000E+00 -0.00000000000E+00 -0.50480814491E+03  0.50480814491E+03  0.00000000000E+00 0. -1.
         21    1    1    2  503  501  0.10486003273E+03 -0.11336755711E+03 -0.34491023668E+03  0.37790329561E+03  0.00000000000E+00 0. -1.
         21    1    1    2  504  502 -0.37018151175E+02  0.36866904269E+02 -0.10334890441E+03  0.11580374860E+03  0.00000000000E+00 0.  1.
         21    1    1    2  505  504 -0.44861425806E+02  0.39345349801E+02 -0.71875406221E+01  0.60102119901E+02  0.00000000000E+00 0.  1.
          3    1    1    2  501    0 -0.22980455749E+02  0.37155303044E+02  0.26474126606E+04  0.26477731046E+04  0.00000000000E+00 0.  1.
<scales pt_clust_3="93.48534" pt_clust_4="57.64061" pt_clust_5="14000.00000" pt_clust_6="43.68773"></scales>
<clustering>
<clus scale="   43.688">  1  6  2 -1</clus>
<clus scale="   57.641">  2  4  1 -1</clus>
<clus scale="   93.485">  2  3  1 -1</clus>
<clus scale="   57.641">  2  3  1 -1</clus>
</clustering>
</event>
<event>
 6    0  0.2433432E+002  0.1427338E+03  0.7546771E-02  0.1209697E+00
         21   -1    0    0  504  502  0.00000000000E+00  0.00000000000E+00  0.97409326389E+02  0.97409326389E+02  0.00000000000E+00 0.  1.
          1   -1    0    0  505    0 -0.00000000000E+00 -0.00000000000E+00 -0.10619144511E+04  0.10619144511E+04  0.00000000000E+00 0. -1.
         21    1    1    2  503  502 -0.49008801794E+02  0.10875385337E+03  0.33723463869E+02  0.12396182998E+03  0.00000000000E+00 0.  1.
         21    1    1    2  504  501 -0.20379568698E+02  0.23342599174E+02 -0.22027994278E+02  0.38018893834E+02  0.00000000000E+00 0.  1.
         21    1    1    2  505  503 -0.13467948677E+02 -0.43740132482E+02 -0.73727540587E+02  0.86777503260E+02  0.00000000000E+00 0. -1.
          1    1    1    2  501    0  0.82856319169E+02 -0.88356320063E+02 -0.90247305371E+03  0.91056555041E+03  0.00000000000E+00 0. -1.
<scales pt_clust_3="14000.00000" pt_clust_4="30.98715" pt_clust_5="44.61772" pt_clust_6="142.73383"></scales>
<clustering>
<clus scale="   30.987">  1  4  2 -1</clus>
<clus scale="   44.618">  2  5  1 -1</clus>
<clus scale="  142.734">  2  6  1 -1</clus>
<clus scale="   30.987">  1  3  2 -1</clus>
</clustering>
</event>
<event>
 6    0  0.2433432E+002  0.7660882E+02  0.7546771E-02  0.1338960E+00
         21   -1    0    0  503  502  0.00000000000E+00  0.00000000000E+00  0.15422771940E+04  0.15422771940E+04  0.00000000000E+00 0. -1.
         -1   -1    0    0    0  501 -0.00000000000E+00 -0.00000000000E+00 -0.57040583260E+02  0.57040583260E+02  0.00000000000E+00 0.  1.
         21    1    1    2  503  501  0.34576726710E+02 -0.24723146144E+02  0.19897441679E+03  0.20346400793E+03  0.00000000000E+00 0.  1.
         21    1    1    2  504  502 -0.22308460325E+01  0.50962285160E+02  0.79929930836E+03  0.80092541197E+03  0.00000000000E+00 0. -1.
         21    1    1    2  505  504 -0.95518100975E+02  0.15855021107E+02  0.50720465980E+03  0.51636387968E+03  0.00000000000E+00 0. -1.
         -1    1    1    2    0  505  0.63172220297E+02 -0.42094160124E+02 -0.20241774204E+02  0.78564477703E+02  0.00000000000E+00 0.  1.
<scales pt_clust_3="42.50628" pt_clust_4="40.61773" pt_clust_5="76.60882" pt_clust_6="14000.00000"></scales>
<clustering>
<clus scale="   42.506">  1  3  2 -1</clus>
<clus scale="   40.618">  1  4  2 -1</clus>
<clus scale="   76.609">  1  5  2 -1</clus>
<clus scale="   42.506">  1  3  2 -1</clus>
</clustering>
</event>
<event>
 6    0  0.2433432E+002  0.2641417E+03  0.7546771E-02  0.1104680E+00
         21   -1    0    0  504  502  0.00000000000E+00  0.00000000000E+00  0.99205981003E+03  0.99205981003E+03  0.00000000000E+00 0.  1.
          2   -1    0    0  505    0 -0.00000000000E+00 -0.00000000000E+00 -0.16228487780E+03  0.16228487780E+03  0.00000000000E+00 0.  1.
         21    1    1    2  503  502 -0.73721838516E+02  0.13951035004E+03  0.38087642020E+02  0.16232287490E+03  0.00000000000E+00 0.  1.
         21    1    1    2  504  501  0.62813963439E+02  0.24807056495E+02  0.57148059275E+03  0.57545725466E+03  0.00000000000E+00 0.  1.
         21    1    1    2  505  503  0.66319974682E+01  0.93724337531E+02  0.76577080730E+02  0.12121173264E+03  0.00000000000E+00 0.  1.
          2    1    1    2  501    0  0.42758776089E+01 -0.25804174406E+03  0.14362961673E+03  0.29535282563E+03  0.00000000000E+00 0.  1.
<scales pt_clust_3="73.62040" pt_clust_4="67.53506" pt_clust_5="73.62040" pt_clust_6="247.84359"></scales>
<clustering>
<clus scale="   67.535">  1  4  2 -1</clus>
<clus scale="   73.620">  3  5 -1 -1</clus>
<clus scale="  247.844">  1  6  2 -1</clus>
<clus scale="   67.535">  1  3  2 -1</clus>
</clustering>
</event>
<event>
 6    0  0.2433432E+002  0.1154267E+03  0.7546771E-02  0.1250838E+00
          1   -1    0    0  502    0 -0.00000000000E+00  0.00000000000E+00  0.27501836568E+03  0.27501836568E+03  0.00000000000E+00 0.  1.
         21   -1    0    0  504  502  0.00000000000E+00 -0.00000000000E+00 -0.65693774614E+02  0.65693774614E+02  0.00000000000E+00 0. -1.
         21    1    1    2  503  505  0.28559073744E+02  0.88006176500E+02  0.50696755185E+02  0.10550293257E+03  0.00000000000E+00 0. -1.
         21    1    1    2  504  503 -0.33400780775E+02  0.29505478956E+02  0.30373331427E+02  0.53932594104E+02  0.00000000000E+00 0. -1.
         21    1    1    2  505  501  0.11436470363E+02 -0.31409492046E+02  0.10080911164E+02  0.34913805505E+02  0.00000000000E+00 0. -1.
          1    1    1    2  501    0 -0.65947633320E+01 -0.86102163410E+02  0.11817359329E+03  0.14636280811E+03  0.00000000000E+00 0.  1.
<scales pt_clust_3="103.65216" pt_clust_4="44.56664" pt_clust_5="31.59934" pt_clust_6="31.59934"></scales>
<clustering>
<clus scale="   31.599">  5  6 -1 -1</clus>
<clus scale="   44.567">  2  4  1 -1</clus>
<clus scale="  103.652">  2  3  1 -1</clus>
<clus scale="   44.567">  2  3  1 -1</clus>
</clustering>
</event>
<event>
 6    0  0.2433432E+002  0.1270888E+03  0.7546771E-02  0.1231841E+00
         21   -1    0    0  504  502  0.00000000000E+00  0.00000000000E+00  0.27769942481E+03  0.27769942481E+03  0.00000000000E+00 0.  1.
          2   -1    0    0  505    0 -0.00000000000E+00 -0.00000000000E+00 -0.18918381065E+04  0.18918381065E+04  0.00000000000E+00 0.  1.
         21    1    1    2  503  502  0.59700350027E+02 -0.84899504600E+02 -0.50486423717E+03  0.51542211405E+03  0.00000000000E+00 0.  1.
         21    1    1    2  504  501 -0.91261707656E+01  0.55329717288E+02  0.26417191872E+03  0.27005826640E+03  0.00000000000E+00 0.  1.
         21    1    1    2  505  503  0.49336772047E+02 -0.77841839001E+01 -0.21569054110E+03  0.22139810323E+03  0.00000000000E+00 0.  1.
          2    1    1    2  501    0 -0.99910951308E+02  0.37353971212E+02 -0.11577558221E+04  0.11626590476E+04  0.00000000000E+00 0.  1.
<scales pt_clust_3="39.39833" pt_clust_4="56.07731" pt_clust_5="39.39833" pt_clust_6="113.69289"></scales>
<clustering>
<clus scale="   39.398">  3  5 -1 -1</clus>
<clus scale="   56.077">  1  4  2 -1</clus>
<clus scale="  113.693">  2  6  1 -1</clus>
<clus scale="   56.077">  1  3  2 -1</clus>
</clustering>
</event>
<event>
 6    0  0.2433432E+002  0.7037106E+02  0.7546771E-02  0.1358836E+00
          1   -1    0    0  504    0 -0.00000000000E+00  0.00000000000E+00  0.13166984036E+04  0.13166984036E+04  0.00000000000E+00 0.  1.
         21   -1    0    0  503  502  0.00000000000E+00 -0.00000000000E+00 -0.89863713725E+02  0.89863713725E+02  0.00000000000E+00 0.  1.
         21    1    1    2  503  501 -0.51376418545E+02  0.31068481251E+01 -0.66699655841E+02  0.84249824789E+02  0.00000000000E+00 0.  1.
         21    1    1    2  504  505 -0.32413381787E+02 -0.11206990912E+02  0.33059833111E+03  0.33237250262E+03  0.00000000000E+00 0.  1.
         21    1    1    2  505  502  0.55870602553E+02  0.77063973157E+02  0.84602247427E+03  0.85136032745E+03  0.00000000000E+00 0.  1.
          1    1    1    2  501    0  0.27919197780E+02 -0.68963830370E+02  0.11691354035E+03  0.13857946248E+03  0.00000000000E+00 0.  1.
<scales pt_clust_3="51.75255" pt_clust_4="34.29612" pt_clust_5="14000.00000" pt_clust_6="70.37106"></scales>
<clustering>
<clus scale="   34.296">  1  4  2 -1</clus>
<clus scale="   51.753">  2  3  1 -1</clus>
<clus scale="   70.371">  2  6  1 -1</clus>
<clus scale="   51.753">  2  3  1 -1</clus>
</clustering>
</event>
<event>
 6    0  0.2433432E+002  0.8344676E+02  0.7546771E-02  0.1319545E+00
         21   -1    0    0  504  502  0.00000000000E+00  0.00000000000E+00  0.17380621018E+03  0.17380621018E+03  0.00000000000E+00 0. -1.
          1   -1    0    0  505    0 -0.00000000000E+00 -0.00000000000E+00 -0.17673625753E+04  0.17673625753E+04  0.00000000000E+00 0.  1.
         21    1    1    2  503  502 -0.36521571872E+02 -0.57730800546E+02  0.33413825004E+02  0.76047052836E+02  0.00000000000E+00 0. -1.
         21    1    1    2  504  501  0.46544857393E+02 -0.36450045059E+02 -0.55604321754E+02  0.81159535067E+02  0.00000000000E+00 0. -1.
         21    1    1    2  505  503  0.24982509456E+02  0.10077341848E+03  0.80708484143E+02  0.13150386711E+03  0.00000000000E+00 0. -1.
          1    1    1    2  501    0 -0.35005794977E+02 -0.65925728763E+01 -0.16520743525E+04  0.16524583305E+04  0.00000000000E+00 0.  1.
<scales pt_clust_3="83.44676" pt_clust_4="47.87890" pt_clust_5="14000.00000" pt_clust_6="35.62117"></scales>
<clustering>
<clus scale="   35.621">  2  6  1 -1</clus>
<clus scale="   47.879">  2  4  1 -1</clus>
<clus scale="   83.447">  1  3  2 -1</clus>
<clus scale="   83.447">  1  3  2 -1</clus>
</clustering>
</event>
<event>
 6    0  0.2433432E+002  0.6219698E+02  0.7546771E-02  0.1388837E+00
         -1   -1    0    0    0  501 -0.00000000000E+00  0.00000000000E+00  0.11399247341E+04  0.11399247341E+04  0.00000000000E+00 0. -1.
         21   -1    0    0  505  502  0.00000000000E+00 -0.00000000000E+00 -0.25420770441E+03  0.25420770441E+03  0.00000000000E+00 0.  1.
         21    1    1    2  503  501  0.43903452824E+02 -0.92379080232E+02 -0.86718493140E+02  0.13409513297E+03  0.00000000000E+00 0.  1.
         21    1    1    2  504  502 -0.81623558234E+01 -0.29491220712E+02  0.12931395304E+02  0.33220131490E+02  0.00000000000E+00 0.  1.
         21    1    1    2  505  503 -0.61696697404E+01  0.67516042987E+02 -0.12411918188E+03  0.14142861166E+03  0.00000000000E+00 0.  1.
         -1    1    1    2    0  504 -0.29571427260E+02  0.54354257958E+02  0.10836233095E+04  0.10853885624E+04  0.00000000000E+00 0. -1.
<scales pt_clust_3="62.19698" pt_clust_4="30.59994" pt_clust_5="52.55457" pt_clust_6="14000.00000"></scales>
<clustering>
<clus scale="   30.600">  2  4  1 -1</clus>
<clus scale="   52.555">  2  5  1 -1</clus>
<clus scale="   62.197">  2  3  1 -1</clus>
<clus scale="   30.600">  2  3  1 -1</clus>
</clustering>
</event>
<event>
 6    0  0.2433432E+002  0.1025901E+03  0.7546771E-02  0.1274942E+00
         21   -1    0    0  504  502  0.00000000000E+00  0.00000000000E+00  0.11728189572E+04  0.11728189572E+04  0.00000000000E+00 0. -1.
         -4   -1    0    0    0  501 -0.00000000000E+00 -0.00000000000E+00 -0.13059844859E+03  0.13059844859E+03  0.00000000000E+00 0. -1.
         21    1    1    2  503  501 -0.51685328107E+02  0.39068093097E+02 -0.66870094268E+01  0.65133748048E+02  0.00000000000E+00 0.  1.
         21    1    1    2  504  505  0.67986911793E+02 -0.13605718026E+02  0.10223337704E+04  0.10246822307E+04  0.00000000000E+00 0. -1.
         21    1    1    2  505  503 -0.40426518424E+02 -0.11221446467E+03 -0.14953932924E+01  0.11928380307E+03  0.00000000000E+00 0. -1.
         -4    1    1    2    0  502  0.24124934737E+02  0.86752089604E+02  0.28069140935E+02  0.94317624013E+02  0.00000000000E+00 0. -1.
<scales pt_clust_3="64.78958" pt_clust_4="68.61228" pt_clust_5="14000.00000" pt_clust_6="102.59008"></scales>
<clustering>
<clus scale="   64.790">  2  3  1 -1</clus>
<clus scale="   68.612">  1  4  2 -1</clus>
<clus scale="  102.590">  1  6  2 -1</clus>
<clus scale="   68.612">  1  3  2 -1</clus>
</clustering>
</event>
<event>
 6    0  0.2433432E+002  0.3439404E+03  0.7546771E-02  0.1065130E+00
         21   -1    0    0  504  502  0.00000000000E+00  0.00000000000E+00  0.11835619657E+04  0.11835619657E+04  0.00000000000E+00 0. -1.
          2   -1    0    0  503    0 -0.00000000000E+00 -0.00000000000E+00 -0.22927616949E+04  0.22927616949E+04  0.00000000000E+00 0.  1.
         21    1    1    2  503  505 -0.21472377771E+03  0.15318491507E+03 -0.83640263406E+02  0.27670853362E+03  0.00000000000E+00 0. -1.
         21    1    1    2  504  501  0.10535668645E+03  0.18309450514E+03 -0.28361794147E+03  0.35364214387E+03  0.00000000000E+00 0.  1.
         21    1    1    2  505  502  0.81212801240E+02 -0.36014499615E+03  0.10194262638E+04  0.10842185410E+04  0.00000000000E+00 0. -1.
          2    1    1    2  501    0  0.28154290015E+02  0.23865575950E+02 -0.17613677881E+04  0.17617544422E+04  0.00000000000E+00 0.  1.
<scales pt_clust_3="343.94038" pt_clust_4="232.19461" pt_clust_5="14000.00000" pt_clust_6="36.90840"></scales>
<clustering>
<clus scale="   36.908">  2  6  1 -1</clus>
<clus scale="  232.195">  2  4  1 -1</clus>
<clus scale="  343.940">  2  3  1 -1</clus>
<clus scale="  343.940">  1  3  2 -1</clus>
</clustering>
</event>
<event>
 6    0  0.2433432E+002  0.1071430E+03  0.7546771E-02  0.1265954E+00
          1   -1    0    0  504    0 -0.00000000000E+00  0.00000000000E+00  0.13853106843E+04  0.13853106843E+04  0.00000000000E+00 0.  1.
         21   -1    0    0  505  502  0.00000000000E+00 -0.00000000000E+00 -0.27804568105E+03  0.27804568105E+03  0.00000000000E+00 0. -1.
         21    1    1    2  503  501 -0.10746196714E+03 -0.25329550309E+02  0.53910455185E+02  0.12286577098E+03  0.00000000000E+00 0.  1.
         21    1    1    2  504  502  0.84261074964E+02  0.73769080275E+02  0.57691576588E+02  0.12597668025E+03  0.00000000000E+00 0.  1.
         21    1    1    2  505  503  0.21844863338E+02 -0.81368568647E+02 -0.20071612335E+03  0.21768096883E+03  0.00000000000E+00 0. -1.
          1    1    1    2  501    0  0.13560288376E+01  0.32929038681E+02  0.11963790949E+04  0.11968329453E+04  0.00000000000E+00 0.  1.
<scales pt_clust_3="107.14301" pt_clust_4="14000.00000" pt_clust_5="82.83730" pt_clust_6="32.95695"></scales>
<clustering>
<clus scale="   32.957">  1  6  2 -1</clus>
<clus scale="   82.837">  2  5  1 -1</clus>
<clus scale="  107.143">  1  3  2 -1</clus>
<clus scale="   82.837">  2  3  1 -1</clus>
</clustering>
</event>
<event>
 6    0  0.2433432E+002  0.1001740E+03  0.7546771E-02  0.1279930E+00
          2   -1    0    0  504    0 -0.00000000000E+00  0.00000000000E+00  0.17261669674E+04  0.17261669674E+04  0.00000000000E+00 0.  1.
         21   -1    0    0  505  502  0.00000000000E+00 -0.00000000000E+00 -0.53837675158E+02  0.53837675158E+02  0.00000000000E+00 0.  1.
         21    1    1    2  503  501  0.10425602114E+03  0.10199127868E+03  0.18492100956E+03  0.23551500726E+03  0.00000000000E+00 0.  1.
         21    1    1    2  504  502 -0.60210190332E+02 -0.29187452618E+02  0.89815857085E+02  0.11200027944E+03  0.00000000000E+00 0.  1.
         21    1    1    2  505  503  0.49494789207E+02 -0.43653431057E+02  0.53843518909E+02  0.85173239519E+02  0.00000000000E+00 0.  1.
          2    1    1    2  501    0 -0.93540620013E+02 -0.29150395002E+02  0.13437489067E+04  0.13473161164E+04  0.00000000000E+00 0.  1.
<scales pt_clust_3="14000.00000" pt_clust_4="62.07651" pt_clust_5="65.99512" pt_clust_6="100.17404"></scales>
<clustering>
<clus scale="   65.995">  2  5  1 -1</clus>
<clus scale="   62.077">  2  4  1 -1</clus>
<clus scale="  100.174">  1  6  2 -1</clus>
<clus scale="   65.995">  2  3  1 -1</clus>
</clustering>
</event>
<event>
 6    0  0.2433432E+002  0.1579255E+03  0.7546771E-02  0.1191059E+00
          1   -1    0    0  504    0 -0.00000000000E+00  0.00000000000E+00  0.15482374285E+04  0.15482374285E+04  0.00000000000E+00 0. -1.
         21   -1    0    0  503  502  0.00000000000E+00 -0.00000000000E+00 -0.21395086035E+03  0.21395086035E+03  0.00000000000E+00 0.  1.
         21    1    1    2  503  501 -0.12720961367E+03 -0.11658622435E+02 -0.14537756505E+03  0.19352737715E+03  0.00000000000E+00 0.  1.
         21    1    1    2  504  505  0.12742980159E+03 -0.24526845261E+02  0.33735872202E+03  0.36145653652E+03  0.00000000000E+00 0.  1.
         21    1    1    2  505  502 -0.36086963966E+02  0.49052798231E+02 -0.32801184285E+01  0.60985286418E+02  0.00000000000E+00 0.  1.
          1    1    1    2  501    0  0.35866776051E+02 -0.12867330535E+02  0.11455855296E+04  0.11462190887E+04  0.00000000000E+00 0. -1.
<scales pt_clust_3="14000.00000" pt_clust_4="157.92553" pt_clust_5="58.64936" pt_clust_6="38.10504"></scales>
<clustering>
<clus scale="   38.105">  1  6  2 -1</clus>
<clus scale="   58.649">  2  5  1 -1</clus>
<clus scale="  157.926">  1  4  2 -1</clus>
<clus scale="   58.649">  2  3  1 -1</clus>
</clustering>
</event>
<event>
 6    0  0.2433432E+002  0.1101074E+03  0.7546771E-02  0.1260371E+00
          1   -1    0    0  505    0 -0.00000000000E+00  0.00000000000E+00  0.69012377899E+03  0.69012377899E+03  0.00000000000E+00 0. -1.
         21   -1    0    0  504  502  0.00000000000E+00 -0.00000000000E+00 -0.32053822245E+03  0.32053822245E+03  0.00000000000E+00 0.  1.
         21    1    1    2  503  502  0.10457683647E+03  0.34059219971E+02 -0.25410416291E+03  0.27688494144E+03  0.00000000000E+00 0.  1.
         21    1    1    2  504  501  0.47362481935E+01  0.43081600860E+02  0.41701808611E+02  0.60145633433E+02  0.00000000000E+00 0.  1.
         21    1    1    2  505  503 -0.10091867200E+03 -0.47689596549E+02  0.23199904154E+02  0.11400487503E+03  0.00000000000E+00 0. -1.
          1    1    1    2  501    0 -0.83944126630E+01 -0.29451224282E+02  0.55878800668E+03  0.55962655154E+03  0.00000000000E+00 0. -1.
<scales pt_clust_3="110.10742" pt_clust_4="31.65990" pt_clust_5="14000.00000" pt_clust_6="30.62419"></scales>
<clustering>
<clus scale="   30.624">  1  6  2 -1</clus>
<clus scale="   31.660">  1  4  2 -1</clus>
<clus scale="  110.107">  2  3  1 -1</clus>
<clus scale="  110.107">  2  3  1 -1</clus>
</clustering>
</event>
<event>
 6    0  0.2433432E+002  0.1347991E+03  0.7546771E-02  0.1220504E+00
          2   -1    0    0  504    0 -0.00000000000E+00  0.00000000000E+00  0.12355976456E+04  0.12355976456E+04  0.00000000000E+00 0.  1.
         21   -1    0    0  501  502  0.00000000000E+00 -0.00000000000E+00 -0.57694766530E+02  0.57694766530E+02  0.00000000000E+00 0. -1.
         21    1    1    2  503  505  0.46546151787E+02  0.11546912243E+03  0.17746429713E+03  0.21677924079E+03  0.00000000000E+00 0. -1.
         21    1    1    2  504  503 -0.12140850871E+01  0.75225270308E+02  0.10199840465E+03  0.12674379608E+03  0.00000000000E+00 0. -1.
         21    1    1    2  505  502 -0.19606201224E+02 -0.73131249703E+02  0.45400322429E+02  0.88282343004E+02  0.00000000000E+00 0.  1.
          2    1    1    2  501    0 -0.25725865475E+02 -0.11756314304E+03  0.85303985487E+03  0.86148703226E+03  0.00000000000E+00 0.  1.
<scales pt_clust_3="30.00024" pt_clust_4="30.00024" pt_clust_5="75.71382" pt_clust_6="129.15680"></scales>
<clustering>
<clus scale="   30.000">  3  4 -1 -1</clus>
<clus scale="   75.714">  2  5  1 -1</clus>
<clus scale="  129.157">  1  6  2 -1</clus>
<clus scale="   75.714">  2  3  1 -1</clus>
</clustering>
</event>
<event>
 6    0  0.2433432E+002  0.1390938E+03  0.7546771E-02  0.1214554E+00
         21   -1    0    0  503  502  0.00000000000E+00  0.00000000000E+00  0.34016763139E+03  0.34016763139E+03  0.00000000000E+00 0.  1.
          2   -1    0    0  505    0 -0.00000000000E+00 -0.00000000000E+00 -0.11572355964E+04  0.11572355964E+04  0.00000000000E+00 0. -1.
         21    1    1    2  503  504  0.28686249826E+02 -0.18621503124E+02  0.95045484240E+02  0.10101141214E+03  0.00000000000E+00 0.  1.
         21    1    1    2  504  501  0.61156525848E+02  0.90015071881E+02  0.20773301441E+03  0.23451191675E+03  0.00000000000E+00 0.  1.
         21    1    1    2  505  502  0.33558581923E+02 -0.54157261935E+01 -0.68023381642E+00  0.33999576893E+02  0.00000000000E+00 0.  1.
          2    1    1    2  501    0 -0.12340135760E+03 -0.65977842564E+02 -0.11191662299E+04  0.11278803221E+04  0.00000000000E+00 0. -1.
<scales pt_clust_3="43.82109" pt_clust_4="139.09376" pt_clust_5="33.99277" pt_clust_6="14000.00000"></scales>
<clustering>
<clus scale="   33.993">  1  5  2 -1</clus>
<clus scale="   43.821">  1  3  2 -1</clus>
<clus scale="  139.094">  1  4  2 -1</clus>
<clus scale="   33.993">  1  3  2 -1</clus>
</clustering>
</event>
<event>
 6    0  0.2433432E+002  0.2414184E+03  0.7546771E-02  0.1118852E+00
         21   -1    0    0  503  502  0.00000000000E+00  0.00000000000E+00  0.32506754194E+03  0.32506754194E+03  0.00000000000E+00 0.  1.
          1   -1    0    0  504    0 -0.00000000000E+00 -0.00000000000E+00 -0.62633687847E+03  0.62633687847E+03  0.00000000000E+00 0.  1.
         21    1    1    2  503  501 -0.63096971722E+02 -0.12171550402E+02  0.62209144340E+02  0.89439097263E+02  0.00000000000E+00 0.  1.
         21    1    1    2  504  505  0.16065841668E+03 -0.11580491987E+03  0.61472511808E+01  0.19814059406E+03  0.00000000000E+00 0.  1.
         21    1    1    2  505  502  0.16333361987E+03  0.83888441353E+02  0.28477467438E+02  0.18581202362E+03  0.00000000000E+00 0.  1.
          1    1    1    2  501    0 -0.26089506482E+03  0.44088028923E+02 -0.39810319949E+03  0.47801270547E+03  0.00000000000E+00 0.  1.
<scales pt_clust_3="64.26021" pt_clust_4="14000.00000" pt_clust_5="157.28895" pt_clust_6="241.41837"></scales>
<clustering>
<clus scale="   64.260">  1  3  2 -1</clus>
<clus scale="  157.289">  1  5  2 -1</clus>
<clus scale="  241.418">  2  6  1 -1</clus>
<clus scale="   64.260">  1  3  2 -1</clus>
</clustering>
</event>
<event>
 6    0  0.2433432E+002  0.1277401E+03  0.7546771E-02  0.1230848E+00
         -1   -1    0    0    0  501 -0.00000000000E+00  0.00000000000E+00  0.51414908626E+03  0.51414908626E+03  0.00000000000E+00 0. -1.
         21   -1    0    0  503  502  0.00000000000E+00 -0.00000000000E+00 -0.37551833228E+03  0.37551833228E+03  0.00000000000E+00 0.  1.
         21    1    1    2  503  504  0.46363933572E+02  0.23511705614E+01 -0.32224477508E+03  0.32557155497E+03  0.00000000000E+00 0.  1.
         21    1    1    2  504  505 -0.56302076057E+02  0.37806075763E+02  0.15952338486E+02  0.69668502467E+02  0.00000000000E+00 0.  1.
         21    1    1    2  505  501 -0.80777794392E+02  0.18449960307E+02  0.85222025907E+02  0.11886230185E+03  0.00000000000E+00 0.  1.
         -1    1    1    2    0  502  0.90715936876E+02 -0.58607206631E+02  0.35970116466E+03  0.37556505925E+03  0.00000000000E+00 0. -1.
<scales pt_clust_3="46.42351" pt_clust_4="49.77953" pt_clust_5="49.77953" pt_clust_6="113.86640"></scales>
<clustering>
<clus scale="   46.424">  2  3  1 -1</clus>
<clus scale="   49.780">  4  5 -1 -1</clus>
<clus scale="  113.866">  1  6  2 -1</clus>
<clus scale="   46.424">  2  3  1 -1</clus>
</clustering>
</event>
<event>
 6    0  0.2433432E+002  0.2670032E+03  0.7546771E-02  0.1103007E+00
         21   -1    0    0  504  502  0.00000000000E+00  0.00000000000E+00  0.79774537986E+02  0.79774537986E+02  0.00000000000E+00 0. -1.
          1   -1    0    0  505    0 -0.00000000000E+00 -0.00000000000E+00 -0.21984451324E+04  0.21984451324E+04  0.00000000000E+00 0.  1.
         21    1    1    2  503  502  0.95802916532E+02  0.64059631676E+02 -0.28793393626E+03  0.31014155941E+03  0.00000000000E+00 0. -1.
         21    1    1    2  504  501 -0.23413125870E+03 -0.85567888057E+02 -0.19792501609E+03  0.31829800779E+03  0.00000000000E+00 0. -1.
         21    1    1    2  505  503  0.13513424266E+03 -0.14633770422E+02 -0.55657570554E+03  0.57293274193E+03  0.00000000000E+00 0. -1.
          1    1    1    2  501    0  0.31940995053E+01  0.36142026803E+02 -0.10762359365E+04  0.10768473612E+04  0.00000000000E+00 0.  1.
<scales pt_clust_3="98.18187" pt_clust_4="245.84931" pt_clust_5="98.18187" pt_clust_6="36.28289"></scales>
<clustering>
<clus scale="   36.283">  2  6  1 -1</clus>
<clus scale="   98.182">  3  5 -1 -1</clus>
<clus scale="  245.849">  1  4  2 -1</clus>
<clus scale="  245.849">  1  3  2 -1</clus>
</clustering>
</event>
<event>
 6    0  0.2433432E+002  0.1527425E+03  0.7546771E-02  0.1197143E+00
         21   -1    0    0  504  502  0.00000000000E+00  0.00000000000E+00  0.21197267721E+04  0.21197267721E+04  0.00000000000E+00 0.  1.
          1   -1    0    0  505    0 -0.00000000000E+00 -0.00000000000E+00 -0.28593933907E+03  0.28593933907E+03  0.00000000000E+00 0. -1.
         21    1    1    2  503  501  0.23683629452E+02 -0.11490402807E+03  0.59748651736E+03  0.60889571225E+03  0.00000000000E+00 0.  1.
         21    1    1    2  504  503  0.40394295257E+01 -0.57661574674E+02  0.68016171253E+03  0.68261345531E+03  0.00000000000E+00 0.  1.
         21    1    1    2  505  502 -0.90756965074E+01  0.11290317302E+03  0.82774103723E+03  0.83545479798E+03  0.00000000000E+00 0.  1.
          1    1    1    2  501    0 -0.18647362471E+02  0.59662429724E+02 -0.27160183413E+03  0.27870214558E+03  0.00000000000E+00 0. -1.
<scales pt_clust_3="49.94754" pt_clust_4="49.94754" pt_clust_5="135.15471" pt_clust_6="62.50864"></scales>
<clustering>
<clus scale="   49.948">  3  4 -1 -1</clus>
<clus scale="   62.509">  2  6  1 -1</clus>
<clus scale="  135.155">  1  5  2 -1</clus>
<clus scale="  135.155">  1  3  2 -1</clus>
</clustering>
</event>
<event>
 6    0  0.2433432E+002  0.3412957E+03  0.7546771E-02  0.1066245E+00
          2   -1    0    0  503    0 -0.00000000000E+00  0.00000000000E+00  0.12569900059E+04  0.12569900059E+04  0.00000000000E+00 0. -1.
         21   -1    0    0  504  502  0.00000000000E+00 -0.00000000000E+00 -0.32760658174E+03  0.32760658174E+03  0.00000000000E+00 0.  1.
         21    1    1    2  503  502  0.32077852929E+03 -0.10268084898E+03 -0.10305781854E+03  0.35222597230E+03  0.00000000000E+00 0.  1.
         21    1    1    2  504  505 -0.78155761834E+00  0.40525598258E+02  0.29221340160E+02  0.49968206564E+02  0.00000000000E+00 0. -1.
         21    1    1    2  505  501 -0.24543689662E+03  0.14785304520E+03  0.15337198155E+03  0.32499655064E+03  0.00000000000E+00 0.  1.
          2    1    1    2  501    0 -0.74560075049E+02 -0.85697794481E+02  0.84984792102E+03  0.85740585817E+03  0.00000000000E+00 0. -1.
<scales pt_clust_3="324.55280" pt_clust_4="39.71203" pt_clust_5="39.71203" pt_clust_6="113.59277"></scales>
<clustering>
<clus scale="   39.712">  4  5 -1 -1</clus>
<clus scale="  113.593">  1  6  2 -1</clus>
<clus scale="  324.553">  2  3  1 -1</clus>
<clus scale="  324.553">  2  3  1 -1</clus>
</clustering>
</event>
<event>
 6    0  0.2433432E+002  0.2107574E+03  0.7546771E-02  0.1140968E+00
         21   -1    0    0  503  502  0.00000000000E+00  0.00000000000E+00  0.39457068774E+03  0.39457068774E+03  0.00000000000E+00 0. -1.
          2   -1    0    0  505    0 -0.00000000000E+00 -0.00000000000E+00 -0.19396442980E+04  0.19396442980E+04  0.00000000000E+00 0.  1.
         21    1    1    2  503  501 -0.15659396986E+03 -0.15529692381E+03 -0.12906575718E+03  0.25553233772E+03  0.00000000000E+00 0. -1.
         21    1    1    2  504  502  0.29078445950E+02 -0.14567657119E+02  0.32085676873E+03  0.32250091271E+03  0.00000000000E+00 0. -1.
         21    1    1    2  505  504  0.45554905084E+02 -0.50892584949E+01 -0.13205436822E+03  0.13978378338E+03  0.00000000000E+00 0. -1.
          2    1    1    2  501    0  0.81960618829E+02  0.17495383943E+03 -0.16048102536E+04  0.16163979520E+04  0.00000000000E+00 0.  1.
<scales pt_clust_3="210.75740" pt_clust_4="32.52342" pt_clust_5="47.46000" pt_clust_6="14000.00000"></scales>
<clustering>
<clus scale="   32.523">  1  4  2 -1</clus>
<clus scale="   47.460">  2  5  1 -1</clus>
<clus scale="  210.757">  1  3  2 -1</clus>
<clus scale="   32.523">  1  3  2 -1</clus>
</clustering>
</event>
<event>
 6    0  0.2433432E+002  0.1541146E+03  0.7546771E-02  0.1195506E+00
          1   -1    0    0  504    0 -0.00000000000E+00  0.00000000000E+00  0.22117817160E+04  0.22117817160E+04  0.00000000000E+00 0. -1.
         21   -1    0    0  503  502  0.00000000000E+00 -0.00000000000E+00 -0.95933867854E+02  0.95933867854E+02  0.00000000000E+00 0.  1.
         21    1    1    2  503  505 -0.48518325174E+02  0.12732700003E+02 -0.65405964819E+02  0.82426268634E+02  0.00000000000E+00 0.  1.
         21    1    1    2  504  502 -0.70778528163E+02  0.79851768532E+02  0.13179698094E+03  0.16957697123E+03  0.00000000000E+00 0.  1.
         21    1    1    2  505  501  0.39642090557E+02 -0.59081555688E+02  0.74215726282E+03  0.74555987575E+03  0.00000000000E+00 0.  1.
          1    1    1    2  501    0  0.79654762780E+02 -0.33502912847E+02  0.13072995692E+04  0.13101524683E+04  0.00000000000E+00 0. -1.
<scales pt_clust_3="50.16124" pt_clust_4="144.48186" pt_clust_5="48.66424" pt_clust_6="48.66424"></scales>
<clustering>
<clus scale="   48.664">  5  6 -1 -1</clus>
<clus scale="   50.161">  2  3  1 -1</clus>
<clus scale="  144.482">  2  4  1 -1</clus>
<clus scale="   50.161">  2  3  1 -1</clus>
</clustering>
</event>
<event>
 6    0  0.2433432E+002  0.1383815E+03  0.7546771E-02  0.1215523E+00
          2   -1    0    0  505    0 -0.00000000000E+00  0.00000000000E+00  0.64340481997E+03  0.64340481997E+03  0.00000000000E+00 0. -1.
         21   -1    0    0  504  502  0.00000000000E+00 -0.00000000000E+00 -0.13615094701E+03  0.13615094701E+03  0.00000000000E+00 0. -1.
         21    1    1    2  503  501 -0.98581460820E+01  0.97218696353E+02 -0.26994752714E+02  0.10137738722E+03  0.00000000000E+00 0. -1.
         21    1    1    2  504  503  0.24341978372E+02  0.64044065929E+02  0.26295519795E+01  0.68564486693E+02  0.00000000000E+00 0. -1.
         21    1    1    2  505  502 -0.58106962266E+01 -0.33225716209E+02 -0.22684775677E+02  0.40648634119E+02  0.00000000000E+00 0. -1.
          2    1    1    2  501    0 -0.86731360633E+01 -0.12803704607E+03  0.55430384937E+03  0.56896525895E+03  0.00000000000E+00 0. -1.
<scales pt_clust_3="39.28362" pt_clust_4="39.28362" pt_clust_5="33.72999" pt_clust_6="130.68407"></scales>
<clustering>
<clus scale="   33.730">  2  5  1 -1</clus>
<clus scale="   39.284">  3  4 -1 -1</clus>
<clus scale="  130.684">  1  6  2 -1</clus>
<clus scale="   33.730">  2  3  1 -1</clus>
</clustering>
</event>
<event>
 6    0  0.2433432E+002  0.8406781E+02  0.7546771E-02  0.1317888E+00
          2   -1    0    0  505    0 -0.00000000000E+00  0.00000000000E+00  0.23992941345E+04  0.23992941345E+04  0.00000000000E+00 0. -1.
         21   -1    0    0  503  502  0.00000000000E+00 -0.00000000000E+00 -0.34793014504E+03  0.34793014504E+03  0.00000000000E+00 0. -1.
         21    1    1    2  503  501 -0.85185374593E+02 -0.23502041092E+02 -0.32573301640E+03  0.33750687690E+03  0.00000000000E+00 0. -1.
         21    1    1    2  504  502  0.30373524621E+02 -0.20512537736E+01  0.28026943705E+02  0.41379562750E+02  0.00000000000E+00 0.  1.
         21    1    1    2  505  504  0.91239966510E+02  0.96503592926E+02  0.49359274896E+03  0.51114721633E+03  0.00000000000E+00 0. -1.
          2    1    1    2  501    0 -0.36428116539E+02 -0.70950298061E+02  0.18554773132E+04  0.18571906235E+04  0.00000000000E+00 0. -1.
<scales pt_clust_3="61.22980" pt_clust_4="30.44271" pt_clust_5="84.06781" pt_clust_6="14000.00000"></scales>
<clustering>
<clus scale="   30.443">  2  4  1 -1</clus>
<clus scale="   61.230">  2  3  1 -1</clus>
<clus scale="   84.068">  2  5  1 -1</clus>
<clus scale="   30.443">  2  3  1 -1</clus>
</clustering>
</event>
<event>
 6    0  0.2433432E+002  0.1015277E+03  0.7546771E-02  0.1277116E+00
          2   -1    0    0  503    0 -0.00000000000E+00  0.00000000000E+00  0.20260999338E+04  0.20260999338E+04  0.00000000000E+00 0. -1.
         21   -1    0    0  505  502  0.00000000000E+00 -0.00000000000E+00 -0.37679552937E+03  0.37679552937E+03  0.00000000000E+00 0.  1.
         21    1    1    2  503  502  0.28314882606E+02  0.17355711430E+02 -0.15176557301E+02  0.36514123127E+02  0.00000000000E+00 0.  1.
         21    1    1    2  504  501 -0.53351363371E+02  0.12102676846E+03 -0.24558867571E+03  0.27894021634E+03  0.00000000000E+00 0.  1.
         21    1    1    2  505  504  0.34382861906E+02 -0.37355972741E+02 -0.80019768606E+02  0.94767152854E+02  0.00000000000E+00 0.  1.
          2    1    1    2  501    0 -0.93463811407E+01 -0.10102650715E+03  0.19900894060E+04  0.19926739708E+04  0.00000000000E+00 0. -1.
<scales pt_clust_3="33.21074" pt_clust_4="14000.00000" pt_clust_5="52.99067" pt_clust_6="101.52774"></scales>
<clustering>
<clus scale="   33.211">  2  3  1 -1</clus>
<clus scale="   52.991">  2  5  1 -1</clus>
<clus scale="  101.528">  1  6  2 -1</clus>
<clus scale="   33.211">  2  3  1 -1</clus>
</clustering>
</event>
<event>
 6    0  0.2433432E+002  0.1245176E+03  0.7546771E-02  0.1235825E+00
         21   -1    0    0  501  502  0.00000000000E+00  0.00000000000E+00  0.98559541587E+02  0.98559541587E+02  0.00000000000E+00 0. -1.
          2   -1    0    0  504    0 -0.00000000000E+00 -0.00000000000E+00 -0.90780722594E+03  0.90780722594E+03  0.00000000000E+00 0. -1.
         21    1    1    2  503  505 -0.12764531881E+03 -0.21143388876E+02 -0.15779161671E+03  0.20405529793E+03  0.00000000000E+00 0. -1.
         21    1    1    2  504  503  0.55255756469E+00 -0.46289887686E+02 -0.52837874053E+03  0.53040282094E+03  0.00000000000E+00 0. -1.
         21    1    1    2  505  502  0.95240962812E+01  0.32340905877E+02  0.49665008954E+02  0.60027124846E+02  0.00000000000E+00 0. -1.
          2    1    1    2  501    0  0.11756866497E+03  0.35092370685E+02 -0.17274233607E+03  0.21188152381E+03  0.00000000000E+00 0. -1.
<scales pt_clust_3="14000.00000" pt_clust_4="45.54770" pt_clust_5="33.71413" pt_clust_6="124.51761"></scales>
<clustering>
<clus scale="   33.714">  1  5  2 -1</clus>
<clus scale="   45.548">  2  4  1 -1</clus>
<clus scale="  124.518">  2  6  1 -1</clus>
<clus scale="   33.714">  1  3  2 -1</clus>
</clustering>
</event>
<event>
 6    0  0.2433432E+002  0.8839902E+02  0.7546771E-02  0.1306776E+00
         21   -1    0    0  505  502  0.00000000000E+00  0.00000000000E+00  0.26793183822E+03  0.26793183822E+03  0.00000000000E+00 0. -1.
          4   -1    0    0  504    0 -0.00000000000E+00 -0.00000000000E+00 -0.11138118452E+03  0.11138118452E+03  0.00000000000E+00 0. -1.
         21    1    1    2  503  502 -0.30411335450E+02  0.10013880151E+03  0.14741905810E+03  0.18078995432E+03  0.00000000000E+00 0. -1.
         21    1    1    2  504  503  0.89343003880E+01 -0.34832330125E+02  0.91057048555E+01  0.37094835305E+02  0.00000000000E+00 0. -1.
         21    1    1    2  505  501  0.44741400827E+02 -0.50884035294E+01  0.58843234012E+02  0.74095957969E+02  0.00000000000E+00 0. -1.
          4    1    1    2  501    0 -0.23264365765E+02 -0.60218067859E+02 -0.58817343270E+02  0.87332275136E+02  0.00000000000E+00 0. -1.
<scales pt_clust_3="14000.00000" pt_clust_4="35.95988" pt_clust_5="46.10836" pt_clust_6="88.39902"></scales>
<clustering>
<clus scale="   35.960">  2  4  1 -1</clus>
<clus scale="   46.108">  1  5  2 -1</clus>
<clus scale="   88.399">  2  6  1 -1</clus>
<clus scale="   46.108">  1  3  2 -1</clus>
</clustering>
</event>
<event>
 6    0  0.2433432E+002  0.9811588E+02  0.7546771E-02  0.1284309E+00
          1   -1    0    0  505    0 -0.00000000000E+00  0.00000000000E+00  0.84603125443E+03  0.84603125443E+03  0.00000000000E+00 0. -1.
         21   -1    0    0  503  502  0.00000000000E+00 -0.00000000000E+00 -0.94635486137E+02  0.94635486137E+02  0.00000000000E+00 0. -1.
         21    1    1    2  503  504 -0.13833492426E+02  0.28234522019E+02 -0.65450206197E+01  0.32115277381E+02  0.00000000000E+00 0. -1.
         21    1    1    2  504  501  0.22492682300E+02 -0.98011760249E+02  0.16619584934E+02  0.10192367982E+03  0.00000000000E+00 0. -1.
         21    1    1    2  505  502 -0.40175057370E+02 -0.24051833875E+02 -0.10773474393E+02  0.48047827193E+02  0.00000000000E+00 0. -1.
          1    1    1    2  501    0  0.31515867496E+02  0.93829072105E+02  0.75209467837E+03  0.75857995617E+03  0.00000000000E+00 0. -1.
<scales pt_clust_3="31.44127" pt_clust_4="98.11588" pt_clust_5="47.40229" pt_clust_6="14000.00000"></scales>
<clustering>
<clus scale="   31.441">  2  3  1 -1</clus>
<clus scale="   47.402">  2  5  1 -1</clus>
<clus scale="   98.116">  2  4  1 -1</clus>
<clus scale="   31.441">  2  3  1 -1</clus>
</clustering>
</event>
<event>
 6    0  0.2467328E+002  0.1308935E+03  0.7546771E-02  0.1226136E+00
         21   -1    0    0  505  502  0.00000000000E+00  0.00000000000E+00  0.27426595727E+03  0.27426595727E+03  0.00000000000E+00 0. -1.
          4   -1    0    0  504    0 -0.00000000000E+00 -0.00000000000E+00 -0.11318617842E+04  0.11318617842E+04  0.00000000000E+00 0.  1.
         21    1    1    2  503  502 -0.43612916587E+02 -0.13696375175E+03  0.21189916673E+03  0.25605158200E+03  0.00000000000E+00 0. -1.
         21    1    1    2  504  503 -0.39481496733E+02  0.45963614437E+02 -0.14423341309E+02  0.62285433377E+02  0.00000000000E+00 0. -1.
         21    1    1    2  505  501  0.56813434952E+02  0.56525423930E+02 -0.85270288561E+02  0.11702098980E+03  0.00000000000E+00 0. -1.
          4    1    1    2  501    0  0.26280978368E+02  0.34474713384E+02 -0.96980136374E+03  0.97076973624E+03  0.00000000000E+00 0.  1.
<scales pt_clust_3="130.89346" pt_clust_4="63.53744" pt_clust_5="14000.00000" pt_clust_6="43.34969"></scales>
<clustering>
<clus scale="   43.350">  2  6  1 -1</clus>
<clus scale="   63.537">  2  4  1 -1</clus>
<clus scale="  130.893">  1  3  2 -1</clus>
<clus scale="  130.893">  1  3  2 -1</clus>
</clustering>
</event>
<event>
 6    0  0.2433432E+002  0.1039559E+03  0.7546771E-02  0.1272190E+00
         21   -1    0    0  501  502  0.00000000000E+00  0.00000000000E+00  0.93772487498E+02  0.93772487498E+02  0.00000000000E+00 0. -1.
          2   -1    0    0  505    0 -0.00000000000E+00 -0.00000000000E+00 -0.37616502264E+04  0.37616502264E+04  0.00000000000E+00 0. -1.
         21    1    1    2  503  504  0.64160306865E+02  0.31370123700E+02  0.23068981958E+01  0.71455940391E+02  0.00000000000E+00 0. -1.
         21    1    1    2  504  502  0.22447778003E+02  0.29193211403E+02  0.48956578035E+02  0.61260859136E+02  0.00000000000E+00 0. -1.
         21    1    1    2  505  503 -0.63593771797E+02 -0.88867637874E+02 -0.18603403507E+04  0.18635471138E+04  0.00000000000E+00 0. -1.
          2    1    1    2  501    0 -0.23014313071E+02  0.28304302771E+02 -0.18588008645E+04  0.18591588006E+04  0.00000000000E+00 0. -1.
<scales pt_clust_3="14000.00000" pt_clust_4="36.85326" pt_clust_5="103.95592" pt_clust_6="36.48002"></scales>
<clustering>
<clus scale="   36.480">  2  6  1 -1</clus>
<clus scale="   36.853">  1  4  2 -1</clus>
<clus scale="  103.956">  2  5  1 -1</clus>
<clus scale="   36.853">  1  3  2 -1</clus>
</clustering>
</event>
<event>
 6    0  0.2433432E+002  0.1567271E+03  0.7546771E-02  0.1192442E+00
         21   -1    0    0  501  502  0.00000000000E+00  0.00000000000E+00  0.25370744052E+03  0.25370744052E+03  0.00000000000E+00 0.  1.
          4   -1    0    0  504    0 -0.00000000000E+00 -0.00000000000E+00 -0.35050273503E+03  0.35050273503E+03  0.00000000000E+00 0.  1.
         21    1    1    2  503  505  0.58842947751E+01 -0.95469999741E+02  0.16393617204E+03  0.18980045911E+03  0.00000000000E+00 0.  1.
         21    1    1    2  504  503  0.25032556294E+02 -0.18541658948E+02 -0.24117878969E+02  0.39396625200E+02  0.00000000000E+00 0.  1.
         21    1    1    2  505  502 -0.28538431081E+02 -0.43268376925E+02  0.34011203969E+02  0.61994810151E+02  0.00000000000E+00 0.  1.
          4    1    1    2  501    0 -0.23784199886E+01  0.15728003561E+03 -0.27062479156E+03  0.31301828108E+03  0.00000000000E+00 0.  1.
<scales pt_clust_3="48.97476" pt_clust_4="31.15160" pt_clust_5="48.97476" pt_clust_6="141.80003"></scales>
<clustering>
<clus scale="   31.152">  2  4  1 -1</clus>
<clus scale="   48.975">  3  5 -1 -1</clus>
<clus scale="  141.800">  2  6  1 -1</clus>
<clus scale="  156.727">  1  3  2 -1</clus>
</clustering>
</event>
<event>
 6    0  0.2433432E+002  0.1053465E+03  0.7546771E-02  0.1269438E+00
         -2   -1    0    0    0  501 -0.00000000000E+00  0.00000000000E+00  0.15310200427E+04  0.15310200427E+04  0.00000000000E+00 0.  1.
         21   -1    0    0  504  502  0.00000000000E+00 -0.00000000000E+00 -0.22951121648E+02  0.22951121648E+02  0.00000000000E+00 0.  1.
         21    1    1    2  503  501 -0.72921978725E+02  0.68345403812E+02  0.25804621720E+03  0.27672469968E+03  0.00000000000E+00 0.  1.
         21    1    1    2  504  503 -0.49723955440E+02 -0.12586350757E+02  0.86998217649E+02  0.10099295938E+03  0.00000000000E+00 0.  1.
         21    1    1    2  505  502  0.34349228412E+02  0.48851762499E+01  0.71369604798E+02  0.79355875199E+02  0.00000000000E+00 0.  1.
         -2    1    1    2    0  505  0.88296705753E+02 -0.60644229306E+02  0.10916548814E+04  0.10968976301E+04  0.00000000000E+00 0.  1.
<scales pt_clust_3="105.34655" pt_clust_4="38.58318" pt_clust_5="34.69488" pt_clust_6="14000.00000"></scales>
<clustering>
<clus scale="   34.695">  2  5  1 -1</clus>
<clus scale="   38.583">  2  4  1 -1</clus>
<clus scale="  105.347">  2  3  1 -1</clus>
<clus scale="   34.695">  2  3  1 -1</clus>
</clustering>
</event>
<event>
 6    0  0.2433432E+002  0.1108523E+03  0.7546771E-02  0.1259000E+00
         21   -1    0    0  505  502  0.00000000000E+00  0.00000000000E+00  0.20034230199E+03  0.20034230199E+03  0.00000000000E+00 0. -1.
         -4   -1    0    0    0  501 -0.00000000000E+00 -0.00000000000E+00 -0.11984704117E+03  0.11984704117E+03  0.00000000000E+00 0. -1.
         21    1    1    2  503  502  0.84360495861E+02  0.51856357796E+01  0.10720140936E+02  0.85196863217E+02  0.00000000000E+00 0. -1.
         21    1    1    2  504  501 -0.74715081670E+02 -0.20396865545E+02  0.99334989182E+01  0.78083608740E+02  0.00000000000E+00 0. -1.
         21    1    1    2  505  504 -0.46970143377E+02  0.19755166913E+02  0.93474724813E+02  0.10646119090E+03  0.00000000000E+00 0. -1.
         -4    1    1    2    0  503  0.37324729186E+02 -0.45439371482E+01 -0.33633103849E+02  0.50447680305E+02  0.00000000000E+00 0. -1.
<scales pt_clust_3="36.93640" pt_clust_4="96.02864" pt_clust_5="50.95548" pt_clust_6="36.93640"></scales>
<clustering>
<clus scale="   36.936">  3  6 -1 -1</clus>
<clus scale="   50.955">  1  5  2 -1</clus>
<clus scale="   96.029">  2  4  1 -1</clus>
<clus scale="   50.955">  1  3  2 -1</clus>
</clustering>
</event>
<event>
 6    0  0.2433432E+002  0.6757420E+02  0.7546771E-02  0.1368542E+00
         21   -1    0    0  503  502  0.00000000000E+00  0.00000000000E+00  0.18547178501E+02  0.18547178501E+02  0.00000000000E+00 0.  1.
          2   -1    0    0  504    0 -0.00000000000E+00 -0.00000000000E+00 -0.39276647105E+04  0.39276647105E+04  0.00000000000E+00 0.  1.
         21    1    1    2  503  501  0.53795703150E+01 -0.89056699096E+02 -0.11940463590E+03  0.14905536724E+03  0.00000000000E+00 0.  1.
         21    1    1    2  504  505 -0.44622705416E+02 -0.63463683254E+01 -0.34081811600E+03  0.34378547152E+03  0.00000000000E+00 0.  1.
         21    1    1    2  505  502 -0.18296436398E+02  0.26402878511E+02 -0.15710253502E+03  0.16035297967E+03  0.00000000000E+00 0. -1.
          2    1    1    2  501    0  0.57539571500E+02  0.69000188910E+02 -0.32917922451E+04  0.32930180706E+04  0.00000000000E+00 0.  1.
<scales pt_clust_3="14000.00000" pt_clust_4="46.40235" pt_clust_5="32.12276" pt_clust_6="67.57420"></scales>
<clustering>
<clus scale="   32.123">  1  5  2 -1</clus>
<clus scale="   46.402">  2  4  1 -1</clus>
<clus scale="   67.574">  2  6  1 -1</clus>
<clus scale="   32.123">  1  3  2 -1</clus>
</clustering>
</event>
<event>
 6    0  0.2433432E+002  0.9171782E+02  0.7546771E-02  0.1298744E+00
         -4   -1    0    0    0  501 -0.00000000000E+00  0.00000000000E+00  0.14610466726E+04  0.14610466726E+04  0.00000000000E+00 0.  1.
         21   -1    0    0  505  502  0.00000000000E+00 -0.00000000000E+00 -0.12064348721E+03  0.12064348721E+03  0.00000000000E+00 0.  1.
         21    1    1    2  503  501  0.58039131996E+02 -0.14017440579E+03 -0.22855425407E+02  0.15342677522E+03  0.00000000000E+00 0.  1.
         21    1    1    2  504  502 -0.27610161215E+02  0.71842480265E+02  0.96387720943E+02  0.12334608110E+03  0.00000000000E+00 0. -1.
         21    1    1    2  505  503  0.43381841555E+02  0.15094364478E+02  0.12984776706E+02  0.47732886376E+02  0.00000000000E+00 0.  1.
         -4    1    1    2    0  504 -0.73810812335E+02  0.53237561050E+02  0.12538861132E+04  0.12571844171E+04  0.00000000000E+00 0.  1.
<scales pt_clust_3="91.71782" pt_clust_4="77.00658" pt_clust_5="45.93282" pt_clust_6="14000.00000"></scales>
<clustering>
<clus scale="   45.933">  2  5  1 -1</clus>
<clus scale="   77.007">  2  4  1 -1</clus>
<clus scale="   91.718">  2  3  1 -1</clus>
<clus scale="   45.933">  2  3  1 -1</clus>
</clustering>
</event>
<event>
 6    0  0.2433432E+002  0.1033052E+03  0.7546771E-02  0.1273495E+00
          1   -1    0    0  504    0 -0.00000000000E+00  0.00000000000E+00  0.43630143174E+04  0.43630143174E+04  0.00000000000E+00 0. -1.
         21   -1    0    0  503  502  0.00000000000E+00 -0.00000000000E+00 -0.36635934632E+02  0.36635934632E+02  0.00000000000E+00 0.  1.
         21    1    1    2  503  505  0.73104783427E+02  0.77840562874E+02  0.92429099446E+02  0.14123243612E+03  0.00000000000E+00 0.  1.
         21    1    1    2  504  502 -0.13044412332E+03  0.15058332784E+02  0.47494804251E+03  0.49276573113E+03  0.00000000000E+00 0.  1.
         21    1    1    2  505  501  0.36904887342E+02 -0.42677248167E+02  0.25229732458E+03  0.25852902779E+03  0.00000000000E+00 0.  1.
          1    1    1    2  501    0  0.20434452547E+02 -0.50221647491E+02  0.35067039162E+04  0.35071230570E+04  0.00000000000E+00 0. -1.
<scales pt_clust_3="14000.00000" pt_clust_4="103.30516" pt_clust_5="71.92959" pt_clust_6="54.21974"></scales>
<clustering>
<clus scale="   54.220">  1  6  2 -1</clus>
<clus scale="   71.930">  1  5  2 -1</clus>
<clus scale="  103.305">  1  4  2 -1</clus>
<clus scale="  103.305">  2  3  1 -1</clus>
</clustering>
</event>
<event>
 6    0  0.2433432E+002  0.9172833E+02  0.7546771E-02  0.1298719E+00
          1   -1    0    0  504    0 -0.00000000000E+00  0.00000000000E+00  0.43957624485E+03  0.43957624485E+03  0.00000000000E+00 0.  1.
         21   -1    0    0  503  502  0.00000000000E+00 -0.00000000000E+00 -0.64872312371E+03  0.64872312371E+03  0.00000000000E+00 0.  1.
         21    1    1    2  503  501  0.27478152632E+02  0.28933641483E+02 -0.75348431183E+02  0.85261893970E+02  0.00000000000E+00 0.  1.
         21    1    1    2  504  505 -0.11271877117E+03  0.87111878074E+01 -0.14658849167E+03  0.18512047984E+03  0.00000000000E+00 0.  1.
         21    1    1    2  505  502  0.63532394834E+02  0.13482226762E+02 -0.39806288362E+03  0.40332641241E+03  0.00000000000E+00 0.  1.
          1    1    1    2  501    0  0.21708223702E+02 -0.51127056052E+02  0.41085292762E+03  0.41459058234E+03  0.00000000000E+00 0.  1.
<scales pt_clust_3="39.90244" pt_clust_4="91.72833" pt_clust_5="14000.00000" pt_clust_6="55.49266"></scales>
<clustering>
<clus scale="   39.902">  2  3  1 -1</clus>
<clus scale="   55.493">  1  6  2 -1</clus>
<clus scale="   91.728">  1  4  2 -1</clus>
<clus scale="   39.902">  2  3  1 -1</clus>
</clustering>
</event>
<event>
 6    0  0.2433432E+002  0.1083426E+03  0.7546771E-02  0.1263670E+00
         21   -1    0    0  503  502  0.00000000000E+00  0.00000000000E+00  0.21868961498E+04  0.21868961498E+04  0.00000000000E+00 0.  1.
          1   -1    0    0  505    0 -0.00000000000E+00 -0.00000000000E+00 -0.90719339811E+03  0.90719339811E+03  0.00000000000E+00 0. -1.
         21    1    1    2  503  501 -0.19573008894E+01  0.79758742881E+02  0.13557710012E+03  0.15731000658E+03  0.00000000000E+00 0. -1.
         21    1    1    2  504  502 -0.19496666997E+02 -0.11118096455E+03  0.19356704043E+04  0.19389588033E+04  0.00000000000E+00 0.  1.
         21    1    1    2  505  504  0.57219181108E+02  0.26376499239E+02  0.93112529516E+02  0.11242640949E+03  0.00000000000E+00 0. -1.
          1    1    1    2  501    0 -0.35765213222E+02  0.50457224269E+01 -0.88465728229E+03  0.88539432848E+03  0.00000000000E+00 0. -1.
<scales pt_clust_3="14000.00000" pt_clust_4="108.34257" pt_clust_5="50.50035" pt_clust_6="36.11938"></scales>
<clustering>
<clus scale="   36.119">  2  6  1 -1</clus>
<clus scale="   50.500">  2  5  1 -1</clus>
<clus scale="  108.343">  1  4  2 -1</clus>
<clus scale="  108.343">  1  3  2 -1</clus>
</clustering>
</event>
<event>
 6    0  0.2433432E+002  0.8930653E+02  0.7546771E-02  0.1304540E+00
         -4   -1    0    0    0  501 -0.00000000000E+00  0.00000000000E+00  0.61957271667E+03  0.61957271667E+03  0.00000000000E+00 0.  1.
         21   -1    0    0  503  502  0.00000000000E+00 -0.00000000000E+00 -0.16426612922E+04  0.16426612922E+04  0.00000000000E+00 0.  1.
         21    1    1    2  503  505 -0.16495347830E+02 -0.41076348501E+02 -0.16004300921E+04  0.16010421114E+04  0.00000000000E+00 0.  1.
         21    1    1    2  504  502  0.98869938603E+02 -0.11771624108E+02  0.14538754968E+03  0.17621400482E+03  0.00000000000E+00 0.  1.
         21    1    1    2  505  501 -0.16883059550E+02  0.35016245221E+02 -0.81094184267E+01  0.39710676101E+02  0.00000000000E+00 0.  1.
         -4    1    1    2    0  504 -0.65491531223E+02  0.17831727388E+02  0.44006338522E+03  0.44526721659E+03  0.00000000000E+00 0.  1.
<scales pt_clust_3="44.25141" pt_clust_4="89.30653" pt_clust_5="38.87384" pt_clust_6="14000.00000"></scales>
<clustering>
<clus scale="   38.874">  1  5  2 -1</clus>
<clus scale="   44.251">  2  3  1 -1</clus>
<clus scale="   89.307">  2  4  1 -1</clus>
<clus scale="   44.251">  2  3  1 -1</clus>
</clustering>
</event>
<event>
 6    0  0.2433432E+002  0.9093281E+02  0.7546771E-02  0.1300608E+00
          3   -1    0    0  503    0 -0.00000000000E+00  0.00000000000E+00  0.15062272611E+03  0.15062272611E+03  0.00000000000E+00 0. -1.
         21   -1    0    0  505  502  0.00000000000E+00 -0.00000000000E+00 -0.29008157431E+03  0.29008157431E+03  0.00000000000E+00 0. -1.
         21    1    1    2  503  504  0.29567885058E+02 -0.41661145996E+02 -0.18307329342E+02  0.54268491964E+02  0.00000000000E+00 0.  1.
         21    1    1    2  504  502 -0.10758556186E+02  0.30083637277E+02 -0.58032248576E+02  0.66245857514E+02  0.00000000000E+00 0. -1.
         21    1    1    2  505  501  0.25031433892E+02 -0.70103194519E+02 -0.16586629063E+03  0.18180389691E+03  0.00000000000E+00 0. -1.
          3    1    1    2  501    0 -0.43840762764E+02  0.81680703237E+02  0.10274702034E+03  0.13838605403E+03  0.00000000000E+00 0. -1.
<scales pt_clust_3="46.21089" pt_clust_4="31.94952" pt_clust_5="14000.00000" pt_clust_6="90.93281"></scales>
<clustering>
<clus scale="   31.950">  2  4  1 -1</clus>
<clus scale="   46.211">  2  3  1 -1</clus>
<clus scale="   90.933">  1  6  2 -1</clus>
<clus scale="   31.950">  2  3  1 -1</clus>
</clustering>
</event>
<event>
 6    0  0.2433432E+002  0.1268252E+03  0.7546771E-02  0.1232244E+00
          1   -1    0    0  505    0 -0.00000000000E+00  0.00000000000E+00  0.17826795717E+03  0.17826795717E+03  0.00000000000E+00 0. -1.
         21   -1    0    0  503  502  0.00000000000E+00 -0.00000000000E+00 -0.21169614963E+03  0.21169614963E+03  0.00000000000E+00 0. -1.
         21    1    1    2  503  501  0.45966451664E+02  0.10193035686E+03  0.15554345630E+02  0.11289220520E+03  0.00000000000E+00 0. -1.
         21    1    1    2  504  502  0.76710026963E+01 -0.66453717716E+02 -0.62323115316E+02  0.91428177185E+02  0.00000000000E+00 0. -1.
         21    1    1    2  505  504 -0.25885474898E+02 -0.59968617976E+02 -0.69216166229E+02  0.95169168433E+02  0.00000000000E+00 0. -1.
          1    1    1    2  501    0 -0.27751979462E+02  0.24491978837E+02  0.82556743456E+02  0.90474555989E+02  0.00000000000E+00 0. -1.
<scales pt_clust_3="121.99595" pt_clust_4="34.25296" pt_clust_5="34.25296" pt_clust_6="37.01391"></scales>
<clustering>
<clus scale="   34.253">  4  5 -1 -1</clus>
<clus scale="   37.014">  1  6  2 -1</clus>
<clus scale="  121.996">  1  3  2 -1</clus>
<clus scale="  126.825">  2  3  1 -1</clus>
</clustering>
</event>
<event>
 6    0  0.2433432E+002  0.7715080E+02  0.7546771E-02  0.1337337E+00
         21   -1    0    0  504  502  0.00000000000E+00  0.00000000000E+00  0.17597967990E+04  0.17597967990E+04  0.00000000000E+00 0.  1.
         -3   -1    0    0    0  501 -0.00000000000E+00 -0.00000000000E+00 -0.24590082881E+03  0.24590082881E+03  0.00000000000E+00 0. -1.
         21    1    1    2  503  505  0.33787498212E+02 -0.33698317258E+02  0.77475887588E+02  0.90992773223E+02  0.00000000000E+00 0.  1.
         21    1    1    2  504  501 -0.55526640698E+01  0.98494052823E+02  0.12446430212E+04  0.12485464191E+04  0.00000000000E+00 0.  1.
         21    1    1    2  505  502  0.29460809305E+02 -0.13457060773E+02  0.42204422030E+03  0.42328519423E+03  0.00000000000E+00 0.  1.
         -3    1    1    2    0  503 -0.57695643446E+02 -0.51338674792E+02 -0.23026715893E+03  0.24287324118E+03  0.00000000000E+00 0. -1.
<scales pt_clust_3="49.63752" pt_clust_4="77.15080" pt_clust_5="32.38876" pt_clust_6="14000.00000"></scales>
<clustering>
<clus scale="   32.389">  1  5  2 -1</clus>
<clus scale="   49.638">  1  3  2 -1</clus>
<clus scale="   77.151">  1  4  2 -1</clus>
<clus scale="   32.389">  1  3  2 -1</clus>
</clustering>
</event>
<event>
 6    0  0.2433432E+002  0.6332922E+02  0.7546771E-02  0.1384369E+00
          1   -1    0    0  504    0 -0.00000000000E+00  0.00000000000E+00  0.19738058591E+04  0.19738058591E+04  0.00000000000E+00 0.  1.
         21   -1    0    0  503  502  0.00000000000E+00 -0.00000000000E+00 -0.14668248000E+03  0.14668248000E+03  0.00000000000E+00 0. -1.
         21    1    1    2  503  501 -0.13358764028E+02  0.60916182191E+02 -0.12589088618E+03  0.14049111378E+03  0.00000000000E+00 0. -1.
         21    1    1    2  504  505 -0.26529856048E+02 -0.32862313390E+02  0.15091562312E+03  0.15671403959E+03  0.00000000000E+00 0. -1.
         21    1    1    2  505  502  0.30935972645E+02 -0.86348787428E+02  0.19923403872E+03  0.21933387718E+03  0.00000000000E+00 0. -1.
          1    1    1    2  501    0  0.89526474309E+01  0.58294918628E+02  0.16028646035E+04  0.16039493086E+04  0.00000000000E+00 0.  1.
<scales pt_clust_3="63.32922" pt_clust_4="42.23464" pt_clust_5="14000.00000" pt_clust_6="32.69509"></scales>
<clustering>
<clus scale="   42.235">  1  4  2 -1</clus>
<clus scale="   32.695">  1  6  2 -1</clus>
<clus scale="   63.329">  2  3  1 -1</clus>
<clus scale="   63.329">  2  3  1 -1</clus>
</clustering>
</event>
<event>
 6    0  0.2433432E+002  0.9759406E+02  0.7546771E-02  0.1285438E+00
         21   -1    0    0  504  502  0.00000000000E+00  0.00000000000E+00  0.18875821188E+03  0.18875821188E+03  0.00000000000E+00 0.  1.
         -4   -1    0    0    0  501 -0.00000000000E+00 -0.00000000000E+00 -0.28793305861E+03  0.28793305861E+03  0.00000000000E+00 0. -1.
         21    1    1    2  503  501 -0.44214469044E+02  0.15913970843E+03  0.37535699566E+02  0.16937914516E+03  0.00000000000E+00 0.  1.
         21    1    1    2  504  503  0.26732941946E+02 -0.56209134779E+02  0.50022968540E+00  0.62244415392E+02  0.00000000000E+00 0. -1.
         21    1    1    2  505  502 -0.42138864152E+02 -0.58519584712E+02  0.16807713504E+02  0.74045424573E+02  0.00000000000E+00 0.  1.
         -4    1    1    2    0  505  0.59620391250E+02 -0.44410988942E+02 -0.15401848948E+03  0.17102228537E+03  0.00000000000E+00 0. -1.
<scales pt_clust_3="14000.00000" pt_clust_4="62.24241" pt_clust_5="97.59406" pt_clust_6="77.33127"></scales>
<clustering>
<clus scale="   62.242">  1  4  2 -1</clus>
<clus scale="   77.331">  2  6  1 -1</clus>
<clus scale="   97.594">  2  5  1 -1</clus>
<clus scale="   62.242">  1  3  2 -1</clus>
</clustering>
</event>
<event>
 6    0  0.2433432E+002  0.1102552E+03  0.7546771E-02  0.1260098E+00
          2   -1    0    0  505    0 -0.00000000000E+00  0.00000000000E+00  0.34925312302E+03  0.34925312302E+03  0.00000000000E+00 0. -1.
         21   -1    0    0  504  502  0.00000000000E+00 -0.00000000000E+00 -0.16466756574E+03  0.16466756574E+03  0.00000000000E+00 0. -1.
         21    1    1    2  503  501 -0.24971960214E+02  0.78225545536E+02  0.55666166844E+02  0.99204621377E+02  0.00000000000E+00 0. -1.
         21    1    1    2  504  503  0.49429655744E+02  0.66285218184E+02 -0.72379943797E+01  0.83002467308E+02  0.00000000000E+00 0. -1.
         21    1    1    2  505  502 -0.47152206464E+02 -0.16415558928E+03 -0.20669959130E+02  0.17203963287E+03  0.00000000000E+00 0. -1.
          2    1    1    2  501    0  0.22694510934E+02  0.19644825561E+02  0.15682734394E+03  0.15967396721E+03  0.00000000000E+00 0. -1.
<scales pt_clust_3="87.62092" pt_clust_4="14000.00000" pt_clust_5="110.25524" pt_clust_6="30.01600"></scales>
<clustering>
<clus scale="   30.016">  1  6  2 -1</clus>
<clus scale="   87.621">  1  3  2 -1</clus>
<clus scale="  110.255">  1  5  2 -1</clus>
<clus scale="  110.255">  2  3  1 -1</clus>
</clustering>
</event>
<event>
 6    0  0.2433432E+002  0.1087258E+03  0.7546771E-02  0.1262948E+00
         21   -1    0    0  504  502  0.00000000000E+00  0.00000000000E+00  0.15003257252E+04  0.15003257252E+04  0.00000000000E+00 0.  1.
         -1   -1    0    0    0  501 -0.00000000000E+00 -0.00000000000E+00 -0.47591203372E+03  0.47591203372E+03  0.00000000000E+00 0.  1.
         21    1    1    2  503  501  0.81981783940E+02 -0.13027021849E+03  0.40514093989E+03  0.43339418997E+03  0.00000000000E+00 0.  1.
         21    1    1    2  504  503  0.42220882170E+02 -0.70212672428E+02  0.68052327696E+03  0.68543734415E+03  0.00000000000E+00 0.  1.
         21    1    1    2  505  502 -0.38586879378E+02  0.13438121378E+03  0.37905101352E+03  0.40401352543E+03  0.00000000000E+00 0. -1.
         -1    1    1    2    0  505 -0.85615786732E+02  0.66101677133E+02 -0.44030153891E+03  0.45339269935E+03  0.00000000000E+00 0.  1.
<scales pt_clust_3="108.72585" pt_clust_4="81.92937" pt_clust_5="102.40691" pt_clust_6="14000.00000"></scales>
<clustering>
<clus scale="   81.929">  1  4  2 -1</clus>
<clus scale="  102.407">  1  5  2 -1</clus>
<clus scale="  108.726">  1  3  2 -1</clus>
<clus scale="   81.929">  1  3  2 -1</clus>
</clustering>
</event>
<event>
 6    0  0.2433432E+002  0.1019725E+03  0.7546771E-02  0.1276202E+00
         -1   -1    0    0    0  501 -0.00000000000E+00  0.00000000000E+00  0.76765652615E+03  0.76765652615E+03  0.00000000000E+00 0.  1.
         21   -1    0    0  503  502  0.00000000000E+00 -0.00000000000E+00 -0.21562964722E+03  0.21562964722E+03  0.00000000000E+00 0.  1.
         21    1    1    2  503  505 -0.70490429978E+02  0.15719631825E+03 -0.11632917656E+03  0.20787510796E+03  0.00000000000E+00 0.  1.
         21    1    1    2  504  502  0.43400153768E+02 -0.67338205322E+02  0.52603986948E+01  0.80284986376E+02  0.00000000000E+00 0.  1.
         21    1    1    2  505  501  0.36923320323E+02  0.29605538478E+02  0.44292418572E+02  0.64820041925E+02  0.00000000000E+00 0. -1.
         -1    1    1    2    0  504 -0.98330441129E+01 -0.11946365141E+03  0.61880323823E+03  0.63030603710E+03  0.00000000000E+00 0.  1.
<scales pt_clust_3="14000.00000" pt_clust_4="79.86957" pt_clust_5="47.32673" pt_clust_6="101.97249"></scales>
<clustering>
<clus scale="   47.327">  1  5  2 -1</clus>
<clus scale="   79.870">  2  4  1 -1</clus>
<clus scale="  101.972">  1  6  2 -1</clus>
<clus scale="   79.870">  2  3  1 -1</clus>
</clustering>
</event>
<event>
 6    0  0.2433432E+002  0.7831822E+02  0.7546771E-02  0.1333893E+00
          2   -1    0    0  503    0 -0.00000000000E+00  0.00000000000E+00  0.47215467757E+04  0.47215467757E+04  0.00000000000E+00 0.  1.
         21   -1    0    0  505  502  0.00000000000E+00 -0.00000000000E+00 -0.29320419538E+03  0.29320419538E+03  0.00000000000E+00 0. -1.
         21    1    1    2  503  504 -0.77192771128E+01 -0.41965327411E+02  0.13235222473E+03  0.13906037299E+03  0.00000000000E+00 0. -1.
         21    1    1    2  504  502 -0.55477045694E+02  0.45942138251E+02  0.94735150844E+03  0.95008592411E+03  0.00000000000E+00 0. -1.
         21    1    1    2  505  501 -0.31792759498E+02 -0.71539510651E+02 -0.28221918134E+03  0.29287599331E+03  0.00000000000E+00 0. -1.
          2    1    1    2  501    0  0.94989082305E+02  0.67562699811E+02  0.36308580286E+04  0.36327286807E+04  0.00000000000E+00 0.  1.
<scales pt_clust_3="42.66938" pt_clust_4="68.15993" pt_clust_5="14000.00000" pt_clust_6="78.31822"></scales>
<clustering>
<clus scale="   42.669">  1  3  2 -1</clus>
<clus scale="   68.160">  1  4  2 -1</clus>
<clus scale="   78.318">  1  6  2 -1</clus>
<clus scale="   78.318">  2  3  1 -1</clus>
</clustering>
</event>
<event>
 6    0  0.2433432E+002  0.1796487E+03  0.7546771E-02  0.1168143E+00
         21   -1    0    0  501  502  0.00000000000E+00  0.00000000000E+00  0.11535240997E+02  0.11535240997E+02  0.00000000000E+00 0.  1.
          2   -1    0    0  504    0 -0.00000000000E+00 -0.00000000000E+00 -0.33387686246E+04  0.33387686246E+04  0.00000000000E+00 0.  1.
         21    1    1    2  503  502  0.13219355712E+03 -0.96193608553E+01 -0.11982007039E+04  0.12055092681E+04  0.00000000000E+00 0.  1.
         21    1    1    2  504  505 -0.43755612323E+01 -0.39183206771E+02 -0.33554630274E+03  0.33785468845E+03  0.00000000000E+00 0.  1.
         21    1    1    2  505  503  0.30194270569E+02 -0.30799417624E+02 -0.34065278998E+03  0.34337242380E+03  0.00000000000E+00 0.  1.
          2    1    1    2  501    0 -0.15801226646E+03  0.79601985250E+02 -0.14528335870E+04  0.14635674853E+04  0.00000000000E+00 0.  1.
<scales pt_clust_3="31.04071" pt_clust_4="39.42676" pt_clust_5="31.04071" pt_clust_6="171.20956"></scales>
<clustering>
<clus scale="   31.041">  3  5 -1 -1</clus>
<clus scale="   39.427">  2  4  1 -1</clus>
<clus scale="  171.210">  1  6  2 -1</clus>
<clus scale="  171.210">  1  3  2 -1</clus>
</clustering>
</event>
<event>
 6    0  0.2433432E+002  0.7931215E+02  0.7546771E-02  0.1331015E+00
         21   -1    0    0  503  502  0.00000000000E+00  0.00000000000E+00  0.11647158783E+03  0.11647158783E+03  0.00000000000E+00 0. -1.
          2   -1    0    0  505    0 -0.00000000000E+00 -0.00000000000E+00 -0.80536556747E+03  0.80536556747E+03  0.00000000000E+00 0.  1.
         21    1    1    2  503  501  0.88573858491E+02  0.17352345805E+02 -0.15936559278E+03  0.18314973239E+03  0.00000000000E+00 0. -1.
         21    1    1    2  504  502 -0.71823840012E+02 -0.31658889963E+02  0.82347786090E+02  0.11376338243E+03  0.00000000000E+00 0. -1.
         21    1    1    2  505  504  0.22328605257E+01  0.52786600720E+02 -0.11921559458E+03  0.13039850027E+03  0.00000000000E+00 0. -1.
          2    1    1    2  501    0 -0.18982879004E+02 -0.38480056562E+02 -0.49266057838E+03  0.49452554022E+03  0.00000000000E+00 0.  1.
<scales pt_clust_3="79.31215" pt_clust_4="14000.00000" pt_clust_5="37.76568" pt_clust_6="42.90763"></scales>
<clustering>
<clus scale="   42.908">  2  6  1 -1</clus>
<clus scale="   37.766">  2  5  1 -1</clus>
<clus scale="   79.312">  2  3  1 -1</clus>
<clus scale="   79.312">  1  3  2 -1</clus>
</clustering>
</event>
<event>
 6    0  0.2433432E+002  0.9135543E+02  0.7546771E-02  0.1299602E+00
          2   -1    0    0  503    0 -0.00000000000E+00  0.00000000000E+00  0.12166948041E+03  0.12166948041E+03  0.00000000000E+00 0.  1.
         21   -1    0    0  504  502  0.00000000000E+00 -0.00000000000E+00 -0.23072207949E+03  0.23072207949E+03  0.00000000000E+00 0. -1.
         21    1    1    2  503  505 -0.57097121712E+02  0.63468404198E+02  0.49244296905E+01  0.85513564111E+02  0.00000000000E+00 0. -1.
         21    1    1    2  504  501  0.35022322163E+02 -0.26428948386E+02 -0.54197998287E+02  0.69731451877E+02  0.00000000000E+00 0. -1.
         21    1    1    2  505  502 -0.21667898135E+02  0.52077352783E+02 -0.77956592295E+02  0.96222548110E+02  0.00000000000E+00 0. -1.
          2    1    1    2  501    0  0.43742697684E+02 -0.89116808596E+02  0.18177561815E+02  0.10092399580E+03  0.00000000000E+00 0.  1.
<scales pt_clust_3="91.35543" pt_clust_4="43.87542" pt_clust_5="38.60600" pt_clust_6="14000.00000"></scales>
<clustering>
<clus scale="   43.875">  2  4  1 -1</clus>
<clus scale="   38.606">  2  5  1 -1</clus>
<clus scale="   91.355">  1  3  2 -1</clus>
<clus scale="   43.875">  2  3  1 -1</clus>
</clustering>
</event>
<event>
 6    0  0.2433432E+002  0.1478779E+03  0.7546771E-02  0.1203105E+00
          2   -1    0    0  504    0 -0.00000000000E+00  0.00000000000E+00  0.19512200945E+04  0.19512200945E+04  0.00000000000E+00 0. -1.
         21   -1    0    0  503  502  0.00000000000E+00 -0.00000000000E+00 -0.48508333283E+02  0.48508333283E+02  0.00000000000E+00 0. -1.
         21    1    1    2  503  501 -0.12341174732E+03  0.44873210406E+02  0.42875937829E+03  0.44841796225E+03  0.00000000000E+00 0. -1.
         21    1    1    2  504  505  0.16335054547E+03 -0.18677730500E+02  0.28307404847E+03  0.32735787028E+03  0.00000000000E+00 0. -1.
         21    1    1    2  505  502 -0.23339818363E+02 -0.62823106213E+02  0.53208818896E+02  0.85572590260E+02  0.00000000000E+00 0. -1.
          2    1    1    2  501    0 -0.16598979779E+02  0.36627626306E+02  0.11376695155E+04  0.11383800050E+04  0.00000000000E+00 0. -1.
<scales pt_clust_3="147.87792" pt_clust_4="14000.00000" pt_clust_5="64.62723" pt_clust_6="40.21330"></scales>
<clustering>
<clus scale="   40.213">  1  6  2 -1</clus>
<clus scale="   64.627">  2  5  1 -1</clus>
<clus scale="  147.878">  1  3  2 -1</clus>
<clus scale="   64.627">  2  3  1 -1</clus>
</clustering>
</event>
<event>
 6    0  0.2433432E+002  0.1351818E+03  0.7546771E-02  0.1219963E+00
         21   -1    0    0  505  502  0.00000000000E+00  0.00000000000E+00  0.18093366424E+02  0.18093366424E+02  0.00000000000E+00 0. -1.
          2   -1    0    0  503    0 -0.00000000000E+00 -0.00000000000E+00 -0.17356453435E+04  0.17356453435E+04  0.00000000000E+00 0. -1.
         21    1    1    2  503  502 -0.13430908978E+03  0.62679754680E+01 -0.44148900066E+03  0.46150921640E+03  0.00000000000E+00 0. -1.
         21    1    1    2  504  501  0.49842666290E+02  0.38044699147E+02 -0.42916923902E+03  0.43372563475E+03  0.00000000000E+00 0. -1.
         21    1    1    2  505  504  0.62478601689E+02  0.13650386193E+02 -0.23731948063E+03  0.24578536287E+03  0.00000000000E+00 0. -1.
          2    1    1    2  501    0  0.21987821798E+02 -0.57963060808E+02 -0.60957425672E+03  0.61271849587E+03  0.00000000000E+00 0. -1.
<scales pt_clust_3="126.62772" pt_clust_4="46.85924" pt_clust_5="46.85924" pt_clust_6="61.99339"></scales>
<clustering>
<clus scale="   46.859">  4  5 -1 -1</clus>
<clus scale="   61.993">  2  6  1 -1</clus>
<clus scale="  126.628">  1  3  2 -1</clus>
<clus scale="  126.628">  1  3  2 -1</clus>
</clustering>
</event>
<event>
 6    0  0.2433432E+002  0.1831672E+03  0.7546771E-02  0.1164773E+00
         21   -1    0    0  505  502  0.00000000000E+00  0.00000000000E+00  0.60652970057E+03  0.60652970057E+03  0.00000000000E+00 0. -1.
          1   -1    0    0  504    0 -0.00000000000E+00 -0.00000000000E+00 -0.22755960719E+03  0.22755960719E+03  0.00000000000E+00 0. -1.
         21    1    1    2  503  502  0.13616170011E+02 -0.44979025718E+02  0.15936128609E+03  0.16614611745E+03  0.00000000000E+00 0. -1.
         21    1    1    2  504  503  0.61859159979E+02 -0.13002735329E+03  0.19839431118E+03  0.24514071670E+03  0.00000000000E+00 0. -1.
         21    1    1    2  505  501 -0.80796461922E+01  0.15298585947E+03  0.18744307106E+03  0.24208440422E+03  0.00000000000E+00 0. -1.
          1    1    1    2  501    0 -0.67395683798E+02  0.22020519539E+02 -0.16622857495E+03  0.18071806939E+03  0.00000000000E+00 0. -1.
<scales pt_clust_3="39.76121" pt_clust_4="39.76121" pt_clust_5="169.42896" pt_clust_6="70.90191"></scales>
<clustering>
<clus scale="   39.761">  3  4 -1 -1</clus>
<clus scale="   70.902">  2  6  1 -1</clus>
<clus scale="  169.429">  2  5  1 -1</clus>
<clus scale="  183.167">  1  3  2 -1</clus>
</clustering>
</event>
<event>
 6    0  0.2433432E+002  0.2301887E+03  0.7546771E-02  0.1126507E+00
         21   -1    0    0  505  502  0.00000000000E+00  0.00000000000E+00  0.87170709937E+02  0.87170709937E+02  0.00000000000E+00 0. -1.
          2   -1    0    0  503    0 -0.00000000000E+00 -0.00000000000E+00 -0.23229534003E+04  0.23229534003E+04  0.00000000000E+00 0. -1.
         21    1    1    2  503  504 -0.16009952813E+03 -0.13107640156E+03 -0.37006813482E+03  0.42398503083E+03  0.00000000000E+00 0. -1.
         21    1    1    2  504  502  0.33136149771E+02  0.28080787335E+02 -0.33439051037E+02  0.54815191081E+02  0.00000000000E+00 0. -1.
         21    1    1    2  505  501  0.30385484276E+03 -0.28890409293E+02 -0.53952497236E+03  0.61987871153E+03  0.00000000000E+00 0. -1.
          2    1    1    2  501    0 -0.17689146440E+03  0.13188602352E+03 -0.12927505321E+04  0.13114451768E+04  0.00000000000E+00 0. -1.
<scales pt_clust_3="191.60549" pt_clust_4="43.43426" pt_clust_5="14000.00000" pt_clust_6="230.18875"></scales>
<clustering>
<clus scale="   43.434">  1  4  2 -1</clus>
<clus scale="  191.605">  1  3  2 -1</clus>
<clus scale="  230.189">  2  6  1 -1</clus>
<clus scale="   43.434">  1  3  2 -1</clus>
</clustering>
</event>
<event>
 6    0  0.2433432E+002  0.3160615E+03  0.7546771E-02  0.1077476E+00
          2   -1    0    0  504    0 -0.00000000000E+00  0.00000000000E+00  0.65054577329E+03  0.65054577329E+03  0.00000000000E+00 0. -1.
         21   -1    0    0  505  502  0.00000000000E+00 -0.00000000000E+00 -0.30505982763E+03  0.30505982763E+03  0.00000000000E+00 0. -1.
         21    1    1    2  503  502  0.24417330677E+03 -0.94393635789E+02 -0.96728795528E+02  0.27908282301E+03  0.00000000000E+00 0. -1.
         21    1    1    2  504  503  0.65331972881E+02 -0.32989229486E+02  0.48630361861E+01  0.73349881142E+02  0.00000000000E+00 0. -1.
         21    1    1    2  505  501 -0.19127299121E+02  0.33475485311E+02 -0.27313125933E+02  0.47249005669E+02  0.00000000000E+00 0.  1.
          2    1    1    2  501    0 -0.29037798053E+03  0.93907379963E+02  0.46466483093E+03  0.55592389110E+03  0.00000000000E+00 0. -1.
<scales pt_clust_3="32.37736" pt_clust_4="32.37736" pt_clust_5="38.55466" pt_clust_6="310.07309"></scales>
<clustering>
<clus scale="   32.377">  3  4 -1 -1</clus>
<clus scale="   38.555">  2  5  1 -1</clus>
<clus scale="  310.073">  1  6  2 -1</clus>
<clus scale="   38.555">  2  3  1 -1</clus>
</clustering>
</event>
<event>
 6    0  0.2433432E+002  0.7387983E+02  0.7546771E-02  0.1347375E+00
          2   -1    0    0  505    0 -0.00000000000E+00  0.00000000000E+00  0.93539293291E+03  0.93539293291E+03  0.00000000000E+00 0.  1.
         21   -1    0    0  504  502  0.00000000000E+00 -0.00000000000E+00 -0.46282294552E+03  0.46282294552E+03  0.00000000000E+00 0. -1.
         21    1    1    2  503  502 -0.49875686112E+02  0.54680484879E+02 -0.25040217236E+03  0.26111068039E+03  0.00000000000E+00 0. -1.
         21    1    1    2  504  501  0.44631238689E+02 -0.58624192654E+02 -0.61197981677E+02  0.95780668157E+02  0.00000000000E+00 0.  1.
         21    1    1    2  505  503  0.41001575285E+01  0.66674406149E+02 -0.11873820239E+03  0.13623893876E+03  0.00000000000E+00 0. -1.
          2    1    1    2  501    0  0.11442898948E+01 -0.62730698374E+02  0.90290834382E+03  0.90508559112E+03  0.00000000000E+00 0.  1.
<scales pt_clust_3="73.87983" pt_clust_4="14000.00000" pt_clust_5="49.38883" pt_clust_6="62.74113"></scales>
<clustering>
<clus scale="   62.741">  1  6  2 -1</clus>
<clus scale="   49.389">  1  5  2 -1</clus>
<clus scale="   73.880">  2  3  1 -1</clus>
<clus scale="   73.880">  2  3  1 -1</clus>
</clustering>
</event>
<event>
 6    0  0.2433432E+002  0.1436691E+03  0.7546771E-02  0.1208475E+00
          2   -1    0    0  503    0 -0.00000000000E+00  0.00000000000E+00  0.23686261611E+04  0.23686261611E+04  0.00000000000E+00 0.  1.
         21   -1    0    0  504  502  0.00000000000E+00 -0.00000000000E+00 -0.75691280122E+02  0.75691280122E+02  0.00000000000E+00 0. -1.
         21    1    1    2  503  502 -0.20777090312E+02  0.14037660971E+03  0.42107757886E+02  0.14802142855E+03  0.00000000000E+00 0. -1.
         21    1    1    2  504  505  0.47926828055E+02 -0.60585437094E+02  0.12240399300E+03  0.14474223135E+03  0.00000000000E+00 0. -1.
         21    1    1    2  505  501  0.75444005892E+01 -0.59367118061E+02  0.67386078890E+02  0.90123561378E+02  0.00000000000E+00 0. -1.
          2    1    1    2  501    0 -0.34694138332E+02 -0.20424054559E+02  0.20610370512E+04  0.20614302199E+04  0.00000000000E+00 0.  1.
<scales pt_clust_3="137.71281" pt_clust_4="36.03292" pt_clust_5="36.03292" pt_clust_6="40.25947"></scales>
<clustering>
<clus scale="   36.033">  4  5 -1 -1</clus>
<clus scale="   40.259">  1  6  2 -1</clus>
<clus scale="  137.713">  2  3  1 -1</clus>
<clus scale="  137.713">  2  3  1 -1</clus>
</clustering>
</event>
<event>
 6    0  0.2433432E+002  0.1491238E+03  0.7546771E-02  0.1201554E+00
          2   -1    0    0  503    0 -0.00000000000E+00  0.00000000000E+00  0.22114569628E+04  0.22114569628E+04  0.00000000000E+00 0.  1.
         21   -1    0    0  504  502  0.00000000000E+00 -0.00000000000E+00 -0.17402740353E+03  0.17402740353E+03  0.00000000000E+00 0.  1.
         21    1    1    2  503  505 -0.19397678202E+02  0.43547761400E+02  0.46301724592E+03  0.46546497985E+03  0.00000000000E+00 0.  1.
         21    1    1    2  504  501  0.72039336487E+02 -0.12224144936E+03 -0.13787073509E+03  0.19784078835E+03  0.00000000000E+00 0.  1.
         21    1    1    2  505  502 -0.79461088750E+01  0.96027247093E+02  0.51501351458E+03  0.52394970467E+03  0.00000000000E+00 0. -1.
          2    1    1    2  501    0 -0.44695549411E+02 -0.17333559134E+02  0.11972695339E+04  0.11982288935E+04  0.00000000000E+00 0.  1.
<scales pt_clust_3="32.75400" pt_clust_4="141.66692" pt_clust_5="32.75400" pt_clust_6="47.93897"></scales>
<clustering>
<clus scale="   32.754">  3  5 -1 -1</clus>
<clus scale="   47.939">  1  6  2 -1</clus>
<clus scale="  141.667">  2  4  1 -1</clus>
<clus scale="  141.667">  2  3  1 -1</clus>
</clustering>
</event>
<event>
 6    0  0.2433432E+002  0.2206327E+03  0.7546771E-02  0.1133412E+00
          1   -1    0    0  503    0 -0.00000000000E+00  0.00000000000E+00  0.11735684323E+04  0.11735684323E+04  0.00000000000E+00 0. -1.
         21   -1    0    0  505  502  0.00000000000E+00 -0.00000000000E+00 -0.30621960548E+03  0.30621960548E+03  0.00000000000E+00 0. -1.
         21    1    1    2  503  502 -0.13106415427E+03  0.35839041608E+01  0.73836839479E+01  0.13132088826E+03  0.00000000000E+00 0.  1.
         21    1    1    2  504  501  0.10220109564E+03 -0.38536522281E+02 -0.66349726631E+02  0.12779833224E+03  0.00000000000E+00 0. -1.
         21    1    1    2  505  504  0.14687834622E+03  0.86419856917E+02 -0.92397366337E+02  0.19385281418E+03  0.00000000000E+00 0. -1.
          1    1    1    2  501    0 -0.11801528760E+03 -0.51467238797E+02  0.10187122359E+04  0.10268160031E+04  0.00000000000E+00 0. -1.
<scales pt_clust_3="186.42246" pt_clust_4="94.47359" pt_clust_5="94.47359" pt_clust_6="128.74970"></scales>
<clustering>
<clus scale="   94.474">  4  5 -1 -1</clus>
<clus scale="  128.750">  1  6  2 -1</clus>
<clus scale="  186.422">  1  3  2 -1</clus>
<clus scale="  220.633">  2  3  1 -1</clus>
</clustering>
</event>
<event>
 6    0  0.2433432E+002  0.1232495E+03  0.7546771E-02  0.1237831E+00
         21   -1    0    0  501  502  0.00000000000E+00  0.00000000000E+00  0.14890570093E+03  0.14890570093E+03  0.00000000000E+00 0.  1.
          1   -1    0    0  505    0 -0.00000000000E+00 -0.00000000000E+00 -0.28462355163E+03  0.28462355163E+03  0.00000000000E+00 0. -1.
         21    1    1    2  503  502 -0.94385346276E-02 -0.13069661207E+03  0.64205738226E+02  0.14561586905E+03  0.00000000000E+00 0.  1.
         21    1    1    2  504  503 -0.45799610039E+02  0.81955476677E+01 -0.16606406220E+02  0.49401862403E+02  0.00000000000E+00 0.  1.
         21    1    1    2  505  504 -0.17420374959E+02  0.34649911288E+02 -0.23043884354E+02  0.45112153818E+02  0.00000000000E+00 0.  1.
          1    1    1    2  501    0  0.63229423533E+02  0.87851153119E+02 -0.16027329835E+03  0.19339936729E+03  0.00000000000E+00 0. -1.
<scales pt_clust_3="123.24953" pt_clust_4="85.79484" pt_clust_5="35.69134" pt_clust_6="14000.00000"></scales>
<clustering>
<clus scale="   35.691">  4  5 -1 -1</clus>
<clus scale="   85.795">  2  4  1 -1</clus>
<clus scale="  123.250">  1  3  2 -1</clus>
<clus scale="  123.250">  1  3  2 -1</clus>
</clustering>
</event>
<event>
 6    0  0.2433432E+002  0.8282088E+02  0.7546771E-02  0.1321232E+00
          1   -1    0    0  503    0 -0.00000000000E+00  0.00000000000E+00  0.33522534453E+03  0.33522534453E+03  0.00000000000E+00 0.  1.
         21   -1    0    0  505  502  0.00000000000E+00 -0.00000000000E+00 -0.30696963914E+03  0.30696963914E+03  0.00000000000E+00 0.  1.
         21    1    1    2  503  502 -0.27137544543E+02  0.42237821928E+02 -0.16672828750E+02  0.52900502300E+02  0.00000000000E+00 0. -1.
         21    1    1    2  504  501 -0.46128711646E+02 -0.15369666287E+02 -0.41467562055E+02  0.63903391011E+02  0.00000000000E+00 0. -1.
         21    1    1    2  505  504  0.10209171517E+03 -0.50633914550E+02 -0.20342609022E+03  0.23317093685E+03  0.00000000000E+00 0.  1.
          1    1    1    2  501    0 -0.28825458979E+02  0.23765758908E+02  0.28982218641E+03  0.29222015351E+03  0.00000000000E+00 0.  1.
<scales pt_clust_3="82.82088" pt_clust_4="54.25364" pt_clust_5="14000.00000" pt_clust_6="37.35931"></scales>
<clustering>
<clus scale="   37.359">  1  6  2 -1</clus>
<clus scale="   54.254">  1  4  2 -1</clus>
<clus scale="   82.821">  1  3  2 -1</clus>
<clus scale="   82.821">  2  3  1 -1</clus>
</clustering>
</event>
<event>
 6    0  0.2433432E+002  0.2770048E+03  0.7546771E-02  0.1097336E+00
         -3   -1    0    0    0  501 -0.00000000000E+00  0.00000000000E+00  0.48497656024E+03  0.48497656024E+03  0.00000000000E+00 0. -1.
         21   -1    0    0  503  502  0.00000000000E+00 -0.00000000000E+00 -0.36547124571E+03  0.36547124571E+03  0.00000000000E+00 0.  1.
         21    1    1    2  503  505 -0.74227367033E+02 -0.12051804241E+02 -0.10525590749E+03  0.12935901230E+03  0.00000000000E+00 0.  1.
         21    1    1    2  504  501  0.30153837711E+02 -0.61680471805E+02 -0.64526795609E+02  0.94220177681E+02  0.00000000000E+00 0.  1.
         21    1    1    2  505  504 -0.34061554175E+02 -0.18085781466E+03 -0.54557452910E+02  0.19195378158E+03  0.00000000000E+00 0.  1.
         -3    1    1    2    0  502  0.78135083497E+02  0.25459009070E+03  0.34384547053E+03  0.43491483438E+03  0.00000000000E+00 0. -1.
<scales pt_clust_3="75.19939" pt_clust_4="57.53836" pt_clust_5="57.53836" pt_clust_6="260.49427"></scales>
<clustering>
<clus scale="   57.538">  4  5 -1 -1</clus>
<clus scale="   75.199">  2  3  1 -1</clus>
<clus scale="  260.494">  1  6  2 -1</clus>
<clus scale="   75.199">  2  3  1 -1</clus>
</clustering>
</event>
<event>
 6    0  0.2433432E+002  0.7639586E+02  0.7546771E-02  0.1339602E+00
          2   -1    0    0  502    0 -0.00000000000E+00  0.00000000000E+00  0.26699802106E+04  0.26699802106E+04  0.00000000000E+00 0. -1.
         21   -1    0    0  505  502  0.00000000000E+00 -0.00000000000E+00 -0.68158056551E+02  0.68158056551E+02  0.00000000000E+00 0.  1.
         21    1    1    2  503  501  0.62959885550E+02 -0.24771173510E+02  0.45658610179E+03  0.46157169169E+03  0.00000000000E+00 0.  1.
         21    1    1    2  504  503  0.38462116413E+02 -0.48760468996E+02  0.15806754314E+03  0.16983010902E+03  0.00000000000E+00 0.  1.
         21    1    1    2  505  504 -0.63542449211E+02  0.46928522865E+02 -0.33309042450E+02  0.85728766578E+02  0.00000000000E+00 0.  1.
          2    1    1    2  501    0 -0.37879552753E+02  0.26603119641E+02  0.20204775516E+04  0.20210076998E+04  0.00000000000E+00 0. -1.
<scales pt_clust_3="36.66276" pt_clust_4="76.39586" pt_clust_5="14000.00000" pt_clust_6="46.28808"></scales>
<clustering>
<clus scale="   46.288">  1  6  2 -1</clus>
<clus scale="   36.663">  1  3  2 -1</clus>
<clus scale="   76.396">  1  4  2 -1</clus>
<clus scale="   76.396">  2  3  1 -1</clus>
</clustering>
</event>
<event>
 6    0  0.2433432E+002  0.1190564E+03  0.7546771E-02  0.1244662E+00
         21   -1    0    0  504  502  0.00000000000E+00  0.00000000000E+00  0.86909133732E+02  0.86909133732E+02  0.00000000000E+00 0. -1.
          2   -1    0    0  503    0 -0.00000000000E+00 -0.00000000000E+00 -0.20725988813E+04  0.20725988813E+04  0.00000000000E+00 0. -1.
         21    1    1    2  503  502 -0.30449343972E+02 -0.21631611190E+02 -0.46517325158E+02  0.59656941682E+02  0.00000000000E+00 0. -1.
         21    1    1    2  504  505  0.42719279977E+02 -0.22792938005E+02  0.28902726843E+02  0.56389915088E+02  0.00000000000E+00 0.  1.
         21    1    1    2  505  501  0.12445243132E+02 -0.60329633008E+02  0.10046314451E+02  0.62413757534E+02  0.00000000000E+00 0. -1.
          2    1    1    2  501    0 -0.24715179137E+02  0.10475418220E+03 -0.19781214637E+04  0.19810474007E+04  0.00000000000E+00 0. -1.
<scales pt_clust_3="37.35089" pt_clust_4="40.44730" pt_clust_5="40.44730" pt_clust_6="107.37608"></scales>
<clustering>
<clus scale="   37.351">  1  3  2 -1</clus>
<clus scale="   40.447">  4  5 -1 -1</clus>
<clus scale="  107.376">  2  6  1 -1</clus>
<clus scale="   37.351">  1  3  2 -1</clus>
</clustering>
</event>
<event>
 6    0  0.2433432E+002  0.1294774E+03  0.7546771E-02  0.1228233E+00
          1   -1    0    0  505    0 -0.00000000000E+00  0.00000000000E+00  0.10224807126E+04  0.10224807126E+04  0.00000000000E+00 0. -1.
         21   -1    0    0  503  502  0.00000000000E+00 -0.00000000000E+00 -0.66440808380E+02  0.66440808380E+02  0.00000000000E+00 0. -1.
         21    1    1    2  503  504 -0.37026550653E+02 -0.45620545820E+02  0.73206394387E+01  0.59209723998E+02  0.00000000000E+00 0. -1.
         21    1    1    2  504  501 -0.56214409577E+02 -0.15630054432E+02  0.30682457818E+02  0.65922467061E+02  0.00000000000E+00 0. -1.
         21    1    1    2  505  502  0.61256848034E+02 -0.61202760335E+02  0.85508048378E+02  0.12169554487E+03  0.00000000000E+00 0. -1.
          1    1    1    2  501    0  0.31984112196E+02  0.12245336059E+03  0.83252875863E+03  0.84209378510E+03  0.00000000000E+00 0. -1.
<scales pt_clust_3="41.90491" pt_clust_4="41.90491" pt_clust_5="86.59203" pt_clust_6="122.45850"></scales>
<clustering>
<clus scale="   41.905">  3  4 -1 -1</clus>
<clus scale="   86.592">  2  5  1 -1</clus>
<clus scale="  122.458">  1  6  2 -1</clus>
<clus scale="   86.592">  2  3  1 -1</clus>
</clustering>
</event>
<event>
 6    0  0.2433432E+002  0.1047277E+03  0.7546771E-02  0.1270657E+00
         21   -1    0    0  503  502  0.00000000000E+00  0.00000000000E+00  0.36570263728E+03  0.36570263728E+03  0.00000000000E+00 0.  1.
          2   -1    0    0  505    0 -0.00000000000E+00 -0.00000000000E+00 -0.57875302969E+03  0.57875302969E+03  0.00000000000E+00 0.  1.
         21    1    1    2  503  504  0.15753418744E+02 -0.52532168881E+02 -0.21194846353E+01  0.54884343711E+02  0.00000000000E+00 0.  1.
         21    1    1    2  504  501 -0.23028064556E+02 -0.45598674251E+02  0.39480392842E+01  0.51235904060E+02  0.00000000000E+00 0.  1.
         21    1    1    2  505  502 -0.56961775544E+02  0.23692593839E+02  0.30401340656E+03  0.31020982293E+03  0.00000000000E+00 0.  1.
          2    1    1    2  501    0  0.64236421356E+02  0.74438249293E+02 -0.51889235362E+03  0.52812559627E+03  0.00000000000E+00 0.  1.
<scales pt_clust_3="38.30881" pt_clust_4="38.30881" pt_clust_5="61.69265" pt_clust_6="96.91393"></scales>
<clustering>
<clus scale="   38.309">  3  4 -1 -1</clus>
<clus scale="   61.693">  1  5  2 -1</clus>
<clus scale="   96.914">  2  6  1 -1</clus>
<clus scale="   61.693">  1  3  2 -1</clus>
</clustering>
</event>
<event>
 6    0  0.2433432E+002  0.7974681E+02  0.7546771E-02  0.1329771E+00
         21   -1    0    0  505  502  0.00000000000E+00  0.00000000000E+00  0.19248271087E+03  0.19248271087E+03  0.00000000000E+00 0.  1.
          1   -1    0    0  503    0 -0.00000000000E+00 -0.00000000000E+00 -0.14109687014E+04  0.14109687014E+04  0.00000000000E+00 0. -1.
         21    1    1    2  503  502 -0.61485362181E+02 -0.15240782733E+02  0.57143804095E+00  0.63348699768E+02  0.00000000000E+00 0. -1.
         21    1    1    2  504  501  0.17888820096E+02  0.63836756751E+02 -0.10354303195E+03  0.12294836665E+03  0.00000000000E+00 0. -1.
         21    1    1    2  505  504  0.78529899216E+02 -0.55487732454E+02  0.13521487338E+03  0.16591833988E+03  0.00000000000E+00 0.  1.
          1    1    1    2  501    0 -0.34933357131E+02  0.68917584369E+01 -0.12507292700E+04  0.12512360059E+04  0.00000000000E+00 0. -1.
<scales pt_clust_3="14000.00000" pt_clust_4="69.05453" pt_clust_5="79.74681" pt_clust_6="35.60668"></scales>
<clustering>
<clus scale="   35.607">  2  6  1 -1</clus>
<clus scale="   69.055">  2  4  1 -1</clus>
<clus scale="   79.747">  1  5  2 -1</clus>
<clus scale="   79.747">  1  3  2 -1</clus>
</clustering>
</event>
<event>
 6    0  0.2433432E+002  0.9165506E+02  0.7546771E-02  0.1298893E+00
         21   -1    0    0  505  502  0.00000000000E+00  0.00000000000E+00  0.37032024908E+02  0.37032024908E+02  0.00000000000E+00 0.  1.
          2   -1    0    0  503    0 -0.00000000000E+00 -0.00000000000E+00 -0.12609848899E+04  0.12609848899E+04  0.00000000000E+00 0.  1.
         21    1    1    2  503  504 -0.22398891784E+02 -0.69591647601E+02 -0.19712378681E+03  0.21024389431E+03  0.00000000000E+00 0.  1.
         21    1    1    2  504  502  0.11971363780E+02 -0.54884654501E+02 -0.32550775958E+02  0.64924508977E+02  0.00000000000E+00 0.  1.
         21    1    1    2  505  501  0.49021666706E+02  0.11444422025E+03 -0.26833951078E+03  0.29581530792E+03  0.00000000000E+00 0.  1.
          2    1    1    2  501    0 -0.38594138702E+02  0.10032081849E+02 -0.72593879143E+03  0.72703320359E+03  0.00000000000E+00 0.  1.
<scales pt_clust_3="14000.00000" pt_clust_4="54.62773" pt_clust_5="91.65506" pt_clust_6="39.87669"></scales>
<clustering>
<clus scale="   39.877">  2  6  1 -1</clus>
<clus scale="   54.628">  1  4  2 -1</clus>
<clus scale="   91.655">  1  5  2 -1</clus>
<clus scale="   54.628">  1  3  2 -1</clus>
</clustering>
</event>
<event>
 6    0  0.2433432E+002  0.2057931E+03  0.7546771E-02  0.1144941E+00
         21   -1    0    0  501  502  0.00000000000E+00  0.00000000000E+00  0.26913432625E+03  0.26913432625E+03  0.00000000000E+00 0.  1.
          2   -1    0    0  504    0 -0.00000000000E+00 -0.00000000000E+00 -0.96019475291E+03  0.96019475291E+03  0.00000000000E+00 0.  1.
         21    1    1    2  503  505 -0.29585562609E+02 -0.81713913150E+02  0.36215745917E+02  0.94149080556E+02  0.00000000000E+00 0.  1.
         21    1    1    2  504  503  0.43573560632E-01 -0.48214219914E+02 -0.96500052670E+01  0.49170473886E+02  0.00000000000E+00 0. -1.
         21    1    1    2  505  502 -0.10028229698E+03 -0.38302408821E+02  0.15463143380E+03  0.18824052149E+03  0.00000000000E+00 0.  1.
          2    1    1    2  501    0  0.12982428603E+03  0.16823054188E+03 -0.87225760111E+03  0.89776900323E+03  0.00000000000E+00 0.  1.
<scales pt_clust_3="33.97590" pt_clust_4="33.97590" pt_clust_5="107.34810" pt_clust_6="200.67414"></scales>
<clustering>
<clus scale="   33.976">  3  4 -1 -1</clus>
<clus scale="  107.348">  1  5  2 -1</clus>
<clus scale="  200.674">  2  6  1 -1</clus>
<clus scale="  107.348">  1  3  2 -1</clus>
</clustering>
</event>
<event>
 6    0  0.2433432E+002  0.1136161E+03  0.7546771E-02  0.1254016E+00
         21   -1    0    0  505  502  0.00000000000E+00  0.00000000000E+00  0.17498834879E+03  0.17498834879E+03  0.00000000000E+00 0.  1.
          2   -1    0    0  504    0 -0.00000000000E+00 -0.00000000000E+00 -0.83361326478E+03  0.83361326478E+03  0.00000000000E+00 0.  1.
         21    1    1    2  503  502 -0.42484181577E+02  0.43472023865E+02 -0.49027748266E+03  0.49403110484E+03  0.00000000000E+00 0.  1.
         21    1    1    2  504  503 -0.21062116381E+02  0.21683622467E+02 -0.46306108438E+02  0.55299619424E+02  0.00000000000E+00 0.  1.
         21    1    1    2  505  501  0.11800117419E+03  0.38727092443E+01  0.13984552362E+03  0.18301924889E+03  0.00000000000E+00 0.  1.
          2    1    1    2  501    0 -0.54454876234E+02 -0.69028355576E+02 -0.26188684850E+03  0.27625164042E+03  0.00000000000E+00 0.  1.
<scales pt_clust_3="79.78919" pt_clust_4="30.22900" pt_clust_5="14000.00000" pt_clust_6="113.61612"></scales>
<clustering>
<clus scale="   30.229">  2  4  1 -1</clus>
<clus scale="   79.789">  2  3  1 -1</clus>
<clus scale="  113.616">  2  6  1 -1</clus>
<clus scale="  113.616">  1  3  2 -1</clus>
</clustering>
</event>
<event>
 6    0  0.2433432E+002  0.1036142E+03  0.7546771E-02  0.1272874E+00
         21   -1    0    0  504  502  0.00000000000E+00  0.00000000000E+00  0.75106865426E+02  0.75106865426E+02  0.00000000000E+00 0. -1.
          2   -1    0    0  503    0 -0.00000000000E+00 -0.00000000000E+00 -0.18241861934E+04  0.18241861934E+04  0.00000000000E+00 0.  1.
         21    1    1    2  503  502 -0.59964230689E+02 -0.40427883038E+02 -0.47273720510E+02  0.86399810995E+02  0.00000000000E+00 0. -1.
         21    1    1    2  504  505  0.48745182050E+02  0.21616914018E+02  0.13981765511E+01  0.53341715780E+02  0.00000000000E+00 0. -1.
         21    1    1    2  505  501  0.81489747438E+02  0.36341001131E+01 -0.33308163330E+02  0.88109133270E+02  0.00000000000E+00 0. -1.
          2    1    1    2  501    0 -0.70270698799E+02  0.15176868907E+02 -0.16698956207E+04  0.16714423988E+04  0.00000000000E+00 0.  1.
<scales pt_clust_3="96.66728" pt_clust_4="30.15845" pt_clust_5="30.15845" pt_clust_6="71.89095"></scales>
<clustering>
<clus scale="   30.158">  4  5 -1 -1</clus>
<clus scale="   71.891">  2  6  1 -1</clus>
<clus scale="   96.667">  1  3  2 -1</clus>
<clus scale="   96.667">  1  3  2 -1</clus>
</clustering>
</event>
<event>
 6    0  0.2433432E+002  0.9591809E+02  0.7546771E-02  0.1289122E+00
         21   -1    0    0  504  502  0.00000000000E+00  0.00000000000E+00  0.78092418938E+02  0.78092418938E+02  0.00000000000E+00 0.  1.
          2   -1    0    0  505    0 -0.00000000000E+00 -0.00000000000E+00 -0.17128454130E+04  0.17128454130E+04  0.00000000000E+00 0. -1.
         21    1    1    2  503  502 -0.74054597590E+01 -0.11666250833E+03  0.10128444062E+02  0.11733527629E+03  0.00000000000E+00 0.  1.
         21    1    1    2  504  501 -0.32560548837E+02  0.11190547780E+02 -0.48677316237E+02  0.59622972219E+02  0.00000000000E+00 0. -1.
         21    1    1    2  505  503  0.38551482677E+01  0.68849427114E+02 -0.13247971684E+03  0.14935187028E+03  0.00000000000E+00 0.  1.
          2    1    1    2  501    0  0.36110860329E+02  0.36622533435E+02 -0.14637244051E+04  0.14646277132E+04  0.00000000000E+00 0. -1.
<scales pt_clust_3="14000.00000" pt_clust_4="34.42990" pt_clust_5="95.91809" pt_clust_6="51.33929"></scales>
<clustering>
<clus scale="   34.430">  1  4  2 -1</clus>
<clus scale="   51.339">  2  6  1 -1</clus>
<clus scale="   95.918">  2  5  1 -1</clus>
<clus scale="   34.430">  1  3  2 -1</clus>
</clustering>
</event>
<event>
 6    0  0.2433432E+002  0.2331103E+03  0.7546771E-02  0.1124470E+00
          2   -1    0    0  505    0 -0.00000000000E+00  0.00000000000E+00  0.20608678303E+04  0.20608678303E+04  0.00000000000E+00 0.  1.
         21   -1    0    0  501  502  0.00000000000E+00 -0.00000000000E+00 -0.23575343552E+03  0.23575343552E+03  0.00000000000E+00 0. -1.
         21    1    1    2  503  504  0.13118569824E+03  0.60063215387E+02 -0.50835647541E+02  0.15297562004E+03  0.00000000000E+00 0. -1.
         21    1    1    2  504  502 -0.26242416735E+02 -0.52107260362E+02 -0.26898694839E+02  0.64244616915E+02  0.00000000000E+00 0.  1.
         21    1    1    2  505  503  0.11644364408E+03 -0.13686968298E+02 -0.40068567191E+02  0.12390296778E+03  0.00000000000E+00 0. -1.
          2    1    1    2  501    0 -0.22138692559E+03  0.57310132724E+01  0.19429173043E+04  0.19554980611E+04  0.00000000000E+00 0.  1.
<scales pt_clust_3="67.15657" pt_clust_4="58.34236" pt_clust_5="67.15657" pt_clust_6="222.29104"></scales>
<clustering>
<clus scale="   58.342">  2  4  1 -1</clus>
<clus scale="   67.157">  3  5 -1 -1</clus>
<clus scale="  222.291">  1  6  2 -1</clus>
<clus scale="   58.342">  2  3  1 -1</clus>
</clustering>
</event>
<event>
 6    0  0.2433432E+002  0.1668866E+03  0.7546771E-02  0.1181134E+00
         21   -1    0    0  501  502  0.00000000000E+00  0.00000000000E+00  0.61791863620E+03  0.61791863620E+03  0.00000000000E+00 0.  1.
          2   -1    0    0  503    0 -0.00000000000E+00 -0.00000000000E+00 -0.20114070794E+04  0.20114070794E+04  0.00000000000E+00 0.  1.
         21    1    1    2  503  504 -0.51795586517E-01 -0.15013288390E+03 -0.12521667906E+03  0.19549706450E+03  0.00000000000E+00 0.  1.
         21    1    1    2  504  505 -0.64072704834E+02  0.19417942385E+03  0.28188547896E+03  0.34823897456E+03  0.00000000000E+00 0.  1.
         21    1    1    2  505  502  0.16370381670E+02 -0.35442406301E+02  0.26596714879E+03  0.26881718285E+03  0.00000000000E+00 0. -1.
          2    1    1    2  501    0  0.47754118751E+02 -0.86041336472E+01 -0.18161243918E+04  0.18167724936E+04  0.00000000000E+00 0.  1.
<scales pt_clust_3="166.88656" pt_clust_4="14000.00000" pt_clust_5="39.04041" pt_clust_6="48.54377"></scales>
<clustering>
<clus scale="   39.040">  1  5  2 -1</clus>
<clus scale="   48.544">  2  6  1 -1</clus>
<clus scale="  166.887">  2  3  1 -1</clus>
<clus scale="   39.040">  1  3  2 -1</clus>
</clustering>
</event>
<event>
 6    0  0.2433432E+002  0.9208889E+02  0.7546771E-02  0.1297871E+00
         21   -1    0    0  505  502  0.00000000000E+00  0.00000000000E+00  0.27631725922E+03  0.27631725922E+03  0.00000000000E+00 0. -1.
          2   -1    0    0  504    0 -0.00000000000E+00 -0.00000000000E+00 -0.95973296209E+03  0.95973296209E+03  0.00000000000E+00 0. -1.
         21    1    1    2  503  502  0.66857879953E+02 -0.97657449187E+01 -0.52727942094E+02  0.85706369443E+02  0.00000000000E+00 0. -1.
         21    1    1    2  504  503  0.67506219878E+02  0.19731950304E+02 -0.12014799643E+02  0.71349807256E+02  0.00000000000E+00 0. -1.
         21    1    1    2  505  501 -0.62420756055E+02 -0.36795803615E+02  0.22266580577E+03  0.23415879870E+03  0.00000000000E+00 0. -1.
          2    1    1    2  501    0 -0.71943343776E+02  0.26829598230E+02 -0.84133876690E+03  0.84483524592E+03  0.00000000000E+00 0. -1.
<scales pt_clust_3="47.23075" pt_clust_4="47.23075" pt_clust_5="72.45883" pt_clust_6="78.47535"></scales>
<clustering>
<clus scale="   47.231">  3  4 -1 -1</clus>
<clus scale="   72.459">  1  5  2 -1</clus>
<clus scale="   78.475">  2  6  1 -1</clus>
<clus scale="   72.459">  1  3  2 -1</clus>
</clustering>
</event>
<event>
 6    0  0.2433432E+002  0.2520418E+03  0.7546771E-02  0.1112021E+00
         -3   -1    0    0    0  501 -0.00000000000E+00  0.00000000000E+00  0.99976995660E+03  0.99976995660E+03  0.00000000000E+00 0. -1.
         21   -1    0    0  504  502  0.00000000000E+00 -0.00000000000E+00 -0.83181786408E+03  0.83181786408E+03  0.00000000000E+00 0.  1.
         21    1    1    2  503  502 -0.15840151737E+03 -0.32193144524E+02 -0.69276441601E+03  0.71137189666E+03  0.00000000000E+00 0.  1.
         21    1    1    2  504  505  0.11233239116E+03  0.22216484855E+03  0.84042285100E+02  0.26275252942E+03  0.00000000000E+00 0.  1.
         21    1    1    2  505  501 -0.94712883214E+01  0.42175088512E+02 -0.17528048723E+01  0.43261018462E+02  0.00000000000E+00 0.  1.
         -3    1    1    2    0  503  0.55540414532E+02 -0.23214679253E+03  0.77842702830E+03  0.81420237615E+03  0.00000000000E+00 0. -1.
<scales pt_clust_3="161.63984" pt_clust_4="33.37883" pt_clust_5="33.37883" pt_clust_6="238.97354"></scales>
<clustering>
<clus scale="   33.379">  4  5 -1 -1</clus>
<clus scale="  161.640">  2  3  1 -1</clus>
<clus scale="  238.974">  1  6  2 -1</clus>
<clus scale="  161.640">  2  3  1 -1</clus>
</clustering>
</event>
<event>
 6    0  0.2433432E+002  0.2293917E+03  0.7546771E-02  0.1127069E+00
          2   -1    0    0  505    0 -0.00000000000E+00  0.00000000000E+00  0.25433845288E+04  0.25433845288E+04  0.00000000000E+00 0. -1.
         21   -1    0    0  503  502  0.00000000000E+00 -0.00000000000E+00 -0.11958567211E+03  0.11958567211E+03  0.00000000000E+00 0. -1.
         21    1    1    2  503  501  0.42281476279E+01  0.71790102536E+02 -0.45362148738E+02  0.85025999510E+02  0.00000000000E+00 0. -1.
         21    1    1    2  504  502  0.72198707046E+02  0.11526620389E+02  0.57965060913E+02  0.93303079067E+02  0.00000000000E+00 0. -1.
         21    1    1    2  505  504  0.12611899594E+03 -0.11542715386E+03  0.19647366262E+03  0.26044448370E+03  0.00000000000E+00 0. -1.
          2    1    1    2  501    0 -0.20254585062E+03  0.32110430933E+02  0.22147222819E+04  0.22241966387E+04  0.00000000000E+00 0. -1.
<scales pt_clust_3="71.91451" pt_clust_4="66.28143" pt_clust_5="66.28143" pt_clust_6="205.78507"></scales>
<clustering>
<clus scale="   66.281">  4  5 -1 -1</clus>
<clus scale="   71.915">  2  3  1 -1</clus>
<clus scale="  205.785">  1  6  2 -1</clus>
<clus scale="   71.915">  2  3  1 -1</clus>
</clustering>
</event>
<event>
 6    0  0.2433432E+002  0.1373234E+03  0.7546771E-02  0.1216977E+00
          2   -1    0    0  503    0 -0.00000000000E+00  0.00000000000E+00  0.12855952138E+04  0.12855952138E+04  0.00000000000E+00 0.  1.
         21   -1    0    0  505  502  0.00000000000E+00 -0.00000000000E+00 -0.21929616916E+03  0.21929616916E+03  0.00000000000E+00 0. -1.
         21    1    1    2  503  504  0.28916503935E+02 -0.50096375081E+02 -0.22467749826E+01  0.57886604615E+02  0.00000000000E+00 0.  1.
         21    1    1    2  504  502 -0.17439776063E+02 -0.94112058202E+02 -0.13138134284E+02  0.96611779099E+02  0.00000000000E+00 0. -1.
         21    1    1    2  505  501  0.21254373552E+02  0.11953544348E+03 -0.10650048404E+03  0.16150177629E+03  0.00000000000E+00 0. -1.
          2    1    1    2  501    0 -0.32731101424E+02  0.24672989803E+02  0.11881844380E+04  0.11888912230E+04  0.00000000000E+00 0.  1.
<scales pt_clust_3="40.43357" pt_clust_4="40.43357" pt_clust_5="127.09230" pt_clust_6="40.98880"></scales>
<clustering>
<clus scale="   40.434">  3  4 -1 -1</clus>
<clus scale="   40.989">  1  6  2 -1</clus>
<clus scale="  127.092">  2  5  1 -1</clus>
<clus scale="  127.092">  2  3  1 -1</clus>
</clustering>
</event>
<event>
 6    0  0.2433432E+002  0.1448620E+03  0.7546771E-02  0.1206933E+00
          2   -1    0    0  504    0 -0.00000000000E+00  0.00000000000E+00  0.30586554567E+03  0.30586554567E+03  0.00000000000E+00 0. -1.
         21   -1    0    0  503  502  0.00000000000E+00 -0.00000000000E+00 -0.10794211622E+04  0.10794211622E+04  0.00000000000E+00 0.  1.
         21    1    1    2  503  501 -0.30741419836E+02 -0.17594295473E+01 -0.97642957151E+03  0.97691495976E+03  0.00000000000E+00 0.  1.
         21    1    1    2  504  505  0.40920787620E+01  0.49470966841E+02  0.51395571830E+02  0.71453666613E+02  0.00000000000E+00 0.  1.
         21    1    1    2  505  502  0.15789733368E+03 -0.52540839266E+02  0.60141671563E+02  0.17694385672E+03  0.00000000000E+00 0.  1.
          2    1    1    2  501    0 -0.13124799261E+03  0.48293019731E+01  0.91336711565E+02  0.15997422480E+03  0.00000000000E+00 0. -1.
<scales pt_clust_3="30.79173" pt_clust_4="49.31131" pt_clust_5="14000.00000" pt_clust_6="144.86199"></scales>
<clustering>
<clus scale="   30.792">  2  3  1 -1</clus>
<clus scale="   49.311">  1  4  2 -1</clus>
<clus scale="  144.862">  1  6  2 -1</clus>
<clus scale="   30.792">  2  3  1 -1</clus>
</clustering>
</event>
<event>
 6    0  0.2433432E+002  0.1073074E+03  0.7546771E-02  0.1265639E+00
          2   -1    0    0  504    0 -0.00000000000E+00  0.00000000000E+00  0.10444017442E+04  0.10444017442E+04  0.00000000000E+00 0. -1.
         21   -1    0    0  505  502  0.00000000000E+00 -0.00000000000E+00 -0.53890959412E+02  0.53890959412E+02  0.00000000000E+00 0. -1.
         21    1    1    2  503  501 -0.63780849931E+00  0.96971252105E+02  0.83598358553E+02  0.12803326164E+03  0.00000000000E+00 0. -1.
         21    1    1    2  504  502 -0.25933225446E+02 -0.56324309406E+02  0.11982411267E+03  0.13491767116E+03  0.00000000000E+00 0. -1.
         21    1    1    2  505  503 -0.21220207543E+01  0.50073834205E+02  0.83470512492E+01  0.50809104584E+02  0.00000000000E+00 0. -1.
          2    1    1    2  501    0  0.28693054700E+02 -0.90720776903E+02  0.77874126231E+03  0.78453266623E+03  0.00000000000E+00 0. -1.
<scales pt_clust_3="31.34279" pt_clust_4="62.00774" pt_clust_5="31.34279" pt_clust_6="98.05162"></scales>
<clustering>
<clus scale="   31.343">  3  5 -1 -1</clus>
<clus scale="   62.008">  2  4  1 -1</clus>
<clus scale="   98.052">  1  6  2 -1</clus>
<clus scale="   62.008">  2  3  1 -1</clus>
</clustering>
</event>
<event>
 6    0  0.2433432E+002  0.1492937E+03  0.7546771E-02  0.1201344E+00
          1   -1    0    0  504    0 -0.00000000000E+00  0.00000000000E+00  0.80739515188E+03  0.80739515188E+03  0.00000000000E+00 0. -1.
         21   -1    0    0  503  502  0.00000000000E+00 -0.00000000000E+00 -0.25809868685E+03  0.25809868685E+03  0.00000000000E+00 0.  1.
         21    1    1    2  503  501 -0.11789189721E+02 -0.37260529433E+02  0.10019310929E+02  0.40344995222E+02  0.00000000000E+00 0.  1.
         21    1    1    2  504  505  0.14002549492E+02 -0.29495123014E+02 -0.23971084810E+02  0.40504895764E+02  0.00000000000E+00 0. -1.
         21    1    1    2  505  502  0.52220412277E+02 -0.63372133332E+02 -0.19594635142E+03  0.21245698712E+03  0.00000000000E+00 0.  1.
          1    1    1    2  501    0 -0.54433772048E+02  0.13012778578E+03  0.75919459033E+03  0.77218696062E+03  0.00000000000E+00 0. -1.
<scales pt_clust_3="39.08110" pt_clust_4="32.25278" pt_clust_5="32.25278" pt_clust_6="140.25826"></scales>
<clustering>
<clus scale="   32.253">  4  5 -1 -1</clus>
<clus scale="   39.081">  2  3  1 -1</clus>
<clus scale="  140.258">  1  6  2 -1</clus>
<clus scale="   39.081">  2  3  1 -1</clus>
</clustering>
</event>
<event>
 6    0  0.2433432E+002  0.7298389E+02  0.7546771E-02  0.1350230E+00
         21   -1    0    0  503  502  0.00000000000E+00  0.00000000000E+00  0.18023734654E+04  0.18023734654E+04  0.00000000000E+00 0.  1.
         -1   -1    0    0    0  501 -0.00000000000E+00 -0.00000000000E+00 -0.67670414899E+02  0.67670414899E+02  0.00000000000E+00 0. -1.
         21    1    1    2  503  501  0.11457533401E+01  0.34324600892E+02  0.14553386800E+03  0.14953125998E+03  0.00000000000E+00 0. -1.
         21    1    1    2  504  505  0.10691043612E+03 -0.41760360711E+02  0.91128257020E+03  0.91848227627E+03  0.00000000000E+00 0.  1.
         21    1    1    2  505  502 -0.36056549363E+02  0.29215698910E+01  0.71838765857E+03  0.71929787870E+03  0.00000000000E+00 0.  1.
         -1    1    1    2    0  504 -0.71999640098E+02  0.45141899280E+01 -0.40501046217E+02  0.82732465390E+02  0.00000000000E+00 0. -1.
<scales pt_clust_3="34.34372" pt_clust_4="72.98389" pt_clust_5="39.77943" pt_clust_6="14000.00000"></scales>
<clustering>
<clus scale="   34.344">  1  3  2 -1</clus>
<clus scale="   39.779">  1  5  2 -1</clus>
<clus scale="   72.984">  1  4  2 -1</clus>
<clus scale="   34.344">  1  3  2 -1</clus>
</clustering>
</event>
<event>
 6    0  0.2433432E+002  0.1360598E+03  0.7546771E-02  0.1218731E+00
          2   -1    0    0  504    0 -0.00000000000E+00  0.00000000000E+00  0.21709047543E+04  0.21709047543E+04  0.00000000000E+00 0. -1.
         21   -1    0    0  503  502  0.00000000000E+00 -0.00000000000E+00 -0.47401886937E+03  0.47401886937E+03  0.00000000000E+00 0.  1.
         21    1    1    2  503  505  0.23688242133E+01  0.48929972718E+02  0.13108970517E+03  0.13994379000E+03  0.00000000000E+00 0.  1.
         21    1    1    2  504  502 -0.17625691954E+02 -0.12194782128E+03 -0.44981113880E+03  0.46638181431E+03  0.00000000000E+00 0.  1.
         21    1    1    2  505  501  0.73341737490E+02  0.15245350636E+03  0.73515794606E+03  0.75437277769E+03  0.00000000000E+00 0.  1.
          2    1    1    2  501    0 -0.58084869750E+02 -0.79435657803E+02  0.12804493725E+04  0.12842252417E+04  0.00000000000E+00 0. -1.
<scales pt_clust_3="30.10398" pt_clust_4="124.02629" pt_clust_5="30.10398" pt_clust_6="98.40669"></scales>
<clustering>
<clus scale="   30.104">  3  5 -1 -1</clus>
<clus scale="   98.407">  1  6  2 -1</clus>
<clus scale="  124.026">  2  4  1 -1</clus>
<clus scale="  124.026">  2  3  1 -1</clus>
</clustering>
</event>
<event>
 6    0  0.2433432E+002  0.1525219E+03  0.7546771E-02  0.1197408E+00
          2   -1    0    0  504    0 -0.00000000000E+00  0.00000000000E+00  0.31798177404E+04  0.31798177404E+04  0.00000000000E+00 0.  1.
         21   -1    0    0  503  502  0.00000000000E+00 -0.00000000000E+00 -0.19885188761E+04  0.19885188761E+04  0.00000000000E+00 0.  1.
         21    1    1    2  503  505 -0.79866226888E+02 -0.12999966148E+03 -0.19752235281E+04  0.19811073954E+04  0.00000000000E+00 0.  1.
         21    1    1    2  504  502 -0.26307374356E+02  0.36119794688E+02  0.56286678433E+02  0.71867292163E+02  0.00000000000E+00 0.  1.
         21    1    1    2  505  501  0.12416212987E+03  0.55103932925E+02  0.23313033682E+04  0.23352576030E+04  0.00000000000E+00 0.  1.
          2    1    1    2  501    0 -0.17988528625E+02  0.38775933864E+02  0.77893234574E+03  0.78010432600E+03  0.00000000000E+00 0.  1.
<scales pt_clust_3="14000.00000" pt_clust_4="45.80463" pt_clust_5="152.52189" pt_clust_6="42.74529"></scales>
<clustering>
<clus scale="   42.745">  1  6  2 -1</clus>
<clus scale="   45.805">  1  4  2 -1</clus>
<clus scale="  152.522">  1  5  2 -1</clus>
<clus scale="  152.522">  2  3  1 -1</clus>
</clustering>
</event>
<event>
 6    0  0.2433432E+002  0.1061116E+03  0.7546771E-02  0.1267945E+00
         21   -1    0    0  503  502  0.00000000000E+00  0.00000000000E+00  0.33647156339E+03  0.33647156339E+03  0.00000000000E+00 0. -1.
          2   -1    0    0  504    0 -0.00000000000E+00 -0.00000000000E+00 -0.93599650511E+03  0.93599650511E+03  0.00000000000E+00 0.  1.
         21    1    1    2  503  501 -0.92576864222E+02 -0.15279924074E+03 -0.12851067345E+03  0.22007516204E+03  0.00000000000E+00 0.  1.
         21    1    1    2  504  505 -0.10246035251E+02  0.29624691965E+02 -0.36089289491E+02  0.47802096485E+02  0.00000000000E+00 0. -1.
         21    1    1    2  505  502  0.82287050956E+02  0.61718545567E+02  0.27402056518E+03  0.29269029325E+03  0.00000000000E+00 0. -1.
          2    1    1    2  501    0  0.20535848517E+02  0.61456003207E+02 -0.70894554397E+03  0.71190051672E+03  0.00000000000E+00 0.  1.
<scales pt_clust_3="106.11159" pt_clust_4="31.34651" pt_clust_5="14000.00000" pt_clust_6="85.89504"></scales>
<clustering>
<clus scale="   31.347">  2  4  1 -1</clus>
<clus scale="   85.895">  2  6  1 -1</clus>
<clus scale="  106.112">  2  3  1 -1</clus>
<clus scale="  106.112">  1  3  2 -1</clus>
</clustering>
</event>
<event>
 6    0  0.2433432E+002  0.5378201E+03  0.7546771E-02  0.1004353E+00
         21   -1    0    0  504  502  0.00000000000E+00  0.00000000000E+00  0.13042129125E+04  0.13042129125E+04  0.00000000000E+00 0. -1.
          1   -1    0    0  505    0 -0.00000000000E+00 -0.00000000000E+00 -0.26898988249E+03  0.26898988249E+03  0.00000000000E+00 0.  1.
         21    1    1    2  503  502  0.44850801344E+02 -0.21730544272E+03  0.26511511878E+03  0.34571559991E+03  0.00000000000E+00 0. -1.
         21    1    1    2  504  501 -0.23665983283E+02 -0.19590623011E+02  0.65807598278E+02  0.72625830569E+02  0.00000000000E+00 0. -1.
         21    1    1    2  505  503  0.99387276373E+02 -0.28674721656E+03  0.48997891834E+03  0.57635157442E+03  0.00000000000E+00 0. -1.
          1    1    1    2  501    0 -0.12057209443E+03  0.52364328229E+03  0.21432139461E+03  0.57850979009E+03  0.00000000000E+00 0.  1.
<scales pt_clust_3="61.47562" pt_clust_4="30.72249" pt_clust_5="61.47562" pt_clust_6="532.99470"></scales>
<clustering>
<clus scale="   30.722">  1  4  2 -1</clus>
<clus scale="   61.476">  3  5 -1 -1</clus>
<clus scale="  532.995">  2  6  1 -1</clus>
<clus scale="   30.722">  1  3  2 -1</clus>
</clustering>
</event>
<event>
 6    0  0.2433432E+002  0.1269003E+03  0.7546771E-02  0.1232129E+00
          1   -1    0    0  503    0 -0.00000000000E+00  0.00000000000E+00  0.22846686927E+04  0.22846686927E+04  0.00000000000E+00 0. -1.
         21   -1    0    0  505  502  0.00000000000E+00 -0.00000000000E+00 -0.19024528276E+03  0.19024528276E+03  0.00000000000E+00 0. -1.
         21    1    1    2  503  502 -0.57772532473E+02  0.13831592336E+02 -0.75309226903E+02  0.95919018508E+02  0.00000000000E+00 0. -1.
         21    1    1    2  504  501  0.37673157329E+02 -0.62326384336E+01 -0.24264950852E+02  0.45242683440E+02  0.00000000000E+00 0. -1.
         21    1    1    2  505  504  0.69617976254E+02 -0.10391712680E+03 -0.11488941645E+02  0.12560823079E+03  0.00000000000E+00 0. -1.
          1    1    1    2  501    0 -0.49518601110E+02  0.96318172901E+02  0.22054865294E+04  0.22081440427E+04  0.00000000000E+00 0. -1.
<scales pt_clust_3="59.40521" pt_clust_4="36.09352" pt_clust_5="36.09352" pt_clust_6="108.79499"></scales>
<clustering>
<clus scale="   36.094">  4  5 -1 -1</clus>
<clus scale="   59.405">  2  3  1 -1</clus>
<clus scale="  108.795">  1  6  2 -1</clus>
<clus scale="   59.405">  2  3  1 -1</clus>
</clustering>
</event>
<event>
 6    0  0.2433432E+002  0.1111856E+03  0.7546771E-02  0.1258390E+00
          1   -1    0    0  503    0 -0.00000000000E+00  0.00000000000E+00  0.73581654920E+03  0.73581654920E+03  0.00000000000E+00 0.  1.
         21   -1    0    0  505  502  0.00000000000E+00 -0.00000000000E+00 -0.34289331566E+03  0.34289331566E+03  0.00000000000E+00 0.  1.
         21    1    1    2  503  504 -0.74744518653E+02 -0.30830321144E+02 -0.71270876972E+02  0.10778121207E+03  0.00000000000E+00 0.  1.
         21    1    1    2  504  502 -0.47059078075E+02  0.14311361332E+02 -0.55436522598E+02  0.74111941886E+02  0.00000000000E+00 0.  1.
         21    1    1    2  505  501  0.89737494134E+02  0.27399805370E+02 -0.17648590694E+03  0.19987706856E+03  0.00000000000E+00 0.  1.
          1    1    1    2  501    0  0.32066102594E+02 -0.10880845558E+02  0.69611654006E+03  0.69693964235E+03  0.00000000000E+00 0.  1.
<scales pt_clust_3="33.65832" pt_clust_4="33.65832" pt_clust_5="102.18059" pt_clust_6="33.86189"></scales>
<clustering>
<clus scale="   33.862">  1  6  2 -1</clus>
<clus scale="   33.658">  3  4 -1 -1</clus>
<clus scale="  102.181">  2  5  1 -1</clus>
<clus scale="  102.181">  2  3  1 -1</clus>
</clustering>
</event>
<event>
 6    0  0.2433432E+002  0.1164875E+03  0.7546771E-02  0.1249007E+00
          2   -1    0    0  503    0 -0.00000000000E+00  0.00000000000E+00  0.51467555503E+03  0.51467555503E+03  0.00000000000E+00 0. -1.
         21   -1    0    0  505  502  0.00000000000E+00 -0.00000000000E+00 -0.10393865363E+03  0.10393865363E+03  0.00000000000E+00 0. -1.
         21    1    1    2  503  502  0.20507181978E+02  0.27548086883E+02 -0.53220944448E+02  0.63339644232E+02  0.00000000000E+00 0. -1.
         21    1    1    2  504  501 -0.76852234218E+02 -0.17777326442E+02  0.53042363235E+02  0.95056780596E+02  0.00000000000E+00 0. -1.
         21    1    1    2  505  504 -0.40126616268E+02  0.25360181947E+02  0.12923730201E+02  0.49196615370E+02  0.00000000000E+00 0. -1.
          2    1    1    2  501    0  0.96471668509E+02 -0.35130942388E+02  0.39799175242E+03  0.41102116847E+03  0.00000000000E+00 0. -1.
<scales pt_clust_3="34.34300" pt_clust_4="44.08513" pt_clust_5="44.08513" pt_clust_6="104.17947"></scales>
<clustering>
<clus scale="   34.343">  2  3  1 -1</clus>
<clus scale="   44.085">  4  5 -1 -1</clus>
<clus scale="  104.179">  1  6  2 -1</clus>
<clus scale="   34.343">  2  3  1 -1</clus>
</clustering>
</event>
<event>
 6    0  0.2433432E+002  0.9757642E+02  0.7546771E-02  0.1285477E+00
         21   -1    0    0  505  502  0.00000000000E+00  0.00000000000E+00  0.89286802547E+03  0.89286802547E+03  0.00000000000E+00 0. -1.
          1   -1    0    0  503    0 -0.00000000000E+00 -0.00000000000E+00 -0.38107224084E+04  0.38107224084E+04  0.00000000000E+00 0. -1.
         21    1    1    2  503  502  0.51672668893E+02  0.73022292122E+02  0.42762901757E+02  0.99151326890E+02  0.00000000000E+00 0.  1.
         21    1    1    2  504  501 -0.41281865687E+01 -0.44946178353E+02 -0.85580602683E+02  0.96753503443E+02  0.00000000000E+00 0. -1.
         21    1    1    2  505  504  0.43861908245E+02  0.66719334230E+01  0.81507342709E+03  0.81628002134E+03  0.00000000000E+00 0. -1.
          1    1    1    2  501    0 -0.91406390569E+02 -0.34748047192E+02 -0.36901101091E+04  0.36914055822E+04  0.00000000000E+00 0. -1.
<scales pt_clust_3="14000.00000" pt_clust_4="44.47355" pt_clust_5="44.36645" pt_clust_6="97.57642"></scales>
<clustering>
<clus scale="   44.366">  1  5  2 -1</clus>
<clus scale="   44.474">  1  4  2 -1</clus>
<clus scale="   97.576">  2  6  1 -1</clus>
<clus scale="   44.366">  1  3  2 -1</clus>
</clustering>
</event>
<event>
 6    0  0.2433432E+002  0.6025619E+02  0.7546771E-02  0.1396760E+00
         21   -1    0    0  504  502  0.00000000000E+00  0.00000000000E+00  0.49781532520E+03  0.49781532520E+03  0.00000000000E+00 0.  1.
          1   -1    0    0  503    0 -0.00000000000E+00 -0.00000000000E+00 -0.20256301573E+04  0.20256301573E+04  0.00000000000E+00 0. -1.
         21    1    1    2  503  505 -0.41080996579E+02  0.10268338688E+03 -0.93429231221E+02  0.14477757930E+03  0.00000000000E+00 0.  1.
         21    1    1    2  504  501 -0.64120676482E+01 -0.51034062865E+02  0.16732665286E+02  0.54088559526E+02  0.00000000000E+00 0.  1.
         21    1    1    2  505  502  0.30339702357E+02  0.51665201624E+01  0.43572117873E+03  0.43680674911E+03  0.00000000000E+00 0.  1.
          1    1    1    2  501    0  0.17153361870E+02 -0.56815844179E+02 -0.18868394449E+04  0.18877725946E+04  0.00000000000E+00 0. -1.
<scales pt_clust_3="14000.00000" pt_clust_4="49.31397" pt_clust_5="30.77646" pt_clust_6="60.25619"></scales>
<clustering>
<clus scale="   30.776">  1  5  2 -1</clus>
<clus scale="   49.314">  1  4  2 -1</clus>
<clus scale="   60.256">  2  6  1 -1</clus>
<clus scale="   30.776">  1  3  2 -1</clus>
</clustering>
</event>
<event>
 6    0  0.2433432E+002  0.1046807E+03  0.7546771E-02  0.1270750E+00
         21   -1    0    0  503  502  0.00000000000E+00  0.00000000000E+00  0.10784453587E+03  0.10784453587E+03  0.00000000000E+00 0.  1.
          1   -1    0    0  502    0 -0.00000000000E+00 -0.00000000000E+00 -0.94674042360E+03  0.94674042360E+03  0.00000000000E+00 0. -1.
         21    1    1    2  503  504  0.22952734136E+02  0.41984290837E+02  0.54895061653E+02  0.72821538539E+02  0.00000000000E+00 0.  1.
         21    1    1    2  504  505 -0.12509325341E+03  0.33054626744E+02 -0.97459957593E+02  0.16198572077E+03  0.00000000000E+00 0.  1.
         21    1    1    2  505  501  0.73341757716E+02 -0.29572921804E+02 -0.13647684763E+03  0.15773237165E+03  0.00000000000E+00 0.  1.
          1    1    1    2  501    0  0.28798761562E+02 -0.45465995777E+02 -0.65985414416E+03  0.66204532851E+03  0.00000000000E+00 0. -1.
<scales pt_clust_3="47.84881" pt_clust_4="14000.00000" pt_clust_5="104.68075" pt_clust_6="53.25208"></scales>
<clustering>
<clus scale="   47.849">  1  3  2 -1</clus>
<clus scale="   53.252">  2  6  1 -1</clus>
<clus scale="  104.681">  2  5  1 -1</clus>
<clus scale="   47.849">  1  3  2 -1</clus>
</clustering>
</event>
<event>
 6    0  0.2433432E+002  0.8785554E+02  0.7546771E-02  0.1308130E+00
         21   -1    0    0  504  502  0.00000000000E+00  0.00000000000E+00  0.77171018645E+03  0.77171018645E+03  0.00000000000E+00 0. -1.
          2   -1    0    0  502    0 -0.00000000000E+00 -0.00000000000E+00 -0.15326060634E+03  0.15326060634E+03  0.00000000000E+00 0. -1.
         21    1    1    2  503  505 -0.80906452466E+02 -0.11338730559E+02  0.94068503945E+02  0.12459255313E+03  0.00000000000E+00 0. -1.
         21    1    1    2  504  503 -0.91753831505E+01  0.56995986535E+02  0.59873436902E+03  0.60151107620E+03  0.00000000000E+00 0. -1.
         21    1    1    2  505  501  0.73718939276E+02 -0.71593953989E+02  0.15499637720E+02  0.10392504523E+03  0.00000000000E+00 0. -1.
          2    1    1    2  501    0  0.16362896341E+02  0.25936698013E+02 -0.89852930582E+02  0.94942118233E+02  0.00000000000E+00 0. -1.
<scales pt_clust_3="87.85554" pt_clust_4="58.25644" pt_clust_5="14000.00000" pt_clust_6="30.66687"></scales>
<clustering>
<clus scale="   30.667">  2  6  1 -1</clus>
<clus scale="   58.256">  1  4  2 -1</clus>
<clus scale="   87.856">  1  3  2 -1</clus>
<clus scale="   58.256">  1  3  2 -1</clus>
</clustering>
</event>
<event>
 6    0  0.2433432E+002  0.1391220E+03  0.7546771E-02  0.1214515E+00
          1   -1    0    0  505    0 -0.00000000000E+00  0.00000000000E+00  0.25332386068E+03  0.25332386068E+03  0.00000000000E+00 0.  1.
         21   -1    0    0  503  502  0.00000000000E+00 -0.00000000000E+00 -0.92614518213E+02  0.92614518213E+02  0.00000000000E+00 0.  1.
         21    1    1    2  503  501 -0.12610786810E+02 -0.72058392675E+02 -0.12207201364E+02  0.74165083860E+02  0.00000000000E+00 0.  1.
         21    1    1    2  504  502 -0.85237995173E+00  0.37170936583E+02  0.14010614584E+02  0.39732888129E+02  0.00000000000E+00 0.  1.
         21    1    1    2  505  504 -0.13686021599E+02  0.90793485774E+02  0.13936123383E+03  0.16689013674E+03  0.00000000000E+00 0.  1.
          1    1    1    2  501    0  0.27149188361E+02 -0.55906029683E+02  0.19544695414E+02  0.65150270163E+02  0.00000000000E+00 0.  1.
<scales pt_clust_3="48.49945" pt_clust_4="32.34665" pt_clust_5="138.45631" pt_clust_6="48.49945"></scales>
<clustering>
<clus scale="   32.347">  4  5 -1 -1</clus>
<clus scale="   48.499">  3  6 -1 -1</clus>
<clus scale="  138.456">  1  4  2 -1</clus>
<clus scale="  139.122">  2  3  1 -1</clus>
</clustering>
</event>
<event>
 6    0  0.2433432E+002  0.7405462E+02  0.7546771E-02  0.1346824E+00
         -1   -1    0    0    0  501 -0.00000000000E+00  0.00000000000E+00  0.82293616160E+02  0.82293616160E+02  0.00000000000E+00 0. -1.
         21   -1    0    0  504  502  0.00000000000E+00 -0.00000000000E+00 -0.16015492728E+04  0.16015492728E+04  0.00000000000E+00 0. -1.
         21    1    1    2  503  502  0.47714842246E+02 -0.24699613208E+02 -0.16085309498E+03  0.16958919549E+03  0.00000000000E+00 0. -1.
         21    1    1    2  504  505 -0.11608314228E+03  0.21621301675E+02 -0.13362815120E+04  0.13414883734E+04  0.00000000000E+00 0. -1.
         21    1    1    2  505  501 -0.35801331171E+02  0.38898310177E+00 -0.53109571019E+02  0.64050863814E+02  0.00000000000E+00 0. -1.
         -1    1    1    2    0  503  0.10416963121E+03  0.26893284314E+01  0.30988521331E+02  0.10871445630E+03  0.00000000000E+00 0. -1.
<scales pt_clust_3="51.91888" pt_clust_4="74.05462" pt_clust_5="35.80344" pt_clust_6="14000.00000"></scales>
<clustering>
<clus scale="   35.803">  1  5  2 -1</clus>
<clus scale="   51.919">  2  3  1 -1</clus>
<clus scale="   74.055">  2  4  1 -1</clus>
<clus scale="   51.919">  2  3  1 -1</clus>
</clustering>
</event>
<event>
 6    0  0.2433432E+002  0.1274967E+03  0.7546771E-02  0.1231218E+00
          1   -1    0    0  505    0 -0.00000000000E+00  0.00000000000E+00  0.40143104025E+03  0.40143104025E+03  0.00000000000E+00 0.  1.
         21   -1    0    0  504  502  0.00000000000E+00 -0.00000000000E+00 -0.93236130067E+02  0.93236130067E+02  0.00000000000E+00 0.  1.
         21    1    1    2  503  502 -0.81992830596E+02  0.22411640530E+02  0.21245725563E+02  0.87615562288E+02  0.00000000000E+00 0.  1.
         21    1    1    2  504  501  0.65995055937E+02  0.63467421347E+02  0.16498622057E+03  0.18868999433E+03  0.00000000000E+00 0. -1.
         21    1    1    2  505  503 -0.33506410864E+02 -0.82714077004E+02  0.28008420329E+01  0.89286856925E+02  0.00000000000E+00 0.  1.
          1    1    1    2  501    0  0.49504185523E+02 -0.31649848736E+01  0.11916212201E+03  0.12907475677E+03  0.00000000000E+00 0.  1.
<scales pt_clust_3="85.00062" pt_clust_4="42.01104" pt_clust_5="114.00753" pt_clust_6="42.01104"></scales>
<clustering>
<clus scale="   42.011">  4  6 -1 -1</clus>
<clus scale="   85.001">  2  3  1 -1</clus>
<clus scale="  114.008">  2  5  1 -1</clus>
<clus scale="   85.001">  2  3  1 -1</clus>
</clustering>
</event>
<event>
 6    0  0.2433432E+002  0.9764839E+02  0.7546771E-02  0.1285320E+00
         -2   -1    0    0    0  501 -0.00000000000E+00  0.00000000000E+00  0.22644006816E+03  0.22644006816E+03  0.00000000000E+00 0.  1.
         21   -1    0    0  503  502  0.00000000000E+00 -0.00000000000E+00 -0.14921465738E+03  0.14921465738E+03  0.00000000000E+00 0.  1.
         21    1    1    2  503  501 -0.58758543697E+02  0.57574450242E+02 -0.56754737158E+02  0.99942403253E+02  0.00000000000E+00 0.  1.
         21    1    1    2  504  502  0.39169508161E+02 -0.64457399162E+02  0.44268004581E+01  0.75555299210E+02  0.00000000000E+00 0.  1.
         21    1    1    2  505  504  0.98688514034E+00 -0.60299364767E+02  0.91054735025E+01  0.60990958193E+02  0.00000000000E+00 0.  1.
         -2    1    1    2    0  505  0.18602150396E+02  0.67182313688E+02  0.12044787398E+03  0.13916606489E+03  0.00000000000E+00 0.  1.
<scales pt_clust_3="90.83081" pt_clust_4="32.05333" pt_clust_5="32.05333" pt_clust_6="69.71014"></scales>
<clustering>
<clus scale="   32.053">  4  5 -1 -1</clus>
<clus scale="   69.710">  1  6  2 -1</clus>
<clus scale="   90.831">  2  3  1 -1</clus>
<clus scale="   90.831">  2  3  1 -1</clus>
</clustering>
</event>
<event>
 6    0  0.2433432E+002  0.7365588E+02  0.7546771E-02  0.1348085E+00
         21   -1    0    0  503  502  0.00000000000E+00  0.00000000000E+00  0.65610961608E+02  0.65610961608E+02  0.00000000000E+00 0. -1.
         -1   -1    0    0    0  501 -0.00000000000E+00 -0.00000000000E+00 -0.67569551211E+03  0.67569551211E+03  0.00000000000E+00 0.  1.
         21    1    1    2  503  501  0.46331882488E+01  0.89079448793E+02  0.17340944430E+01  0.89216712079E+02  0.00000000000E+00 0. -1.
         21    1    1    2  504  502 -0.26845649572E+02 -0.37043453226E+02 -0.54968548434E+02  0.71515366494E+02  0.00000000000E+00 0.  1.
         21    1    1    2  505  504  0.55934265452E+02  0.12887610833E+02 -0.81834562776E+02  0.99958132382E+02  0.00000000000E+00 0. -1.
         -1    1    1    2    0  505 -0.33721804129E+02 -0.64923606400E+02 -0.47501553374E+03  0.48061626277E+03  0.00000000000E+00 0.  1.
<scales pt_clust_3="73.65588" pt_clust_4="45.74829" pt_clust_5="52.16778" pt_clust_6="14000.00000"></scales>
<clustering>
<clus scale="   45.748">  1  4  2 -1</clus>
<clus scale="   52.168">  1  5  2 -1</clus>
<clus scale="   73.656">  1  3  2 -1</clus>
<clus scale="   45.748">  1  3  2 -1</clus>
</clustering>
</event>
<event>
 6    0  0.2433432E+002  0.7566579E+02  0.7546771E-02  0.1341822E+00
          2   -1    0    0  503    0 -0.00000000000E+00  0.00000000000E+00  0.24083369975E+04  0.24083369975E+04  0.00000000000E+00 0.  1.
         21   -1    0    0  505  502  0.00000000000E+00 -0.00000000000E+00 -0.12125475117E+03  0.12125475117E+03  0.00000000000E+00 0.  1.
         21    1    1    2  503  504  0.44599503974E+02 -0.85399941526E+02  0.12611195692E+03  0.15870252501E+03  0.00000000000E+00 0.  1.
         21    1    1    2  504  502  0.50980253280E+02 -0.16121624540E+02 -0.73181440771E+02  0.90633416992E+02  0.00000000000E+00 0.  1.
         21    1    1    2  505  501 -0.65951282442E+02  0.32767592167E+02  0.38075360354E+02  0.82903677954E+02  0.00000000000E+00 0.  1.
          2    1    1    2  501    0 -0.29628474812E+02  0.68753973899E+02  0.21960763699E+04  0.21973521287E+04  0.00000000000E+00 0.  1.
<scales pt_clust_3="14000.00000" pt_clust_4="53.46862" pt_clust_5="43.80162" pt_clust_6="75.66579"></scales>
<clustering>
<clus scale="   53.469">  2  4  1 -1</clus>
<clus scale="   43.802">  2  5  1 -1</clus>
<clus scale="   75.666">  1  6  2 -1</clus>
<clus scale="   53.469">  2  3  1 -1</clus>
</clustering>
</event>
<event>
 6    0  0.2433432E+002  0.1793690E+03  0.7546771E-02  0.1168415E+00
          2   -1    0    0  504    0 -0.00000000000E+00  0.00000000000E+00  0.27755271073E+04  0.27755271073E+04  0.00000000000E+00 0. -1.
         21   -1    0    0  501  502  0.00000000000E+00 -0.00000000000E+00 -0.40652659078E+03  0.40652659078E+03  0.00000000000E+00 0.  1.
         21    1    1    2  503  502  0.15636930459E+02  0.28064076803E+02 -0.13046670566E+03  0.13436393596E+03  0.00000000000E+00 0.  1.
         21    1    1    2  504  505 -0.27258995795E+02  0.34678411206E+02  0.60594725746E+02  0.74949088345E+02  0.00000000000E+00 0. -1.
         21    1    1    2  505  503  0.11944612099E+03  0.71462585163E+02 -0.24584257527E+03  0.28251167890E+03  0.00000000000E+00 0. -1.
          2    1    1    2  501    0 -0.10782405565E+03 -0.13420507317E+03  0.26847150717E+04  0.26902289949E+04  0.00000000000E+00 0. -1.
<scales pt_clust_3="30.47425" pt_clust_4="44.10947" pt_clust_5="30.47425" pt_clust_6="167.77854"></scales>
<clustering>
<clus scale="   30.474">  3  5 -1 -1</clus>
<clus scale="   44.109">  1  4  2 -1</clus>
<clus scale="  167.779">  1  6  2 -1</clus>
<clus scale="  179.369">  2  3  1 -1</clus>
</clustering>
</event>
<event>
 6    0  0.2433432E+002  0.9973561E+02  0.7546771E-02  0.1280853E+00
         21   -1    0    0  501  502  0.00000000000E+00  0.00000000000E+00  0.17764811798E+04  0.17764811798E+04  0.00000000000E+00 0.  1.
          2   -1    0    0  505    0 -0.00000000000E+00 -0.00000000000E+00 -0.15129907955E+04  0.15129907955E+04  0.00000000000E+00 0. -1.
         21    1    1    2  503  502  0.28447184483E+02  0.17113434702E+02  0.17651175577E+04  0.17654297224E+04  0.00000000000E+00 0.  1.
         21    1    1    2  504  503 -0.54126168930E+02  0.16552506915E+01 -0.27108664182E+03  0.27644230752E+03  0.00000000000E+00 0. -1.
         21    1    1    2  505  504 -0.74970708756E+01 -0.10826164703E+03 -0.57549659570E+03  0.58563907140E+03  0.00000000000E+00 0.  1.
          2    1    1    2  501    0  0.33176055323E+02  0.89492961639E+02 -0.65504393585E+03  0.66196087402E+03  0.00000000000E+00 0. -1.
<scales pt_clust_3="33.19807" pt_clust_4="47.67655" pt_clust_5="99.73561" pt_clust_6="14000.00000"></scales>
<clustering>
<clus scale="   33.198">  1  3  2 -1</clus>
<clus scale="   47.677">  1  4  2 -1</clus>
<clus scale="   99.736">  1  5  2 -1</clus>
<clus scale="   33.198">  1  3  2 -1</clus>
</clustering>
</event>
<event>
 6    0  0.2433432E+002  0.1582711E+03  0.7546771E-02  0.1190663E+00
          2   -1    0    0  505    0 -0.00000000000E+00  0.00000000000E+00  0.11435599990E+03  0.11435599990E+03  0.00000000000E+00 0. -1.
         21   -1    0    0  503  502  0.00000000000E+00 -0.00000000000E+00 -0.15415690260E+04  0.15415690260E+04  0.00000000000E+00 0. -1.
         21    1    1    2  503  504 -0.24175370023E+02 -0.75113787298E+02 -0.65276106745E+03  0.65751314872E+03  0.00000000000E+00 0. -1.
         21    1    1    2  504  501 -0.38409089310E+02 -0.36517366734E+02 -0.19044673262E+03  0.19768341908E+03  0.00000000000E+00 0. -1.
         21    1    1    2  505  502  0.98236054557E+02  0.14938198081E+03 -0.67373715626E+03  0.69705599081E+03  0.00000000000E+00 0. -1.
          2    1    1    2  501    0 -0.35651595225E+02 -0.37750826776E+02  0.89731930247E+02  0.10367246727E+03  0.00000000000E+00 0. -1.
<scales pt_clust_3="51.72461" pt_clust_4="51.72461" pt_clust_5="145.14229" pt_clust_6="51.92457"></scales>
<clustering>
<clus scale="   51.725">  3  4 -1 -1</clus>
<clus scale="   51.925">  1  6  2 -1</clus>
<clus scale="  145.142">  1  5  2 -1</clus>
<clus scale="  158.271">  2  3  1 -1</clus>
</clustering>
</event>
<event>
 6    0  0.2433432E+002  0.7267227E+02  0.7546771E-02  0.1351235E+00
         -1   -1    0    0    0  501 -0.00000000000E+00  0.00000000000E+00  0.31840475215E+03  0.31840475215E+03  0.00000000000E+00 0.  1.
         21   -1    0    0  501  502  0.00000000000E+00 -0.00000000000E+00 -0.12877950451E+03  0.12877950451E+03  0.00000000000E+00 0. -1.
         21    1    1    2  503  505  0.58795911418E+02 -0.21874370290E+01  0.56542871092E+02  0.81601717822E+02  0.00000000000E+00 0.  1.
         21    1    1    2  504  502 -0.34093935309E+02  0.62024119487E+02 -0.69014673393E+02  0.98855515609E+02  0.00000000000E+00 0. -1.
         21    1    1    2  505  504 -0.23390932087E+01 -0.91321623721E+02  0.39359488719E+02  0.99469993809E+02  0.00000000000E+00 0.  1.
         -1    1    1    2    0  503 -0.22362882900E+02  0.31484941264E+02  0.16273756123E+03  0.16725702942E+03  0.00000000000E+00 0.  1.
<scales pt_clust_3="50.18013" pt_clust_4="72.67227" pt_clust_5="14000.00000" pt_clust_6="38.61865"></scales>
<clustering>
<clus scale="   38.619">  1  6  2 -1</clus>
<clus scale="   50.180">  1  3  2 -1</clus>
<clus scale="   72.672">  2  4  1 -1</clus>
<clus scale="   72.672">  2  3  1 -1</clus>
</clustering>
</event>
<event>
 6    0  0.2433432E+002  0.6936577E+02  0.7546771E-02  0.1362263E+00
          2   -1    0    0  503    0 -0.00000000000E+00  0.00000000000E+00  0.49164455461E+03  0.49164455461E+03  0.00000000000E+00 0.  1.
         21   -1    0    0  505  502  0.00000000000E+00 -0.00000000000E+00 -0.11505526480E+03  0.11505526480E+03  0.00000000000E+00 0. -1.
         21    1    1    2  503  504  0.69784739936E+02 -0.51634986413E+02  0.65884698688E+02  0.10898107758E+03  0.00000000000E+00 0.  1.
         21    1    1    2  504  502  0.44136604613E+01  0.35530234475E+02 -0.63058161189E+02  0.72513513589E+02  0.00000000000E+00 0. -1.
         21    1    1    2  505  501 -0.16265130054E+02  0.57107440823E+02  0.17446025368E+02  0.61888432313E+02  0.00000000000E+00 0. -1.
          2    1    1    2  501    0 -0.57933270344E+02 -0.41002688886E+02  0.35631672694E+03  0.36331679593E+03  0.00000000000E+00 0.  1.
<scales pt_clust_3="14000.00000" pt_clust_4="35.80332" pt_clust_5="69.36577" pt_clust_6="69.21637"></scales>
<clustering>
<clus scale="   35.803">  2  4  1 -1</clus>
<clus scale="   69.216">  1  6  2 -1</clus>
<clus scale="   69.366">  2  5  1 -1</clus>
<clus scale="   35.803">  2  3  1 -1</clus>
</clustering>
</event>
<event>
 6    0  0.2433432E+002  0.1160404E+03  0.7546771E-02  0.1249776E+00
         21   -1    0    0  504  502  0.00000000000E+00  0.00000000000E+00  0.40537422435E+03  0.40537422435E+03  0.00000000000E+00 0. -1.
          1   -1    0    0  505    0 -0.00000000000E+00 -0.00000000000E+00 -0.57887432910E+03  0.57887432910E+03  0.00000000000E+00 0.  1.
         21    1    1    2  503  501  0.67773633710E+02  0.18665725017E+02  0.43775551260E+02  0.82812883084E+02  0.00000000000E+00 0. -1.
         21    1    1    2  504  503  0.44285583139E+02  0.21766156483E+02  0.29093049630E+03  0.29508563523E+03  0.00000000000E+00 0. -1.
         21    1    1    2  505  502 -0.16245576798E+02  0.34168783768E+02  0.33906193680E+02  0.50804079753E+02  0.00000000000E+00 0.  1.
          1    1    1    2  501    0 -0.95813640051E+02 -0.74600665268E+02 -0.54211234599E+03  0.55554595539E+03  0.00000000000E+00 0.  1.
<scales pt_clust_3="116.04041" pt_clust_4="58.36705" pt_clust_5="37.83417" pt_clust_6="14000.00000"></scales>
<clustering>
<clus scale="   37.834">  1  5  2 -1</clus>
<clus scale="   58.367">  1  4  2 -1</clus>
<clus scale="  116.040">  1  3  2 -1</clus>
<clus scale="   37.834">  1  3  2 -1</clus>
</clustering>
</event>
<event>
 6    0  0.2433432E+002  0.1553870E+03  0.7546771E-02  0.1194005E+00
         21   -1    0    0  505  502  0.00000000000E+00  0.00000000000E+00  0.41505804387E+03  0.41505804387E+03  0.00000000000E+00 0.  1.
          3   -1    0    0  504    0 -0.00000000000E+00 -0.00000000000E+00 -0.60895102774E+03  0.60895102774E+03  0.00000000000E+00 0.  1.
         21    1    1    2  503  502  0.20344325281E+02  0.63907927522E+02  0.74571028576E+01  0.67481280029E+02  0.00000000000E+00 0.  1.
         21    1    1    2  504  503 -0.36910592546E+02  0.26155468432E+02 -0.33457134299E+03  0.33761588221E+03  0.00000000000E+00 0.  1.
         21    1    1    2  505  501  0.78483794904E+02  0.12823764114E+03  0.30116650359E+03  0.33660936046E+03  0.00000000000E+00 0.  1.
          3    1    1    2  501    0 -0.61917527639E+02 -0.21830103710E+03 -0.16794524733E+03  0.28230254892E+03  0.00000000000E+00 0.  1.
<scales pt_clust_3="68.74151" pt_clust_4="45.23826" pt_clust_5="155.38703" pt_clust_6="14000.00000"></scales>
<clustering>
<clus scale="   45.238">  2  4  1 -1</clus>
<clus scale="   68.742">  2  3  1 -1</clus>
<clus scale="  155.387">  1  5  2 -1</clus>
<clus scale="  155.387">  1  3  2 -1</clus>
</clustering>
</event>
<event>
 6    0  0.2433432E+002  0.1118033E+03  0.7546771E-02  0.1257267E+00
         21   -1    0    0  503  502  0.00000000000E+00  0.00000000000E+00  0.88053273551E+02  0.88053273551E+02  0.00000000000E+00 0.  1.
          1   -1    0    0  502    0 -0.00000000000E+00 -0.00000000000E+00 -0.11836049377E+04  0.11836049377E+04  0.00000000000E+00 0. -1.
         21    1    1    2  503  504  0.42877938014E+02 -0.52308972853E+02  0.24246244542E+01  0.67680314812E+02  0.00000000000E+00 0.  1.
         21    1    1    2  504  505 -0.27417108583E+02 -0.72035588761E+02 -0.26602092274E+02  0.81538305136E+02  0.00000000000E+00 0.  1.
         21    1    1    2  505  501  0.42193949243E+02  0.15004150736E+03 -0.22497877518E+03  0.27369368382E+03  0.00000000000E+00 0.  1.
          1    1    1    2  501    0 -0.57654778674E+02 -0.25696945742E+02 -0.84639542118E+03  0.84874590751E+03  0.00000000000E+00 0. -1.
<scales pt_clust_3="66.28176" pt_clust_4="111.80326" pt_clust_5="14000.00000" pt_clust_6="63.12216"></scales>
<clustering>
<clus scale="   63.122">  2  6  1 -1</clus>
<clus scale="   66.282">  1  3  2 -1</clus>
<clus scale="  111.803">  1  4  2 -1</clus>
<clus scale="   66.282">  1  3  2 -1</clus>
</clustering>
</event>
<event>
 6    0  0.2433432E+002  0.1153550E+03  0.7546771E-02  0.1250963E+00
         21   -1    0    0  503  502  0.00000000000E+00  0.00000000000E+00  0.77937016686E+02  0.77937016686E+02  0.00000000000E+00 0.  1.
          1   -1    0    0  504    0 -0.00000000000E+00 -0.00000000000E+00 -0.14468670788E+04  0.14468670788E+04  0.00000000000E+00 0.  1.
         21    1    1    2  503  501  0.54658633205E+02 -0.29162833549E+02 -0.50907140436E+03  0.51282719485E+03  0.00000000000E+00 0.  1.
         21    1    1    2  504  505  0.11398796496E+02  0.36580862283E+02 -0.85257727068E+02  0.93471771524E+02  0.00000000000E+00 0. -1.
         21    1    1    2  505  502 -0.10198337253E+03  0.35926034576E+02  0.29783355324E+02  0.11215318314E+03  0.00000000000E+00 0.  1.
          1    1    1    2  501    0  0.35925942831E+02 -0.43344063310E+02 -0.80438428606E+03  0.80635194602E+03  0.00000000000E+00 0.  1.
<scales pt_clust_3="38.18965" pt_clust_4="38.31569" pt_clust_5="108.17507" pt_clust_6="38.18965"></scales>
<clustering>
<clus scale="   38.190">  3  6 -1 -1</clus>
<clus scale="   38.316">  2  4  1 -1</clus>
<clus scale="  108.175">  1  5  2 -1</clus>
<clus scale="  108.175">  1  3  2 -1</clus>
</clustering>
</event>
<event>
 6    0  0.2433432E+002  0.7432141E+02  0.7546771E-02  0.1345985E+00
         21   -1    0    0  503  502  0.00000000000E+00  0.00000000000E+00  0.27012407134E+03  0.27012407134E+03  0.00000000000E+00 0. -1.
          1   -1    0    0  504    0 -0.00000000000E+00 -0.00000000000E+00 -0.17660956187E+03  0.17660956187E+03  0.00000000000E+00 0. -1.
         21    1    1    2  503  505 -0.76683016689E+02  0.30897389069E+02  0.44814610899E+02  0.94038731648E+02  0.00000000000E+00 0. -1.
         21    1    1    2  504  502  0.50508260037E+02 -0.78674235543E+01  0.24636601428E+02  0.56744539960E+02  0.00000000000E+00 0. -1.
         21    1    1    2  505  501 -0.32278697494E+02 -0.69554007153E+02  0.13907011957E+03  0.15880860298E+03  0.00000000000E+00 0. -1.
          1    1    1    2  501    0  0.58453454146E+02  0.46524041639E+02 -0.11500682243E+03  0.13714175862E+03  0.00000000000E+00 0. -1.
<scales pt_clust_3="67.69833" pt_clust_4="51.11732" pt_clust_5="14000.00000" pt_clust_6="74.32141"></scales>
<clustering>
<clus scale="   51.117">  1  4  2 -1</clus>
<clus scale="   67.698">  1  3  2 -1</clus>
<clus scale="   74.321">  2  6  1 -1</clus>
<clus scale="   51.117">  1  3  2 -1</clus>
</clustering>
</event>
<event>
 6    0  0.2433432E+002  0.1105803E+03  0.7546771E-02  0.1259499E+00
         21   -1    0    0  504  502  0.00000000000E+00  0.00000000000E+00  0.72270674619E+03  0.72270674619E+03  0.00000000000E+00 0.  1.
         -1   -1    0    0    0  501 -0.00000000000E+00 -0.00000000000E+00 -0.72768973235E+03  0.72768973235E+03  0.00000000000E+00 0.  1.
         21    1    1    2  503  502  0.95453081928E+02  0.44660991073E+02  0.22226743369E+03  0.24598517649E+03  0.00000000000E+00 0.  1.
         21    1    1    2  504  501  0.23358864099E+02 -0.19433207268E+02  0.40959646893E+03  0.41072199045E+03  0.00000000000E+00 0.  1.
         21    1    1    2  505  503 -0.10571949209E+03  0.55142080837E+01  0.42095186288E+02  0.11392551166E+03  0.00000000000E+00 0.  1.
         -1    1    1    2    0  505 -0.13092453939E+02 -0.30741991889E+02 -0.67894207507E+03  0.67976379994E+03  0.00000000000E+00 0.  1.
<scales pt_clust_3="14000.00000" pt_clust_4="30.38562" pt_clust_5="110.58033" pt_clust_6="33.42530"></scales>
<clustering>
<clus scale="   30.386">  1  4  2 -1</clus>
<clus scale="   33.425">  2  6  1 -1</clus>
<clus scale="  110.580">  2  5  1 -1</clus>
<clus scale="   30.386">  1  3  2 -1</clus>
</clustering>
</event>
<event>
 6    0  0.2433432E+002  0.1284524E+03  0.7546771E-02  0.1229770E+00
         21   -1    0    0  505  502  0.00000000000E+00  0.00000000000E+00  0.34553310817E+03  0.34553310817E+03  0.00000000000E+00 0. -1.
          1   -1    0    0  503    0 -0.00000000000E+00 -0.00000000000E+00 -0.34824323565E+03  0.34824323565E+03  0.00000000000E+00 0. -1.
         21    1    1    2  503  502 -0.92685245811E+02  0.37772561651E+02  0.45188248527E+02  0.10981483966E+03  0.00000000000E+00 0. -1.
         21    1    1    2  504  501 -0.83267895029E+02 -0.41731009181E+02  0.95278525996E+02  0.13324044801E+03  0.00000000000E+00 0. -1.
         21    1    1    2  505  504  0.41182143958E+02 -0.22393190866E+02  0.13368958821E+03  0.14166979203E+03  0.00000000000E+00 0. -1.
          1    1    1    2  501    0  0.13477099688E+03  0.26351638396E+02 -0.27686649021E+03  0.30905126411E+03  0.00000000000E+00 0. -1.
<scales pt_clust_3="128.45244" pt_clust_4="81.21795" pt_clust_5="46.87669" pt_clust_6="14000.00000"></scales>
<clustering>
<clus scale="   46.877">  1  5  2 -1</clus>
<clus scale="   81.218">  1  4  2 -1</clus>
<clus scale="  128.452">  1  3  2 -1</clus>
<clus scale="   46.877">  1  3  2 -1</clus>
</clustering>
</event>
<event>
 6    0  0.2433432E+002  0.1865964E+03  0.7546771E-02  0.1161567E+00
         21   -1    0    0  505  502  0.00000000000E+00  0.00000000000E+00  0.47964852870E+03  0.47964852870E+03  0.00000000000E+00 0.  1.
          1   -1    0    0  503    0 -0.00000000000E+00 -0.00000000000E+00 -0.79919354762E+03  0.79919354762E+03  0.00000000000E+00 0.  1.
         21    1    1    2  503  502 -0.15863460047E+02 -0.13978525604E+03  0.80010648525E+02  0.16184335342E+03  0.00000000000E+00 0.  1.
         21    1    1    2  504  501  0.10749319449E+03 -0.35033297122E+02 -0.66296222934E+02  0.13106222928E+03  0.00000000000E+00 0.  1.
         21    1    1    2  505  504  0.33137011048E+02  0.22340600794E+02  0.31031636331E+03  0.31287922476E+03  0.00000000000E+00 0.  1.
          1    1    1    2  501    0 -0.12476674549E+03  0.15247795236E+03 -0.64357580782E+03  0.67305726885E+03  0.00000000000E+00 0.  1.
<scales pt_clust_3="186.59643" pt_clust_4="117.95156" pt_clust_5="39.96453" pt_clust_6="14000.00000"></scales>
<clustering>
<clus scale="   39.965">  1  5  2 -1</clus>
<clus scale="  117.952">  1  4  2 -1</clus>
<clus scale="  186.596">  1  3  2 -1</clus>
<clus scale="   39.965">  1  3  2 -1</clus>
</clustering>
</event>
<event>
 6    0  0.2433432E+002  0.9175171E+02  0.7546771E-02  0.1298664E+00
          2   -1    0    0  504    0 -0.00000000000E+00  0.00000000000E+00  0.50144962371E+03  0.50144962371E+03  0.00000000000E+00 0.  1.
         21   -1    0    0  505  502  0.00000000000E+00 -0.00000000000E+00 -0.32924819851E+03  0.32924819851E+03  0.00000000000E+00 0.  1.
         21    1    1    2  503  502  0.11768697420E+02 -0.45548107728E+02 -0.20637495979E+03  0.21166897833E+03  0.00000000000E+00 0.  1.
         21    1    1    2  504  503 -0.63103641680E+02 -0.54410093331E+02 -0.59728679648E+01  0.83535639109E+02  0.00000000000E+00 0.  1.
         21    1    1    2  505  501  0.26802405445E+01  0.12548462186E+03 -0.20115892601E+02  0.12711499970E+03  0.00000000000E+00 0.  1.
          2    1    1    2  501    0  0.48654703715E+02 -0.25526420805E+02  0.40466514556E+03  0.40837820508E+03  0.00000000000E+00 0.  1.
<scales pt_clust_3="47.04394" pt_clust_4="91.75171" pt_clust_5="14000.00000" pt_clust_6="55.43463"></scales>
<clustering>
<clus scale="   47.044">  2  3  1 -1</clus>
<clus scale="   55.435">  1  6  2 -1</clus>
<clus scale="   91.752">  1  4  2 -1</clus>
<clus scale="   47.044">  2  3  1 -1</clus>
</clustering>
</event>
<event>
 6    0  0.2433432E+002  0.7082456E+02  0.7546771E-02  0.1357311E+00
          2   -1    0    0  503    0 -0.00000000000E+00  0.00000000000E+00  0.14603955341E+04  0.14603955341E+04  0.00000000000E+00 0.  1.
         21   -1    0    0  505  502  0.00000000000E+00 -0.00000000000E+00 -0.12971187193E+03  0.12971187193E+03  0.00000000000E+00 0.  1.
         21    1    1    2  503  502  0.51657002818E+02  0.22025211465E+02  0.15339692732E+03  0.16335290995E+03  0.00000000000E+00 0. -1.
         21    1    1    2  504  501  0.53755714988E+02 -0.90847204226E+02  0.41512660301E+03  0.42833746969E+03  0.00000000000E+00 0. -1.
         21    1    1    2  505  504 -0.45671987398E+02  0.53049972159E+02 -0.10656339025E+03  0.12749896517E+03  0.00000000000E+00 0.  1.
          2    1    1    2  501    0 -0.59740730409E+02  0.15772020602E+02  0.86872352214E+03  0.87091806126E+03  0.00000000000E+00 0.  1.
<scales pt_clust_3="56.15653" pt_clust_4="14000.00000" pt_clust_5="70.82456" pt_clust_6="39.57278"></scales>
<clustering>
<clus scale="   56.157">  1  3  2 -1</clus>
<clus scale="   39.573">  1  6  2 -1</clus>
<clus scale="   70.825">  2  5  1 -1</clus>
<clus scale="   70.825">  2  3  1 -1</clus>
</clustering>
</event>
<event>
 6    0  0.2433432E+002  0.1816523E+03  0.7546771E-02  0.1166213E+00
          2   -1    0    0  502    0 -0.00000000000E+00  0.00000000000E+00  0.51477667904E+02  0.51477667904E+02  0.00000000000E+00 0. -1.
         21   -1    0    0  504  502  0.00000000000E+00 -0.00000000000E+00 -0.13541888310E+04  0.13541888310E+04  0.00000000000E+00 0.  1.
         21    1    1    2  503  501  0.93373695112E+02 -0.73118754830E+00 -0.18641891206E+03  0.20849746365E+03  0.00000000000E+00 0.  1.
         21    1    1    2  504  505 -0.28142463562E+02 -0.31360866838E+02 -0.62914621186E+03  0.63055567408E+03  0.00000000000E+00 0.  1.
         21    1    1    2  505  503  0.93789845893E+02 -0.30697249627E+02 -0.28642216750E+03  0.30294638860E+03  0.00000000000E+00 0.  1.
          2    1    1    2  501    0 -0.15902107744E+03  0.62789304014E+02 -0.20072387171E+03  0.26366697261E+03  0.00000000000E+00 0. -1.
<scales pt_clust_3="42.79671" pt_clust_4="42.13671" pt_clust_5="42.79671" pt_clust_6="176.12321"></scales>
<clustering>
<clus scale="   42.137">  2  4  1 -1</clus>
<clus scale="   42.797">  3  5 -1 -1</clus>
<clus scale="  176.123">  1  6  2 -1</clus>
<clus scale="   42.137">  2  3  1 -1</clus>
</clustering>
</event>
<event>
 6    0  0.2433432E+002  0.1471833E+03  0.7546771E-02  0.1203978E+00
         21   -1    0    0  504  502  0.00000000000E+00  0.00000000000E+00  0.47976499138E+03  0.47976499138E+03  0.00000000000E+00 0. -1.
         -4   -1    0    0    0  501 -0.00000000000E+00 -0.00000000000E+00 -0.16143735824E+03  0.16143735824E+03  0.00000000000E+00 0. -1.
         21    1    1    2  503  501 -0.37397796166E+02  0.40454911509E+02  0.13916382292E+03  0.14967219058E+03  0.00000000000E+00 0.  1.
         21    1    1    2  504  503 -0.70531504028E+01  0.46467316518E+02  0.23505100102E+03  0.23970384126E+03  0.00000000000E+00 0. -1.
         21    1    1    2  505  502 -0.55622431163E+02  0.17447935340E+02  0.46568568183E+02  0.74611774129E+02  0.00000000000E+00 0.  1.
         -4    1    1    2    0  505  0.10007337773E+03 -0.10437016337E+03 -0.10245575899E+03  0.17721454365E+03  0.00000000000E+00 0. -1.
<scales pt_clust_3="41.77443" pt_clust_4="41.77443" pt_clust_5="58.29481" pt_clust_6="140.06183"></scales>
<clustering>
<clus scale="   41.774">  3  4 -1 -1</clus>
<clus scale="   58.295">  1  5  2 -1</clus>
<clus scale="  140.062">  2  6  1 -1</clus>
<clus scale="   58.295">  1  3  2 -1</clus>
</clustering>
</event>
<event>
 6    0  0.2433432E+002  0.1117720E+03  0.7546771E-02  0.1257323E+00
          2   -1    0    0  503    0 -0.00000000000E+00  0.00000000000E+00  0.15263927104E+04  0.15263927104E+04  0.00000000000E+00 0. -1.
         21   -1    0    0  505  502  0.00000000000E+00 -0.00000000000E+00 -0.19840485573E+02  0.19840485573E+02  0.00000000000E+00 0. -1.
         21    1    1    2  503  502  0.67804241125E+02  0.41814731517E+02  0.35603280566E+03  0.36483591598E+03  0.00000000000E+00 0.  1.
         21    1    1    2  504  501  0.53094352539E+01 -0.70536137994E+02  0.21899363848E+03  0.23013420120E+03  0.00000000000E+00 0. -1.
         21    1    1    2  505  504  0.17175190852E+02 -0.33861938117E+02  0.49313006924E+02  0.62236570324E+02  0.00000000000E+00 0. -1.
          2    1    1    2  501    0 -0.90288867230E+02  0.62583344594E+02  0.88221277380E+03  0.88902650850E+03  0.00000000000E+00 0. -1.
<scales pt_clust_3="79.66108" pt_clust_4="33.47548" pt_clust_5="33.47548" pt_clust_6="102.00635"></scales>
<clustering>
<clus scale="   33.475">  4  5 -1 -1</clus>
<clus scale="   79.661">  1  3  2 -1</clus>
<clus scale="  102.006">  1  6  2 -1</clus>
<clus scale="  111.772">  2  3  1 -1</clus>
</clustering>
</event>
<event>
 6    0  0.2433432E+002  0.1880865E+03  0.7546771E-02  0.1160199E+00
          1   -1    0    0  505    0 -0.00000000000E+00  0.00000000000E+00  0.91487119075E+03  0.91487119075E+03  0.00000000000E+00 0.  1.
         21   -1    0    0  504  502  0.00000000000E+00 -0.00000000000E+00 -0.18351746352E+03  0.18351746352E+03  0.00000000000E+00 0. -1.
         21    1    1    2  503  502 -0.67293203795E+01  0.53044811009E+02 -0.40049070630E+02  0.66805417341E+02  0.00000000000E+00 0.  1.
         21    1    1    2  504  501 -0.77561442813E+02 -0.12269892896E+03  0.27054936598E+03  0.30703055876E+03  0.00000000000E+00 0.  1.
         21    1    1    2  505  503  0.98983886634E+02  0.96537041408E+02 -0.68550219837E+02  0.15432544449E+03  0.00000000000E+00 0. -1.
          1    1    1    2  501    0 -0.14693123442E+02 -0.26882923453E+02  0.56940365171E+03  0.57022723368E+03  0.00000000000E+00 0.  1.
<scales pt_clust_3="49.25331" pt_clust_4="170.75453" pt_clust_5="49.25331" pt_clust_6="30.63624"></scales>
<clustering>
<clus scale="   30.636">  1  6  2 -1</clus>
<clus scale="   49.253">  3  5 -1 -1</clus>
<clus scale="  170.755">  1  4  2 -1</clus>
<clus scale="  188.086">  2  3  1 -1</clus>
</clustering>
</event>
<event>
 6    0  0.2433432E+002  0.9672053E+02  0.7546771E-02  0.1287347E+00
         21   -1    0    0  504  502  0.00000000000E+00  0.00000000000E+00  0.63125786684E+03  0.63125786684E+03  0.00000000000E+00 0.  1.
          2   -1    0    0  503    0 -0.00000000000E+00 -0.00000000000E+00 -0.21265849635E+04  0.21265849635E+04  0.00000000000E+00 0.  1.
         21    1    1    2  503  505  0.51403954497E+02  0.72009931459E+02  0.22380726399E+03  0.24066052476E+03  0.00000000000E+00 0.  1.
         21    1    1    2  504  501 -0.10805094448E+02 -0.30617525588E+02  0.70433004692E+02  0.77556373620E+02  0.00000000000E+00 0. -1.
         21    1    1    2  505  502  0.37164744263E+02  0.16220548775E+02  0.32265218679E+03  0.32519034128E+03  0.00000000000E+00 0.  1.
          2    1    1    2  501    0 -0.77763604312E+02 -0.57612954646E+02 -0.21122195521E+04  0.21144355907E+04  0.00000000000E+00 0.  1.
<scales pt_clust_3="96.72053" pt_clust_4="32.46818" pt_clust_5="30.92426" pt_clust_6="14000.00000"></scales>
<clustering>
<clus scale="   32.468">  1  4  2 -1</clus>
<clus scale="   30.924">  1  5  2 -1</clus>
<clus scale="   96.721">  1  3  2 -1</clus>
<clus scale="   32.468">  1  3  2 -1</clus>
</clustering>
</event>
<event>
 6    0  0.2433432E+002  0.1475196E+03  0.7546771E-02  0.1203554E+00
          2   -1    0    0  504    0 -0.00000000000E+00  0.00000000000E+00  0.11951263969E+04  0.11951263969E+04  0.00000000000E+00 0. -1.
         21   -1    0    0  501  502  0.00000000000E+00 -0.00000000000E+00 -0.29595127512E+02  0.29595127512E+02  0.00000000000E+00 0. -1.
         21    1    1    2  503  505  0.50304309417E+02 -0.29412441177E+02  0.22676460873E+03  0.23413202048E+03  0.00000000000E+00 0. -1.
         21    1    1    2  504  503  0.68657111039E+02  0.35940935017E+02  0.35323385578E+03  0.36163476959E+03  0.00000000000E+00 0. -1.
         21    1    1    2  505  502  0.26560598222E+02  0.17250076925E+02  0.76837785831E+01  0.32589430574E+02  0.00000000000E+00 0. -1.
          2    1    1    2  501    0 -0.14552201868E+03 -0.23778570764E+02  0.57784902624E+03  0.59636530372E+03  0.00000000000E+00 0. -1.
<scales pt_clust_3="56.05624" pt_clust_4="56.05624" pt_clust_5="31.67066" pt_clust_6="131.97211"></scales>
<clustering>
<clus scale="   31.671">  2  5  1 -1</clus>
<clus scale="   56.056">  3  4 -1 -1</clus>
<clus scale="  131.972">  2  6  1 -1</clus>
<clus scale="   31.671">  2  3  1 -1</clus>
</clustering>
</event>
<event>
 6    0  0.2433432E+002  0.2008334E+03  0.7546771E-02  0.1149038E+00
          2   -1    0    0  503    0 -0.00000000000E+00  0.00000000000E+00  0.24178514119E+04  0.24178514119E+04  0.00000000000E+00 0.  1.
         21   -1    0    0  501  502  0.00000000000E+00 -0.00000000000E+00 -0.33663306479E+02  0.33663306479E+02  0.00000000000E+00 0.  1.
         21    1    1    2  503  505 -0.97986497267E+02 -0.67461198521E+02  0.44198484444E+03  0.45771494368E+03  0.00000000000E+00 0.  1.
         21    1    1    2  504  502  0.83272391701E+02 -0.63193322003E+02  0.20197344844E+03  0.22742242862E+03  0.00000000000E+00 0.  1.
         21    1    1    2  505  504 -0.42809919324E+02 -0.67960102649E+02  0.27049471865E+03  0.28216778264E+03  0.00000000000E+00 0.  1.
          2    1    1    2  501    0  0.57524024890E+02  0.19861462317E+03  0.14697350939E+04  0.14842095635E+04  0.00000000000E+00 0.  1.
<scales pt_clust_3="33.24272" pt_clust_4="104.53558" pt_clust_5="33.24272" pt_clust_6="196.71632"></scales>
<clustering>
<clus scale="   33.243">  3  5 -1 -1</clus>
<clus scale="  104.536">  2  4  1 -1</clus>
<clus scale="  196.716">  1  6  2 -1</clus>
<clus scale="  104.536">  2  3  1 -1</clus>
</clustering>
</event>
<event>
 6    0  0.2433432E+002  0.1596051E+03  0.7546771E-02  0.1189143E+00
          2   -1    0    0  504    0 -0.00000000000E+00  0.00000000000E+00  0.18656479083E+04  0.18656479083E+04  0.00000000000E+00 0.  1.
         21   -1    0    0  501  502  0.00000000000E+00 -0.00000000000E+00 -0.35743077622E+02  0.35743077622E+02  0.00000000000E+00 0.  1.
         21    1    1    2  503  505  0.14249473042E+03 -0.41218259595E+02  0.30973739635E+03  0.34342531622E+03  0.00000000000E+00 0.  1.
         21    1    1    2  504  503 -0.16514825640E+03  0.22402138628E+02  0.79010019879E+03  0.80748630115E+03  0.00000000000E+00 0.  1.
         21    1    1    2  505  502  0.91465555167E+01 -0.34776630805E+02  0.26313306417E+02  0.44558541522E+02  0.00000000000E+00 0.  1.
          2    1    1    2  501    0  0.13506970459E+02  0.53592751772E+02  0.70375392916E+03  0.70592082708E+03  0.00000000000E+00 0.  1.
<scales pt_clust_3="159.60509" pt_clust_4="14000.00000" pt_clust_5="35.95933" pt_clust_6="53.99175"></scales>
<clustering>
<clus scale="   35.959">  2  5  1 -1</clus>
<clus scale="   53.992">  1  6  2 -1</clus>
<clus scale="  159.605">  2  3  1 -1</clus>
<clus scale="   35.959">  2  3  1 -1</clus>
</clustering>
</event>
<event>
 6    0  0.2433432E+002  0.1402199E+03  0.7546771E-02  0.1213033E+00
          4   -1    0    0  504    0 -0.00000000000E+00  0.00000000000E+00  0.49677769755E+03  0.49677769755E+03  0.00000000000E+00 0. -1.
         21   -1    0    0  501  502  0.00000000000E+00 -0.00000000000E+00 -0.14948900987E+03  0.14948900987E+03  0.00000000000E+00 0.  1.
         21    1    1    2  503  502 -0.16334498636E+01 -0.61679910253E+02 -0.67171091993E+02  0.91208744574E+02  0.00000000000E+00 0.  1.
         21    1    1    2  504  505 -0.11745664733E+02  0.35875197649E+02  0.33681287322E+02  0.50590706281E+02  0.00000000000E+00 0. -1.
         21    1    1    2  505  503 -0.76097359191E+01 -0.75496748250E+02 -0.29450992050E+02  0.81394275043E+02  0.00000000000E+00 0.  1.
          4    1    1    2  501    0  0.20988850516E+02  0.10130146085E+03  0.41022948441E+03  0.42307298152E+03  0.00000000000E+00 0. -1.
<scales pt_clust_3="35.53747" pt_clust_4="37.74905" pt_clust_5="35.53747" pt_clust_6="134.56788"></scales>
<clustering>
<clus scale="   35.537">  3  5 -1 -1</clus>
<clus scale="   37.749">  1  4  2 -1</clus>
<clus scale="  134.568">  1  6  2 -1</clus>
<clus scale="  140.220">  2  3  1 -1</clus>
</clustering>
</event>
<event>
 6    0  0.2433432E+002  0.1172134E+03  0.7546771E-02  0.1247766E+00
         21   -1    0    0  504  502  0.00000000000E+00  0.00000000000E+00  0.85768340261E+02  0.85768340261E+02  0.00000000000E+00 0.  1.
          1   -1    0    0  502    0 -0.00000000000E+00 -0.00000000000E+00 -0.21397266871E+04  0.21397266871E+04  0.00000000000E+00 0.  1.
         21    1    1    2  503  505 -0.81363145289E+02  0.25320193449E+02  0.28994009038E+01  0.85261246373E+02  0.00000000000E+00 0.  1.
         21    1    1    2  504  503 -0.10756149409E+02  0.47853091652E+02  0.45938051980E+01  0.49261711064E+02  0.00000000000E+00 0.  1.
         21    1    1    2  505  501  0.12287814458E+03 -0.12127854557E+03 -0.50924213854E+03  0.53771282270E+03  0.00000000000E+00 0.  1.
          1    1    1    2  501    0 -0.30758849882E+02  0.48105260470E+02 -0.15522094144E+04  0.15532592473E+04  0.00000000000E+00 0.  1.
<scales pt_clust_3="117.21340" pt_clust_4="49.04705" pt_clust_5="14000.00000" pt_clust_6="57.50991"></scales>
<clustering>
<clus scale="   49.047">  1  4  2 -1</clus>
<clus scale="   57.510">  2  6  1 -1</clus>
<clus scale="  117.213">  1  3  2 -1</clus>
<clus scale="   49.047">  1  3  2 -1</clus>
</clustering>
</event>
<event>
 6    0  0.2433432E+002  0.6982126E+03  0.7546771E-02  0.9720294E-01
          1   -1    0    0  505    0 -0.00000000000E+00  0.00000000000E+00  0.30887985727E+04  0.30887985727E+04  0.00000000000E+00 0. -1.
         21   -1    0    0  501  502  0.00000000000E+00 -0.00000000000E+00 -0.12342747157E+04  0.12342747157E+04  0.00000000000E+00 0.  1.
         21    1    1    2  503  504  0.43804902185E+03 -0.50837362236E+03 -0.91266017718E+03  0.11328191755E+04  0.00000000000E+00 0.  1.
         21    1    1    2  504  502  0.24052927285E+02 -0.18106537126E+02 -0.14045337283E+03  0.14364379533E+03  0.00000000000E+00 0.  1.
         21    1    1    2  505  503 -0.92963871611E+02 -0.66144335614E+02  0.94562542879E+02  0.14818714207E+03  0.00000000000E+00 0.  1.
          1    1    1    2  501    0 -0.36913807752E+03  0.59262449509E+03  0.28130748642E+04  0.28984231755E+04  0.00000000000E+00 0. -1.
<scales pt_clust_3="14000.00000" pt_clust_4="30.10631" pt_clust_5="113.87238" pt_clust_6="698.21265"></scales>
<clustering>
<clus scale="   30.106">  2  4  1 -1</clus>
<clus scale="  113.872">  1  5  2 -1</clus>
<clus scale="  698.213">  1  6  2 -1</clus>
<clus scale="   30.106">  2  3  1 -1</clus>
</clustering>
</event>
<event>
 6    0  0.2433432E+002  0.1020390E+03  0.7546771E-02  0.1276066E+00
         21   -1    0    0  503  502  0.00000000000E+00  0.00000000000E+00  0.10212717285E+04  0.10212717285E+04  0.00000000000E+00 0. -1.
          3   -1    0    0  504    0 -0.00000000000E+00 -0.00000000000E+00 -0.86559191609E+02  0.86559191609E+02  0.00000000000E+00 0. -1.
         21    1    1    2  503  501 -0.62174294502E+02  0.67067211977E+02  0.37212736471E+03  0.38320024711E+03  0.00000000000E+00 0. -1.
         21    1    1    2  504  505  0.55129203780E+02  0.14926596178E+02  0.10744320483E+03  0.12168021469E+03  0.00000000000E+00 0. -1.
         21    1    1    2  505  502  0.26766250811E+02  0.22848759520E+02  0.48958398229E+03  0.49084719996E+03  0.00000000000E+00 0.  1.
          3    1    1    2  501    0 -0.19721160089E+02 -0.10484256767E+03 -0.34442014897E+02  0.11210325839E+03  0.00000000000E+00 0. -1.
<scales pt_clust_3="14000.00000" pt_clust_4="64.05827" pt_clust_5="35.19230" pt_clust_6="102.03897"></scales>
<clustering>
<clus scale="   35.192">  1  5  2 -1</clus>
<clus scale="   64.058">  1  4  2 -1</clus>
<clus scale="  102.039">  2  6  1 -1</clus>
<clus scale="   35.192">  1  3  2 -1</clus>
</clustering>
</event>
<event>
 6    0  0.2433432E+002  0.1949810E+03  0.7546771E-02  0.1154044E+00
         21   -1    0    0  503  502  0.00000000000E+00  0.00000000000E+00  0.20932444138E+03  0.20932444138E+03  0.00000000000E+00 0.  1.
          1   -1    0    0  504    0 -0.00000000000E+00 -0.00000000000E+00 -0.19684522000E+04  0.19684522000E+04  0.00000000000E+00 0.  1.
         21    1    1    2  503  501  0.12593823935E+03 -0.17797194459E+03  0.69886662103E+02  0.22895108371E+03  0.00000000000E+00 0.  1.
         21    1    1    2  504  505 -0.29765152539E+02  0.10506942062E+02 -0.56359050909E+02  0.64596460867E+02  0.00000000000E+00 0.  1.
         21    1    1    2  505  502 -0.84407904069E+02  0.13748171798E+03 -0.61313375601E+02  0.17258402903E+03  0.00000000000E+00 0.  1.
          1    1    1    2  501    0 -0.11765182743E+02  0.29983284544E+02 -0.17113419942E+04  0.17116450677E+04  0.00000000000E+00 0.  1.
<scales pt_clust_3="14000.00000" pt_clust_4="31.56517" pt_clust_5="194.98102" pt_clust_6="55.06884"></scales>
<clustering>
<clus scale="   31.565">  2  4  1 -1</clus>
<clus scale="   55.069">  2  6  1 -1</clus>
<clus scale="  194.981">  2  5  1 -1</clus>
<clus scale="  194.981">  1  3  2 -1</clus>
</clustering>
</event>
<event>
 6    0  0.2433432E+002  0.9644202E+02  0.7546771E-02  0.1287961E+00
          2   -1    0    0  503    0 -0.00000000000E+00  0.00000000000E+00  0.35912792237E+03  0.35912792237E+03  0.00000000000E+00 0. -1.
         21   -1    0    0  505  502  0.00000000000E+00 -0.00000000000E+00 -0.59091243174E+03  0.59091243174E+03  0.00000000000E+00 0.  1.
         21    1    1    2  503  504 -0.15360362048E+01 -0.53320180261E+02 -0.18234010635E+02  0.56372689967E+02  0.00000000000E+00 0. -1.
         21    1    1    2  504  502  0.69064897832E+02 -0.46640860039E+02 -0.89834499281E+01  0.83821431092E+02  0.00000000000E+00 0. -1.
         21    1    1    2  505  501 -0.38294588368E+02  0.92167662660E+02 -0.50152062773E+03  0.51135534961E+03  0.00000000000E+00 0.  1.
          2    1    1    2  501    0 -0.29234273260E+02  0.77933776394E+01  0.29695357891E+03  0.29849088344E+03  0.00000000000E+00 0. -1.
<scales pt_clust_3="51.99498" pt_clust_4="14000.00000" pt_clust_5="96.44202" pt_clust_6="30.25524"></scales>
<clustering>
<clus scale="   30.255">  1  6  2 -1</clus>
<clus scale="   51.995">  1  3  2 -1</clus>
<clus scale="   96.442">  2  5  1 -1</clus>
<clus scale="   96.442">  2  3  1 -1</clus>
</clustering>
</event>
<event>
 6    0  0.2433432E+002  0.1119048E+03  0.7546771E-02  0.1257083E+00
         21   -1    0    0  505  502  0.00000000000E+00  0.00000000000E+00  0.86859880152E+02  0.86859880152E+02  0.00000000000E+00 0. -1.
          2   -1    0    0  504    0 -0.00000000000E+00 -0.00000000000E+00 -0.25411320764E+04  0.25411320764E+04  0.00000000000E+00 0.  1.
         21    1    1    2  503  502 -0.48940378893E+02  0.91828420866E+02  0.39536486363E+02  0.11131376069E+03  0.00000000000E+00 0. -1.
         21    1    1    2  504  503  0.66144229225E+01 -0.43644162837E+02 -0.11945634994E+03  0.12735141571E+03  0.00000000000E+00 0. -1.
         21    1    1    2  505  501  0.50253260923E+02  0.24213559508E+02 -0.10579320664E+03  0.11959886817E+03  0.00000000000E+00 0. -1.
          2    1    1    2  501    0 -0.79273049533E+01 -0.72397817537E+02 -0.22685591260E+04  0.22697279120E+04  0.00000000000E+00 0.  1.
<scales pt_clust_3="14000.00000" pt_clust_4="44.14254" pt_clust_5="55.21223" pt_clust_6="111.90476"></scales>
<clustering>
<clus scale="   44.143">  2  4  1 -1</clus>
<clus scale="   55.212">  1  5  2 -1</clus>
<clus scale="  111.905">  2  6  1 -1</clus>
<clus scale="   55.212">  1  3  2 -1</clus>
</clustering>
</event>
<event>
 6    0  0.2433432E+002  0.1282998E+03  0.7546771E-02  0.1230001E+00
          1   -1    0    0  504    0 -0.00000000000E+00  0.00000000000E+00  0.89709929020E+02  0.89709929020E+02  0.00000000000E+00 0.  1.
         21   -1    0    0  503  502  0.00000000000E+00 -0.00000000000E+00 -0.13142662454E+04  0.13142662454E+04  0.00000000000E+00 0. -1.
         21    1    1    2  503  501 -0.10815874667E+03  0.87695686781E+02 -0.48619251613E+03  0.50573907373E+03  0.00000000000E+00 0. -1.
         21    1    1    2  504  505  0.82633640983E+02 -0.12007771287E+03 -0.40822707694E+03  0.43347009366E+03  0.00000000000E+00 0. -1.
         21    1    1    2  505  502  0.51468735376E+02 -0.23492905199E+02 -0.38081590362E+03  0.38499571395E+03  0.00000000000E+00 0. -1.
          1    1    1    2  501    0 -0.25943629688E+02  0.55874931291E+02  0.50679180359E+02  0.79771293019E+02  0.00000000000E+00 0.  1.
<scales pt_clust_3="128.29983" pt_clust_4="14000.00000" pt_clust_5="56.57692" pt_clust_6="60.93561"></scales>
<clustering>
<clus scale="   56.577">  2  5  1 -1</clus>
<clus scale="   60.936">  1  6  2 -1</clus>
<clus scale="  128.300">  2  3  1 -1</clus>
<clus scale="   56.577">  2  3  1 -1</clus>
</clustering>
</event>
<event>
 6    0  0.2433432E+002  0.1033372E+03  0.7546771E-02  0.1273431E+00
         -2   -1    0    0    0  501 -0.00000000000E+00  0.00000000000E+00  0.86285629583E+03  0.86285629583E+03  0.00000000000E+00 0. -1.
         21   -1    0    0  504  502  0.00000000000E+00 -0.00000000000E+00 -0.32015837343E+03  0.32015837343E+03  0.00000000000E+00 0.  1.
         21    1    1    2  503  501 -0.42158580272E+02 -0.51224380038E+02  0.60194232294E+01  0.66614686496E+02  0.00000000000E+00 0.  1.
         21    1    1    2  504  503  0.37953976307E+02  0.12533729547E+02 -0.25381964143E+02  0.47348102366E+02  0.00000000000E+00 0.  1.
         21    1    1    2  505  502  0.37375775971E+02 -0.59666342473E+02 -0.24521914253E+03  0.25512633913E+03  0.00000000000E+00 0.  1.
         -2    1    1    2    0  505 -0.33171172006E+02  0.98356992964E+02  0.80727960584E+03  0.81392554127E+03  0.00000000000E+00 0. -1.
<scales pt_clust_3="62.77545" pt_clust_4="39.96997" pt_clust_5="103.33718" pt_clust_6="14000.00000"></scales>
<clustering>
<clus scale="   39.970">  2  4  1 -1</clus>
<clus scale="   62.775">  2  3  1 -1</clus>
<clus scale="  103.337">  2  5  1 -1</clus>
<clus scale="   39.970">  2  3  1 -1</clus>
</clustering>
</event>
<event>
 6    0  0.2433432E+002  0.1850375E+03  0.7546771E-02  0.1163015E+00
         21   -1    0    0  503  502  0.00000000000E+00  0.00000000000E+00  0.20205155016E+03  0.20205155016E+03  0.00000000000E+00 0. -1.
          2   -1    0    0  504    0 -0.00000000000E+00 -0.00000000000E+00 -0.76729424260E+03  0.76729424260E+03  0.00000000000E+00 0. -1.
         21    1    1    2  503  501 -0.53631681961E+02  0.80329186672E+02  0.86023194664E+02  0.12934112092E+03  0.00000000000E+00 0. -1.
         21    1    1    2  504  505  0.18688988682E+03 -0.33993888523E+02 -0.15865579082E+03  0.24749762466E+03  0.00000000000E+00 0. -1.
         21    1    1    2  505  502  0.49519281968E+02 -0.53546570687E+01  0.14526315314E+02  0.51882997943E+02  0.00000000000E+00 0.  1.
          2    1    1    2  501    0 -0.18277748683E+03 -0.40980641081E+02 -0.50713641160E+03  0.54062404923E+03  0.00000000000E+00 0. -1.
<scales pt_clust_3="80.01273" pt_clust_4="14000.00000" pt_clust_5="49.80795" pt_clust_6="185.03749"></scales>
<clustering>
<clus scale="   49.808">  1  5  2 -1</clus>
<clus scale="   80.013">  1  3  2 -1</clus>
<clus scale="  185.037">  2  6  1 -1</clus>
<clus scale="   49.808">  1  3  2 -1</clus>
</clustering>
</event>
<event>
 6    0  0.2433432E+002  0.1098750E+03  0.7546771E-02  0.1260802E+00
         21   -1    0    0  504  502  0.00000000000E+00  0.00000000000E+00  0.53663277619E+03  0.53663277619E+03  0.00000000000E+00 0.  1.
          1   -1    0    0  505    0 -0.00000000000E+00 -0.00000000000E+00 -0.50035268654E+03  0.50035268654E+03  0.00000000000E+00 0.  1.
         21    1    1    2  503  502 -0.30587926635E+02  0.60821344855E+02  0.44084459703E+03  0.44607041593E+03  0.00000000000E+00 0.  1.
         21    1    1    2  504  501  0.52578562497E+02 -0.89049113609E+02 -0.91075428272E+02  0.13780052069E+03  0.00000000000E+00 0.  1.
         21    1    1    2  505  503 -0.95076037459E+02  0.28452938131E+02  0.28619329768E+02  0.10328643969E+03  0.00000000000E+00 0.  1.
          1    1    1    2  501    0  0.73085401597E+02 -0.22516937621E+00 -0.34210840887E+03  0.34982808642E+03  0.00000000000E+00 0.  1.
<scales pt_clust_3="68.07979" pt_clust_4="14000.00000" pt_clust_5="109.87500" pt_clust_6="71.85492"></scales>
<clustering>
<clus scale="   68.080">  1  3  2 -1</clus>
<clus scale="   71.855">  2  6  1 -1</clus>
<clus scale="  109.875">  1  5  2 -1</clus>
<clus scale="   68.080">  1  3  2 -1</clus>
</clustering>
</event>
<event>
 6    0  0.2433432E+002  0.1791922E+03  0.7546771E-02  0.1168587E+00
         21   -1    0    0  501  502  0.00000000000E+00  0.00000000000E+00  0.45278219271E+02  0.45278219271E+02  0.00000000000E+00 0.  1.
          2   -1    0    0  503    0 -0.00000000000E+00 -0.00000000000E+00 -0.11154033431E+04  0.11154033431E+04  0.00000000000E+00 0.  1.
         21    1    1    2  503  505  0.34367110319E+02  0.19183226856E+02 -0.19285173800E+03  0.19682704924E+03  0.00000000000E+00 0. -1.
         21    1    1    2  504  502 -0.16702701858E+02  0.26753603634E+02 -0.62139934227E+02  0.69685773172E+02  0.00000000000E+00 0. -1.
         21    1    1    2  505  504 -0.19078661028E+03 -0.18669003819E+02 -0.45124975319E+03  0.49027992221E+03  0.00000000000E+00 0.  1.
          2    1    1    2  501    0  0.17312220182E+03 -0.27267826671E+02 -0.36388369842E+03  0.40388881776E+03  0.00000000000E+00 0.  1.
<scales pt_clust_3="39.31351" pt_clust_4="31.53943" pt_clust_5="179.19222" pt_clust_6="14000.00000"></scales>
<clustering>
<clus scale="   31.539">  1  4  2 -1</clus>
<clus scale="   39.314">  2  3  1 -1</clus>
<clus scale="  179.192">  2  5  1 -1</clus>
<clus scale="   31.539">  1  3  2 -1</clus>
</clustering>
</event>
<event>
 6    0  0.2433432E+002  0.1521170E+03  0.7546771E-02  0.1197896E+00
          2   -1    0    0  504    0 -0.00000000000E+00  0.00000000000E+00  0.12436418178E+04  0.12436418178E+04  0.00000000000E+00 0. -1.
         21   -1    0    0  505  502  0.00000000000E+00 -0.00000000000E+00 -0.34479571671E+03  0.34479571671E+03  0.00000000000E+00 0. -1.
         21    1    1    2  503  501 -0.73874403014E+02  0.13202859998E+03  0.66839921641E+02  0.16539816734E+03  0.00000000000E+00 0. -1.
         21    1    1    2  504  502 -0.20421850535E+02 -0.60596083593E+02 -0.29903210675E+02  0.70591354533E+02  0.00000000000E+00 0.  1.
         21    1    1    2  505  503  0.10127639652E+03 -0.11451837093E+03 -0.22096473710E+03  0.26869458650E+03  0.00000000000E+00 0. -1.
          2    1    1    2  501    0 -0.69801429739E+01  0.43085854545E+02  0.10828741272E+04  0.10837534261E+04  0.00000000000E+00 0. -1.
<scales pt_clust_3="14000.00000" pt_clust_4="59.10337" pt_clust_5="152.11699" pt_clust_6="43.64760"></scales>
<clustering>
<clus scale="   43.648">  1  6  2 -1</clus>
<clus scale="   59.103">  1  4  2 -1</clus>
<clus scale="  152.117">  2  5  1 -1</clus>
<clus scale="  152.117">  2  3  1 -1</clus>
</clustering>
</event>
<event>
 6    0  0.2433432E+002  0.1755244E+03  0.7546771E-02  0.1172206E+00
         21   -1    0    0  504  502  0.00000000000E+00  0.00000000000E+00  0.66152787905E+02  0.66152787905E+02  0.00000000000E+00 0. -1.
          1   -1    0    0  502    0 -0.00000000000E+00 -0.00000000000E+00 -0.24373108756E+04  0.24373108756E+04  0.00000000000E+00 0.  1.
         21    1    1    2  503  505 -0.37655204037E+02  0.55081192212E+02 -0.28008387593E+02  0.72362434330E+02  0.00000000000E+00 0. -1.
         21    1    1    2  504  503 -0.99621683071E+02  0.51641883722E+02 -0.47016617543E+02  0.12166316705E+03  0.00000000000E+00 0. -1.
         21    1    1    2  505  501  0.10208620848E+03 -0.10906338989E+03 -0.86043277522E+03  0.87330463049E+03  0.00000000000E+00 0.  1.
          1    1    1    2  501    0  0.35190678630E+02  0.23403139574E+01 -0.14357003074E+04  0.14361334317E+04  0.00000000000E+00 0.  1.
<scales pt_clust_3="32.55536" pt_clust_4="32.55536" pt_clust_5="170.37128" pt_clust_6="35.26841"></scales>
<clustering>
<clus scale="   32.555">  3  4 -1 -1</clus>
<clus scale="   35.268">  2  6  1 -1</clus>
<clus scale="  170.371">  2  5  1 -1</clus>
<clus scale="  175.524">  1  3  2 -1</clus>
</clustering>
</event>
<event>
 6    0  0.2433432E+002  0.1477880E+03  0.7546771E-02  0.1203218E+00
         21   -1    0    0  503  502  0.00000000000E+00  0.00000000000E+00  0.66053989614E+02  0.66053989614E+02  0.00000000000E+00 0.  1.
          2   -1    0    0  505    0 -0.00000000000E+00 -0.00000000000E+00 -0.19644818578E+04  0.19644818578E+04  0.00000000000E+00 0.  1.
         21    1    1    2  503  501 -0.17515946660E+02 -0.74621099258E+02 -0.72229977765E+02  0.10531992466E+03  0.00000000000E+00 0.  1.
         21    1    1    2  504  502  0.10414680039E+03 -0.69747304552E+02 -0.78639925719E+02  0.14797121491E+03  0.00000000000E+00 0.  1.
         21    1    1    2  505  504 -0.12797913217E+03  0.88453775690E+02 -0.42033534889E+03  0.44820144381E+03  0.00000000000E+00 0. -1.
          2    1    1    2  501    0  0.41348278433E+02  0.55914628120E+02 -0.13272226158E+04  0.13290432640E+04  0.00000000000E+00 0.  1.
<scales pt_clust_3="67.84543" pt_clust_4="147.78801" pt_clust_5="14000.00000" pt_clust_6="69.54226"></scales>
<clustering>
<clus scale="   69.542">  2  6  1 -1</clus>
<clus scale="   67.845">  1  3  2 -1</clus>
<clus scale="  147.788">  1  4  2 -1</clus>
<clus scale="   67.845">  1  3  2 -1</clus>
</clustering>
</event>
<event>
 6    0  0.2433432E+002  0.8593321E+02  0.7546771E-02  0.1313010E+00
         -1   -1    0    0    0  501 -0.00000000000E+00  0.00000000000E+00  0.43026583354E+03  0.43026583354E+03  0.00000000000E+00 0. -1.
         21   -1    0    0  504  502  0.00000000000E+00 -0.00000000000E+00 -0.13226789408E+03  0.13226789408E+03  0.00000000000E+00 0. -1.
         21    1    1    2  503  501  0.13684735606E+02  0.10521367953E+03  0.27478237607E+01  0.10613548362E+03  0.00000000000E+00 0. -1.
         21    1    1    2  504  503  0.30893203010E+02  0.14347986841E+02 -0.10688258042E+02  0.35700050120E+02  0.00000000000E+00 0. -1.
         21    1    1    2  505  502 -0.35209823833E+02 -0.76368288496E+02 -0.24284680805E+02  0.87530525555E+02  0.00000000000E+00 0. -1.
         -1    1    1    2    0  505 -0.93681147836E+01 -0.43193377871E+02  0.33022305455E+03  0.33316766833E+03  0.00000000000E+00 0. -1.
<scales pt_clust_3="85.93321" pt_clust_4="34.06251" pt_clust_5="14000.00000" pt_clust_6="43.92149"></scales>
<clustering>
<clus scale="   34.063">  2  4  1 -1</clus>
<clus scale="   43.921">  1  6  2 -1</clus>
<clus scale="   85.933">  1  3  2 -1</clus>
<clus scale="   34.063">  2  3  1 -1</clus>
</clustering>
</event>
<event>
 6    0  0.2433432E+002  0.1027849E+03  0.7546771E-02  0.1274546E+00
          2   -1    0    0  503    0 -0.00000000000E+00  0.00000000000E+00  0.16478948924E+04  0.16478948924E+04  0.00000000000E+00 0. -1.
         21   -1    0    0  505  502  0.00000000000E+00 -0.00000000000E+00 -0.12505597041E+03  0.12505597041E+03  0.00000000000E+00 0. -1.
         21    1    1    2  503  502 -0.10449908935E+02 -0.44273334779E+02 -0.56426919249E+02  0.72479831575E+02  0.00000000000E+00 0. -1.
         21    1    1    2  504  501  0.56500669421E+02  0.13825699554E+03  0.12338117576E+03  0.19372722316E+03  0.00000000000E+00 0. -1.
         21    1    1    2  505  504  0.46318003517E+02 -0.50095632022E+02  0.25698983202E+02  0.72906567160E+02  0.00000000000E+00 0. -1.
          2    1    1    2  501    0 -0.92368764003E+02 -0.43888028739E+02  0.14301856823E+04  0.14338372409E+04  0.00000000000E+00 0. -1.
<scales pt_clust_3="45.48988" pt_clust_4="14000.00000" pt_clust_5="79.49519" pt_clust_6="102.78493"></scales>
<clustering>
<clus scale="   45.490">  2  3  1 -1</clus>
<clus scale="   79.495">  2  5  1 -1</clus>
<clus scale="  102.785">  1  6  2 -1</clus>
<clus scale="   45.490">  2  3  1 -1</clus>
</clustering>
</event>
<event>
 6    0  0.2433432E+002  0.2157951E+03  0.7546771E-02  0.1137057E+00
         21   -1    0    0  501  502  0.00000000000E+00  0.00000000000E+00  0.58433904043E+03  0.58433904043E+03  0.00000000000E+00 0.  1.
          1   -1    0    0  503    0 -0.00000000000E+00 -0.00000000000E+00 -0.14489449811E+03  0.14489449811E+03  0.00000000000E+00 0.  1.
         21    1    1    2  503  505  0.11910334101E+03 -0.68791523877E+02  0.89887993456E+02  0.16430986265E+03  0.00000000000E+00 0.  1.
         21    1    1    2  504  502 -0.16809027520E+02  0.56006154386E+02  0.86907155536E+02  0.10474772751E+03  0.00000000000E+00 0.  1.
         21    1    1    2  505  504  0.47406412718E+02  0.16001857937E+03  0.13296462845E+03  0.21338440929E+03  0.00000000000E+00 0.  1.
          1    1    1    2  501    0 -0.14970072621E+03 -0.14723320988E+03  0.12968476487E+03  0.24679153908E+03  0.00000000000E+00 0.  1.
<scales pt_clust_3="137.54228" pt_clust_4="42.93590" pt_clust_5="42.93590" pt_clust_6="203.23864"></scales>
<clustering>
<clus scale="   42.936">  4  5 -1 -1</clus>
<clus scale="  137.542">  2  3  1 -1</clus>
<clus scale="  203.239">  2  6  1 -1</clus>
<clus scale="  215.795">  1  3  2 -1</clus>
</clustering>
</event>
<event>
 6    0  0.2433432E+002  0.3660805E+03  0.7546771E-02  0.1056202E+00
          1   -1    0    0  505    0 -0.00000000000E+00  0.00000000000E+00  0.43393342031E+03  0.43393342031E+03  0.00000000000E+00 0.  1.
         21   -1    0    0  501  502  0.00000000000E+00 -0.00000000000E+00 -0.35982506303E+03  0.35982506303E+03  0.00000000000E+00 0. -1.
         21    1    1    2  503  502  0.43385516870E+00 -0.56932408755E+02 -0.23350163266E+01  0.56981924311E+02  0.00000000000E+00 0.  1.
         21    1    1    2  504  503  0.21159701808E+03 -0.11611995243E+03  0.13544687833E+02  0.24174490683E+03  0.00000000000E+00 0. -1.
         21    1    1    2  505  504  0.90001889334E+02 -0.48783124772E+02  0.63153916041E+02  0.12028528779E+03  0.00000000000E+00 0. -1.
          1    1    1    2  501    0 -0.30203276258E+03  0.22183548596E+03 -0.25523026959E+00  0.37474636442E+03  0.00000000000E+00 0.  1.
<scales pt_clust_3="56.93406" pt_clust_4="54.59820" pt_clust_5="54.59820" pt_clust_6="356.35190"></scales>
<clustering>
<clus scale="   54.598">  4  5 -1 -1</clus>
<clus scale="   56.934">  2  3  1 -1</clus>
<clus scale="  356.352">  2  6  1 -1</clus>
<clus scale="   56.934">  2  3  1 -1</clus>
</clustering>
</event>
<event>
 6    0  0.2433432E+002  0.9224531E+02  0.7546771E-02  0.1297504E+00
         -1   -1    0    0    0  501 -0.00000000000E+00  0.00000000000E+00  0.30263201295E+03  0.30263201295E+03  0.00000000000E+00 0.  1.
         21   -1    0    0  503  502  0.00000000000E+00 -0.00000000000E+00 -0.79132326962E+02  0.79132326962E+02  0.00000000000E+00 0.  1.
         21    1    1    2  503  504 -0.46165950320E+02 -0.18595007118E-01  0.22187201285E+02  0.51220769377E+02  0.00000000000E+00 0. -1.
         21    1    1    2  504  501 -0.20232010962E+00  0.10356393212E+03  0.88441462670E+02  0.13618891764E+03  0.00000000000E+00 0.  1.
         21    1    1    2  505  502  0.36324828512E+02 -0.18002970968E+02 -0.12342373706E+02  0.42378465272E+02  0.00000000000E+00 0.  1.
         -1    1    1    2    0  505  0.10043441917E+02 -0.85542366144E+02  0.12521339574E+03  0.15197618762E+03  0.00000000000E+00 0.  1.
<scales pt_clust_3="36.33549" pt_clust_4="14000.00000" pt_clust_5="40.54134" pt_clust_6="92.24531"></scales>
<clustering>
<clus scale="   40.541">  2  5  1 -1</clus>
<clus scale="   36.335">  2  3  1 -1</clus>
<clus scale="   92.245">  1  6  2 -1</clus>
<clus scale="   40.541">  2  3  1 -1</clus>
</clustering>
</event>
<event>
 6    0  0.2433432E+002  0.8365051E+02  0.7546771E-02  0.1319000E+00
         21   -1    0    0  504  502  0.00000000000E+00  0.00000000000E+00  0.26153818726E+03  0.26153818726E+03  0.00000000000E+00 0. -1.
          2   -1    0    0  505    0 -0.00000000000E+00 -0.00000000000E+00 -0.12868933282E+04  0.12868933282E+04  0.00000000000E+00 0. -1.
         21    1    1    2  503  501 -0.40366209510E+02 -0.42827444705E+02  0.90934427677E+00  0.58859559947E+02  0.00000000000E+00 0. -1.
         21    1    1    2  504  503 -0.18156392110E+02  0.49443418019E+02  0.18391741040E+03  0.19131105563E+03  0.00000000000E+00 0. -1.
         21    1    1    2  505  502  0.99135199412E+02  0.65618227499E+02 -0.40420855440E+02  0.12556824876E+03  0.00000000000E+00 0. -1.
          2    1    1    2  501    0 -0.40612597792E+02 -0.72234200813E+02 -0.11697610402E+04  0.11726926511E+04  0.00000000000E+00 0. -1.
<scales pt_clust_3="52.89153" pt_clust_4="52.67168" pt_clust_5="14000.00000" pt_clust_6="83.65051"></scales>
<clustering>
<clus scale="   52.672">  1  4  2 -1</clus>
<clus scale="   52.892">  1  3  2 -1</clus>
<clus scale="   83.651">  2  6  1 -1</clus>
<clus scale="   52.672">  1  3  2 -1</clus>
</clustering>
</event>
<event>
 6    0  0.2433432E+002  0.1337313E+03  0.7546771E-02  0.1222022E+00
          2   -1    0    0  504    0 -0.00000000000E+00  0.00000000000E+00  0.43785687429E+03  0.43785687429E+03  0.00000000000E+00 0.  1.
         21   -1    0    0  503  502  0.00000000000E+00 -0.00000000000E+00 -0.24562914983E+04  0.24562914983E+04  0.00000000000E+00 0.  1.
         21    1    1    2  503  501  0.20038832719E+02  0.91258139247E+02 -0.20257650081E+04  0.20279185070E+04  0.00000000000E+00 0.  1.
         21    1    1    2  504  505 -0.80081833380E+02 -0.17271112062E+03 -0.28780292114E+03  0.34506919978E+03  0.00000000000E+00 0. -1.
         21    1    1    2  505  502  0.36082164057E+02  0.23413052593E+02 -0.10639069489E+03  0.11475658393E+03  0.00000000000E+00 0. -1.
          2    1    1    2  501    0  0.23960836604E+02  0.58039928778E+02  0.40152400019E+03  0.40640408186E+03  0.00000000000E+00 0.  1.
<scales pt_clust_3="14000.00000" pt_clust_4="133.73133" pt_clust_5="43.01271" pt_clust_6="62.82820"></scales>
<clustering>
<clus scale="   43.013">  2  5  1 -1</clus>
<clus scale="   62.828">  1  6  2 -1</clus>
<clus scale="  133.731">  1  4  2 -1</clus>
<clus scale="   43.013">  2  3  1 -1</clus>
</clustering>
</event>
<event>
 6    0  0.2433432E+002  0.1034138E+03  0.7546771E-02  0.1273277E+00
          1   -1    0    0  505    0 -0.00000000000E+00  0.00000000000E+00  0.16465479373E+03  0.16465479373E+03  0.00000000000E+00 0. -1.
         21   -1    0    0  503  502  0.00000000000E+00 -0.00000000000E+00 -0.68377018646E+03  0.68377018646E+03  0.00000000000E+00 0.  1.
         21    1    1    2  503  501  0.17743845229E+02 -0.13248269384E+03 -0.30963993458E+03  0.33725865044E+03  0.00000000000E+00 0.  1.
         21    1    1    2  504  502 -0.23080947782E+02  0.39347676723E+02 -0.24862376336E+03  0.25277409979E+03  0.00000000000E+00 0.  1.
         21    1    1    2  505  504  0.98367615546E+02 -0.61740745991E+01 -0.33547889228E+02  0.10411420584E+03  0.00000000000E+00 0.  1.
          1    1    1    2  501    0 -0.93030512992E+02  0.99309091712E+02  0.72696194434E+02  0.15427802413E+03  0.00000000000E+00 0. -1.
<scales pt_clust_3="14000.00000" pt_clust_4="45.61765" pt_clust_5="94.69923" pt_clust_6="103.41379"></scales>
<clustering>
<clus scale="   45.618">  2  4  1 -1</clus>
<clus scale="   94.699">  1  5  2 -1</clus>
<clus scale="  103.414">  1  6  2 -1</clus>
<clus scale="   45.618">  2  3  1 -1</clus>
</clustering>
</event>
<event>
 6    0  0.2433432E+002  0.1627139E+03  0.7546771E-02  0.1185666E+00
         21   -1    0    0  501  502  0.00000000000E+00  0.00000000000E+00  0.70805513331E+02  0.70805513331E+02  0.00000000000E+00 0. -1.
          2   -1    0    0  503    0 -0.00000000000E+00 -0.00000000000E+00 -0.33646864610E+04  0.33646864610E+04  0.00000000000E+00 0. -1.
         21    1    1    2  503  504  0.80105808935E+02  0.17937755636E+03 -0.36691951166E+03  0.41620088465E+03  0.00000000000E+00 0. -1.
         21    1    1    2  504  505 -0.11166710351E+01 -0.56269088079E+02 -0.49157076843E+02  0.74725333263E+02  0.00000000000E+00 0. -1.
         21    1    1    2  505  502  0.36441849375E+02 -0.11145519992E+02  0.19496265246E+02  0.42805786529E+02  0.00000000000E+00 0. -1.
          2    1    1    2  501    0 -0.11543098727E+03 -0.11196294829E+03 -0.28973006244E+04  0.29017599699E+04  0.00000000000E+00 0. -1.
<scales pt_clust_3="14000.00000" pt_clust_4="60.79906" pt_clust_5="38.10815" pt_clust_6="162.71394"></scales>
<clustering>
<clus scale="   38.108">  1  5  2 -1</clus>
<clus scale="   60.799">  1  4  2 -1</clus>
<clus scale="  162.714">  2  6  1 -1</clus>
<clus scale="   38.108">  1  3  2 -1</clus>
</clustering>
</event>
<event>
 6    0  0.2433432E+002  0.1693926E+03  0.7546771E-02  0.1178483E+00
         21   -1    0    0  504  502  0.00000000000E+00  0.00000000000E+00  0.35865307597E+03  0.35865307597E+03  0.00000000000E+00 0.  1.
          1   -1    0    0  502    0 -0.00000000000E+00 -0.00000000000E+00 -0.98292575269E+03  0.98292575269E+03  0.00000000000E+00 0.  1.
         21    1    1    2  503  501  0.11655921568E+03 -0.35453608687E+02  0.36040241586E+02  0.12705080929E+03  0.00000000000E+00 0.  1.
         21    1    1    2  504  505 -0.41954895563E+02 -0.10603310238E+01  0.47881654221E+02  0.63670953931E+02  0.00000000000E+00 0. -1.
         21    1    1    2  505  503  0.99560027263E+02  0.25065541779E+02  0.20065736313E+03  0.22539711132E+03  0.00000000000E+00 0.  1.
          1    1    1    2  501    0 -0.17416434738E+03  0.11448397932E+02 -0.90885193566E+03  0.92545995411E+03  0.00000000000E+00 0.  1.
<scales pt_clust_3="169.39265" pt_clust_4="41.96829" pt_clust_5="74.15270" pt_clust_6="14000.00000"></scales>
<clustering>
<clus scale="   41.968">  1  4  2 -1</clus>
<clus scale="   74.153">  1  5  2 -1</clus>
<clus scale="  169.393">  1  3  2 -1</clus>
<clus scale="   41.968">  1  3  2 -1</clus>
</clustering>
</event>
<event>
 6    0  0.2433432E+002  0.1393427E+03  0.7546771E-02  0.1214216E+00
          2   -1    0    0  502    0 -0.00000000000E+00  0.00000000000E+00  0.15463046671E+04  0.15463046671E+04  0.00000000000E+00 0. -1.
         21   -1    0    0  504  502  0.00000000000E+00 -0.00000000000E+00 -0.87470001305E+02  0.87470001305E+02  0.00000000000E+00 0.  1.
         21    1    1    2  503  501  0.42617002579E+02 -0.14707341687E+03  0.63341747037E+02  0.16570750066E+03  0.00000000000E+00 0.  1.
         21    1    1    2  504  505 -0.32127915828E+02 -0.12832023648E+02 -0.81536791856E+01  0.35543582974E+02  0.00000000000E+00 0.  1.
         21    1    1    2  505  503 -0.59266554296E+02  0.28270879160E+02  0.90057227894E+02  0.11145434654E+03  0.00000000000E+00 0.  1.
          2    1    1    2  501    0  0.48777467545E+02  0.13163456136E+03  0.13135893700E+04  0.13210692382E+04  0.00000000000E+00 0. -1.
<scales pt_clust_3="14000.00000" pt_clust_4="34.59572" pt_clust_5="69.61439" pt_clust_6="139.34268"></scales>
<clustering>
<clus scale="   34.596">  2  4  1 -1</clus>
<clus scale="   69.614">  2  5  1 -1</clus>
<clus scale="  139.343">  1  6  2 -1</clus>
<clus scale="   34.596">  2  3  1 -1</clus>
</clustering>
</event>
<event>
 6    0  0.2433432E+002  0.1311653E+03  0.7546771E-02  0.1225737E+00
         21   -1    0    0  504  502  0.00000000000E+00  0.00000000000E+00  0.47840140910E+03  0.47840140910E+03  0.00000000000E+00 0. -1.
          1   -1    0    0  503    0 -0.00000000000E+00 -0.00000000000E+00 -0.10049310159E+04  0.10049310159E+04  0.00000000000E+00 0.  1.
         21    1    1    2  503  502  0.75358596539E+02  0.58460071463E+02  0.27334502147E+02  0.99215286299E+02  0.00000000000E+00 0. -1.
         21    1    1    2  504  505  0.14802705844E+02  0.34530201958E+02  0.19684758140E+03  0.20040066181E+03  0.00000000000E+00 0.  1.
         21    1    1    2  505  501  0.45064591858E+02 -0.90651314519E+02  0.19961284091E+03  0.22381636338E+03  0.00000000000E+00 0. -1.
          1    1    1    2  501    0 -0.13522589424E+03 -0.23389589023E+01 -0.95032453125E+03  0.95990011350E+03  0.00000000000E+00 0.  1.
<scales pt_clust_3="14000.00000" pt_clust_4="37.56934" pt_clust_5="85.60898" pt_clust_6="131.16535"></scales>
<clustering>
<clus scale="   37.569">  1  4  2 -1</clus>
<clus scale="   85.609">  1  5  2 -1</clus>
<clus scale="  131.165">  2  6  1 -1</clus>
<clus scale="   37.569">  1  3  2 -1</clus>
</clustering>
</event>
<event>
 6    0  0.2433432E+002  0.2257071E+03  0.7546771E-02  0.1129698E+00
         21   -1    0    0  504  502  0.00000000000E+00  0.00000000000E+00  0.29396054582E+03  0.29396054582E+03  0.00000000000E+00 0. -1.
          1   -1    0    0  503    0 -0.00000000000E+00 -0.00000000000E+00 -0.37594053558E+03  0.37594053558E+03  0.00000000000E+00 0. -1.
         21    1    1    2  503  505 -0.50400508846E+02 -0.19569935512E+03 -0.15673782975E+00  0.20208531231E+03  0.00000000000E+00 0. -1.
         21    1    1    2  504  501 -0.14068759854E+02  0.39595192098E+02  0.30763589507E+02  0.52077900115E+02  0.00000000000E+00 0. -1.
         21    1    1    2  505  502 -0.16836053383E+02 -0.69089918506E+02  0.81041668994E+02  0.10781753868E+03  0.00000000000E+00 0. -1.
          1    1    1    2  501    0  0.81305322083E+02  0.22519408153E+03 -0.19362851043E+03  0.30792033029E+03  0.00000000000E+00 0. -1.
<scales pt_clust_3="225.70714" pt_clust_4="42.02034" pt_clust_5="58.60945" pt_clust_6="14000.00000"></scales>
<clustering>
<clus scale="   42.020">  1  4  2 -1</clus>
<clus scale="   58.609">  1  5  2 -1</clus>
<clus scale="  225.707">  1  3  2 -1</clus>
<clus scale="   42.020">  1  3  2 -1</clus>
</clustering>
</event>
<event>
 6    0  0.2433432E+002  0.1396910E+03  0.7546771E-02  0.1213745E+00
         21   -1    0    0  503  502  0.00000000000E+00  0.00000000000E+00  0.17220775922E+03  0.17220775922E+03  0.00000000000E+00 0.  1.
          3   -1    0    0  505    0 -0.00000000000E+00 -0.00000000000E+00 -0.69552307599E+03  0.69552307599E+03  0.00000000000E+00 0. -1.
         21    1    1    2  503  501 -0.86006505556E+02  0.65404924656E+02 -0.27767771973E+03  0.29795945899E+03  0.00000000000E+00 0. -1.
         21    1    1    2  504  502  0.82427163969E+02 -0.11848693628E+03  0.10518859351E+03  0.17860020054E+03  0.00000000000E+00 0.  1.
         21    1    1    2  505  504  0.43276807258E+02  0.72007903114E+02 -0.77401407512E+02  0.11423221105E+03  0.00000000000E+00 0. -1.
          3    1    1    2  501    0 -0.39697465671E+02 -0.18925891492E+02 -0.27342478303E+03  0.27693896462E+03  0.00000000000E+00 0. -1.
<scales pt_clust_3="139.69099" pt_clust_4="14000.00000" pt_clust_5="75.85501" pt_clust_6="43.97816"></scales>
<clustering>
<clus scale="   43.978">  2  6  1 -1</clus>
<clus scale="   75.855">  2  5  1 -1</clus>
<clus scale="  139.691">  2  3  1 -1</clus>
<clus scale="  139.691">  1  3  2 -1</clus>
</clustering>
</event>
<event>
 6    0  0.2433432E+002  0.1973842E+03  0.7546771E-02  0.1151965E+00
          2   -1    0    0  503    0 -0.00000000000E+00  0.00000000000E+00  0.24609128025E+04  0.24609128025E+04  0.00000000000E+00 0.  1.
         21   -1    0    0  505  502  0.00000000000E+00 -0.00000000000E+00 -0.80870841514E+03  0.80870841514E+03  0.00000000000E+00 0. -1.
         21    1    1    2  503  504 -0.12725808439E+02  0.73643122392E+02  0.19787511786E+02  0.77309774924E+02  0.00000000000E+00 0. -1.
         21    1    1    2  504  502  0.34589304735E+02 -0.24656859587E+02 -0.18465172614E+03  0.18947464393E+03  0.00000000000E+00 0. -1.
         21    1    1    2  505  501 -0.75032742803E+02 -0.23869610708E+03 -0.56223111228E+03  0.61539383133E+03  0.00000000000E+00 0. -1.
          2    1    1    2  501    0  0.53169246507E+02  0.18970984427E+03  0.23792997140E+04  0.23874429674E+04  0.00000000000E+00 0.  1.
<scales pt_clust_3="73.35098" pt_clust_4="42.47800" pt_clust_5="14000.00000" pt_clust_6="197.38424"></scales>
<clustering>
<clus scale="   42.478">  2  4  1 -1</clus>
<clus scale="   73.351">  2  3  1 -1</clus>
<clus scale="  197.384">  1  6  2 -1</clus>
<clus scale="   42.478">  2  3  1 -1</clus>
</clustering>
</event>
<event>
 6    0  0.2433432E+002  0.7271909E+02  0.7546771E-02  0.1351083E+00
          2   -1    0    0  503    0 -0.00000000000E+00  0.00000000000E+00  0.15588361904E+04  0.15588361904E+04  0.00000000000E+00 0. -1.
         21   -1    0    0  505  502  0.00000000000E+00 -0.00000000000E+00 -0.19744544024E+03  0.19744544024E+03  0.00000000000E+00 0. -1.
         21    1    1    2  503  502  0.10409885040E+02  0.10023403047E+03  0.17045125658E+03  0.19801226588E+03  0.00000000000E+00 0. -1.
         21    1    1    2  504  501 -0.53013339778E+02 -0.29782852331E+02  0.84356295592E+02  0.10398758144E+03  0.00000000000E+00 0.  1.
         21    1    1    2  505  504  0.50773918684E+01 -0.71471075563E+02 -0.16617809335E+03  0.18096699494E+03  0.00000000000E+00 0. -1.
          2    1    1    2  501    0  0.37526062869E+02  0.10198974293E+01  0.12727612913E+04  0.12733147884E+04  0.00000000000E+00 0. -1.
<scales pt_clust_3="72.71909" pt_clust_4="50.19361" pt_clust_5="14000.00000" pt_clust_6="37.53992"></scales>
<clustering>
<clus scale="   37.540">  1  6  2 -1</clus>
<clus scale="   50.194">  1  4  2 -1</clus>
<clus scale="   72.719">  1  3  2 -1</clus>
<clus scale="   72.719">  2  3  1 -1</clus>
</clustering>
</event>
<event>
 6    0  0.2433432E+002  0.2541093E+03  0.7546771E-02  0.1110735E+00
         21   -1    0    0  505  502  0.00000000000E+00  0.00000000000E+00  0.32672981759E+03  0.32672981759E+03  0.00000000000E+00 0. -1.
          1   -1    0    0  504    0 -0.00000000000E+00 -0.00000000000E+00 -0.16721042240E+04  0.16721042240E+04  0.00000000000E+00 0.  1.
         21    1    1    2  503  501  0.12794354121E+03 -0.29926860970E+02 -0.37434636127E+02  0.13662546880E+03  0.00000000000E+00 0. -1.
         21    1    1    2  504  502 -0.24948808716E+03 -0.66216627352E+02  0.19496968253E+03  0.32348434967E+03  0.00000000000E+00 0. -1.
         21    1    1    2  505  503  0.57432959425E+02  0.41435091073E+02 -0.58496627327E+02  0.91854597104E+02  0.00000000000E+00 0. -1.
          1    1    1    2  501    0  0.64111586531E+02  0.54708397248E+02 -0.14444128255E+04  0.14468696260E+04  0.00000000000E+00 0.  1.
<scales pt_clust_3="67.69888" pt_clust_4="236.78697" pt_clust_5="67.69888" pt_clust_6="84.28110"></scales>
<clustering>
<clus scale="   67.699">  3  5 -1 -1</clus>
<clus scale="   84.281">  2  6  1 -1</clus>
<clus scale="  236.787">  1  4  2 -1</clus>
<clus scale="  236.787">  1  3  2 -1</clus>
</clustering>
</event>
<event>
 6    0  0.2433432E+002  0.9690963E+02  0.7546771E-02  0.1286932E+00
          2   -1    0    0  505    0 -0.00000000000E+00  0.00000000000E+00  0.12912159899E+04  0.12912159899E+04  0.00000000000E+00 0. -1.
         21   -1    0    0  504  502  0.00000000000E+00 -0.00000000000E+00 -0.96188023771E+03  0.96188023771E+03  0.00000000000E+00 0. -1.
         21    1    1    2  503  502 -0.24730182588E+02 -0.63166179408E+02 -0.94643645704E+03  0.94886432928E+03  0.00000000000E+00 0. -1.
         21    1    1    2  504  501  0.54212620819E+02 -0.47107514940E+02  0.18597541140E+03  0.19936143023E+03  0.00000000000E+00 0. -1.
         21    1    1    2  505  503 -0.62069503138E+02  0.11393541092E+03  0.59469341660E+03  0.60868231520E+03  0.00000000000E+00 0. -1.
          2    1    1    2  501    0  0.32587064907E+02 -0.36617165699E+01  0.49510338123E+03  0.49618815289E+03  0.00000000000E+00 0. -1.
<scales pt_clust_3="67.82180" pt_clust_4="96.90963" pt_clust_5="14000.00000" pt_clust_6="32.79215"></scales>
<clustering>
<clus scale="   32.792">  1  6  2 -1</clus>
<clus scale="   67.822">  2  3  1 -1</clus>
<clus scale="   96.910">  2  4  1 -1</clus>
<clus scale="   67.822">  2  3  1 -1</clus>
</clustering>
</event>
<event>
 6    0  0.2433432E+002  0.9733459E+02  0.7546771E-02  0.1286003E+00
         21   -1    0    0  501  502  0.00000000000E+00  0.00000000000E+00  0.71624882140E+02  0.71624882140E+02  0.00000000000E+00 0.  1.
          1   -1    0    0  504    0 -0.00000000000E+00 -0.00000000000E+00 -0.15097151965E+04  0.15097151965E+04  0.00000000000E+00 0.  1.
         21    1    1    2  503  502  0.15505394813E+02 -0.36664777969E+02  0.14591906416E+02  0.42398666779E+02  0.00000000000E+00 0.  1.
         21    1    1    2  504  505  0.50969835976E+02  0.44099909470E+02 -0.13480484487E+03  0.15071520294E+03  0.00000000000E+00 0.  1.
         21    1    1    2  505  503 -0.12280403819E+03 -0.30262168634E+02 -0.81732975522E+02  0.15058854516E+03  0.00000000000E+00 0.  1.
          1    1    1    2  501    0  0.56328807403E+02  0.22827037133E+02 -0.12361444004E+04  0.12376376638E+04  0.00000000000E+00 0.  1.
<scales pt_clust_3="39.80858" pt_clust_4="97.33459" pt_clust_5="14000.00000" pt_clust_6="60.79264"></scales>
<clustering>
<clus scale="   39.809">  1  3  2 -1</clus>
<clus scale="   60.793">  2  6  1 -1</clus>
<clus scale="   97.335">  2  4  1 -1</clus>
<clus scale="   39.809">  1  3  2 -1</clus>
</clustering>
</event>
<event>
 6    0  0.2433432E+002  0.7941596E+02  0.7546771E-02  0.1330717E+00
         21   -1    0    0  504  502  0.00000000000E+00  0.00000000000E+00  0.42822995259E+02  0.42822995259E+02  0.00000000000E+00 0.  1.
          2   -1    0    0  505    0 -0.00000000000E+00 -0.00000000000E+00 -0.17709337098E+04  0.17709337098E+04  0.00000000000E+00 0.  1.
         21    1    1    2  503  501  0.53663464098E+01 -0.10457935259E+03 -0.28447791246E+03  0.30313911219E+03  0.00000000000E+00 0.  1.
         21    1    1    2  504  503  0.32025835324E+02  0.69583742229E+02 -0.25288383298E+02  0.80666310444E+02  0.00000000000E+00 0.  1.
         21    1    1    2  505  502 -0.27679986712E+02  0.71439934487E+02 -0.26150443426E+03  0.27249663308E+03  0.00000000000E+00 0.  1.
          2    1    1    2  501    0 -0.97121950215E+01 -0.36444324126E+02 -0.11568399845E+04  0.11574546493E+04  0.00000000000E+00 0.  1.
<scales pt_clust_3="14000.00000" pt_clust_4="79.41596" pt_clust_5="64.09191" pt_clust_6="37.71625"></scales>
<clustering>
<clus scale="   37.716">  2  6  1 -1</clus>
<clus scale="   64.092">  2  5  1 -1</clus>
<clus scale="   79.416">  1  4  2 -1</clus>
<clus scale="   79.416">  1  3  2 -1</clus>
</clustering>
</event>
<event>
 6    0  0.2433432E+002  0.5776533E+02  0.7546771E-02  0.1407456E+00
         21   -1    0    0  505  502  0.00000000000E+00  0.00000000000E+00  0.44574892513E+03  0.44574892513E+03  0.00000000000E+00 0.  1.
          1   -1    0    0  504    0 -0.00000000000E+00 -0.00000000000E+00 -0.52131420515E+03  0.52131420515E+03  0.00000000000E+00 0. -1.
         21    1    1    2  503  501  0.31482692976E+02  0.32050797398E+02 -0.69020054754E+00  0.44932059241E+02  0.00000000000E+00 0.  1.
         21    1    1    2  504  502 -0.10795992213E+03 -0.46349525104E+02  0.32583998122E+03  0.34637453230E+03  0.00000000000E+00 0.  1.
         21    1    1    2  505  503  0.19617691233E+02  0.23204540606E+02  0.83125474967E+02  0.88505079529E+02  0.00000000000E+00 0.  1.
          1    1    1    2  501    0  0.56859537925E+02 -0.89058128995E+01 -0.48384053565E+03  0.48725145921E+03  0.00000000000E+00 0. -1.
<scales pt_clust_3="46.78924" pt_clust_4="14000.00000" pt_clust_5="30.38593" pt_clust_6="57.76533"></scales>
<clustering>
<clus scale="   30.386">  1  5  2 -1</clus>
<clus scale="   46.789">  1  3  2 -1</clus>
<clus scale="   57.765">  2  6  1 -1</clus>
<clus scale="   30.386">  1  3  2 -1</clus>
</clustering>
</event>
<event>
 6    0  0.2433432E+002  0.2165585E+03  0.7546771E-02  0.1136475E+00
          1   -1    0    0  504    0 -0.00000000000E+00  0.00000000000E+00  0.39685959665E+03  0.39685959665E+03  0.00000000000E+00 0.  1.
         21   -1    0    0  505  502  0.00000000000E+00 -0.00000000000E+00 -0.34520526998E+03  0.34520526998E+03  0.00000000000E+00 0.  1.
         21    1    1    2  503  502 -0.20618187539E+03  0.36098862504E+02 -0.59474264069E+02  0.21760349652E+03  0.00000000000E+00 0.  1.
         21    1    1    2  504  503 -0.34720021927E+02  0.14078185485E+02  0.27512024055E+02  0.46482111578E+02  0.00000000000E+00 0.  1.
         21    1    1    2  505  501  0.20873850040E+03 -0.82615633760E+02 -0.13007849821E+03  0.25945620091E+03  0.00000000000E+00 0.  1.
          1    1    1    2  501    0  0.32163396913E+02  0.32438585770E+02  0.21369506490E+03  0.21852305762E+03  0.00000000000E+00 0.  1.
<scales pt_clust_3="14000.00000" pt_clust_4="37.46565" pt_clust_5="216.55853" pt_clust_6="42.42898"></scales>
<clustering>
<clus scale="   37.466">  1  4  2 -1</clus>
<clus scale="   42.429">  1  6  2 -1</clus>
<clus scale="  216.559">  2  5  1 -1</clus>
<clus scale="  216.559">  2  3  1 -1</clus>
</clustering>
</event>
<event>
 6    0  0.2433432E+002  0.1077032E+03  0.7546771E-02  0.1264883E+00
          2   -1    0    0  504    0 -0.00000000000E+00  0.00000000000E+00  0.13173222172E+04  0.13173222172E+04  0.00000000000E+00 0. -1.
         21   -1    0    0  503  502  0.00000000000E+00 -0.00000000000E+00 -0.11991243090E+03  0.11991243090E+03  0.00000000000E+00 0. -1.
         21    1    1    2  503  501  0.66275244508E+02  0.43476293702E+02  0.11665614750E+03  0.14103635311E+03  0.00000000000E+00 0.  1.
         21    1    1    2  504  505  0.15449980012E+01 -0.12518462536E+03  0.42216713347E+03  0.44033926242E+03  0.00000000000E+00 0. -1.
         21    1    1    2  505  502 -0.71187839391E+02 -0.19349452571E+02 -0.80903949725E+02  0.10948771106E+03  0.00000000000E+00 0. -1.
          2    1    1    2  501    0  0.33675968814E+01  0.10105778423E+03  0.73949045509E+03  0.74637132155E+03  0.00000000000E+00 0. -1.
<scales pt_clust_3="46.07352" pt_clust_4="107.70319" pt_clust_5="73.77066" pt_clust_6="14000.00000"></scales>
<clustering>
<clus scale="   73.771">  2  5  1 -1</clus>
<clus scale="   46.074">  2  3  1 -1</clus>
<clus scale="  107.703">  2  4  1 -1</clus>
<clus scale="   73.771">  2  3  1 -1</clus>
</clustering>
</event>
<event>
 6    0  0.2433432E+002  0.7670693E+02  0.7546771E-02  0.1338665E+00
          2   -1    0    0  504    0 -0.00000000000E+00  0.00000000000E+00  0.24441654543E+04  0.24441654543E+04  0.00000000000E+00 0.  1.
         21   -1    0    0  505  502  0.00000000000E+00 -0.00000000000E+00 -0.86128137456E+02  0.86128137456E+02  0.00000000000E+00 0.  1.
         21    1    1    2  503  501  0.98991839182E+02  0.17856576869E+01  0.17503931131E+03  0.20110030656E+03  0.00000000000E+00 0. -1.
         21    1    1    2  504  502 -0.49018136931E+01 -0.39104347642E+02  0.45165629239E+02  0.59942571237E+02  0.00000000000E+00 0. -1.
         21    1    1    2  505  503 -0.38922835267E+02 -0.16381786944E+02 -0.58179223601E+02  0.71890000052E+02  0.00000000000E+00 0.  1.
          2    1    1    2  501    0 -0.55167190222E+02  0.53700476899E+02  0.21960115999E+04  0.21973607139E+04  0.00000000000E+00 0.  1.
<scales pt_clust_3="76.70693" pt_clust_4="39.41038" pt_clust_5="64.93282" pt_clust_6="14000.00000"></scales>
<clustering>
<clus scale="   39.410">  2  4  1 -1</clus>
<clus scale="   64.933">  2  5  1 -1</clus>
<clus scale="   76.707">  2  3  1 -1</clus>
<clus scale="   39.410">  2  3  1 -1</clus>
</clustering>
</event>
<event>
 6    0  0.2433432E+002  0.2359388E+03  0.7546771E-02  0.1122528E+00
         21   -1    0    0  503  502  0.00000000000E+00  0.00000000000E+00  0.11432035188E+03  0.11432035188E+03  0.00000000000E+00 0.  1.
          1   -1    0    0  504    0 -0.00000000000E+00 -0.00000000000E+00 -0.20048710547E+04  0.20048710547E+04  0.00000000000E+00 0. -1.
         21    1    1    2  503  501  0.26655037654E+01 -0.36520220085E+02 -0.65437417533E+02  0.74985912003E+02  0.00000000000E+00 0.  1.
         21    1    1    2  504  505  0.20059115786E+02 -0.65319159562E+02 -0.27909467757E+02  0.73809884991E+02  0.00000000000E+00 0. -1.
         21    1    1    2  505  502  0.92547355105E+02 -0.93228131021E+02  0.25370184668E+02  0.13379141834E+03  0.00000000000E+00 0.  1.
          1    1    1    2  501    0 -0.11527197466E+03  0.19506751067E+03 -0.18225740022E+04  0.18366041912E+04  0.00000000000E+00 0. -1.
<scales pt_clust_3="36.61736" pt_clust_4="51.20383" pt_clust_5="51.20383" pt_clust_6="224.48320"></scales>
<clustering>
<clus scale="   36.617">  1  3  2 -1</clus>
<clus scale="   51.204">  4  5 -1 -1</clus>
<clus scale="  224.483">  2  6  1 -1</clus>
<clus scale="   36.617">  1  3  2 -1</clus>
</clustering>
</event>
<event>
 6    0  0.2433432E+002  0.1567571E+03  0.7546771E-02  0.1192407E+00
          1   -1    0    0  503    0 -0.00000000000E+00  0.00000000000E+00  0.40635878430E+04  0.40635878430E+04  0.00000000000E+00 0.  1.
         21   -1    0    0  504  502  0.00000000000E+00 -0.00000000000E+00 -0.10960156768E+03  0.10960156768E+03  0.00000000000E+00 0.  1.
         21    1    1    2  503  505 -0.21499244452E+01  0.53890518604E+02  0.52750751058E+03  0.53025746944E+03  0.00000000000E+00 0.  1.
         21    1    1    2  504  501 -0.12842152473E+03 -0.17157976922E+03  0.20314155205E+03  0.29529340559E+03  0.00000000000E+00 0.  1.
         21    1    1    2  505  502  0.32988453947E+02  0.48414054522E+02 -0.47002955223E+02  0.75109497194E+02  0.00000000000E+00 0.  1.
          1    1    1    2  501    0  0.97582995225E+02  0.69275196089E+02  0.32703401679E+04  0.32725290384E+04  0.00000000000E+00 0.  1.
<scales pt_clust_3="53.93339" pt_clust_4="156.75709" pt_clust_5="58.75702" pt_clust_6="14000.00000"></scales>
<clustering>
<clus scale="   53.933">  1  3  2 -1</clus>
<clus scale="   58.757">  2  5  1 -1</clus>
<clus scale="  156.757">  2  4  1 -1</clus>
<clus scale="   58.757">  2  3  1 -1</clus>
</clustering>
</event>
<event>
 6    0  0.2433432E+002  0.1190254E+03  0.7546771E-02  0.1244713E+00
         21   -1    0    0  503  502  0.00000000000E+00  0.00000000000E+00  0.21434047658E+03  0.21434047658E+03  0.00000000000E+00 0.  1.
          2   -1    0    0  505    0 -0.00000000000E+00 -0.00000000000E+00 -0.22334065687E+04  0.22334065687E+04  0.00000000000E+00 0. -1.
         21    1    1    2  503  504 -0.11451754939E+02 -0.52260407394E+02 -0.73517171924E+02  0.90923415245E+02  0.00000000000E+00 0.  1.
         21    1    1    2  504  501  0.60802606112E+02 -0.66338273937E+01 -0.14442741709E+02  0.62845503928E+02  0.00000000000E+00 0. -1.
         21    1    1    2  505  502  0.59378236396E+02  0.88925924145E+01  0.17472297745E+03  0.18475110827E+03  0.00000000000E+00 0.  1.
          2    1    1    2  501    0 -0.10872908757E+03  0.50001642373E+02 -0.21058291559E+04  0.21092270178E+04  0.00000000000E+00 0. -1.
<scales pt_clust_3="53.50040" pt_clust_4="60.81380" pt_clust_5="119.02545" pt_clust_6="14000.00000"></scales>
<clustering>
<clus scale="   53.500">  1  3  2 -1</clus>
<clus scale="   60.814">  1  4  2 -1</clus>
<clus scale="  119.025">  1  5  2 -1</clus>
<clus scale="   53.500">  1  3  2 -1</clus>
</clustering>
</event>
<event>
 6    0  0.2433432E+002  0.1505318E+03  0.7546771E-02  0.1199821E+00
         21   -1    0    0  501  502  0.00000000000E+00  0.00000000000E+00  0.38296334887E+03  0.38296334887E+03  0.00000000000E+00 0.  1.
          2   -1    0    0  504    0 -0.00000000000E+00 -0.00000000000E+00 -0.11079989866E+04  0.11079989866E+04  0.00000000000E+00 0. -1.
         21    1    1    2  503  505  0.26879412539E+02  0.56874127814E+02  0.31365237525E+02  0.70291872632E+02  0.00000000000E+00 0.  1.
         21    1    1    2  504  503  0.82189042409E+02  0.37758628868E+02  0.46764380274E+02  0.10182170696E+03  0.00000000000E+00 0.  1.
         21    1    1    2  505  502 -0.28752665676E+02  0.21799930457E+02  0.25183593453E+03  0.25440772526E+03  0.00000000000E+00 0.  1.
          2    1    1    2  501    0 -0.80315789272E+02 -0.11643268714E+03 -0.10550011900E+04  0.10644410306E+04  0.00000000000E+00 0. -1.
<scales pt_clust_3="46.56498" pt_clust_4="46.56498" pt_clust_5="36.08258" pt_clust_6="141.39403"></scales>
<clustering>
<clus scale="   36.083">  1  5  2 -1</clus>
<clus scale="   46.565">  3  4 -1 -1</clus>
<clus scale="  141.394">  2  6  1 -1</clus>
<clus scale="   36.083">  1  3  2 -1</clus>
</clustering>
</event>
<event>
 6    0  0.2433432E+002  0.8439468E+02  0.7546771E-02  0.1317023E+00
          1   -1    0    0  503    0 -0.00000000000E+00  0.00000000000E+00  0.13903539517E+04  0.13903539517E+04  0.00000000000E+00 0.  1.
         21   -1    0    0  505  502  0.00000000000E+00 -0.00000000000E+00 -0.97918728321E+02  0.97918728321E+02  0.00000000000E+00 0.  1.
         21    1    1    2  503  502  0.94605416706E+02  0.83641740523E+01  0.30655325143E+03  0.32092840360E+03  0.00000000000E+00 0.  1.
         21    1    1    2  504  501 -0.44298332158E+02  0.68523687696E+02  0.23114386586E+02  0.84806325677E+02  0.00000000000E+00 0.  1.
         21    1    1    2  505  504 -0.43392772524E+02 -0.46239425682E+02 -0.42784400576E+02  0.76495242515E+02  0.00000000000E+00 0.  1.
          1    1    1    2  501    0 -0.69143120244E+01 -0.30648436066E+02  0.10055519859E+04  0.10060427082E+04  0.00000000000E+00 0.  1.
<scales pt_clust_3="84.39468" pt_clust_4="14000.00000" pt_clust_5="64.60221" pt_clust_6="31.41869"></scales>
<clustering>
<clus scale="   31.419">  1  6  2 -1</clus>
<clus scale="   64.602">  2  5  1 -1</clus>
<clus scale="   84.395">  1  3  2 -1</clus>
<clus scale="   64.602">  2  3  1 -1</clus>
</clustering>
</event>
<event>
 6    0  0.2433432E+002  0.1258340E+03  0.7546771E-02  0.1233772E+00
          2   -1    0    0  505    0 -0.00000000000E+00  0.00000000000E+00  0.53718614026E+03  0.53718614026E+03  0.00000000000E+00 0.  1.
         21   -1    0    0  504  502  0.00000000000E+00 -0.00000000000E+00 -0.19591677620E+03  0.19591677620E+03  0.00000000000E+00 0.  1.
         21    1    1    2  503  501 -0.81931078848E+02  0.48265674524E+02 -0.43631294879E+02  0.10462297506E+03  0.00000000000E+00 0.  1.
         21    1    1    2  504  503 -0.31268667872E+02  0.23076648358E+02 -0.64403344856E+02  0.75220024718E+02  0.00000000000E+00 0.  1.
         21    1    1    2  505  502  0.89642755439E+02 -0.25789980283E+02 -0.75059524454E+01  0.93580371916E+02  0.00000000000E+00 0.  1.
          2    1    1    2  501    0  0.23556991281E+02 -0.45552342598E+02  0.45680995624E+03  0.45967954477E+03  0.00000000000E+00 0.  1.
<scales pt_clust_3="33.63453" pt_clust_4="33.63453" pt_clust_5="114.30701" pt_clust_6="51.28302"></scales>
<clustering>
<clus scale="   33.635">  3  4 -1 -1</clus>
<clus scale="   51.283">  1  6  2 -1</clus>
<clus scale="  114.307">  1  5  2 -1</clus>
<clus scale="  125.834">  2  3  1 -1</clus>
</clustering>
</event>
<event>
 6    0  0.2433432E+002  0.6971452E+02  0.7546771E-02  0.1361067E+00
          2   -1    0    0  503    0 -0.00000000000E+00  0.00000000000E+00  0.10943339042E+04  0.10943339042E+04  0.00000000000E+00 0. -1.
         21   -1    0    0  504  502  0.00000000000E+00 -0.00000000000E+00 -0.37397599145E+02  0.37397599145E+02  0.00000000000E+00 0.  1.
         21    1    1    2  503  502 -0.76784738915E+02 -0.38918347524E+02  0.28958650249E+03  0.30211070211E+03  0.00000000000E+00 0.  1.
         21    1    1    2  504  505  0.93390976617E+01  0.71807641557E+02  0.23910612286E+02  0.76257940643E+02  0.00000000000E+00 0.  1.
         21    1    1    2  505  501  0.52740993968E+02  0.59019335437E+01  0.16254535656E+03  0.17098958507E+03  0.00000000000E+00 0.  1.
          2    1    1    2  501    0  0.14704647285E+02 -0.38791227577E+02  0.58089383367E+03  0.58237327548E+03  0.00000000000E+00 0. -1.
<scales pt_clust_3="14000.00000" pt_clust_4="69.71452" pt_clust_5="57.91472" pt_clust_6="41.48477"></scales>
<clustering>
<clus scale="   41.485">  1  6  2 -1</clus>
<clus scale="   57.915">  1  5  2 -1</clus>
<clus scale="   69.715">  2  4  1 -1</clus>
<clus scale="   69.715">  2  3  1 -1</clus>
</clustering>
</event>
<event>
 6    0  0.2433432E+002  0.1449072E+03  0.7546771E-02  0.1206874E+00
         21   -1    0    0  505  502  0.00000000000E+00  0.00000000000E+00  0.31027496523E+03  0.31027496523E+03  0.00000000000E+00 0.  1.
          1   -1    0    0  503    0 -0.00000000000E+00 -0.00000000000E+00 -0.61475629988E+03  0.61475629988E+03  0.00000000000E+00 0. -1.
         21    1    1    2  503  504 -0.71247646982E+02 -0.60362874487E+02 -0.10112140920E+03  0.13764244699E+03  0.00000000000E+00 0. -1.
         21    1    1    2  504  502 -0.33408394664E+02  0.17315630048E+02  0.17005811278E+03  0.17417150629E+03  0.00000000000E+00 0.  1.
         21    1    1    2  505  501  0.18074957845E+03 -0.16611198516E+02  0.42322955495E+02  0.18638018829E+03  0.00000000000E+00 0.  1.
          1    1    1    2  501    0 -0.76093536803E+02  0.59658442955E+02 -0.41574099373E+03  0.42683712353E+03  0.00000000000E+00 0. -1.
<scales pt_clust_3="95.38104" pt_clust_4="37.62914" pt_clust_5="144.90717" pt_clust_6="14000.00000"></scales>
<clustering>
<clus scale="   37.629">  1  4  2 -1</clus>
<clus scale="   95.381">  2  3  1 -1</clus>
<clus scale="  144.907">  1  5  2 -1</clus>
<clus scale="   37.629">  1  3  2 -1</clus>
</clustering>
</event>
<event>
 6    0  0.2695453E+002  0.8520869E+02  0.7546771E-02  0.1314888E+00
          2   -1    0    0  503    0 -0.00000000000E+00  0.00000000000E+00  0.11960437092E+04  0.11960437092E+04  0.00000000000E+00 0. -1.
         21   -1    0    0  505  502  0.00000000000E+00 -0.00000000000E+00 -0.24111358152E+03  0.24111358152E+03  0.00000000000E+00 0. -1.
         21    1    1    2  503  502  0.56426227705E+02  0.52508934028E+02 -0.18084998433E+03  0.19659049865E+03  0.00000000000E+00 0. -1.
         21    1    1    2  504  501 -0.52220042433E+02 -0.66542403883E+02  0.45878843447E+02  0.96227296659E+02  0.00000000000E+00 0. -1.
         21    1    1    2  505  504  0.34283320350E+02 -0.29219353859E+02 -0.72812307878E+01  0.45630395746E+02  0.00000000000E+00 0.  1.
          2    1    1    2  501    0 -0.38489505621E+02  0.43252823714E+02  0.10971824994E+04  0.10987090997E+04  0.00000000000E+00 0. -1.
<scales pt_clust_3="85.20869" pt_clust_4="14000.00000" pt_clust_5="45.04572" pt_clust_6="57.73995"></scales>
<clustering>
<clus scale="   45.046">  2  5  1 -1</clus>
<clus scale="   57.740">  1  6  2 -1</clus>
<clus scale="   85.209">  2  3  1 -1</clus>
<clus scale="   45.046">  2  3  1 -1</clus>
</clustering>
</event>
<event>
 6    0  0.2433432E+002  0.7475871E+02  0.7546771E-02  0.1344620E+00
          2   -1    0    0  505    0 -0.00000000000E+00  0.00000000000E+00  0.10980460762E+04  0.10980460762E+04  0.00000000000E+00 0.  1.
         21   -1    0    0  504  502  0.00000000000E+00 -0.00000000000E+00 -0.11368423142E+03  0.11368423142E+03  0.00000000000E+00 0. -1.
         21    1    1    2  503  501 -0.45432654913E+02  0.55162259381E+02  0.18117289879E+03  0.19475785029E+03  0.00000000000E+00 0.  1.
         21    1    1    2  504  503  0.54478662270E+02  0.61241540986E+01 -0.90652846035E+02  0.10594040023E+03  0.00000000000E+00 0. -1.
         21    1    1    2  505  502 -0.25867823398E+02  0.31145415171E+02  0.62382666628E+03  0.62513909711E+03  0.00000000000E+00 0.  1.
          2    1    1    2  501    0  0.16821816041E+02 -0.92431828650E+02  0.27001512571E+03  0.28589295996E+03  0.00000000000E+00 0.  1.
<scales pt_clust_3="74.75871" pt_clust_4="54.46578" pt_clust_5="40.48680" pt_clust_6="14000.00000"></scales>
<clustering>
<clus scale="   40.487">  1  5  2 -1</clus>
<clus scale="   54.466">  2  4  1 -1</clus>
<clus scale="   74.759">  2  3  1 -1</clus>
<clus scale="   54.466">  2  3  1 -1</clus>
</clustering>
</event>
<event>
 6    0  0.2433432E+002  0.1467940E+03  0.7546771E-02  0.1204469E+00
         21   -1    0    0  503  502  0.00000000000E+00  0.00000000000E+00  0.12742031304E+03  0.12742031304E+03  0.00000000000E+00 0.  1.
          2   -1    0    0  502    0 -0.00000000000E+00 -0.00000000000E+00 -0.19638890577E+04  0.19638890577E+04  0.00000000000E+00 0.  1.
         21    1    1    2  503  504  0.41528328381E+02  0.80590342074E+02  0.27246582724E+02  0.94666686663E+02  0.00000000000E+00 0.  1.
         21    1    1    2  504  505  0.73862847626E+02  0.27461317178E+02  0.13067395788E+02  0.79878664443E+02  0.00000000000E+00 0.  1.
         21    1    1    2  505  501 -0.92861282594E+02 -0.24847914390E+02 -0.10300272818E+03  0.14089073308E+03  0.00000000000E+00 0.  1.
          2    1    1    2  501    0 -0.22529893413E+02 -0.83203744862E+02 -0.17737799950E+04  0.17758732866E+04  0.00000000000E+00 0.  1.
<scales pt_clust_3="57.85262" pt_clust_4="57.85262" pt_clust_5="133.03349" pt_clust_6="86.20011"></scales>
<clustering>
<clus scale="   57.853">  3  4 -1 -1</clus>
<clus scale="   86.200">  2  6  1 -1</clus>
<clus scale="  133.033">  2  5  1 -1</clus>
<clus scale="  146.794">  1  3  2 -1</clus>
</clustering>
</event>
<event>
 6    0  0.2433432E+002  0.1526459E+03  0.7546771E-02  0.1197259E+00
          1   -1    0    0  502    0 -0.00000000000E+00  0.00000000000E+00  0.33667579347E+03  0.33667579347E+03  0.00000000000E+00 0.  1.
         21   -1    0    0  503  502  0.00000000000E+00 -0.00000000000E+00 -0.44825267791E+03  0.44825267791E+03  0.00000000000E+00 0.  1.
         21    1    1    2  503  505 -0.22736096064E+02  0.48851193172E+02 -0.22768575835E+03  0.23397472875E+03  0.00000000000E+00 0.  1.
         21    1    1    2  504  501  0.14838394830E+03 -0.21233041886E+02  0.26263458017E+02  0.15217886650E+03  0.00000000000E+00 0.  1.
         21    1    1    2  505  504 -0.11950870330E+03  0.74721486531E+02 -0.10691371462E+03  0.17690724430E+03  0.00000000000E+00 0.  1.
          1    1    1    2  501    0 -0.61391489366E+01 -0.10233963782E+03  0.19675913050E+03  0.22186763183E+03  0.00000000000E+00 0.  1.
<scales pt_clust_3="53.88292" pt_clust_4="152.64594" pt_clust_5="14000.00000" pt_clust_6="99.79752"></scales>
<clustering>
<clus scale="   53.883">  2  3  1 -1</clus>
<clus scale="   99.798">  1  6  2 -1</clus>
<clus scale="  152.646">  1  4  2 -1</clus>
<clus scale="   53.883">  2  3  1 -1</clus>
</clustering>
</event>
<event>
 6    0  0.2433432E+002  0.6786930E+02  0.7546771E-02  0.1367492E+00
          2   -1    0    0  505    0 -0.00000000000E+00  0.00000000000E+00  0.95386356145E+03  0.95386356145E+03  0.00000000000E+00 0. -1.
         21   -1    0    0  503  502  0.00000000000E+00 -0.00000000000E+00 -0.28235383761E+02  0.28235383761E+02  0.00000000000E+00 0. -1.
         21    1    1    2  503  504 -0.62914742740E+01  0.52402776245E+02  0.81721635364E+02  0.97283396802E+02  0.00000000000E+00 0. -1.
         21    1    1    2  504  501  0.52934697208E+02  0.37692526337E+02  0.23680627127E+03  0.24556062148E+03  0.00000000000E+00 0. -1.
         21    1    1    2  505  502 -0.69108530243E+02 -0.36260432135E+02  0.91060061363E+02  0.11992807289E+03  0.00000000000E+00 0. -1.
          2    1    1    2  501    0  0.22465307309E+02 -0.53834870446E+02  0.51604020970E+03  0.51932685404E+03  0.00000000000E+00 0. -1.
<scales pt_clust_3="52.77910" pt_clust_4="67.86930" pt_clust_5="14000.00000" pt_clust_6="54.26654"></scales>
<clustering>
<clus scale="   52.779">  2  3  1 -1</clus>
<clus scale="   54.267">  1  6  2 -1</clus>
<clus scale="   67.869">  1  4  2 -1</clus>
<clus scale="   52.779">  2  3  1 -1</clus>
</clustering>
</event>
<event>
 6    0  0.2433432E+002  0.2486209E+03  0.7546771E-02  0.1114179E+00
         21   -1    0    0  505  502  0.00000000000E+00  0.00000000000E+00  0.10056138923E+04  0.10056138923E+04  0.00000000000E+00 0. -1.
          2   -1    0    0  503    0 -0.00000000000E+00 -0.00000000000E+00 -0.13488278043E+04  0.13488278043E+04  0.00000000000E+00 0.  1.
         21    1    1    2  503  502  0.34664316514E+02  0.29171427576E+02  0.63196793935E+02  0.77758740923E+02  0.00000000000E+00 0.  1.
         21    1    1    2  504  501 -0.17328872619E+03  0.81420858337E+02 -0.99291775782E+02  0.21567845403E+03  0.00000000000E+00 0. -1.
         21    1    1    2  505  504  0.19068434514E+03 -0.15759247392E+03  0.85842178821E+03  0.89335540172E+03  0.00000000000E+00 0. -1.
          2    1    1    2  501    0 -0.52059935465E+02  0.47000188007E+02 -0.11655407183E+04  0.11676491000E+04  0.00000000000E+00 0.  1.
<scales pt_clust_3="45.30549" pt_clust_4="14000.00000" pt_clust_5="248.62095" pt_clust_6="70.13045"></scales>
<clustering>
<clus scale="   45.305">  1  3  2 -1</clus>
<clus scale="   70.130">  2  6  1 -1</clus>
<clus scale="  248.621">  1  5  2 -1</clus>
<clus scale="   45.305">  1  3  2 -1</clus>
</clustering>
</event>
<event>
 6    0  0.2433432E+002  0.9836752E+02  0.7546771E-02  0.1283767E+00
         21   -1    0    0  501  502  0.00000000000E+00  0.00000000000E+00  0.97942491577E+03  0.97942491577E+03  0.00000000000E+00 0. -1.
          2   -1    0    0  504    0 -0.00000000000E+00 -0.00000000000E+00 -0.25092859968E+03  0.25092859968E+03  0.00000000000E+00 0.  1.
         21    1    1    2  503  505  0.59673345881E+02  0.80706385449E+02 -0.32866354029E+02  0.10561546330E+03  0.00000000000E+00 0.  1.
         21    1    1    2  504  503 -0.12330319442E+02  0.42332602029E+02 -0.37156604734E+02  0.57660205059E+02  0.00000000000E+00 0.  1.
         21    1    1    2  505  502 -0.20097932105E+02 -0.96557426292E+02  0.92744287150E+03  0.93267225934E+03  0.00000000000E+00 0. -1.
          2    1    1    2  501    0 -0.27245094334E+02 -0.26481561186E+02 -0.12892359664E+03  0.13440558775E+03  0.00000000000E+00 0.  1.
<scales pt_clust_3="98.36752" pt_clust_4="39.34497" pt_clust_5="14000.00000" pt_clust_6="37.99432"></scales>
<clustering>
<clus scale="   37.994">  2  6  1 -1</clus>
<clus scale="   39.345">  2  4  1 -1</clus>
<clus scale="   98.368">  2  3  1 -1</clus>
<clus scale="   98.368">  1  3  2 -1</clus>
</clustering>
</event>
<event>
 6    0  0.2433432E+002  0.8870414E+02  0.7546771E-02  0.1306021E+00
         21   -1    0    0  504  502  0.00000000000E+00  0.00000000000E+00  0.22441668630E+03  0.22441668630E+03  0.00000000000E+00 0. -1.
          1   -1    0    0  505    0 -0.00000000000E+00 -0.00000000000E+00 -0.43934793965E+04  0.43934793965E+04  0.00000000000E+00 0.  1.
         21    1    1    2  503  502  0.16196320920E+02  0.31195988358E+02  0.13107339710E+03  0.13570462751E+03  0.00000000000E+00 0. -1.
         21    1    1    2  504  501  0.38974466093E+02 -0.77545864844E+02  0.55800591424E+02  0.10317982441E+03  0.00000000000E+00 0. -1.
         21    1    1    2  505  503 -0.22447352929E+02 -0.36111526044E+02 -0.29699962988E+02  0.51865342650E+02  0.00000000000E+00 0.  1.
          1    1    1    2  501    0 -0.32723434084E+02  0.82461402530E+02 -0.43262367357E+04  0.43271462882E+04  0.00000000000E+00 0.  1.
<scales pt_clust_3="35.14983" pt_clust_4="14000.00000" pt_clust_5="38.25440" pt_clust_6="88.70414"></scales>
<clustering>
<clus scale="   35.150">  1  3  2 -1</clus>
<clus scale="   38.254">  1  5  2 -1</clus>
<clus scale="   88.704">  2  6  1 -1</clus>
<clus scale="   35.150">  1  3  2 -1</clus>
</clustering>
</event>
<event>
 6    0  0.2433432E+002  0.1187688E+03  0.7546771E-02  0.1245142E+00
         21   -1    0    0  505  502  0.00000000000E+00  0.00000000000E+00  0.24547001617E+02  0.24547001617E+02  0.00000000000E+00 0. -1.
          2   -1    0    0  504    0 -0.00000000000E+00 -0.00000000000E+00 -0.41557446609E+04  0.41557446609E+04  0.00000000000E+00 0. -1.
         21    1    1    2  503  502 -0.77061257756E+02 -0.11125177816E+03 -0.86068365589E+03  0.87125871652E+03  0.00000000000E+00 0. -1.
         21    1    1    2  504  503  0.82699392562E+02  0.56170389646E+01 -0.65527469174E+03  0.66049652708E+03  0.00000000000E+00 0. -1.
         21    1    1    2  505  501  0.27455325678E+02  0.11325354751E+03 -0.18886010110E+03  0.22191957714E+03  0.00000000000E+00 0. -1.
          2    1    1    2  501    0 -0.33093460484E+02 -0.76188083194E+01 -0.24263792105E+04  0.24266168418E+04  0.00000000000E+00 0. -1.
<scales pt_clust_3="118.76876" pt_clust_4="70.16179" pt_clust_5="14000.00000" pt_clust_6="33.95914"></scales>
<clustering>
<clus scale="   33.959">  2  6  1 -1</clus>
<clus scale="   70.162">  2  4  1 -1</clus>
<clus scale="  118.769">  2  3  1 -1</clus>
<clus scale="  118.769">  1  3  2 -1</clus>
</clustering>
</event>
<event>
 6    0  0.2433432E+002  0.9505269E+02  0.7546771E-02  0.1291057E+00
         21   -1    0    0  505  502  0.00000000000E+00  0.00000000000E+00  0.10145602269E+03  0.10145602269E+03  0.00000000000E+00 0.  1.
          1   -1    0    0  503    0 -0.00000000000E+00 -0.00000000000E+00 -0.33151386599E+03  0.33151386599E+03  0.00000000000E+00 0.  1.
         21    1    1    2  503  502  0.42949663928E+02  0.58423970015E+02  0.23132879835E+02  0.76112837506E+02  0.00000000000E+00 0.  1.
         21    1    1    2  504  501 -0.67008957994E+02 -0.30521349343E+02 -0.43011526002E+01  0.73758071632E+02  0.00000000000E+00 0.  1.
         21    1    1    2  505  504 -0.31793350912E+02 -0.39932242619E+02 -0.35452196116E+02  0.62147078550E+02  0.00000000000E+00 0. -1.
          1    1    1    2  501    0  0.55852644978E+02  0.12029621947E+02 -0.21343737442E+03  0.22095190099E+03  0.00000000000E+00 0.  1.
<scales pt_clust_3="82.88991" pt_clust_4="38.73380" pt_clust_5="38.73380" pt_clust_6="57.13344"></scales>
<clustering>
<clus scale="   38.734">  4  5 -1 -1</clus>
<clus scale="   57.133">  2  6  1 -1</clus>
<clus scale="   82.890">  1  3  2 -1</clus>
<clus scale="   82.890">  1  3  2 -1</clus>
</clustering>
</event>
<event>
 6    0  0.2433432E+002  0.7843616E+02  0.7546771E-02  0.1333549E+00
          2   -1    0    0  503    0 -0.00000000000E+00  0.00000000000E+00  0.28641120669E+04  0.28641120669E+04  0.00000000000E+00 0. -1.
         21   -1    0    0  505  502  0.00000000000E+00 -0.00000000000E+00 -0.13390281143E+03  0.13390281143E+03  0.00000000000E+00 0. -1.
         21    1    1    2  503  502 -0.20044539394E+01 -0.47482244786E+02  0.58009813315E+02  0.74991465157E+02  0.00000000000E+00 0.  1.
         21    1    1    2  504  501  0.98453255418E+02  0.30055878818E-01  0.15361625631E+03  0.18245821058E+03  0.00000000000E+00 0. -1.
         21    1    1    2  505  504 -0.23327704771E+02  0.74203744446E+02 -0.96712035471E+02  0.12411122151E+03  0.00000000000E+00 0. -1.
          2    1    1    2  501    0 -0.73121096708E+02 -0.26751555539E+02  0.26152952213E+04  0.26164539810E+04  0.00000000000E+00 0. -1.
<scales pt_clust_3="47.52453" pt_clust_4="14000.00000" pt_clust_5="40.98097" pt_clust_6="78.43616"></scales>
<clustering>
<clus scale="   47.525">  2  3  1 -1</clus>
<clus scale="   40.981">  2  5  1 -1</clus>
<clus scale="   78.436">  1  6  2 -1</clus>
<clus scale="   47.525">  2  3  1 -1</clus>
</clustering>
</event>
<event>
 6    0  0.2433432E+002  0.1081502E+03  0.7546771E-02  0.1264034E+00
         21   -1    0    0  505  502  0.00000000000E+00  0.00000000000E+00  0.49750188270E+03  0.49750188270E+03  0.00000000000E+00 0. -1.
          2   -1    0    0  504    0 -0.00000000000E+00 -0.00000000000E+00 -0.11522809376E+04  0.11522809376E+04  0.00000000000E+00 0. -1.
         21    1    1    2  503  502  0.33219313597E+02 -0.65023214373E+01  0.15769578022E+03  0.16128782372E+03  0.00000000000E+00 0. -1.
         21    1    1    2  504  503 -0.18401778226E+03  0.35121935101E+02  0.27645433521E+03  0.33395073584E+03  0.00000000000E+00 0. -1.
         21    1    1    2  505  501  0.43594368731E+02 -0.36870055821E+02  0.31526071952E+01  0.57182243165E+02  0.00000000000E+00 0.  1.
          2    1    1    2  501    0  0.10720409993E+03  0.82504421578E+01 -0.10920817775E+04  0.10973620175E+04  0.00000000000E+00 0. -1.
<scales pt_clust_3="33.84971" pt_clust_4="108.15021" pt_clust_5="59.75191" pt_clust_6="14000.00000"></scales>
<clustering>
<clus scale="   33.850">  1  3  2 -1</clus>
<clus scale="   59.752">  1  5  2 -1</clus>
<clus scale="  108.150">  1  4  2 -1</clus>
<clus scale="   33.850">  1  3  2 -1</clus>
</clustering>
</event>
<event>
 6    0  0.2433432E+002  0.8508550E+02  0.7546771E-02  0.1315209E+00
          1   -1    0    0  505    0 -0.00000000000E+00  0.00000000000E+00  0.11973901106E+04  0.11973901106E+04  0.00000000000E+00 0. -1.
         21   -1    0    0  504  502  0.00000000000E+00 -0.00000000000E+00 -0.87784138647E+02  0.87784138647E+02  0.00000000000E+00 0. -1.
         21    1    1    2  503  501 -0.46757271021E+02  0.19489044530E+02  0.31886665721E+02  0.59856701386E+02  0.00000000000E+00 0. -1.
         21    1    1    2  504  503 -0.26245999080E+02  0.42079211201E+02 -0.35693113025E+02  0.61102461493E+02  0.00000000000E+00 0. -1.
         21    1    1    2  505  502  0.11250704135E+03 -0.89453070477E+02  0.18371668628E+03  0.23326274240E+03  0.00000000000E+00 0. -1.
          1    1    1    2  501    0 -0.39503771252E+02  0.27884814746E+02  0.92969573299E+03  0.93095234399E+03  0.00000000000E+00 0. -1.
<scales pt_clust_3="85.08550" pt_clust_4="51.72124" pt_clust_5="14000.00000" pt_clust_6="48.35402"></scales>
<clustering>
<clus scale="   48.354">  1  6  2 -1</clus>
<clus scale="   51.721">  2  4  1 -1</clus>
<clus scale="   85.086">  2  3  1 -1</clus>
<clus scale="   51.721">  2  3  1 -1</clus>
</clustering>
</event>
<event>
 6    0  0.2433432E+002  0.9885375E+02  0.7546771E-02  0.1282725E+00
         21   -1    0    0  503  502  0.00000000000E+00  0.00000000000E+00  0.15887795806E+03  0.15887795806E+03  0.00000000000E+00 0.  1.
          2   -1    0    0  504    0 -0.00000000000E+00 -0.00000000000E+00 -0.21835620689E+03  0.21835620689E+03  0.00000000000E+00 0.  1.
         21    1    1    2  503  505 -0.10635930371E+03  0.38096308615E+02  0.51492885384E+02  0.12415775232E+03  0.00000000000E+00 0.  1.
         21    1    1    2  504  502  0.57625882602E+02 -0.69179762247E+02  0.62985748956E+01  0.90256600290E+02  0.00000000000E+00 0. -1.
         21    1    1    2  505  501  0.10714523995E+02  0.55930767880E+02 -0.29828906401E+02  0.64286977509E+02  0.00000000000E+00 0. -1.
          2    1    1    2  501    0  0.38018897112E+02 -0.24847314248E+02 -0.87440802703E+02  0.98532834833E+02  0.00000000000E+00 0.  1.
<scales pt_clust_3="98.85375" pt_clust_4="14000.00000" pt_clust_5="52.87918" pt_clust_6="45.41834"></scales>
<clustering>
<clus scale="   45.418">  2  6  1 -1</clus>
<clus scale="   52.879">  2  5  1 -1</clus>
<clus scale="   98.854">  1  3  2 -1</clus>
<clus scale="   98.854">  1  3  2 -1</clus>
</clustering>
</event>
<event>
 6    0  0.2433432E+002  0.1788241E+03  0.7546771E-02  0.1168946E+00
         21   -1    0    0  504  502  0.00000000000E+00  0.00000000000E+00  0.31861081440E+03  0.31861081440E+03  0.00000000000E+00 0. -1.
         -2   -1    0    0    0  501 -0.00000000000E+00 -0.00000000000E+00 -0.30524727526E+03  0.30524727526E+03  0.00000000000E+00 0. -1.
         21    1    1    2  503  505  0.12379954045E+03  0.84156427759E+00  0.87834830571E+02  0.15179588897E+03  0.00000000000E+00 0. -1.
         21    1    1    2  504  501 -0.26991412144E+02 -0.50782879189E+02  0.64088072682E+02  0.86108758023E+02  0.00000000000E+00 0. -1.
         21    1    1    2  505  502  0.72624172709E+02  0.31786331551E+02  0.77445487503E+02  0.11082619216E+03  0.00000000000E+00 0. -1.
         -2    1    1    2    0  503 -0.16943230102E+03  0.18154983360E+02 -0.21600485161E+03  0.27512725050E+03  0.00000000000E+00 0. -1.
<scales pt_clust_3="35.83953" pt_clust_4="57.51032" pt_clust_5="35.83953" pt_clust_6="173.12463"></scales>
<clustering>
<clus scale="   35.840">  3  5 -1 -1</clus>
<clus scale="   57.510">  1  4  2 -1</clus>
<clus scale="  173.125">  2  6  1 -1</clus>
<clus scale="   57.510">  1  3  2 -1</clus>
</clustering>
</event>
<event>
 6    0  0.2433432E+002  0.1225021E+03  0.7546771E-02  0.1239026E+00
          1   -1    0    0  503    0 -0.00000000000E+00  0.00000000000E+00  0.11380457045E+04  0.11380457045E+04  0.00000000000E+00 0.  1.
         21   -1    0    0  504  502  0.00000000000E+00 -0.00000000000E+00 -0.70836324856E+02  0.70836324856E+02  0.00000000000E+00 0.  1.
         21    1    1    2  503  505  0.30485762045E+02 -0.12735516211E+02  0.53675056161E+03  0.53776643671E+03  0.00000000000E+00 0.  1.
         21    1    1    2  504  501 -0.12222852179E+03  0.43545074768E+02  0.18623335754E+02  0.13108323200E+03  0.00000000000E+00 0.  1.
         21    1    1    2  505  502  0.98232142652E+01  0.36966292419E+02  0.30578371906E+03  0.30816665159E+03  0.00000000000E+00 0.  1.
          1    1    1    2  501    0  0.81919545484E+02 -0.67775850975E+02  0.20605176320E+03  0.23186570903E+03  0.00000000000E+00 0.  1.
<scales pt_clust_3="33.03899" pt_clust_4="122.50208" pt_clust_5="39.65999" pt_clust_6="14000.00000"></scales>
<clustering>
<clus scale="   33.039">  1  3  2 -1</clus>
<clus scale="   39.660">  1  5  2 -1</clus>
<clus scale="  122.502">  2  4  1 -1</clus>
<clus scale="  122.502">  2  3  1 -1</clus>
</clustering>
</event>
<event>
 6    0  0.2433432E+002  0.9452206E+02  0.7546771E-02  0.1292256E+00
         21   -1    0    0  503  502  0.00000000000E+00  0.00000000000E+00  0.27158070676E+03  0.27158070676E+03  0.00000000000E+00 0.  1.
          2   -1    0    0  504    0 -0.00000000000E+00 -0.00000000000E+00 -0.71775884889E+03  0.71775884889E+03  0.00000000000E+00 0. -1.
         21    1    1    2  503  501 -0.23203267340E+02 -0.26156693713E+02 -0.27434105104E+01  0.35072646642E+02  0.00000000000E+00 0.  1.
         21    1    1    2  504  505  0.73508278469E+02 -0.99087603366E+02  0.19829014551E+03  0.23353972242E+03  0.00000000000E+00 0.  1.
         21    1    1    2  505  502 -0.13730148082E+02  0.38507579772E+02  0.24648615612E+02  0.47737877182E+02  0.00000000000E+00 0.  1.
          2    1    1    2  501    0 -0.36574863047E+02  0.86736717307E+02 -0.66637349275E+03  0.67298930940E+03  0.00000000000E+00 0. -1.
<scales pt_clust_3="34.96519" pt_clust_4="94.52206" pt_clust_5="38.73929" pt_clust_6="14000.00000"></scales>
<clustering>
<clus scale="   34.965">  1  3  2 -1</clus>
<clus scale="   38.739">  1  5  2 -1</clus>
<clus scale="   94.522">  1  4  2 -1</clus>
<clus scale="   34.965">  1  3  2 -1</clus>
</clustering>
</event>
<event>
 6    0  0.2433432E+002  0.1127012E+03  0.7546771E-02  0.1255648E+00
         21   -1    0    0  505  502  0.00000000000E+00  0.00000000000E+00  0.86157338419E+02  0.86157338419E+02  0.00000000000E+00 0. -1.
          1   -1    0    0  504    0 -0.00000000000E+00 -0.00000000000E+00 -0.19828099121E+04  0.19828099121E+04  0.00000000000E+00 0. -1.
         21    1    1    2  503  501  0.59965281222E+02  0.30535564011E+02 -0.35610486642E+02  0.76133845170E+02  0.00000000000E+00 0. -1.
         21    1    1    2  504  502 -0.45595316810E+02 -0.78537145209E+02 -0.22891857115E+02  0.93653901226E+02  0.00000000000E+00 0. -1.
         21    1    1    2  505  503  0.30681602289E+02  0.49592466813E+02  0.21224550420E+01  0.58354762436E+02  0.00000000000E+00 0. -1.
          1    1    1    2  501    0 -0.45051566700E+02 -0.15908856148E+01 -0.18402726849E+04  0.18408247417E+04  0.00000000000E+00 0. -1.
<scales pt_clust_3="44.91987" pt_clust_4="101.84880" pt_clust_5="44.91987" pt_clust_6="45.07965"></scales>
<clustering>
<clus scale="   44.920">  3  5 -1 -1</clus>
<clus scale="   45.080">  2  6  1 -1</clus>
<clus scale="  101.849">  1  4  2 -1</clus>
<clus scale="  101.849">  1  3  2 -1</clus>
</clustering>
</event>
<event>
 6    0  0.2433432E+002  0.1253030E+03  0.7546771E-02  0.1234596E+00
         21   -1    0    0  504  502  0.00000000000E+00  0.00000000000E+00  0.11821948969E+03  0.11821948969E+03  0.00000000000E+00 0. -1.
         -1   -1    0    0    0  501 -0.00000000000E+00 -0.00000000000E+00 -0.73200180597E+03  0.73200180597E+03  0.00000000000E+00 0.  1.
         21    1    1    2  503  501 -0.50093873426E+02  0.10697829371E+02 -0.10039889034E+03  0.11271103269E+03  0.00000000000E+00 0.  1.
         21    1    1    2  504  503  0.38379197335E+01  0.36985679971E+02 -0.30920655993E+02  0.48360698070E+02  0.00000000000E+00 0. -1.
         21    1    1    2  505  502  0.93128616595E+02  0.52311462971E+02  0.68720559803E+02  0.12701158895E+03  0.00000000000E+00 0. -1.
         -1    1    1    2    0  505 -0.46872662903E+02 -0.99994972313E+02 -0.55118332975E+03  0.56213797595E+03  0.00000000000E+00 0.  1.
<scales pt_clust_3="51.48865" pt_clust_4="37.18427" pt_clust_5="125.30303" pt_clust_6="14000.00000"></scales>
<clustering>
<clus scale="   37.184">  1  4  2 -1</clus>
<clus scale="   51.489">  2  3  1 -1</clus>
<clus scale="  125.303">  1  5  2 -1</clus>
<clus scale="   37.184">  1  3  2 -1</clus>
</clustering>
</event>
<event>
 6    0  0.2433432E+002  0.1073609E+03  0.7546771E-02  0.1265537E+00
         21   -1    0    0  501  502  0.00000000000E+00  0.00000000000E+00  0.38490663943E+03  0.38490663943E+03  0.00000000000E+00 0. -1.
         -1   -1    0    0    0  501 -0.00000000000E+00 -0.00000000000E+00 -0.35639533620E+03  0.35639533620E+03  0.00000000000E+00 0.  1.
         21    1    1    2  503  502  0.37353702181E+02  0.58317991004E+01  0.26356787489E+03  0.26626553217E+03  0.00000000000E+00 0. -1.
         21    1    1    2  504  505 -0.89566013833E+02 -0.41890647787E+02 -0.17817666622E+03  0.20377394728E+03  0.00000000000E+00 0.  1.
         21    1    1    2  505  503  0.77982970861E+02 -0.51266849119E+02  0.68888129261E+02  0.11599658579E+03  0.00000000000E+00 0. -1.
         -1    1    1    2    0  504 -0.25770659209E+02  0.87325697805E+02 -0.12576803471E+03  0.15526591038E+03  0.00000000000E+00 0.  1.
<scales pt_clust_3="37.80620" pt_clust_4="14000.00000" pt_clust_5="107.36094" pt_clust_6="90.55411"></scales>
<clustering>
<clus scale="   37.806">  1  3  2 -1</clus>
<clus scale="   90.554">  2  6  1 -1</clus>
<clus scale="  107.361">  1  5  2 -1</clus>
<clus scale="   37.806">  1  3  2 -1</clus>
</clustering>
</event>
<event>
 6    0  0.2433432E+002  0.8315566E+02  0.7546771E-02  0.1320327E+00
         21   -1    0    0  503  502  0.00000000000E+00  0.00000000000E+00  0.15666837360E+03  0.15666837360E+03  0.00000000000E+00 0.  1.
          2   -1    0    0  505    0 -0.00000000000E+00 -0.00000000000E+00 -0.50963467112E+03  0.50963467112E+03  0.00000000000E+00 0.  1.
         21    1    1    2  503  501  0.56510953678E+02  0.76476301199E+02 -0.37247583335E+01  0.95162946336E+02  0.00000000000E+00 0.  1.
         21    1    1    2  504  502 -0.30301298168E+02 -0.73704385686E+02  0.74452654377E+02  0.10905825454E+03  0.00000000000E+00 0.  1.
         21    1    1    2  505  504 -0.18757479978E+02  0.37304563760E+02 -0.57436137849E+01  0.42148103537E+02  0.00000000000E+00 0.  1.
          2    1    1    2  501    0 -0.74521755317E+01 -0.40076479273E+02 -0.41795057977E+03  0.41993374030E+03  0.00000000000E+00 0.  1.
<scales pt_clust_3="14000.00000" pt_clust_4="83.15566" pt_clust_5="33.81790" pt_clust_6="40.76345"></scales>
<clustering>
<clus scale="   40.763">  2  6  1 -1</clus>
<clus scale="   33.818">  2  5  1 -1</clus>
<clus scale="   83.156">  1  4  2 -1</clus>
<clus scale="   83.156">  1  3  2 -1</clus>
</clustering>
</event>
<event>
 6    0  0.2433432E+002  0.1121194E+03  0.7546771E-02  0.1256695E+00
          4   -1    0    0  505    0 -0.00000000000E+00  0.00000000000E+00  0.14490153374E+04  0.14490153374E+04  0.00000000000E+00 0.  1.
         21   -1    0    0  504  502  0.00000000000E+00 -0.00000000000E+00 -0.10630196591E+03  0.10630196591E+03  0.00000000000E+00 0.  1.
         21    1    1    2  503  502  0.23149236260E+02  0.61501534227E+02 -0.64324707663E+02  0.91956478117E+02  0.00000000000E+00 0.  1.
         21    1    1    2  504  501  0.42986646791E+01  0.53872994681E+02  0.93803473425E+01  0.54852246901E+02  0.00000000000E+00 0.  1.
         21    1    1    2  505  503  0.43659121520E+02 -0.56045712704E+02  0.37529700382E+03  0.38196214718E+03  0.00000000000E+00 0.  1.
          4    1    1    2  501    0 -0.71107022459E+02 -0.59328816204E+02  0.10223607280E+04  0.10265464311E+04  0.00000000000E+00 0.  1.
<scales pt_clust_3="14000.00000" pt_clust_4="54.04422" pt_clust_5="69.46967" pt_clust_6="112.11944"></scales>
<clustering>
<clus scale="   54.044">  2  4  1 -1</clus>
<clus scale="   69.470">  1  5  2 -1</clus>
<clus scale="  112.119">  1  6  2 -1</clus>
<clus scale="   54.044">  2  3  1 -1</clus>
</clustering>
</event>
<event>
 6    0  0.2433432E+002  0.1234979E+03  0.7546771E-02  0.1237436E+00
          2   -1    0    0  505    0 -0.00000000000E+00  0.00000000000E+00  0.59980632743E+03  0.59980632743E+03  0.00000000000E+00 0.  1.
         21   -1    0    0  501  502  0.00000000000E+00 -0.00000000000E+00 -0.52227050922E+02  0.52227050922E+02  0.00000000000E+00 0.  1.
         21    1    1    2  503  502  0.29316257177E+02 -0.56343171003E+02  0.52421128370E+02  0.82352720375E+02  0.00000000000E+00 0.  1.
         21    1    1    2  504  503 -0.37814796494E+02  0.29336238146E+01  0.19251425817E+02  0.42534484581E+02  0.00000000000E+00 0.  1.
         21    1    1    2  505  504 -0.41993120374E+02 -0.56201968507E+02  0.54612827019E+02  0.88908066551E+02  0.00000000000E+00 0.  1.
          2    1    1    2  501    0  0.50491659691E+02  0.10961151570E+03  0.42129389530E+03  0.43823810684E+03  0.00000000000E+00 0.  1.
<scales pt_clust_3="63.51375" pt_clust_4="37.59506" pt_clust_5="37.59506" pt_clust_6="112.41594"></scales>
<clustering>
<clus scale="   37.595">  4  5 -1 -1</clus>
<clus scale="   63.514">  2  3  1 -1</clus>
<clus scale="  112.416">  1  6  2 -1</clus>
<clus scale="   63.514">  2  3  1 -1</clus>
</clustering>
</event>
<event>
 6    0  0.2433432E+002  0.6188750E+02  0.7546771E-02  0.1390077E+00
          3   -1    0    0  504    0 -0.00000000000E+00  0.00000000000E+00  0.13847733392E+03  0.13847733392E+03  0.00000000000E+00 0.  1.
         21   -1    0    0  505  502  0.00000000000E+00 -0.00000000000E+00 -0.25348267361E+04  0.25348267361E+04  0.00000000000E+00 0. -1.
         21    1    1    2  503  501  0.66574550114E+02  0.88237088314E+02 -0.84330652282E+03  0.85051975045E+03  0.00000000000E+00 0.  1.
         21    1    1    2  504  502  0.15656923816E+02 -0.51790031130E+02 -0.22424411832E+03  0.23067893529E+03  0.00000000000E+00 0.  1.
         21    1    1    2  505  503 -0.32007338845E+02 -0.92254431558E+00 -0.14530796458E+04  0.14534324126E+04  0.00000000000E+00 0. -1.
          3    1    1    2  501    0 -0.50224135085E+02 -0.35524512868E+02  0.12428088478E+03  0.13867297170E+03  0.00000000000E+00 0.  1.
<scales pt_clust_3="14000.00000" pt_clust_4="52.74473" pt_clust_5="32.02063" pt_clust_6="61.88750"></scales>
<clustering>
<clus scale="   32.021">  2  5  1 -1</clus>
<clus scale="   52.745">  2  4  1 -1</clus>
<clus scale="   61.887">  1  6  2 -1</clus>
<clus scale="   32.021">  2  3  1 -1</clus>
</clustering>
</event>
<event>
 6    0  0.2433432E+002  0.9977327E+02  0.7546771E-02  0.1280773E+00
         21   -1    0    0  504  502  0.00000000000E+00  0.00000000000E+00  0.27835691945E+02  0.27835691945E+02  0.00000000000E+00 0. -1.
          2   -1    0    0  503    0 -0.00000000000E+00 -0.00000000000E+00 -0.16228586522E+04  0.16228586522E+04  0.00000000000E+00 0.  1.
         21    1    1    2  503  502 -0.74703371151E+02  0.74698090625E+02 -0.22176137964E+03  0.24563897880E+03  0.00000000000E+00 0. -1.
         21    1    1    2  504  505  0.38106172724E+02  0.19346161435E+02 -0.32913014517E+02  0.53940901795E+02  0.00000000000E+00 0. -1.
         21    1    1    2  505  501  0.74568009633E+02 -0.67096097307E+02 -0.52872965007E+03  0.53816105136E+03  0.00000000000E+00 0. -1.
          2    1    1    2  501    0 -0.37970811206E+02 -0.26948154753E+02 -0.81161891600E+03  0.81295341217E+03  0.00000000000E+00 0.  1.
<scales pt_clust_3="14000.00000" pt_clust_4="42.73587" pt_clust_5="99.77327" pt_clust_6="44.93392"></scales>
<clustering>
<clus scale="   42.736">  1  4  2 -1</clus>
<clus scale="   44.934">  2  6  1 -1</clus>
<clus scale="   99.773">  2  5  1 -1</clus>
<clus scale="   42.736">  1  3  2 -1</clus>
</clustering>
</event>
<event>
 6    0  0.2433432E+002  0.2559317E+03  0.7546771E-02  0.1109612E+00
         -2   -1    0    0    0  501 -0.00000000000E+00  0.00000000000E+00  0.28644947116E+03  0.28644947116E+03  0.00000000000E+00 0. -1.
         21   -1    0    0  503  502  0.00000000000E+00 -0.00000000000E+00 -0.16789501299E+04  0.16789501299E+04  0.00000000000E+00 0.  1.
         21    1    1    2  503  505  0.14067581351E+03 -0.10243879291E+03 -0.10167711890E+04  0.10315556415E+04  0.00000000000E+00 0.  1.
         21    1    1    2  504  501  0.24243107336E+02  0.19721624164E+02 -0.28175729879E+02  0.42077814430E+02  0.00000000000E+00 0.  1.
         21    1    1    2  505  504  0.18040500471E+02 -0.79060627354E+02 -0.56135280437E+03  0.56717987749E+03  0.00000000000E+00 0.  1.
         -2    1    1    2    0  502 -0.18295942132E+03  0.16177779610E+03  0.21379906448E+03  0.32458626763E+03  0.00000000000E+00 0. -1.
<scales pt_clust_3="58.42444" pt_clust_4="31.25173" pt_clust_5="58.42444" pt_clust_6="241.15145"></scales>
<clustering>
<clus scale="   31.252">  1  4  2 -1</clus>
<clus scale="   58.424">  3  5 -1 -1</clus>
<clus scale="  241.151">  1  6  2 -1</clus>
<clus scale="  255.932">  2  3  1 -1</clus>
</clustering>
</event>
<event>
 6    0  0.2433432E+002  0.1510070E+03  0.7546771E-02  0.1199241E+00
         21   -1    0    0  504  502  0.00000000000E+00  0.00000000000E+00  0.98513153118E+02  0.98513153118E+02  0.00000000000E+00 0. -1.
          2   -1    0    0  503    0 -0.00000000000E+00 -0.00000000000E+00 -0.24512558391E+04  0.24512558391E+04  0.00000000000E+00 0. -1.
         21    1    1    2  503  505 -0.39018947522E+02 -0.14024952582E+02 -0.19546461616E+03  0.19981389774E+03  0.00000000000E+00 0. -1.
         21    1    1    2  504  501 -0.41416343446E+02  0.72613556552E+02 -0.59773792184E+03  0.60355502260E+03  0.00000000000E+00 0. -1.
         21    1    1    2  505  502  0.11515400331E+03 -0.10968008435E+03  0.24717819057E+02  0.16093829861E+03  0.00000000000E+00 0. -1.
          2    1    1    2  501    0 -0.34718712343E+02  0.51091480377E+02 -0.15842579671E+04  0.15854617733E+04  0.00000000000E+00 0. -1.
<scales pt_clust_3="41.46297" pt_clust_4="151.00704" pt_clust_5="14000.00000" pt_clust_6="74.58891"></scales>
<clustering>
<clus scale="   41.463">  2  3  1 -1</clus>
<clus scale="   74.589">  2  6  1 -1</clus>
<clus scale="  151.007">  2  4  1 -1</clus>
<clus scale="  151.007">  1  3  2 -1</clus>
</clustering>
</event>
<event>
 6    0  0.2433432E+002  0.1749083E+03  0.7546771E-02  0.1172824E+00
          2   -1    0    0  503    0 -0.00000000000E+00  0.00000000000E+00  0.96459579764E+03  0.96459579764E+03  0.00000000000E+00 0. -1.
         21   -1    0    0  504  502  0.00000000000E+00 -0.00000000000E+00 -0.23497087386E+03  0.23497087386E+03  0.00000000000E+00 0.  1.
         21    1    1    2  503  505 -0.77498922646E+02  0.10661981446E+03 -0.99257891523E+02  0.16500302081E+03  0.00000000000E+00 0.  1.
         21    1    1    2  504  501 -0.19131315085E+01 -0.30828478031E+02  0.83693452304E+01  0.32001579171E+02  0.00000000000E+00 0.  1.
         21    1    1    2  505  502 -0.51018348440E+02  0.29770605109E+02 -0.72729829492E+02  0.93695191467E+02  0.00000000000E+00 0.  1.
          2    1    1    2  501    0  0.13043040259E+03 -0.10556194154E+03  0.89324329957E+03  0.90886688005E+03  0.00000000000E+00 0. -1.
<scales pt_clust_3="32.13206" pt_clust_4="30.88778" pt_clust_5="32.13206" pt_clust_6="168.42492"></scales>
<clustering>
<clus scale="   30.888">  2  4  1 -1</clus>
<clus scale="   32.132">  3  5 -1 -1</clus>
<clus scale="  168.425">  1  6  2 -1</clus>
<clus scale="   30.888">  2  3  1 -1</clus>
</clustering>
</event>
<event>
 6    0  0.2433432E+002  0.1232398E+03  0.7546771E-02  0.1237846E+00
         21   -1    0    0  504  502  0.00000000000E+00  0.00000000000E+00  0.41582228899E+03  0.41582228899E+03  0.00000000000E+00 0. -1.
          1   -1    0    0  503    0 -0.00000000000E+00 -0.00000000000E+00 -0.33804481121E+03  0.33804481121E+03  0.00000000000E+00 0.  1.
         21    1    1    2  503  502  0.10756384170E+03 -0.97116609281E+02  0.22757465618E+03  0.26979962931E+03  0.00000000000E+00 0. -1.
         21    1    1    2  504  505 -0.63740213784E+02 -0.65257412570E+02  0.89809873060E+02  0.12801233553E+03  0.00000000000E+00 0. -1.
         21    1    1    2  505  501 -0.10751717139E+02  0.93696163014E+02  0.10215131821E+02  0.94862633861E+02  0.00000000000E+00 0. -1.
          1    1    1    2  501    0 -0.33071910780E+02  0.68677858837E+02 -0.24982218328E+03  0.26119250149E+03  0.00000000000E+00 0.  1.
<scales pt_clust_3="14000.00000" pt_clust_4="86.79778" pt_clust_5="123.23983" pt_clust_6="76.22598"></scales>
<clustering>
<clus scale="   76.226">  2  6  1 -1</clus>
<clus scale="   86.798">  1  4  2 -1</clus>
<clus scale="  123.240">  2  5  1 -1</clus>
<clus scale="   86.798">  1  3  2 -1</clus>
</clustering>
</event>
<event>
 6    0  0.2433432E+002  0.1062194E+03  0.7546771E-02  0.1267736E+00
          1   -1    0    0  504    0 -0.00000000000E+00  0.00000000000E+00  0.12696395697E+04  0.12696395697E+04  0.00000000000E+00 0.  1.
         21   -1    0    0  503  502  0.00000000000E+00 -0.00000000000E+00 -0.60145612784E+02  0.60145612784E+02  0.00000000000E+00 0.  1.
         21    1    1    2  503  505 -0.89335883009E+01 -0.45020806215E+02 -0.65355906688E+01  0.46361578247E+02  0.00000000000E+00 0.  1.
         21    1    1    2  504  502 -0.35008802925E+02  0.71360409817E+01  0.51924654524E+02  0.63029430511E+02  0.00000000000E+00 0.  1.
         21    1    1    2  505  501  0.61428373264E+02 -0.69710414881E+02  0.59299998128E+02  0.11022466495E+03  0.00000000000E+00 0.  1.
          1    1    1    2  501    0 -0.17485982038E+02  0.10759518011E+03  0.11048048950E+04  0.11101695088E+04  0.00000000000E+00 0.  1.
<scales pt_clust_3="48.96983" pt_clust_4="35.72869" pt_clust_5="14000.00000" pt_clust_6="106.21937"></scales>
<clustering>
<clus scale="   35.729">  2  4  1 -1</clus>
<clus scale="   48.970">  2  3  1 -1</clus>
<clus scale="  106.219">  1  6  2 -1</clus>
<clus scale="   35.729">  2  3  1 -1</clus>
</clustering>
</event>
<event>
 6    0  0.2433432E+002  0.1103959E+03  0.7546771E-02  0.1259839E+00
          2   -1    0    0  503    0 -0.00000000000E+00  0.00000000000E+00  0.25058881626E+04  0.25058881626E+04  0.00000000000E+00 0.  1.
         21   -1    0    0  505  502  0.00000000000E+00 -0.00000000000E+00 -0.27622143916E+02  0.27622143916E+02  0.00000000000E+00 0. -1.
         21    1    1    2  503  504 -0.32347990489E+02 -0.11525388346E+02  0.12612930774E+03  0.13072042433E+03  0.00000000000E+00 0. -1.
         21    1    1    2  504  502 -0.98821771138E+01 -0.29206648160E+02  0.40675641155E+02  0.51041096233E+02  0.00000000000E+00 0. -1.
         21    1    1    2  505  501 -0.69851356881E+02  0.20821823842E+02  0.52274564493E+02  0.89696100802E+02  0.00000000000E+00 0. -1.
          2    1    1    2  501    0  0.11208152448E+03  0.19910212664E+02  0.22591865053E+04  0.22620526852E+04  0.00000000000E+00 0.  1.
<scales pt_clust_3="36.37929" pt_clust_4="30.83319" pt_clust_5="110.39587" pt_clust_6="14000.00000"></scales>
<clustering>
<clus scale="   30.833">  2  4  1 -1</clus>
<clus scale="   36.379">  2  3  1 -1</clus>
<clus scale="  110.396">  2  5  1 -1</clus>
<clus scale="   30.833">  2  3  1 -1</clus>
</clustering>
</event>
<event>
 6    0  0.2433432E+002  0.8832224E+02  0.7546771E-02  0.1306966E+00
         -1   -1    0    0    0  501 -0.00000000000E+00  0.00000000000E+00  0.35439962661E+03  0.35439962661E+03  0.00000000000E+00 0.  1.
         21   -1    0    0  503  502  0.00000000000E+00 -0.00000000000E+00 -0.33651268676E+03  0.33651268676E+03  0.00000000000E+00 0.  1.
         21    1    1    2  503  504  0.44820528159E+01 -0.96334252581E+02 -0.26887351461E+03  0.28564548636E+03  0.00000000000E+00 0.  1.
         21    1    1    2  504  501  0.49956597957E+02  0.58555953430E+02 -0.20353386934E+02  0.79616089588E+02  0.00000000000E+00 0.  1.
         21    1    1    2  505  502 -0.21061043854E+02  0.46999898953E+02  0.75078882237E+02  0.91046123629E+02  0.00000000000E+00 0.  1.
         -1    1    1    2    0  505 -0.33377606919E+02 -0.92215998020E+01  0.23203495915E+03  0.23460461380E+03  0.00000000000E+00 0.  1.
<scales pt_clust_3="14000.00000" pt_clust_4="88.32224" pt_clust_5="59.88914" pt_clust_6="34.62806"></scales>
<clustering>
<clus scale="   34.628">  1  6  2 -1</clus>
<clus scale="   59.889">  1  5  2 -1</clus>
<clus scale="   88.322">  1  4  2 -1</clus>
<clus scale="   88.322">  2  3  1 -1</clus>
</clustering>
</event>
<event>
 6    0  0.2433432E+002  0.1074154E+03  0.7546771E-02  0.1265432E+00
         21   -1    0    0  503  502  0.00000000000E+00  0.00000000000E+00  0.16935606602E+02  0.16935606602E+02  0.00000000000E+00 0.  1.
          2   -1    0    0  505    0 -0.00000000000E+00 -0.00000000000E+00 -0.41953304620E+04  0.41953304620E+04  0.00000000000E+00 0.  1.
         21    1    1    2  503  504  0.82486878938E+02 -0.50301761548E+02 -0.22629885346E+03  0.24605999977E+03  0.00000000000E+00 0.  1.
         21    1    1    2  504  501  0.42553660219E+02 -0.20293743230E+02 -0.36945280754E+03  0.37244869044E+03  0.00000000000E+00 0. -1.
         21    1    1    2  505  502 -0.15755065141E+03  0.63497789931E+02 -0.13218893445E+04  0.13327586489E+04  0.00000000000E+00 0.  1.
          2    1    1    2  501    0  0.32510112253E+02  0.70977148477E+01 -0.22607538499E+04  0.22609987295E+04  0.00000000000E+00 0.  1.
<scales pt_clust_3="107.41541" pt_clust_4="52.33255" pt_clust_5="14000.00000" pt_clust_6="33.27589"></scales>
<clustering>
<clus scale="   33.276">  2  6  1 -1</clus>
<clus scale="   52.333">  2  4  1 -1</clus>
<clus scale="  107.415">  1  3  2 -1</clus>
<clus scale="  107.415">  1  3  2 -1</clus>
</clustering>
</event>
<event>
 6    0  0.2433432E+002  0.1162836E+03  0.7546771E-02  0.1249357E+00
         -3   -1    0    0    0  501 -0.00000000000E+00  0.00000000000E+00  0.14441627042E+04  0.14441627042E+04  0.00000000000E+00 0. -1.
         21   -1    0    0  504  502  0.00000000000E+00 -0.00000000000E+00 -0.47376935604E+02  0.47376935604E+02  0.00000000000E+00 0. -1.
         21    1    1    2  503  501  0.43126061584E+02  0.25659476597E+01  0.22344850795E+03  0.22758663620E+03  0.00000000000E+00 0. -1.
         21    1    1    2  504  505 -0.10679889756E+03 -0.51054777835E+02  0.57248512102E+02  0.13149139515E+03  0.00000000000E+00 0. -1.
         21    1    1    2  505  503  0.10761359922E+02 -0.65407118742E+02  0.38617586527E+03  0.39182355335E+03  0.00000000000E+00 0. -1.
         -3    1    1    2    0  502  0.52911476056E+02  0.11389594892E+03  0.72991288333E+03  0.74063805515E+03  0.00000000000E+00 0. -1.
<scales pt_clust_3="43.20233" pt_clust_4="14000.00000" pt_clust_5="69.08845" pt_clust_6="116.28363"></scales>
<clustering>
<clus scale="   43.202">  1  3  2 -1</clus>
<clus scale="   69.088">  1  5  2 -1</clus>
<clus scale="  116.284">  1  6  2 -1</clus>
<clus scale="  116.284">  2  3  1 -1</clus>
</clustering>
</event>
<event>
 6    0  0.2433432E+002  0.1184654E+03  0.7546771E-02  0.1245650E+00
         21   -1    0    0  503  502  0.00000000000E+00  0.00000000000E+00  0.17197184804E+03  0.17197184804E+03  0.00000000000E+00 0. -1.
          2   -1    0    0  505    0 -0.00000000000E+00 -0.00000000000E+00 -0.29998501080E+04  0.29998501080E+04  0.00000000000E+00 0. -1.
         21    1    1    2  503  504  0.17356677063E+02 -0.26003083467E+02  0.11561845069E+03  0.11977078411E+03  0.00000000000E+00 0. -1.
         21    1    1    2  504  501  0.14159531911E+02 -0.14451574140E+03 -0.62894760911E+02  0.15824361853E+03  0.00000000000E+00 0. -1.
         21    1    1    2  505  502  0.25439577549E+01  0.57725271021E+02 -0.15121317460E+03  0.16187681368E+03  0.00000000000E+00 0. -1.
          2    1    1    2  501    0 -0.34060166729E+02  0.11279355385E+03 -0.27293887752E+04  0.27319307397E+04  0.00000000000E+00 0. -1.
<scales pt_clust_3="31.26363" pt_clust_4="14000.00000" pt_clust_5="55.33428" pt_clust_6="118.46539"></scales>
<clustering>
<clus scale="   31.264">  1  3  2 -1</clus>
<clus scale="   55.334">  1  5  2 -1</clus>
<clus scale="  118.465">  2  6  1 -1</clus>
<clus scale="   31.264">  1  3  2 -1</clus>
</clustering>
</event>
<event>
 6    0  0.2433432E+002  0.2117278E+03  0.7546771E-02  0.1140205E+00
          1   -1    0    0  505    0 -0.00000000000E+00  0.00000000000E+00  0.33981106905E+03  0.33981106905E+03  0.00000000000E+00 0. -1.
         21   -1    0    0  503  502  0.00000000000E+00 -0.00000000000E+00 -0.51655964332E+03  0.51655964332E+03  0.00000000000E+00 0. -1.
         21    1    1    2  503  501 -0.37986125832E+02 -0.35721774630E+01  0.30627777101E+02  0.48926137572E+02  0.00000000000E+00 0.  1.
         21    1    1    2  504  502  0.97843002406E+02  0.19776597920E+03 -0.43493290466E+03  0.48769997663E+03  0.00000000000E+00 0. -1.
         21    1    1    2  505  504 -0.18128190142E+02 -0.16243109560E+03  0.12942207605E+03  0.20847677536E+03  0.00000000000E+00 0. -1.
          1    1    1    2  501    0 -0.41728686432E+02 -0.31762706134E+02  0.98134477233E+02  0.11126782282E+03  0.00000000000E+00 0. -1.
<scales pt_clust_3="32.80721" pt_clust_4="211.72775" pt_clust_5="14000.00000" pt_clust_6="95.30156"></scales>
<clustering>
<clus scale="   32.807">  3  6 -1 -1</clus>
<clus scale="   95.302">  1  3  2 -1</clus>
<clus scale="  211.728">  2  4  1 -1</clus>
<clus scale="  211.728">  2  3  1 -1</clus>
</clustering>
</event>
<event>
 6    0  0.2433432E+002  0.1411747E+03  0.7546771E-02  0.1211757E+00
         21   -1    0    0  503  502  0.00000000000E+00  0.00000000000E+00  0.44222193231E+03  0.44222193231E+03  0.00000000000E+00 0.  1.
          2   -1    0    0  505    0 -0.00000000000E+00 -0.00000000000E+00 -0.41802498675E+03  0.41802498675E+03  0.00000000000E+00 0.  1.
         21    1    1    2  503  504  0.42579347482E+02  0.78776652129E+00  0.25038697127E+03  0.25398278838E+03  0.00000000000E+00 0.  1.
         21    1    1    2  504  501  0.60387238888E+02  0.65264270916E+02  0.90662227464E+02  0.12698694093E+03  0.00000000000E+00 0.  1.
         21    1    1    2  505  502  0.47427494696E+02 -0.50122251568E+02  0.48177330642E+02  0.84158555971E+02  0.00000000000E+00 0.  1.
          2    1    1    2  501    0 -0.15039408107E+03 -0.15929785869E+02 -0.36502958382E+03  0.39511863378E+03  0.00000000000E+00 0.  1.
<scales pt_clust_3="42.58663" pt_clust_4="14000.00000" pt_clust_5="79.75118" pt_clust_6="141.17469"></scales>
<clustering>
<clus scale="   42.587">  1  3  2 -1</clus>
<clus scale="   79.751">  1  5  2 -1</clus>
<clus scale="  141.175">  2  6  1 -1</clus>
<clus scale="   42.587">  1  3  2 -1</clus>
</clustering>
</event>
<event>
 6    0  0.2433432E+002  0.3399848E+03  0.7546771E-02  0.1066802E+00
          2   -1    0    0  503    0 -0.00000000000E+00  0.00000000000E+00  0.80273001965E+03  0.80273001965E+03  0.00000000000E+00 0. -1.
         21   -1    0    0  505  502  0.00000000000E+00 -0.00000000000E+00 -0.28432304657E+03  0.28432304657E+03  0.00000000000E+00 0.  1.
         21    1    1    2  503  502  0.13476030514E+03 -0.89994914868E+00 -0.10076369962E+03  0.16826904918E+03  0.00000000000E+00 0.  1.
         21    1    1    2  504  501  0.11729660213E+03  0.19322203652E+03  0.20387996377E+03  0.30440152413E+03  0.00000000000E+00 0. -1.
         21    1    1    2  505  504  0.47865529430E+01  0.68414013780E+02  0.11730438125E+02  0.69577234418E+02  0.00000000000E+00 0. -1.
          2    1    1    2  501    0 -0.25684346022E+03 -0.26073610115E+03  0.40356027081E+03  0.54480525849E+03  0.00000000000E+00 0. -1.
<scales pt_clust_3="134.76331" pt_clust_4="55.12232" pt_clust_5="55.12232" pt_clust_6="324.92323"></scales>
<clustering>
<clus scale="   55.122">  4  5 -1 -1</clus>
<clus scale="  134.763">  2  3  1 -1</clus>
<clus scale="  324.923">  1  6  2 -1</clus>
<clus scale="  134.763">  2  3  1 -1</clus>
</clustering>
</event>
<event>
 6    0  0.2433432E+002  0.8198843E+02  0.7546771E-02  0.1323501E+00
         21   -1    0    0  504  502  0.00000000000E+00  0.00000000000E+00  0.10632566582E+04  0.10632566582E+04  0.00000000000E+00 0.  1.
         -1   -1    0    0    0  501 -0.00000000000E+00 -0.00000000000E+00 -0.41538319150E+03  0.41538319150E+03  0.00000000000E+00 0.  1.
         21    1    1    2  503  505 -0.39595344612E+02 -0.35142571237E+02  0.10883843610E+03  0.12103138767E+03  0.00000000000E+00 0.  1.
         21    1    1    2  504  501  0.25957621323E+02  0.13600298757E+03  0.54431342950E+03  0.56164732730E+03  0.00000000000E+00 0.  1.
         21    1    1    2  505  502  0.34278595879E+02 -0.21949629544E+02  0.39011984335E+03  0.39223755627E+03  0.00000000000E+00 0.  1.
         -1    1    1    2    0  503 -0.20640872590E+02 -0.78910786794E+02 -0.39539824221E+03  0.40372357850E+03  0.00000000000E+00 0.  1.
<scales pt_clust_3="51.48640" pt_clust_4="14000.00000" pt_clust_5="40.70391" pt_clust_6="81.98843"></scales>
<clustering>
<clus scale="   40.704">  1  5  2 -1</clus>
<clus scale="   51.486">  1  3  2 -1</clus>
<clus scale="   81.988">  2  6  1 -1</clus>
<clus scale="   40.704">  1  3  2 -1</clus>
</clustering>
</event>
<event>
 6    0  0.2433432E+002  0.1665876E+03  0.7546771E-02  0.1181454E+00
         21   -1    0    0  504  502  0.00000000000E+00  0.00000000000E+00  0.19900495912E+03  0.19900495912E+03  0.00000000000E+00 0. -1.
          1   -1    0    0  505    0 -0.00000000000E+00 -0.00000000000E+00 -0.13845978184E+04  0.13845978184E+04  0.00000000000E+00 0. -1.
         21    1    1    2  503  502 -0.38147460281E+02 -0.17811896369E+02  0.37348785538E+02  0.56279873484E+02  0.00000000000E+00 0.  1.
         21    1    1    2  504  501 -0.24303550281E+02  0.56351978493E+02  0.19548322759E+02  0.64407646744E+02  0.00000000000E+00 0.  1.
         21    1    1    2  505  503 -0.43644807846E+02 -0.16755691043E+03  0.33228614961E+02  0.17630748236E+03  0.00000000000E+00 0. -1.
          1    1    1    2  501    0  0.10609581841E+03  0.12901682830E+03 -0.12757185825E+04  0.12866077749E+04  0.00000000000E+00 0. -1.
<scales pt_clust_3="42.10098" pt_clust_4="62.11918" pt_clust_5="166.58764" pt_clust_6="14000.00000"></scales>
<clustering>
<clus scale="   42.101">  1  3  2 -1</clus>
<clus scale="   62.119">  1  4  2 -1</clus>
<clus scale="  166.588">  1  5  2 -1</clus>
<clus scale="   42.101">  1  3  2 -1</clus>
</clustering>
</event>
<event>
 6    0  0.2433432E+002  0.2028674E+03  0.7546771E-02  0.1147342E+00
         21   -1    0    0  505  502  0.00000000000E+00  0.00000000000E+00  0.23535725941E+04  0.23535725941E+04  0.00000000000E+00 0.  1.
          1   -1    0    0  502    0 -0.00000000000E+00 -0.00000000000E+00 -0.13513242994E+04  0.13513242994E+04  0.00000000000E+00 0. -1.
         21    1    1    2  503  501 -0.81556345979E+02  0.10508905565E+02  0.66987603761E+03  0.67490427501E+03  0.00000000000E+00 0.  1.
         21    1    1    2  504  503 -0.46090928616E+02 -0.99603712473E+01  0.67279483152E+03  0.67444530395E+03  0.00000000000E+00 0.  1.
         21    1    1    2  505  504 -0.57395962618E+02  0.29790849784E+02  0.99999182977E+03  0.10020805611E+04  0.00000000000E+00 0.  1.
          1    1    1    2  501    0  0.18504323721E+03 -0.30339384102E+02 -0.13404144042E+04  0.13534667535E+04  0.00000000000E+00 0. -1.
<scales pt_clust_3="39.35977" pt_clust_4="31.08557" pt_clust_5="39.35977" pt_clust_6="187.51394"></scales>
<clustering>
<clus scale="   31.086">  3  4 -1 -1</clus>
<clus scale="   39.360">  3  5 -1 -1</clus>
<clus scale="  187.514">  2  6  1 -1</clus>
<clus scale="  202.867">  1  3  2 -1</clus>
</clustering>
</event>
<event>
 6    0  0.2433432E+002  0.2232653E+03  0.7546771E-02  0.1131472E+00
          1   -1    0    0  504    0 -0.00000000000E+00  0.00000000000E+00  0.75691888458E+03  0.75691888458E+03  0.00000000000E+00 0.  1.
         21   -1    0    0  503  502  0.00000000000E+00 -0.00000000000E+00 -0.28445172778E+03  0.28445172778E+03  0.00000000000E+00 0. -1.
         21    1    1    2  503  501 -0.44743462750E+02  0.34176285037E+02  0.20355012153E+02  0.59869211099E+02  0.00000000000E+00 0.  1.
         21    1    1    2  504  505 -0.15369090408E+03 -0.16632720171E+03  0.26001467142E+02  0.22795110950E+03  0.00000000000E+00 0.  1.
         21    1    1    2  505  502  0.14712042601E+03  0.16639542799E+03 -0.85675671380E+02  0.23805919195E+03  0.00000000000E+00 0. -1.
          1    1    1    2  501    0  0.51313940821E+02 -0.34244511313E+02  0.51178634889E+03  0.51549109981E+03  0.00000000000E+00 0.  1.
<scales pt_clust_3="56.30272" pt_clust_4="223.26533" pt_clust_5="14000.00000" pt_clust_6="61.29802"></scales>
<clustering>
<clus scale="   56.303">  2  3  1 -1</clus>
<clus scale="   61.298">  1  6  2 -1</clus>
<clus scale="  223.265">  1  4  2 -1</clus>
<clus scale="   56.303">  2  3  1 -1</clus>
</clustering>
</event>
<event>
 6    0  0.2433432E+002  0.1425437E+03  0.7546771E-02  0.1209947E+00
          1   -1    0    0  505    0 -0.00000000000E+00  0.00000000000E+00  0.15270505805E+04  0.15270505805E+04  0.00000000000E+00 0. -1.
         21   -1    0    0  504  502  0.00000000000E+00 -0.00000000000E+00 -0.44941609236E+02  0.44941609236E+02  0.00000000000E+00 0. -1.
         21    1    1    2  503  502  0.31264690424E+02 -0.31884524311E+02  0.91756189279E+02  0.10204558799E+03  0.00000000000E+00 0.  1.
         21    1    1    2  504  501 -0.14286799378E+03  0.14826937060E+02  0.13430562646E+03  0.19664461093E+03  0.00000000000E+00 0. -1.
         21    1    1    2  505  503  0.52752431621E+02 -0.75337598946E+02  0.40977477206E+03  0.41996897109E+03  0.00000000000E+00 0. -1.
          1    1    1    2  501    0  0.58850871738E+02  0.92395186197E+02  0.84627238347E+03  0.85333301973E+03  0.00000000000E+00 0. -1.
<scales pt_clust_3="34.21057" pt_clust_4="133.82180" pt_clust_5="34.21057" pt_clust_6="109.54586"></scales>
<clustering>
<clus scale="   34.211">  3  5 -1 -1</clus>
<clus scale="  109.546">  1  6  2 -1</clus>
<clus scale="  133.822">  2  4  1 -1</clus>
<clus scale="  133.822">  2  3  1 -1</clus>
</clustering>
</event>
<event>
 6    0  0.2433432E+002  0.9638525E+02  0.7546771E-02  0.1288086E+00
         -2   -1    0    0    0  501 -0.00000000000E+00  0.00000000000E+00  0.84581769707E+03  0.84581769707E+03  0.00000000000E+00 0.  1.
         21   -1    0    0  504  502  0.00000000000E+00 -0.00000000000E+00 -0.24902543135E+03  0.24902543135E+03  0.00000000000E+00 0.  1.
         21    1    1    2  503  502 -0.55590458260E+01 -0.33122603928E+02 -0.10548485464E+03  0.11070259455E+03  0.00000000000E+00 0.  1.
         21    1    1    2  504  501 -0.93107373801E+02  0.12079005945E+03 -0.83468726847E+01  0.15273798415E+03  0.00000000000E+00 0.  1.
         21    1    1    2  505  503  0.23920601944E+02 -0.29814149470E+02 -0.51112369435E+02  0.63824392008E+02  0.00000000000E+00 0.  1.
         -2    1    1    2    0  505  0.74745817682E+02 -0.57853306049E+02  0.76173636248E+03  0.76757815771E+03  0.00000000000E+00 0.  1.
<scales pt_clust_3="33.58586" pt_clust_4="14000.00000" pt_clust_5="48.43108" pt_clust_6="96.38525"></scales>
<clustering>
<clus scale="   33.586">  2  3  1 -1</clus>
<clus scale="   48.431">  2  5  1 -1</clus>
<clus scale="   96.385">  1  6  2 -1</clus>
<clus scale="   33.586">  2  3  1 -1</clus>
</clustering>
</event>
<event>
 6    0  0.2433432E+002  0.1021555E+03  0.7546771E-02  0.1275827E+00
         21   -1    0    0  504  502  0.00000000000E+00  0.00000000000E+00  0.12289738612E+02  0.12289738612E+02  0.00000000000E+00 0. -1.
          1   -1    0    0  505    0 -0.00000000000E+00 -0.00000000000E+00 -0.31270531519E+04  0.31270531519E+04  0.00000000000E+00 0.  1.
         21    1    1    2  503  502  0.78891305260E+01  0.29450425852E+02 -0.31304070167E+02  0.43697949292E+02  0.00000000000E+00 0. -1.
         21    1    1    2  504  501  0.95565994072E+02 -0.59931507786E+02 -0.83669557548E+03  0.84426543864E+03  0.00000000000E+00 0.  1.
         21    1    1    2  505  503 -0.28473020920E+02 -0.22695737440E+02 -0.12102191288E+04  0.12107667609E+04  0.00000000000E+00 0.  1.
          1    1    1    2  501    0 -0.74982103678E+02  0.53176819374E+02 -0.10365446389E+04  0.10406127418E+04  0.00000000000E+00 0.  1.
<scales pt_clust_3="30.48878" pt_clust_4="102.15550" pt_clust_5="35.31883" pt_clust_6="14000.00000"></scales>
<clustering>
<clus scale="   30.489">  1  3  2 -1</clus>
<clus scale="   35.319">  2  5  1 -1</clus>
<clus scale="  102.156">  1  4  2 -1</clus>
<clus scale="   30.489">  1  3  2 -1</clus>
</clustering>
</event>
<event>
 6    0  0.2433432E+002  0.1143096E+03  0.7546771E-02  0.1252791E+00
         21   -1    0    0  505  502  0.00000000000E+00  0.00000000000E+00  0.15668624533E+03  0.15668624533E+03  0.00000000000E+00 0. -1.
          2   -1    0    0  504    0 -0.00000000000E+00 -0.00000000000E+00 -0.39005098086E+04  0.39005098086E+04  0.00000000000E+00 0. -1.
         21    1    1    2  503  501  0.33474950010E+02 -0.45962766582E+02 -0.89519770467E+03  0.89700171607E+03  0.00000000000E+00 0. -1.
         21    1    1    2  504  502  0.21392546478E+02  0.11252296451E+03  0.13286365737E+03  0.17541895575E+03  0.00000000000E+00 0. -1.
         21    1    1    2  505  503 -0.29459856937E+02 -0.92283628137E+02 -0.16853974315E+04  0.16881790939E+04  0.00000000000E+00 0. -1.
          2    1    1    2  501    0 -0.25407639551E+02  0.25723430208E+02 -0.12960920844E+04  0.12965962881E+04  0.00000000000E+00 0. -1.
<scales pt_clust_3="44.59736" pt_clust_4="114.30963" pt_clust_5="14000.00000" pt_clust_6="36.15582"></scales>
<clustering>
<clus scale="   36.156">  2  6  1 -1</clus>
<clus scale="   44.597">  2  3  1 -1</clus>
<clus scale="  114.310">  1  4  2 -1</clus>
<clus scale="  114.310">  1  3  2 -1</clus>
</clustering>
</event>
<event>
 6    0  0.2433432E+002  0.7682803E+02  0.7546771E-02  0.1338302E+00
          2   -1    0    0  505    0 -0.00000000000E+00  0.00000000000E+00  0.11892025235E+04  0.11892025235E+04  0.00000000000E+00 0. -1.
         21   -1    0    0  504  502  0.00000000000E+00 -0.00000000000E+00 -0.12018847395E+03  0.12018847395E+03  0.00000000000E+00 0. -1.
         21    1    1    2  503  501  0.95432041123E+02  0.67307884384E+02  0.41980477080E+03  0.43574496137E+03  0.00000000000E+00 0. -1.
         21    1    1    2  504  503 -0.48603367179E+02 -0.15266939763E+02 -0.10033279082E+03  0.11252571113E+03  0.00000000000E+00 0. -1.
         21    1    1    2  505  502 -0.34593139011E+01 -0.42128522014E+02  0.83457746253E+02  0.93551988912E+02  0.00000000000E+00 0. -1.
          2    1    1    2  501    0 -0.43369360043E+02 -0.99124226071E+01  0.66608432333E+03  0.66756833605E+03  0.00000000000E+00 0. -1.
<scales pt_clust_3="76.82803" pt_clust_4="51.03341" pt_clust_5="42.27031" pt_clust_6="14000.00000"></scales>
<clustering>
<clus scale="   42.270">  1  5  2 -1</clus>
<clus scale="   51.033">  2  4  1 -1</clus>
<clus scale="   76.828">  2  3  1 -1</clus>
<clus scale="   51.033">  2  3  1 -1</clus>
</clustering>
</event>
<event>
 6    0  0.2433432E+002  0.1419079E+03  0.7546771E-02  0.1210785E+00
         21   -1    0    0  505  502  0.00000000000E+00  0.00000000000E+00  0.10851038463E+03  0.10851038463E+03  0.00000000000E+00 0. -1.
         -1   -1    0    0    0  501 -0.00000000000E+00 -0.00000000000E+00 -0.13839023789E+04  0.13839023789E+04  0.00000000000E+00 0. -1.
         21    1    1    2  503  501 -0.49634749046E+02  0.37521768237E+02 -0.18776662820E+03  0.19780747728E+03  0.00000000000E+00 0. -1.
         21    1    1    2  504  502 -0.37771929805E+01 -0.10567183409E+03 -0.36151482344E+02  0.11174852743E+03  0.00000000000E+00 0.  1.
         21    1    1    2  505  503  0.11137394772E+03 -0.10165116104E+02  0.14203084968E+02  0.11273514731E+03  0.00000000000E+00 0. -1.
         -1    1    1    2    0  504 -0.57962005693E+02  0.78315181957E+02 -0.10656769687E+04  0.10701216115E+04  0.00000000000E+00 0. -1.
<scales pt_clust_3="62.22131" pt_clust_4="103.56966" pt_clust_5="14000.00000" pt_clust_6="141.90786"></scales>
<clustering>
<clus scale="   62.221">  2  3  1 -1</clus>
<clus scale="  103.570">  1  4  2 -1</clus>
<clus scale="  141.908">  2  6  1 -1</clus>
<clus scale="  103.570">  1  3  2 -1</clus>
</clustering>
</event>
<event>
 6    0  0.2433432E+002  0.7064768E+02  0.7546771E-02  0.1357904E+00
         21   -1    0    0  505  502  0.00000000000E+00  0.00000000000E+00  0.36936522225E+02  0.36936522225E+02  0.00000000000E+00 0. -1.
          2   -1    0    0  503    0 -0.00000000000E+00 -0.00000000000E+00 -0.20763866144E+04  0.20763866144E+04  0.00000000000E+00 0. -1.
         21    1    1    2  503  502  0.95050493123E+02  0.49375776780E+02 -0.12790930457E+03  0.16683331134E+03  0.00000000000E+00 0. -1.
         21    1    1    2  504  501 -0.10392771951E+02 -0.42725172159E+02 -0.13925509368E+03  0.14603229492E+03  0.00000000000E+00 0. -1.
         21    1    1    2  505  504 -0.17112524814E+02 -0.26334927965E+02 -0.50356632489E+01  0.31807622369E+02  0.00000000000E+00 0. -1.
          2    1    1    2  501    0 -0.67545196359E+02  0.19684323344E+02 -0.17672500307E+04  0.17686499080E+04  0.00000000000E+00 0. -1.
<scales pt_clust_3="70.64768" pt_clust_4="48.25808" pt_clust_5="31.40648" pt_clust_6="14000.00000"></scales>
<clustering>
<clus scale="   31.406">  1  5  2 -1</clus>
<clus scale="   48.258">  1  4  2 -1</clus>
<clus scale="   70.648">  1  3  2 -1</clus>
<clus scale="   31.406">  1  3  2 -1</clus>
</clustering>
</event>
<event>
 6    0  0.2433432E+002  0.1416922E+03  0.7546771E-02  0.1211070E+00
         21   -1    0    0  503  502  0.00000000000E+00  0.00000000000E+00  0.10829420303E+03  0.10829420303E+03  0.00000000000E+00 0.  1.
          2   -1    0    0  505    0 -0.00000000000E+00 -0.00000000000E+00 -0.77793001848E+03  0.77793001848E+03  0.00000000000E+00 0.  1.
         21    1    1    2  503  504 -0.48845394590E+02 -0.21947421383E+02  0.43045598630E+01  0.53722352086E+02  0.00000000000E+00 0.  1.
         21    1    1    2  504  501 -0.46061024299E+02 -0.63124670244E+02 -0.12733803194E+02  0.79173806885E+02  0.00000000000E+00 0.  1.
         21    1    1    2  505  502 -0.25826030215E+02  0.17813265786E+02  0.32979436610E+02  0.45518562298E+02  0.00000000000E+00 0.  1.
          2    1    1    2  501    0  0.12073244910E+03  0.67258825841E+02 -0.69418600872E+03  0.70780950024E+03  0.00000000000E+00 0.  1.
<scales pt_clust_3="30.36903" pt_clust_4="30.36903" pt_clust_5="31.37350" pt_clust_6="136.86061"></scales>
<clustering>
<clus scale="   30.369">  3  4 -1 -1</clus>
<clus scale="   31.373">  1  5  2 -1</clus>
<clus scale="  136.861">  2  6  1 -1</clus>
<clus scale="   31.373">  1  3  2 -1</clus>
</clustering>
</event>
<event>
 6    0  0.2433432E+002  0.1156269E+03  0.7546771E-02  0.1250491E+00
         21   -1    0    0  505  502  0.00000000000E+00  0.00000000000E+00  0.20281203545E+04  0.20281203545E+04  0.00000000000E+00 0. -1.
          1   -1    0    0  503    0 -0.00000000000E+00 -0.00000000000E+00 -0.12271485957E+03  0.12271485957E+03  0.00000000000E+00 0. -1.
         21    1    1    2  503  504  0.49621084930E+02 -0.76656824505E+02  0.88648294178E+02  0.12726759554E+03  0.00000000000E+00 0.  1.
         21    1    1    2  504  502 -0.83525436896E+02  0.60665649609E+02  0.56161807401E+03  0.57102686513E+03  0.00000000000E+00 0. -1.
         21    1    1    2  505  501 -0.16735141141E+02  0.31653666932E+02  0.13464681087E+04  0.13469440921E+04  0.00000000000E+00 0. -1.
          1    1    1    2  501    0  0.50639493107E+02 -0.15662492036E+02 -0.91328981972E+02  0.10559666125E+03  0.00000000000E+00 0. -1.
<scales pt_clust_3="115.62686" pt_clust_4="14000.00000" pt_clust_5="35.80530" pt_clust_6="52.74170"></scales>
<clustering>
<clus scale="   35.805">  1  5  2 -1</clus>
<clus scale="   52.742">  2  6  1 -1</clus>
<clus scale="  115.627">  2  3  1 -1</clus>
<clus scale="   35.805">  1  3  2 -1</clus>
</clustering>
</event>
<event>
 6    0  0.2433432E+002  0.6776015E+02  0.7546771E-02  0.1367880E+00
         21   -1    0    0  505  502  0.00000000000E+00  0.00000000000E+00  0.59905049365E+02  0.59905049365E+02  0.00000000000E+00 0.  1.
          2   -1    0    0  503    0 -0.00000000000E+00 -0.00000000000E+00 -0.14747220422E+04  0.14747220422E+04  0.00000000000E+00 0.  1.
         21    1    1    2  503  504 -0.22049612463E+00  0.43770338065E+02 -0.15506430713E+03  0.16112364959E+03  0.00000000000E+00 0.  1.
         21    1    1    2  504  502  0.64262034307E+02  0.17652836379E+02  0.29141694092E+02  0.72735617273E+02  0.00000000000E+00 0.  1.
         21    1    1    2  505  501 -0.94275142915E+02 -0.92223606063E+02 -0.93661529093E+03  0.94585474535E+03  0.00000000000E+00 0.  1.
          2    1    1    2  501    0  0.30233604732E+02  0.30800431619E+02 -0.35227908884E+03  0.35491307933E+03  0.00000000000E+00 0.  1.
<scales pt_clust_3="48.28317" pt_clust_4="67.76015" pt_clust_5="14000.00000" pt_clust_6="43.15944"></scales>
<clustering>
<clus scale="   43.159">  2  6  1 -1</clus>
<clus scale="   48.283">  2  3  1 -1</clus>
<clus scale="   67.760">  1  4  2 -1</clus>
<clus scale="   67.760">  1  3  2 -1</clus>
</clustering>
</event>
<event>
 6    0  0.2433432E+002  0.9951891E+02  0.7546771E-02  0.1281311E+00
         21   -1    0    0  503  502  0.00000000000E+00  0.00000000000E+00  0.40142914503E+03  0.40142914503E+03  0.00000000000E+00 0. -1.
          3   -1    0    0  504    0 -0.00000000000E+00 -0.00000000000E+00 -0.12673210331E+04  0.12673210331E+04  0.00000000000E+00 0.  1.
         21    1    1    2  503  505 -0.92512115279E+02 -0.12141521052E+02  0.11884342027E+03  0.15109489253E+03  0.00000000000E+00 0. -1.
         21    1    1    2  504  502  0.44079670404E+02 -0.41013887728E+02 -0.15425597334E+02  0.62153884694E+02  0.00000000000E+00 0. -1.
         21    1    1    2  505  501 -0.32049748960E+02  0.11180299969E+03  0.22699633194E+03  0.25505770300E+03  0.00000000000E+00 0. -1.
          3    1    1    2  501    0  0.80482193836E+02 -0.58647590911E+02 -0.11963060429E+04  0.12004436979E+04  0.00000000000E+00 0.  1.
<scales pt_clust_3="81.31334" pt_clust_4="60.20927" pt_clust_5="14000.00000" pt_clust_6="99.51891"></scales>
<clustering>
<clus scale="   60.209">  1  4  2 -1</clus>
<clus scale="   81.313">  1  3  2 -1</clus>
<clus scale="   99.519">  2  6  1 -1</clus>
<clus scale="   60.209">  1  3  2 -1</clus>
</clustering>
</event>
<event>
 6    0  0.2433432E+002  0.1616143E+03  0.7546771E-02  0.1186886E+00
          2   -1    0    0  503    0 -0.00000000000E+00  0.00000000000E+00  0.21886512987E+04  0.21886512987E+04  0.00000000000E+00 0.  1.
         21   -1    0    0  504  502  0.00000000000E+00 -0.00000000000E+00 -0.70914275441E+02  0.70914275441E+02  0.00000000000E+00 0. -1.
         21    1    1    2  503  505  0.63329423953E+02  0.54799631629E+02  0.16772401164E+03  0.18746988997E+03  0.00000000000E+00 0. -1.
         21    1    1    2  504  501 -0.60565147319E+02  0.62246870740E+02 -0.12249013680E+02  0.87708883945E+02  0.00000000000E+00 0. -1.
         21    1    1    2  505  502  0.83668256186E+02  0.11679989143E+02  0.22698153023E+03  0.24219292786E+03  0.00000000000E+00 0. -1.
          2    1    1    2  501    0 -0.86432532821E+02 -0.12872649151E+03  0.17352804951E+04  0.17421938724E+04  0.00000000000E+00 0.  1.
<scales pt_clust_3="52.58929" pt_clust_4="86.84935" pt_clust_5="52.58929" pt_clust_6="152.73949"></scales>
<clustering>
<clus scale="   52.589">  3  5 -1 -1</clus>
<clus scale="   86.849">  2  4  1 -1</clus>
<clus scale="  152.739">  1  6  2 -1</clus>
<clus scale="   86.849">  2  3  1 -1</clus>
</clustering>
</event>
<event>
 6    0  0.2433432E+002  0.1120813E+03  0.7546771E-02  0.1256763E+00
         21   -1    0    0  503  502  0.00000000000E+00  0.00000000000E+00  0.70442192135E+02  0.70442192135E+02  0.00000000000E+00 0. -1.
          2   -1    0    0  504    0 -0.00000000000E+00 -0.00000000000E+00 -0.71233855910E+03  0.71233855910E+03  0.00000000000E+00 0.  1.
         21    1    1    2  503  505  0.82886767837E+02 -0.61121562578E+02 -0.32239441554E+02  0.10791405509E+03  0.00000000000E+00 0. -1.
         21    1    1    2  504  502 -0.46648289407E+02  0.38346545554E+02 -0.43641083443E+02  0.74505467079E+02  0.00000000000E+00 0. -1.
         21    1    1    2  505  501  0.32751694981E+01 -0.53156904281E+02 -0.37932322227E+02  0.65385352163E+02  0.00000000000E+00 0. -1.
          2    1    1    2  501    0 -0.39513647928E+02  0.75931921305E+02 -0.52808351975E+03  0.53497587691E+03  0.00000000000E+00 0.  1.
<scales pt_clust_3="48.90645" pt_clust_4="60.38643" pt_clust_5="48.90645" pt_clust_6="89.09018"></scales>
<clustering>
<clus scale="   48.906">  3  5 -1 -1</clus>
<clus scale="   60.386">  1  4  2 -1</clus>
<clus scale="   89.090">  2  6  1 -1</clus>
<clus scale="   60.386">  1  3  2 -1</clus>
</clustering>
</event>
<event>
 6    0  0.2433432E+002  0.2186117E+03  0.7546771E-02  0.1134922E+00
          1   -1    0    0  503    0 -0.00000000000E+00  0.00000000000E+00  0.17749595993E+04  0.17749595993E+04  0.00000000000E+00 0. -1.
         21   -1    0    0  505  502  0.00000000000E+00 -0.00000000000E+00 -0.17892669388E+03  0.17892669388E+03  0.00000000000E+00 0.  1.
         21    1    1    2  503  504 -0.49777842039E+01 -0.43609596908E+02  0.17271363961E+01  0.43926737623E+02  0.00000000000E+00 0.  1.
         21    1    1    2  504  502 -0.15818261907E+02 -0.12310357661E+03 -0.89899287645E+02  0.15325335201E+03  0.00000000000E+00 0.  1.
         21    1    1    2  505  501  0.44008936857E+02 -0.46251137729E+02  0.51614916472E+01  0.64051504748E+02  0.00000000000E+00 0.  1.
          1    1    1    2  501    0 -0.23212890746E+02  0.21296431124E+03  0.16790435650E+04  0.16926546988E+04  0.00000000000E+00 0. -1.
<scales pt_clust_3="31.91332" pt_clust_4="31.91332" pt_clust_5="63.84320" pt_clust_6="211.92259"></scales>
<clustering>
<clus scale="   31.913">  3  4 -1 -1</clus>
<clus scale="   63.843">  2  5  1 -1</clus>
<clus scale="  211.923">  1  6  2 -1</clus>
<clus scale="   63.843">  2  3  1 -1</clus>
</clustering>
</event>
<event>
 6    0  0.2433432E+002  0.1599363E+03  0.7546771E-02  0.1188769E+00
         21   -1    0    0  505  502  0.00000000000E+00  0.00000000000E+00  0.93953026173E+03  0.93953026173E+03  0.00000000000E+00 0. -1.
          2   -1    0    0  504    0 -0.00000000000E+00 -0.00000000000E+00 -0.44333376343E+03  0.44333376343E+03  0.00000000000E+00 0. -1.
         21    1    1    2  503  502  0.12728288558E+03  0.12372221068E+03 -0.16383166495E+03  0.24155523761E+03  0.00000000000E+00 0. -1.
         21    1    1    2  504  503 -0.33236618679E+02 -0.37558082441E+02 -0.82931584869E+02  0.96917130306E+02  0.00000000000E+00 0.  1.
         21    1    1    2  505  501 -0.15968117746E+03 -0.17305603396E+02  0.87054936552E+03  0.88524220422E+03  0.00000000000E+00 0. -1.
          2    1    1    2  501    0  0.65634910550E+02 -0.68858524840E+02 -0.12758961740E+03  0.15914945301E+03  0.00000000000E+00 0. -1.
<scales pt_clust_3="14000.00000" pt_clust_4="50.15259" pt_clust_5="159.93634" pt_clust_6="98.95326"></scales>
<clustering>
<clus scale="   50.153">  2  4  1 -1</clus>
<clus scale="   98.953">  2  6  1 -1</clus>
<clus scale="  159.936">  1  5  2 -1</clus>
<clus scale="  159.936">  1  3  2 -1</clus>
</clustering>
</event>
<event>
 6    0  0.2433432E+002  0.9875018E+02  0.7546771E-02  0.1282946E+00
         21   -1    0    0  504  502  0.00000000000E+00  0.00000000000E+00  0.85021615373E+03  0.85021615373E+03  0.00000000000E+00 0.  1.
         -1   -1    0    0    0  501 -0.00000000000E+00 -0.00000000000E+00 -0.26812769058E+03  0.26812769058E+03  0.00000000000E+00 0.  1.
         21    1    1    2  503  501  0.21628699895E+02 -0.40529540235E+02  0.46000303211E+02  0.65011323524E+02  0.00000000000E+00 0.  1.
         21    1    1    2  504  503  0.41625971891E+02 -0.72413881097E+01  0.12567435236E+03  0.13258658333E+03  0.00000000000E+00 0.  1.
         21    1    1    2  505  502 -0.10478180321E+03 -0.42088578333E+02  0.65093180238E+03  0.66065337815E+03  0.00000000000E+00 0.  1.
         -1    1    1    2    0  505  0.41527131423E+02  0.89859506678E+02 -0.24051799481E+03  0.26009255931E+03  0.00000000000E+00 0.  1.
<scales pt_clust_3="48.00843" pt_clust_4="42.25114" pt_clust_5="98.75018" pt_clust_6="14000.00000"></scales>
<clustering>
<clus scale="   42.251">  1  4  2 -1</clus>
<clus scale="   48.008">  1  3  2 -1</clus>
<clus scale="   98.750">  1  5  2 -1</clus>
<clus scale="   42.251">  1  3  2 -1</clus>
</clustering>
</event>
<event>
 6    0  0.2433432E+002  0.9076460E+02  0.7546771E-02  0.1301011E+00
          3   -1    0    0  504    0 -0.00000000000E+00  0.00000000000E+00  0.88555058741E+03  0.88555058741E+03  0.00000000000E+00 0. -1.
         21   -1    0    0  503  502  0.00000000000E+00 -0.00000000000E+00 -0.63504406371E+03  0.63504406371E+03  0.00000000000E+00 0. -1.
         21    1    1    2  503  501 -0.44196747533E+02 -0.87984396708E+01 -0.45772330200E+02  0.64232945169E+02  0.00000000000E+00 0. -1.
         21    1    1    2  504  505 -0.55741836600E+02 -0.85780182533E+02 -0.51465585973E+03  0.52472473357E+03  0.00000000000E+00 0. -1.
         21    1    1    2  505  502  0.36317960179E+02  0.29904695375E+02 -0.48417389937E+02  0.67509471079E+02  0.00000000000E+00 0.  1.
          3    1    1    2  501    0  0.63620623955E+02  0.64673926829E+02  0.85935210357E+03  0.86412750130E+03  0.00000000000E+00 0. -1.
<scales pt_clust_3="45.06401" pt_clust_4="14000.00000" pt_clust_5="43.12976" pt_clust_6="90.76460"></scales>
<clustering>
<clus scale="   45.064">  2  3  1 -1</clus>
<clus scale="   43.130">  2  5  1 -1</clus>
<clus scale="   90.765">  1  6  2 -1</clus>
<clus scale="   45.064">  2  3  1 -1</clus>
</clustering>
</event>
<event>
 6    0  0.2433432E+002  0.1352085E+03  0.7546771E-02  0.1219926E+00
         21   -1    0    0  501  502  0.00000000000E+00  0.00000000000E+00  0.47350570053E+02  0.47350570053E+02  0.00000000000E+00 0.  1.
          2   -1    0    0  504    0 -0.00000000000E+00 -0.00000000000E+00 -0.80155437902E+03  0.80155437902E+03  0.00000000000E+00 0.  1.
         21    1    1    2  503  505 -0.29635327804E+02 -0.23832764660E+02 -0.54294635428E+02  0.66288466280E+02  0.00000000000E+00 0.  1.
         21    1    1    2  504  503 -0.12654336662E+03  0.48535097359E+02 -0.27269225878E+03  0.30451592292E+03  0.00000000000E+00 0.  1.
         21    1    1    2  505  502  0.27398139976E+02  0.16102323622E+02 -0.18901947884E+01  0.31835761912E+02  0.00000000000E+00 0. -1.
          2    1    1    2  501    0  0.12878055445E+03 -0.40804656321E+02 -0.42532671996E+03  0.44626479796E+03  0.00000000000E+00 0.  1.
<scales pt_clust_3="32.21748" pt_clust_4="135.20852" pt_clust_5="31.77960" pt_clust_6="14000.00000"></scales>
<clustering>
<clus scale="   31.780">  1  5  2 -1</clus>
<clus scale="   32.217">  1  3  2 -1</clus>
<clus scale="  135.209">  1  4  2 -1</clus>
<clus scale="   31.780">  1  3  2 -1</clus>
</clustering>
</event>
<event>
 6    0  0.4444703E+002  0.1178387E+03  0.7546771E-02  0.1246706E+00
          1   -1    0    0  503    0 -0.00000000000E+00  0.00000000000E+00  0.45075486871E+04  0.45075486871E+04  0.00000000000E+00 0.  1.
         21   -1    0    0  505  502  0.00000000000E+00 -0.00000000000E+00 -0.25851368068E+03  0.25851368068E+03  0.00000000000E+00 0. -1.
         21    1    1    2  503  502 -0.48011735916E+02  0.36524921580E+02 -0.22060470146E+03  0.22870424349E+03  0.00000000000E+00 0. -1.
         21    1    1    2  504  501 -0.35117533006E+02 -0.56050100765E+02  0.69535273238E+02  0.95968792555E+02  0.00000000000E+00 0. -1.
         21    1    1    2  505  504 -0.26998467539E+02 -0.23249052659E+02 -0.38625984811E+01  0.35837904041E+02  0.00000000000E+00 0.  1.
          1    1    1    2  501    0  0.11012773646E+03  0.42774231844E+02  0.44039670332E+04  0.44055514277E+04  0.00000000000E+00 0.  1.
<scales pt_clust_3="117.83873" pt_clust_4="68.03004" pt_clust_5="35.62914" pt_clust_6="14000.00000"></scales>
<clustering>
<clus scale="   35.629">  2  5  1 -1</clus>
<clus scale="   68.030">  2  4  1 -1</clus>
<clus scale="  117.839">  2  3  1 -1</clus>
<clus scale="   35.629">  2  3  1 -1</clus>
</clustering>
</event>
<event>
 6    0  0.2433432E+002  0.9218612E+02  0.7546771E-02  0.1297642E+00
          4   -1    0    0  503    0 -0.00000000000E+00  0.00000000000E+00  0.82352233479E+03  0.82352233479E+03  0.00000000000E+00 0. -1.
         21   -1    0    0  505  502  0.00000000000E+00 -0.00000000000E+00 -0.22622490881E+03  0.22622490881E+03  0.00000000000E+00 0.  1.
         21    1    1    2  503  504 -0.57277019471E+02  0.44339304561E+02 -0.52769559421E+02  0.89617282317E+02  0.00000000000E+00 0.  1.
         21    1    1    2  504  502 -0.58251868890E+02 -0.19767549063E+02 -0.13692696671E+03  0.15011006108E+03  0.00000000000E+00 0.  1.
         21    1    1    2  505  501  0.29169368341E+02  0.10129833539E+02  0.18679031010E+02  0.36088388388E+02  0.00000000000E+00 0.  1.
          4    1    1    2  501    0  0.86359520020E+02 -0.34701589036E+02  0.76831492111E+03  0.77393151181E+03  0.00000000000E+00 0. -1.
<scales pt_clust_3="92.18612" pt_clust_4="41.14201" pt_clust_5="30.87824" pt_clust_6="14000.00000"></scales>
<clustering>
<clus scale="   30.878">  2  5  1 -1</clus>
<clus scale="   41.142">  2  4  1 -1</clus>
<clus scale="   92.186">  2  3  1 -1</clus>
<clus scale="   30.878">  2  3  1 -1</clus>
</clustering>
</event>
<event>
 6    0  0.2433432E+002  0.7365588E+02  0.7546771E-02  0.1348085E+00
         21   -1    0    0  504  502  0.00000000000E+00  0.00000000000E+00  0.16119853821E+03  0.16119853821E+03  0.00000000000E+00 0.  1.
          2   -1    0    0  505    0 -0.00000000000E+00 -0.00000000000E+00 -0.68725610974E+03  0.68725610974E+03  0.00000000000E+00 0. -1.
         21    1    1    2  503  501  0.10701239515E+03  0.11889744044E+02 -0.76666244352E+02  0.13217689568E+03  0.00000000000E+00 0.  1.
         21    1    1    2  504  503 -0.31053599358E+02 -0.11057103561E+02  0.11424427708E+03  0.11890475356E+03  0.00000000000E+00 0.  1.
         21    1    1    2  505  502 -0.15027748558E+02  0.36749707797E+02 -0.12525285207E+02  0.41632403479E+02  0.00000000000E+00 0.  1.
          2    1    1    2  501    0 -0.60931047236E+02 -0.37582348280E+02 -0.55111031905E+03  0.55574059523E+03  0.00000000000E+00 0. -1.
<scales pt_clust_3="73.65588" pt_clust_4="32.96340" pt_clust_5="41.60883" pt_clust_6="14000.00000"></scales>
<clustering>
<clus scale="   32.963">  1  4  2 -1</clus>
<clus scale="   41.609">  1  5  2 -1</clus>
<clus scale="   73.656">  1  3  2 -1</clus>
<clus scale="   32.963">  1  3  2 -1</clus>
</clustering>
</event>
<event>
 6    0  0.2433432E+002  0.1210422E+03  0.7546771E-02  0.1241388E+00
         -3   -1    0    0    0  501 -0.00000000000E+00  0.00000000000E+00  0.35350201939E+03  0.35350201939E+03  0.00000000000E+00 0.  1.
         21   -1    0    0  503  502  0.00000000000E+00 -0.00000000000E+00 -0.61827004584E+03  0.61827004584E+03  0.00000000000E+00 0.  1.
         21    1    1    2  503  505 -0.43200073361E+02  0.20861633247E+02 -0.13756407815E+03  0.14568915428E+03  0.00000000000E+00 0.  1.
         21    1    1    2  504  502 -0.39273204941E+02 -0.16794918816E+02 -0.48622421885E+02  0.64719346677E+02  0.00000000000E+00 0.  1.
         21    1    1    2  505  501 -0.79618805157E+01  0.78891140227E+02 -0.40497338776E+03  0.41266287492E+03  0.00000000000E+00 0.  1.
         -3    1    1    2    0  504  0.90435158818E+02 -0.82957854658E+02  0.32639186134E+03  0.34870068934E+03  0.00000000000E+00 0.  1.
<scales pt_clust_3="55.64606" pt_clust_4="42.71363" pt_clust_5="121.04222" pt_clust_6="14000.00000"></scales>
<clustering>
<clus scale="   42.714">  2  4  1 -1</clus>
<clus scale="   55.646">  2  3  1 -1</clus>
<clus scale="  121.042">  2  5  1 -1</clus>
<clus scale="   42.714">  2  3  1 -1</clus>
</clustering>
</event>
<event>
 6    0  0.2433432E+002  0.1614450E+03  0.7546771E-02  0.1187075E+00
         21   -1    0    0  503  502  0.00000000000E+00  0.00000000000E+00  0.12931387846E+04  0.12931387846E+04  0.00000000000E+00 0. -1.
          3   -1    0    0  504    0 -0.00000000000E+00 -0.00000000000E+00 -0.41644897015E+03  0.41644897015E+03  0.00000000000E+00 0. -1.
         21    1    1    2  503  501 -0.26681270799E+02  0.19263048046E+02  0.20376239160E+02  0.38705895594E+02  0.00000000000E+00 0.  1.
         21    1    1    2  504  505  0.19642821781E+03  0.12840249909E+03  0.61455551438E+02  0.24258613177E+03  0.00000000000E+00 0.  1.
         21    1    1    2  505  502 -0.57551474213E+02 -0.43839958933E+02  0.10918647236E+04  0.10942589679E+04  0.00000000000E+00 0. -1.
          3    1    1    2  501    0 -0.11219547280E+03 -0.10382558820E+03 -0.29700669984E+03  0.33403675940E+03  0.00000000000E+00 0. -1.
<scales pt_clust_3="32.90829" pt_clust_4="14000.00000" pt_clust_5="85.08856" pt_clust_6="161.44501"></scales>
<clustering>
<clus scale="   32.908">  1  3  2 -1</clus>
<clus scale="   85.089">  1  5  2 -1</clus>
<clus scale="  161.445">  2  6  1 -1</clus>
<clus scale="   32.908">  1  3  2 -1</clus>
</clustering>
</event>
<event>
 6    0  0.2433432E+002  0.1229801E+03  0.7546771E-02  0.1238260E+00
         21   -1    0    0  504  502  0.00000000000E+00  0.00000000000E+00  0.71272843674E+02  0.71272843674E+02  0.00000000000E+00 0.  1.
          1   -1    0    0  505    0 -0.00000000000E+00 -0.00000000000E+00 -0.15972017511E+04  0.15972017511E+04  0.00000000000E+00 0. -1.
         21    1    1    2  503  502 -0.36237365375E+00 -0.67705524660E+02 -0.15213474282E+03  0.16652071750E+03  0.00000000000E+00 0.  1.
         21    1    1    2  504  501  0.52167897454E+02  0.11548367160E+03 -0.47117598590E+01  0.12680760471E+03  0.00000000000E+00 0.  1.
         21    1    1    2  505  503  0.25636175376E+02 -0.23032176586E+02 -0.17882435172E+03  0.18211491815E+03  0.00000000000E+00 0. -1.
          1    1    1    2  501    0 -0.77441699176E+02 -0.24745970350E+02 -0.11902580531E+04  0.11930313545E+04  0.00000000000E+00 0. -1.
<scales pt_clust_3="70.34094" pt_clust_4="122.98012" pt_clust_5="34.46295" pt_clust_6="14000.00000"></scales>
<clustering>
<clus scale="   34.463">  2  5  1 -1</clus>
<clus scale="   70.341">  2  3  1 -1</clus>
<clus scale="  122.980">  1  4  2 -1</clus>
<clus scale="  122.980">  1  3  2 -1</clus>
</clustering>
</event>
<event>
 6    0  0.2433432E+002  0.1547386E+03  0.7546771E-02  0.1194768E+00
          2   -1    0    0  505    0 -0.00000000000E+00  0.00000000000E+00  0.10512577493E+04  0.10512577493E+04  0.00000000000E+00 0.  1.
         21   -1    0    0  501  502  0.00000000000E+00 -0.00000000000E+00 -0.90228278423E+03  0.90228278423E+03  0.00000000000E+00 0.  1.
         21    1    1    2  503  502 -0.33396680091E+01  0.15142835429E+03 -0.78669628618E+03  0.80114464771E+03  0.00000000000E+00 0.  1.
         21    1    1    2  504  503  0.26023494982E+02 -0.68341298858E+02 -0.58201729661E+02  0.93462274509E+02  0.00000000000E+00 0.  1.
         21    1    1    2  505  504 -0.65191148522E+01 -0.54569486028E+02 -0.88581459186E+01  0.55666816084E+02  0.00000000000E+00 0. -1.
          2    1    1    2  501    0 -0.16164712121E+02 -0.28517569408E+02  0.10027311269E+04  0.10032667953E+04  0.00000000000E+00 0.  1.
<scales pt_clust_3="147.27203" pt_clust_4="44.03179" pt_clust_5="44.03179" pt_clust_6="32.78032"></scales>
<clustering>
<clus scale="   32.780">  1  6  2 -1</clus>
<clus scale="   44.032">  4  5 -1 -1</clus>
<clus scale="  147.272">  2  3  1 -1</clus>
<clus scale="  147.272">  2  3  1 -1</clus>
</clustering>
</event>
<event>
 6    0  0.2433432E+002  0.8820415E+02  0.7546771E-02  0.1307260E+00
         21   -1    0    0  503  502  0.00000000000E+00  0.00000000000E+00  0.11216514764E+03  0.11216514764E+03  0.00000000000E+00 0. -1.
         -3   -1    0    0    0  501 -0.00000000000E+00 -0.00000000000E+00 -0.60886433112E+03  0.60886433112E+03  0.00000000000E+00 0. -1.
         21    1    1    2  503  501  0.55879857646E+02 -0.26566653266E+02 -0.14588809599E+02  0.63570267592E+02  0.00000000000E+00 0. -1.
         21    1    1    2  504  502  0.23794568444E+02 -0.25755744843E+02  0.39654547731E+02  0.52934138659E+02  0.00000000000E+00 0. -1.
         21    1    1    2  505  504 -0.11208285852E+03  0.55591577313E+02 -0.55071361443E+02  0.13669617951E+03  0.00000000000E+00 0. -1.
         -3    1    1    2    0  505  0.32408432433E+02 -0.32691792049E+01 -0.46669356017E+03  0.46782889300E+03  0.00000000000E+00 0. -1.
<scales pt_clust_3="88.20415" pt_clust_4="36.22274" pt_clust_5="14000.00000" pt_clust_6="32.57290"></scales>
<clustering>
<clus scale="   32.573">  2  6  1 -1</clus>
<clus scale="   36.223">  1  4  2 -1</clus>
<clus scale="   88.204">  1  3  2 -1</clus>
<clus scale="   36.223">  1  3  2 -1</clus>
</clustering>
</event>
<event>
 6    0  0.2433432E+002  0.9081862E+02  0.7546771E-02  0.1300881E+00
         21   -1    0    0  503  502  0.00000000000E+00  0.00000000000E+00  0.39770482238E+03  0.39770482238E+03  0.00000000000E+00 0.  1.
          2   -1    0    0  504    0 -0.00000000000E+00 -0.00000000000E+00 -0.15475581383E+04  0.15475581383E+04  0.00000000000E+00 0. -1.
         21    1    1    2  503  501 -0.60241144620E+02 -0.26465726066E+02 -0.46463500954E+02  0.80549904296E+02  0.00000000000E+00 0. -1.
         21    1    1    2  504  505 -0.23495906215E+02 -0.56836414799E+02 -0.88157143522E+02  0.10749008145E+03  0.00000000000E+00 0. -1.
         21    1    1    2  505  502  0.53407800850E+01  0.32921119138E+02  0.36867540638E+03  0.37018087375E+03  0.00000000000E+00 0.  1.
          2    1    1    2  501    0  0.78396270749E+02  0.50381021727E+02 -0.13839080778E+04  0.13870421012E+04  0.00000000000E+00 0. -1.
<scales pt_clust_3="14000.00000" pt_clust_4="50.47113" pt_clust_5="33.35152" pt_clust_6="90.81862"></scales>
<clustering>
<clus scale="   33.352">  1  5  2 -1</clus>
<clus scale="   50.471">  1  4  2 -1</clus>
<clus scale="   90.819">  2  6  1 -1</clus>
<clus scale="   33.352">  1  3  2 -1</clus>
</clustering>
</event>
<event>
 6    0  0.2433432E+002  0.1384063E+03  0.7546771E-02  0.1215490E+00
          1   -1    0    0  503    0 -0.00000000000E+00  0.00000000000E+00  0.17985310693E+03  0.17985310693E+03  0.00000000000E+00 0.  1.
         21   -1    0    0  505  502  0.00000000000E+00 -0.00000000000E+00 -0.35554925988E+03  0.35554925988E+03  0.00000000000E+00 0.  1.
         21    1    1    2  503  502 -0.43717147033E+02 -0.97928947717E+01 -0.89655034154E+02  0.10022532056E+03  0.00000000000E+00 0.  1.
         21    1    1    2  504  501  0.12915382608E+03  0.73112009065E+02 -0.51988826003E+02  0.15725429943E+03  0.00000000000E+00 0.  1.
         21    1    1    2  505  504  0.56214242895E+02 -0.76302151069E+02 -0.84523568737E+02  0.12698934221E+03  0.00000000000E+00 0.  1.
          1    1    1    2  501    0 -0.14165092194E+03  0.12983036776E+02  0.50471275944E+02  0.15093340461E+03  0.00000000000E+00 0.  1.
<scales pt_clust_3="44.80056" pt_clust_4="14000.00000" pt_clust_5="89.01955" pt_clust_6="138.40630"></scales>
<clustering>
<clus scale="   44.801">  2  3  1 -1</clus>
<clus scale="   89.020">  2  5  1 -1</clus>
<clus scale="  138.406">  1  6  2 -1</clus>
<clus scale="   44.801">  2  3  1 -1</clus>
</clustering>
</event>
<event>
 6    0  0.2433432E+002  0.1834443E+03  0.7546771E-02  0.1164511E+00
         21   -1    0    0  504  502  0.00000000000E+00  0.00000000000E+00  0.13612376493E+03  0.13612376493E+03  0.00000000000E+00 0.  1.
          2   -1    0    0  503    0 -0.00000000000E+00 -0.00000000000E+00 -0.18697583729E+04  0.18697583729E+04  0.00000000000E+00 0. -1.
         21    1    1    2  503  505 -0.27594716697E+02 -0.93676098711E+02  0.74739730127E+02  0.12297441652E+03  0.00000000000E+00 0.  1.
         21    1    1    2  504  501 -0.54175241564E+02  0.39101264031E+01 -0.33194667138E+02  0.63656357211E+02  0.00000000000E+00 0. -1.
         21    1    1    2  505  502  0.88064390354E+01 -0.83505378098E+02 -0.88016746879E+02  0.12164558879E+03  0.00000000000E+00 0. -1.
          2    1    1    2  501    0  0.72963519225E+02  0.17327135041E+03 -0.16871629241E+04  0.16976057753E+04  0.00000000000E+00 0. -1.
<scales pt_clust_3="14000.00000" pt_clust_4="54.31617" pt_clust_5="82.97128" pt_clust_6="183.44434"></scales>
<clustering>
<clus scale="   54.316">  1  4  2 -1</clus>
<clus scale="   82.971">  1  5  2 -1</clus>
<clus scale="  183.444">  2  6  1 -1</clus>
<clus scale="   54.316">  1  3  2 -1</clus>
</clustering>
</event>
<event>
 6    0  0.2433432E+002  0.1312328E+03  0.7546771E-02  0.1225638E+00
          1   -1    0    0  503    0 -0.00000000000E+00  0.00000000000E+00  0.76560224118E+03  0.76560224118E+03  0.00000000000E+00 0. -1.
         21   -1    0    0  504  502  0.00000000000E+00 -0.00000000000E+00 -0.17803304144E+03  0.17803304144E+03  0.00000000000E+00 0. -1.
         21    1    1    2  503  505  0.60412901619E+02  0.17049188223E+02  0.12047464000E+03  0.13584745998E+03  0.00000000000E+00 0. -1.
         21    1    1    2  504  501 -0.10406264032E+03 -0.66274411473E+02 -0.13310503166E+03  0.18148906353E+03  0.00000000000E+00 0. -1.
         21    1    1    2  505  502  0.31378352785E+02  0.20349229573E+02  0.15058146290E+02  0.40316745125E+02  0.00000000000E+00 0. -1.
          1    1    1    2  501    0  0.12271385920E+02  0.28875993676E+02  0.58514144512E+03  0.58598201399E+03  0.00000000000E+00 0. -1.
<scales pt_clust_3="38.69227" pt_clust_4="119.92343" pt_clust_5="38.69227" pt_clust_6="31.37531"></scales>
<clustering>
<clus scale="   31.375">  1  6  2 -1</clus>
<clus scale="   38.692">  3  5 -1 -1</clus>
<clus scale="  119.923">  2  4  1 -1</clus>
<clus scale="  119.923">  2  3  1 -1</clus>
</clustering>
</event>
<event>
 6    0  0.2433432E+002  0.1434804E+03  0.7546771E-02  0.1208721E+00
          2   -1    0    0  503    0 -0.00000000000E+00  0.00000000000E+00  0.15509012278E+04  0.15509012278E+04  0.00000000000E+00 0.  1.
         21   -1    0    0  505  502  0.00000000000E+00 -0.00000000000E+00 -0.25459112244E+03  0.25459112244E+03  0.00000000000E+00 0.  1.
         21    1    1    2  503  504  0.61143419018E+02  0.15979538819E+02  0.42260103412E+02  0.76024862318E+02  0.00000000000E+00 0.  1.
         21    1    1    2  504  502  0.30442508990E+02 -0.14692869865E+02 -0.54877081969E+01  0.34245316756E+02  0.00000000000E+00 0.  1.
         21    1    1    2  505  501 -0.14322847926E+03  0.13201093704E+03 -0.17001085455E+03  0.25854395262E+03  0.00000000000E+00 0.  1.
          2    1    1    2  501    0  0.51642551254E+02 -0.13329760600E+03  0.14295485647E+04  0.14366782186E+04  0.00000000000E+00 0.  1.
<scales pt_clust_3="65.06731" pt_clust_4="33.80276" pt_clust_5="143.48044" pt_clust_6="14000.00000"></scales>
<clustering>
<clus scale="   33.803">  2  4  1 -1</clus>
<clus scale="   65.067">  2  3  1 -1</clus>
<clus scale="  143.480">  2  5  1 -1</clus>
<clus scale="   33.803">  2  3  1 -1</clus>
</clustering>
</event>
<event>
 6    0  0.2433432E+002  0.1171991E+03  0.7546771E-02  0.1247790E+00
          3   -1    0    0  505    0 -0.00000000000E+00  0.00000000000E+00  0.14526192772E+03  0.14526192772E+03  0.00000000000E+00 0. -1.
         21   -1    0    0  504  502  0.00000000000E+00 -0.00000000000E+00 -0.37101619636E+03  0.37101619636E+03  0.00000000000E+00 0. -1.
         21    1    1    2  503  501  0.72463534206E+02  0.76597297436E+02 -0.10437785208E+03  0.14836726650E+03  0.00000000000E+00 0. -1.
         21    1    1    2  504  503 -0.13249176681E+02  0.56570831229E+02 -0.94858213795E+02  0.11123794475E+03  0.00000000000E+00 0. -1.
         21    1    1    2  505  502 -0.98913119274E+02  0.14287195492E+02 -0.28605314707E+02  0.10395284099E+03  0.00000000000E+00 0. -1.
          3    1    1    2  501    0  0.39698761750E+02 -0.14745532416E+03  0.20871119425E+01  0.15272007184E+03  0.00000000000E+00 0. -1.
<scales pt_clust_3="117.19913" pt_clust_4="58.10163" pt_clust_5="106.03091" pt_clust_6="14000.00000"></scales>
<clustering>
<clus scale="   58.102">  2  4  1 -1</clus>
<clus scale="  106.031">  1  5  2 -1</clus>
<clus scale="  117.199">  2  3  1 -1</clus>
<clus scale="   58.102">  2  3  1 -1</clus>
</clustering>
</event>
<event>
 6    0  0.2433432E+002  0.1112328E+03  0.7546771E-02  0.1258304E+00
          2   -1    0    0  505    0 -0.00000000000E+00  0.00000000000E+00  0.10975891220E+04  0.10975891220E+04  0.00000000000E+00 0.  1.
         21   -1    0    0  504  502  0.00000000000E+00 -0.00000000000E+00 -0.60996894228E+02  0.60996894228E+02  0.00000000000E+00 0. -1.
         21    1    1    2  503  501 -0.34405258822E+02  0.71118597126E+02  0.65418928359E+02  0.10257296369E+03  0.00000000000E+00 0. -1.
         21    1    1    2  504  503  0.27690711475E+02  0.54471756900E+02  0.80422308651E+00  0.61111329363E+02  0.00000000000E+00 0. -1.
         21    1    1    2  505  502 -0.35759162434E+02 -0.15840427151E+02  0.36018519218E+02  0.53169263272E+02  0.00000000000E+00 0. -1.
          2    1    1    2  501    0  0.42473709781E+02 -0.10974992688E+03  0.93435055711E+03  0.94173245991E+03  0.00000000000E+00 0.  1.
<scales pt_clust_3="14000.00000" pt_clust_4="45.91578" pt_clust_5="39.11057" pt_clust_6="111.23284"></scales>
<clustering>
<clus scale="   39.111">  2  5  1 -1</clus>
<clus scale="   45.916">  2  4  1 -1</clus>
<clus scale="  111.233">  1  6  2 -1</clus>
<clus scale="   39.111">  2  3  1 -1</clus>
</clustering>
</event>
<event>
 6    0  0.2433432E+002  0.1156883E+03  0.7546771E-02  0.1250384E+00
          1   -1    0    0  502    0 -0.00000000000E+00  0.00000000000E+00  0.87433228993E+03  0.87433228993E+03  0.00000000000E+00 0. -1.
         21   -1    0    0  505  502  0.00000000000E+00 -0.00000000000E+00 -0.10798036510E+03  0.10798036510E+03  0.00000000000E+00 0. -1.
         21    1    1    2  503  501 -0.17981025858E+02 -0.88850719278E+02  0.18736048495E+03  0.20813870118E+03  0.00000000000E+00 0. -1.
         21    1    1    2  504  503  0.87854298837E+00  0.92708028351E+02 -0.59334366030E+02  0.11007323631E+03  0.00000000000E+00 0. -1.
         21    1    1    2  505  504 -0.58897115938E+01  0.41528086336E+02  0.25333268653E+02  0.49000460794E+02  0.00000000000E+00 0. -1.
          1    1    1    2  501    0  0.22992194464E+02 -0.45385395409E+02  0.61299253726E+03  0.61510025675E+03  0.00000000000E+00 0. -1.
<scales pt_clust_3="14000.00000" pt_clust_4="115.68831" pt_clust_5="41.94366" pt_clust_6="50.44205"></scales>
<clustering>
<clus scale="   41.944">  2  5  1 -1</clus>
<clus scale="   50.442">  1  6  2 -1</clus>
<clus scale="  115.688">  2  4  1 -1</clus>
<clus scale="   41.944">  2  3  1 -1</clus>
</clustering>
</event>
<event>
 6    0  0.2433432E+002  0.1216246E+03  0.7546771E-02  0.1240441E+00
         21   -1    0    0  505  502  0.00000000000E+00  0.00000000000E+00  0.27282642447E+03  0.27282642447E+03  0.00000000000E+00 0. -1.
         -1   -1    0    0    0  501 -0.00000000000E+00 -0.00000000000E+00 -0.50022949249E+03  0.50022949249E+03  0.00000000000E+00 0.  1.
         21    1    1    2  503  501 -0.45892361152E+02 -0.67477988871E+02  0.16725549370E+02  0.83301451343E+02  0.00000000000E+00 0. -1.
         21    1    1    2  504  503  0.37944801146E+02  0.42346404195E+02  0.49099391960E+02  0.75125070204E+02  0.00000000000E+00 0.  1.
         21    1    1    2  505  504  0.20313998479E+02  0.70796899045E+02  0.15093856574E+03  0.16795032027E+03  0.00000000000E+00 0. -1.
         -1    1    1    2    0  502 -0.12366438473E+02 -0.45665314370E+02 -0.44416657510E+03  0.44667907515E+03  0.00000000000E+00 0.  1.
<scales pt_clust_3="109.16766" pt_clust_4="47.11091" pt_clust_5="47.11091" pt_clust_6="47.31014"></scales>
<clustering>
<clus scale="   47.111">  4  5 -1 -1</clus>
<clus scale="   47.310">  2  6  1 -1</clus>
<clus scale="  109.168">  2  3  1 -1</clus>
<clus scale="  121.625">  1  3  2 -1</clus>
</clustering>
</event>
<event>
 6    0  0.2433432E+002  0.1030288E+03  0.7546771E-02  0.1274053E+00
         21   -1    0    0  505  502  0.00000000000E+00  0.00000000000E+00  0.37830347624E+03  0.37830347624E+03  0.00000000000E+00 0.  1.
         -1   -1    0    0    0  501 -0.00000000000E+00 -0.00000000000E+00 -0.81835684189E+02  0.81835684189E+02  0.00000000000E+00 0.  1.
         21    1    1    2  503  502  0.65692071293E+00  0.34986156812E+02  0.10790418432E+03  0.11343621868E+03  0.00000000000E+00 0. -1.
         21    1    1    2  504  501  0.52614017757E+02 -0.30697113293E+02  0.95661114358E+02  0.11340897861E+03  0.00000000000E+00 0.  1.
         21    1    1    2  505  504  0.31132510283E+02 -0.49545290416E+02  0.12021915074E+03  0.13370345248E+03  0.00000000000E+00 0.  1.
         -1    1    1    2    0  503 -0.84403448753E+02  0.45256246898E+02 -0.27316657372E+02  0.99590510666E+02  0.00000000000E+00 0.  1.
<scales pt_clust_3="34.99232" pt_clust_4="31.11647" pt_clust_5="31.11647" pt_clust_6="98.01530"></scales>
<clustering>
<clus scale="   31.116">  4  5 -1 -1</clus>
<clus scale="   34.992">  1  3  2 -1</clus>
<clus scale="   98.015">  2  6  1 -1</clus>
<clus scale="   34.992">  1  3  2 -1</clus>
</clustering>
</event>
<event>
 6    0  0.2433432E+002  0.2572589E+03  0.7546771E-02  0.1108801E+00
         21   -1    0    0  505  502  0.00000000000E+00  0.00000000000E+00  0.68871915468E+03  0.68871915468E+03  0.00000000000E+00 0. -1.
          2   -1    0    0  504    0 -0.00000000000E+00 -0.00000000000E+00 -0.97475544839E+03  0.97475544839E+03  0.00000000000E+00 0.  1.
         21    1    1    2  503  502  0.32391603449E+02 -0.52820057304E+01  0.28781071011E+02  0.43651639225E+02  0.00000000000E+00 0.  1.
         21    1    1    2  504  503  0.19616362098E+03 -0.16068703086E+03 -0.67677964923E+02  0.26245150985E+03  0.00000000000E+00 0. -1.
         21    1    1    2  505  501 -0.29716139127E+03 -0.25316956342E+02  0.50049220596E+03  0.58261332714E+03  0.00000000000E+00 0. -1.
          2    1    1    2  501    0  0.68606166834E+02  0.19128599293E+03 -0.74763160575E+03  0.77475812686E+03  0.00000000000E+00 0.  1.
<scales pt_clust_3="32.81944" pt_clust_4="257.25885" pt_clust_5="14000.00000" pt_clust_6="203.34204"></scales>
<clustering>
<clus scale="   32.819">  1  3  2 -1</clus>
<clus scale="  203.342">  2  6  1 -1</clus>
<clus scale="  257.259">  2  4  1 -1</clus>
<clus scale="   32.819">  1  3  2 -1</clus>
</clustering>
</event>
<event>
 6    0  0.2433432E+002  0.7403554E+02  0.7546771E-02  0.1346884E+00
          1   -1    0    0  504    0 -0.00000000000E+00  0.00000000000E+00  0.89910123220E+02  0.89910123220E+02  0.00000000000E+00 0. -1.
         21   -1    0    0  501  502  0.00000000000E+00 -0.00000000000E+00 -0.10251154394E+04  0.10251154394E+04  0.00000000000E+00 0. -1.
         21    1    1    2  503  505 -0.27861178467E+02 -0.89461473106E+02 -0.10425641068E+03  0.14017488935E+03  0.00000000000E+00 0. -1.
         21    1    1    2  504  503  0.31881258313E+02  0.49570490588E+02  0.17674745540E+02  0.61530844286E+02  0.00000000000E+00 0. -1.
         21    1    1    2  505  502  0.43377668980E+02  0.11026829448E+02 -0.85614803020E+03  0.85731713080E+03  0.00000000000E+00 0. -1.
          1    1    1    2  501    0 -0.47397748825E+02  0.28864153070E+02  0.75243791360E+01  0.56002698217E+02  0.00000000000E+00 0. -1.
<scales pt_clust_3="14000.00000" pt_clust_4="74.03554" pt_clust_5="44.75727" pt_clust_6="51.19470"></scales>
<clustering>
<clus scale="   44.757">  2  5  1 -1</clus>
<clus scale="   51.195">  1  6  2 -1</clus>
<clus scale="   74.036">  1  4  2 -1</clus>
<clus scale="   44.757">  2  3  1 -1</clus>
</clustering>
</event>
<event>
 6    0  0.2433432E+002  0.2108877E+03  0.7546771E-02  0.1140865E+00
          2   -1    0    0  504    0 -0.00000000000E+00  0.00000000000E+00  0.18148431798E+04  0.18148431798E+04  0.00000000000E+00 0.  1.
         21   -1    0    0  501  502  0.00000000000E+00 -0.00000000000E+00 -0.50958418815E+03  0.50958418815E+03  0.00000000000E+00 0.  1.
         21    1    1    2  503  505 -0.15112543729E+03  0.63109487525E+01 -0.36757617671E+03  0.39748078137E+03  0.00000000000E+00 0.  1.
         21    1    1    2  504  503 -0.30941723524E+02 -0.26959987039E+02 -0.79342296074E+02  0.89327661461E+02  0.00000000000E+00 0. -1.
         21    1    1    2  505  502 -0.20167192987E+02  0.22335991965E+02 -0.30886036222E+02  0.43122609424E+02  0.00000000000E+00 0.  1.
          2    1    1    2  501    0  0.20223435380E+03 -0.16869536778E+01  0.17830635006E+04  0.17944963157E+04  0.00000000000E+00 0.  1.
<scales pt_clust_3="30.00108" pt_clust_4="30.00108" pt_clust_5="30.09339" pt_clust_6="201.99538"></scales>
<clustering>
<clus scale="   30.093">  2  5  1 -1</clus>
<clus scale="   30.001">  3  4 -1 -1</clus>
<clus scale="  201.995">  1  6  2 -1</clus>
<clus scale="   30.093">  2  3  1 -1</clus>
</clustering>
</event>
<event>
 6    0  0.2433432E+002  0.7348960E+02  0.7546771E-02  0.1348613E+00
          1   -1    0    0  504    0 -0.00000000000E+00  0.00000000000E+00  0.46922050087E+04  0.46922050087E+04  0.00000000000E+00 0. -1.
         21   -1    0    0  501  502  0.00000000000E+00 -0.00000000000E+00 -0.83336299526E+01  0.83336299526E+01  0.00000000000E+00 0. -1.
         21    1    1    2  503  505  0.35272643139E+02 -0.62361755086E+02  0.40254774096E+03  0.40887385782E+03  0.00000000000E+00 0. -1.
         21    1    1    2  504  503  0.51707866801E+02  0.73346590617E+02  0.12684886362E+04  0.12716590919E+04  0.00000000000E+00 0. -1.
         21    1    1    2  505  502 -0.17336162540E+02 -0.25541577319E+02  0.72352918579E+02  0.78662948905E+02  0.00000000000E+00 0. -1.
          1    1    1    2  501    0 -0.69644347399E+02  0.14556741788E+02  0.29404820830E+04  0.29413427400E+04  0.00000000000E+00 0. -1.
<scales pt_clust_3="14000.00000" pt_clust_4="73.48960" pt_clust_5="30.86932" pt_clust_6="72.16426"></scales>
<clustering>
<clus scale="   30.869">  2  5  1 -1</clus>
<clus scale="   72.164">  1  6  2 -1</clus>
<clus scale="   73.490">  1  4  2 -1</clus>
<clus scale="   30.869">  2  3  1 -1</clus>
</clustering>
</event>
<event>
 6    0  0.2433432E+002  0.1470201E+03  0.7546771E-02  0.1204183E+00
          2   -1    0    0  504    0 -0.00000000000E+00  0.00000000000E+00  0.88104637480E+03  0.88104637480E+03  0.00000000000E+00 0.  1.
         21   -1    0    0  503  502  0.00000000000E+00 -0.00000000000E+00 -0.95418228481E+03  0.95418228481E+03  0.00000000000E+00 0.  1.
         21    1    1    2  503  505  0.50723955709E+02  0.16545760666E+02 -0.17878002882E+03  0.18657165000E+03  0.00000000000E+00 0. -1.
         21    1    1    2  504  502  0.18114184777E+02  0.13175947926E+03 -0.70723163761E+03  0.71962856621E+03  0.00000000000E+00 0.  1.
         21    1    1    2  505  501 -0.97246388120E+01 -0.10352765957E+03 -0.84828855452E+01  0.10432882748E+03  0.00000000000E+00 0.  1.
          2    1    1    2  501    0 -0.59113501674E+02 -0.44777580355E+02  0.82135864197E+03  0.82469961593E+03  0.00000000000E+00 0.  1.
<scales pt_clust_3="53.35431" pt_clust_4="147.02009" pt_clust_5="14000.00000" pt_clust_6="74.04902"></scales>
<clustering>
<clus scale="   53.354">  2  3  1 -1</clus>
<clus scale="   74.049">  1  6  2 -1</clus>
<clus scale="  147.020">  2  4  1 -1</clus>
<clus scale="   53.354">  2  3  1 -1</clus>
</clustering>
</event>
<event>
 6    0  0.2433432E+002  0.3694042E+03  0.7546771E-02  0.1054921E+00
          2   -1    0    0  502    0 -0.00000000000E+00  0.00000000000E+00  0.52948224830E+03  0.52948224830E+03  0.00000000000E+00 0.  1.
         21   -1    0    0  505  502  0.00000000000E+00 -0.00000000000E+00 -0.12662856624E+04  0.12662856624E+04  0.00000000000E+00 0. -1.
         21    1    1    2  503  504 -0.22820134757E+03  0.99645568169E+02 -0.67478178865E+03  0.71926042334E+03  0.00000000000E+00 0. -1.
         21    1    1    2  504  501  0.30068996181E+03 -0.14166190923E+03  0.85429920790E+02  0.34319210514E+03  0.00000000000E+00 0.  1.
         21    1    1    2  505  503 -0.10761507577E+03  0.59169651040E+02 -0.43045184166E+03  0.44762801535E+03  0.00000000000E+00 0. -1.
          2    1    1    2  501    0  0.35126461530E+02 -0.17153309976E+02  0.28300029545E+03  0.28568736684E+03  0.00000000000E+00 0.  1.
<scales pt_clust_3="32.12336" pt_clust_4="366.56121" pt_clust_5="32.12336" pt_clust_6="39.09098"></scales>
<clustering>
<clus scale="   32.123">  3  5 -1 -1</clus>
<clus scale="   39.091">  1  6  2 -1</clus>
<clus scale="  366.561">  1  4  2 -1</clus>
<clus scale="  369.404">  2  3  1 -1</clus>
</clustering>
</event>
<event>
 6    0  0.2433432E+002  0.1245076E+03  0.7546771E-02  0.1235841E+00
         21   -1    0    0  504  502  0.00000000000E+00  0.00000000000E+00  0.96069369498E+02  0.96069369498E+02  0.00000000000E+00 0.  1.
          2   -1    0    0  502    0 -0.00000000000E+00 -0.00000000000E+00 -0.47654715752E+03  0.47654715752E+03  0.00000000000E+00 0.  1.
         21    1    1    2  503  505 -0.50220512819E+02 -0.49304464286E+02 -0.73294821368E+02  0.10161279912E+03  0.00000000000E+00 0.  1.
         21    1    1    2  504  503  0.28322031590E+02  0.63656914596E+02  0.29923268877E+02  0.75827054997E+02  0.00000000000E+00 0.  1.
         21    1    1    2  505  501 -0.85623427216E+02 -0.19983264580E+02 -0.90942054277E+02  0.12649568921E+03  0.00000000000E+00 0.  1.
          2    1    1    2  501    0  0.10752190845E+03  0.56308142706E+01 -0.24616418125E+03  0.26868098369E+03  0.00000000000E+00 0.  1.
<scales pt_clust_3="38.01418" pt_clust_4="69.67310" pt_clust_5="38.01418" pt_clust_6="117.03318"></scales>
<clustering>
<clus scale="   38.014">  3  5 -1 -1</clus>
<clus scale="   69.673">  1  4  2 -1</clus>
<clus scale="  117.033">  2  6  1 -1</clus>
<clus scale="   69.673">  1  3  2 -1</clus>
</clustering>
</event>
<event>
 6    0  0.2433432E+002  0.2275874E+03  0.7546771E-02  0.1128349E+00
          1   -1    0    0  504    0 -0.00000000000E+00  0.00000000000E+00  0.45877930141E+03  0.45877930141E+03  0.00000000000E+00 0. -1.
         21   -1    0    0  505  502  0.00000000000E+00 -0.00000000000E+00 -0.12309565569E+04  0.12309565569E+04  0.00000000000E+00 0. -1.
         21    1    1    2  503  501  0.17373472316E+03 -0.84519145899E+02 -0.43710176684E+03  0.47789663592E+03  0.00000000000E+00 0. -1.
         21    1    1    2  504  502 -0.99106021999E+00 -0.31123773741E+02 -0.37468176733E+03  0.37597353400E+03  0.00000000000E+00 0. -1.
         21    1    1    2  505  503  0.33039876898E+02  0.13227673338E+02 -0.36703396324E+03  0.36875538637E+03  0.00000000000E+00 0. -1.
          1    1    1    2  501    0 -0.20578353983E+03  0.10241524630E+03  0.40664024190E+03  0.46711030204E+03  0.00000000000E+00 0. -1.
<scales pt_clust_3="227.58738" pt_clust_4="31.13955" pt_clust_5="32.61412" pt_clust_6="14000.00000"></scales>
<clustering>
<clus scale="   31.140">  2  4  1 -1</clus>
<clus scale="   32.614">  2  5  1 -1</clus>
<clus scale="  227.587">  2  3  1 -1</clus>
<clus scale="   31.140">  2  3  1 -1</clus>
</clustering>
</event>
<event>
 6    0  0.2433432E+002  0.1513380E+03  0.7546771E-02  0.1198839E+00
          2   -1    0    0  504    0 -0.00000000000E+00  0.00000000000E+00  0.12548946998E+04  0.12548946998E+04  0.00000000000E+00 0. -1.
         21   -1    0    0  503  502  0.00000000000E+00 -0.00000000000E+00 -0.59524361753E+02  0.59524361753E+02  0.00000000000E+00 0. -1.
         21    1    1    2  503  501  0.10298526250E+03  0.12523151349E+02  0.89981486717E+02  0.13732975484E+03  0.00000000000E+00 0. -1.
         21    1    1    2  504  505 -0.15771694397E+03 -0.65681351595E+02  0.78818564522E+03  0.80648948270E+03  0.00000000000E+00 0. -1.
         21    1    1    2  505  502 -0.21157502567E+02 -0.53565783454E+02  0.68233483007E+02  0.89290208171E+02  0.00000000000E+00 0. -1.
          2    1    1    2  501    0  0.75889184039E+02  0.10672398370E+03  0.24896972312E+03  0.28130961587E+03  0.00000000000E+00 0. -1.
<scales pt_clust_3="93.71928" pt_clust_4="14000.00000" pt_clust_5="57.59282" pt_clust_6="151.33795"></scales>
<clustering>
<clus scale="   57.593">  2  5  1 -1</clus>
<clus scale="   93.719">  2  3  1 -1</clus>
<clus scale="  151.338">  2  6  1 -1</clus>
<clus scale="   57.593">  2  3  1 -1</clus>
</clustering>
</event>
<event>
 6    0  0.2433432E+002  0.1312513E+03  0.7546771E-02  0.1225611E+00
         21   -1    0    0  505  502  0.00000000000E+00  0.00000000000E+00  0.11367646234E+04  0.11367646234E+04  0.00000000000E+00 0. -1.
          1   -1    0    0  502    0 -0.00000000000E+00 -0.00000000000E+00 -0.14770900488E+04  0.14770900488E+04  0.00000000000E+00 0.  1.
         21    1    1    2  503  504  0.50949858718E+02  0.55312465596E+02  0.91223526686E+03  0.91532974335E+03  0.00000000000E+00 0. -1.
         21    1    1    2  504  501 -0.12979409529E+03 -0.13688102019E+03 -0.29469920835E+03  0.34990076345E+03  0.00000000000E+00 0. -1.
         21    1    1    2  505  503  0.47051390525E+02  0.32057170988E+02  0.19046438902E+03  0.19879179824E+03  0.00000000000E+00 0.  1.
          1    1    1    2  501    0  0.31792846051E+02  0.49511383609E+02 -0.11483258730E+04  0.11498323672E+04  0.00000000000E+00 0.  1.
<scales pt_clust_3="14000.00000" pt_clust_4="131.25126" pt_clust_5="56.93413" pt_clust_6="58.88204"></scales>
<clustering>
<clus scale="   56.934">  1  5  2 -1</clus>
<clus scale="   58.882">  2  6  1 -1</clus>
<clus scale="  131.251">  2  4  1 -1</clus>
<clus scale="   56.934">  1  3  2 -1</clus>
</clustering>
</event>
<event>
 6    0  0.2433432E+002  0.1607344E+03  0.7546771E-02  0.1187870E+00
          1   -1    0    0  502    0 -0.00000000000E+00  0.00000000000E+00  0.23115422013E+03  0.23115422013E+03  0.00000000000E+00 0. -1.
         21   -1    0    0  503  502  0.00000000000E+00 -0.00000000000E+00 -0.42478691441E+03  0.42478691441E+03  0.00000000000E+00 0.  1.
         21    1    1    2  503  505 -0.13136892292E+02 -0.30544469974E+02 -0.18227963741E+03  0.18528736816E+03  0.00000000000E+00 0.  1.
         21    1    1    2  504  501  0.64770203402E+02  0.12917492798E+03 -0.12583758970E+03  0.19161534450E+03  0.00000000000E+00 0.  1.
         21    1    1    2  505  504 -0.26611224550E+02  0.66025722715E+02 -0.89359920930E+01  0.71745419970E+02  0.00000000000E+00 0.  1.
          1    1    1    2  501    0 -0.25022086560E+02 -0.16465618072E+03  0.12342052492E+03  0.20729300190E+03  0.00000000000E+00 0. -1.
<scales pt_clust_3="33.24970" pt_clust_4="14000.00000" pt_clust_5="67.38262" pt_clust_6="160.73442"></scales>
<clustering>
<clus scale="   33.250">  2  3  1 -1</clus>
<clus scale="   67.383">  2  5  1 -1</clus>
<clus scale="  160.734">  1  6  2 -1</clus>
<clus scale="   33.250">  2  3  1 -1</clus>
</clustering>
</event>
<event>
 6    0  0.2433432E+002  0.1267251E+03  0.7546771E-02  0.1232398E+00
         21   -1    0    0  504  502  0.00000000000E+00  0.00000000000E+00  0.56151227877E+03  0.56151227877E+03  0.00000000000E+00 0.  1.
         -2   -1    0    0    0  501 -0.00000000000E+00 -0.00000000000E+00 -0.27836167468E+03  0.27836167468E+03  0.00000000000E+00 0. -1.
         21    1    1    2  503  501 -0.89173958557E+02 -0.28846301355E+02 -0.19256934031E+03  0.21416595157E+03  0.00000000000E+00 0. -1.
         21    1    1    2  504  505  0.32152426630E+02 -0.10146049814E+02  0.41764966829E+03  0.41900831291E+03  0.00000000000E+00 0.  1.
         21    1    1    2  505  503  0.86709144103E+02  0.81165352691E+02  0.87314218300E+02  0.14741120333E+03  0.00000000000E+00 0.  1.
         -2    1    1    2    0  502 -0.29687612176E+02 -0.42173001521E+02 -0.29243942195E+02  0.59288485637E+02  0.00000000000E+00 0. -1.
<scales pt_clust_3="14000.00000" pt_clust_4="33.71529" pt_clust_5="126.72508" pt_clust_6="50.61544"></scales>
<clustering>
<clus scale="   33.715">  1  4  2 -1</clus>
<clus scale="   50.615">  2  6  1 -1</clus>
<clus scale="  126.725">  1  5  2 -1</clus>
<clus scale="   33.715">  1  3  2 -1</clus>
</clustering>
</event>
<event>
 6    0  0.2433432E+002  0.1539896E+03  0.7546771E-02  0.1195655E+00
         21   -1    0    0  503  502  0.00000000000E+00  0.00000000000E+00  0.38505897509E+03  0.38505897509E+03  0.00000000000E+00 0. -1.
         -1   -1    0    0    0  501 -0.00000000000E+00 -0.00000000000E+00 -0.32721882917E+03  0.32721882917E+03  0.00000000000E+00 0. -1.
         21    1    1    2  503  501 -0.50063042793E+02 -0.31202755189E+01  0.28253559212E+03  0.28695366384E+03  0.00000000000E+00 0. -1.
         21    1    1    2  504  505  0.33980916674E+02  0.41578772759E+02  0.22842632870E+02  0.58354802018E+02  0.00000000000E+00 0. -1.
         21    1    1    2  505  502  0.48353185835E+01  0.99996537914E+02 -0.22658538639E+02  0.10264549320E+03  0.00000000000E+00 0. -1.
         -1    1    1    2    0  504  0.11246807535E+02 -0.13845503515E+03 -0.22487954043E+03  0.26432384521E+03  0.00000000000E+00 0. -1.
<scales pt_clust_3="50.16019" pt_clust_4="48.41879" pt_clust_5="48.41879" pt_clust_6="139.07558"></scales>
<clustering>
<clus scale="   48.419">  4  5 -1 -1</clus>
<clus scale="   50.160">  1  3  2 -1</clus>
<clus scale="  139.076">  2  6  1 -1</clus>
<clus scale="   50.160">  1  3  2 -1</clus>
</clustering>
</event>
<event>
 6    0  0.2433432E+002  0.1874038E+03  0.7546771E-02  0.1160824E+00
          2   -1    0    0  503    0 -0.00000000000E+00  0.00000000000E+00  0.20316374413E+03  0.20316374413E+03  0.00000000000E+00 0. -1.
         21   -1    0    0  504  502  0.00000000000E+00 -0.00000000000E+00 -0.55678531333E+03  0.55678531333E+03  0.00000000000E+00 0. -1.
         21    1    1    2  503  505  0.10168460334E+03  0.18515518749E+03 -0.33102093646E+03  0.39267933786E+03  0.00000000000E+00 0. -1.
         21    1    1    2  504  501 -0.26599069502E+02 -0.30586175449E+02 -0.46742602104E+01  0.40802859403E+02  0.00000000000E+00 0.  1.
         21    1    1    2  505  502  0.77540313014E+01 -0.57151628401E+02 -0.13892289441E+03  0.15041942768E+03  0.00000000000E+00 0. -1.
          2    1    1    2  501    0 -0.82839565137E+02 -0.97417383637E+02  0.12099652188E+03  0.17604743251E+03  0.00000000000E+00 0. -1.
<scales pt_clust_3="173.17253" pt_clust_4="40.33063" pt_clust_5="57.67524" pt_clust_6="40.33063"></scales>
<clustering>
<clus scale="   40.331">  4  6 -1 -1</clus>
<clus scale="   57.675">  2  5  1 -1</clus>
<clus scale="  173.173">  2  3  1 -1</clus>
<clus scale="   57.675">  2  3  1 -1</clus>
</clustering>
</event>
<event>
 6    0  0.2433432E+002  0.1674400E+03  0.7546771E-02  0.1180544E+00
         21   -1    0    0  504  502  0.00000000000E+00  0.00000000000E+00  0.12171014294E+03  0.12171014294E+03  0.00000000000E+00 0. -1.
          2   -1    0    0  503    0 -0.00000000000E+00 -0.00000000000E+00 -0.78196298621E+03  0.78196298621E+03  0.00000000000E+00 0.  1.
         21    1    1    2  503  502  0.43700120654E+01 -0.38700196488E+02  0.36730514031E+02  0.53534408324E+02  0.00000000000E+00 0. -1.
         21    1    1    2  504  505  0.32956929528E+02  0.74180130123E+01  0.12872184962E+02  0.36150785146E+02  0.00000000000E+00 0. -1.
         21    1    1    2  505  501  0.11389796218E+03 -0.63993867706E+02 -0.67148702585E+02  0.14689080690E+03  0.00000000000E+00 0.  1.
          2    1    1    2  501    0 -0.15122490377E+03  0.95276051181E+02 -0.64270683968E+03  0.66709712878E+03  0.00000000000E+00 0.  1.
<scales pt_clust_3="40.37320" pt_clust_4="33.78145" pt_clust_5="167.44003" pt_clust_6="14000.00000"></scales>
<clustering>
<clus scale="   33.781">  1  4  2 -1</clus>
<clus scale="   40.373">  1  3  2 -1</clus>
<clus scale="  167.440">  1  5  2 -1</clus>
<clus scale="   33.781">  1  3  2 -1</clus>
</clustering>
</event>
<event>
 6    0  0.2433432E+002  0.8497618E+02  0.7546771E-02  0.1315495E+00
         21   -1    0    0  505  502  0.00000000000E+00  0.00000000000E+00  0.48818189105E+02  0.48818189105E+02  0.00000000000E+00 0. -1.
          1   -1    0    0  503    0 -0.00000000000E+00 -0.00000000000E+00 -0.46344242726E+03  0.46344242726E+03  0.00000000000E+00 0. -1.
         21    1    1    2  503  504 -0.58844142267E+01 -0.91376327670E+02 -0.95423410669E+02  0.13224933608E+03  0.00000000000E+00 0. -1.
         21    1    1    2  504  502 -0.48004418729E+02 -0.87318678450E+00 -0.33689170864E+02  0.58652765546E+02  0.00000000000E+00 0. -1.
         21    1    1    2  505  501  0.38771145556E+02  0.10789944399E+02 -0.23597097375E+02  0.46652412932E+02  0.00000000000E+00 0. -1.
          1    1    1    2  501    0  0.15117687400E+02  0.81459570056E+02 -0.26191455925E+03  0.27470610181E+03  0.00000000000E+00 0. -1.
<scales pt_clust_3="14000.00000" pt_clust_4="35.13391" pt_clust_5="40.24456" pt_clust_6="84.97618"></scales>
<clustering>
<clus scale="   40.245">  1  5  2 -1</clus>
<clus scale="   35.134">  1  4  2 -1</clus>
<clus scale="   84.976">  2  6  1 -1</clus>
<clus scale="   40.245">  1  3  2 -1</clus>
</clustering>
</event>
<event>
 6    0  0.2433432E+002  0.9425580E+02  0.7546771E-02  0.1292861E+00
         21   -1    0    0  504  502  0.00000000000E+00  0.00000000000E+00  0.26398624474E+03  0.26398624474E+03  0.00000000000E+00 0. -1.
          2   -1    0    0  503    0 -0.00000000000E+00 -0.00000000000E+00 -0.87563650756E+03  0.87563650756E+03  0.00000000000E+00 0. -1.
         21    1    1    2  503  505 -0.10439007606E+03 -0.16909076216E+01  0.12124729638E+03  0.16000329380E+03  0.00000000000E+00 0. -1.
         21    1    1    2  504  501 -0.82012129009E+01  0.95426507569E+02  0.57330674698E+02  0.11162564446E+03  0.00000000000E+00 0. -1.
         21    1    1    2  505  502  0.19571738094E+02 -0.79648923280E+02 -0.10589383278E+02  0.82699086753E+02  0.00000000000E+00 0. -1.
          2    1    1    2  501    0  0.93019550871E+02 -0.14086676668E+02 -0.77963885062E+03  0.78529472728E+03  0.00000000000E+00 0. -1.
<scales pt_clust_3="94.25580" pt_clust_4="65.91305" pt_clust_5="82.01831" pt_clust_6="14000.00000"></scales>
<clustering>
<clus scale="   82.018">  1  5  2 -1</clus>
<clus scale="   65.913">  1  4  2 -1</clus>
<clus scale="   94.256">  1  3  2 -1</clus>
<clus scale="   82.018">  1  3  2 -1</clus>
</clustering>
</event>
<event>
 6    0  0.2433432E+002  0.6166708E+02  0.7546771E-02  0.1390966E+00
         21   -1    0    0  503  502  0.00000000000E+00  0.00000000000E+00  0.48679153086E+02  0.48679153086E+02  0.00000000000E+00 0.  1.
          2   -1    0    0  504    0 -0.00000000000E+00 -0.00000000000E+00 -0.21577862961E+04  0.21577862961E+04  0.00000000000E+00 0.  1.
         21    1    1    2  503  501  0.45224474028E+02  0.16584268069E+02 -0.17218102116E+01  0.48200162125E+02  0.00000000000E+00 0.  1.
         21    1    1    2  504  505 -0.71846937731E+02  0.68679086349E+02 -0.93997099059E+02  0.13680005115E+03  0.00000000000E+00 0.  1.
         21    1    1    2  505  502 -0.23696805827E+02 -0.51154141258E+02 -0.22202064323E+03  0.22906647680E+03  0.00000000000E+00 0.  1.
          2    1    1    2  501    0  0.50319269530E+02 -0.34109213160E+02 -0.17913675905E+04  0.17923987591E+04  0.00000000000E+00 0.  1.
<scales pt_clust_3="48.16940" pt_clust_4="61.66708" pt_clust_5="51.87495" pt_clust_6="14000.00000"></scales>
<clustering>
<clus scale="   48.169">  1  3  2 -1</clus>
<clus scale="   51.875">  1  5  2 -1</clus>
<clus scale="   61.667">  1  4  2 -1</clus>
<clus scale="   48.169">  1  3  2 -1</clus>
</clustering>
</event>
<event>
 6    0  0.2433432E+002  0.8743421E+02  0.7546771E-02  0.1309187E+00
          2   -1    0    0  505    0 -0.00000000000E+00  0.00000000000E+00  0.66187315741E+03  0.66187315741E+03  0.00000000000E+00 0.  1.
         21   -1    0    0  503  502  0.00000000000E+00 -0.00000000000E+00 -0.68767399247E+02  0.68767399247E+02  0.00000000000E+00 0.  1.
         21    1    1    2  503  501  0.42209075221E+02 -0.40042663431E+02  0.12043949010E+03  0.13375609033E+03  0.00000000000E+00 0.  1.
         21    1    1    2  504  502  0.63040756130E+02  0.16079642839E+02 -0.18339294013E+02  0.67594537887E+02  0.00000000000E+00 0.  1.
         21    1    1    2  505  504 -0.12019266385E+03  0.61827494427E+02  0.24384534937E+03  0.27880005366E+03  0.00000000000E+00 0.  1.
          2    1    1    2  501    0  0.14942832500E+02 -0.37864473835E+02  0.24716021270E+03  0.25048987477E+03  0.00000000000E+00 0.  1.
<scales pt_clust_3="14000.00000" pt_clust_4="65.40880" pt_clust_5="87.43421" pt_clust_6="40.70635"></scales>
<clustering>
<clus scale="   40.706">  1  6  2 -1</clus>
<clus scale="   65.409">  2  4  1 -1</clus>
<clus scale="   87.434">  2  5  1 -1</clus>
<clus scale="   65.409">  2  3  1 -1</clus>
</clustering>
</event>
<event>
 6    0  0.2433432E+002  0.1270748E+03  0.7546771E-02  0.1231862E+00
         21   -1    0    0  505  502  0.00000000000E+00  0.00000000000E+00  0.16235586776E+03  0.16235586776E+03  0.00000000000E+00 0. -1.
         -4   -1    0    0    0  501 -0.00000000000E+00 -0.00000000000E+00 -0.67337016530E+03  0.67337016530E+03  0.00000000000E+00 0. -1.
         21    1    1    2  503  504  0.84783595922E+02  0.37222333191E+02  0.68140237028E+01  0.92844984488E+02  0.00000000000E+00 0. -1.
         21    1    1    2  504  502  0.65067673400E+02  0.29237440940E+02  0.42819629853E+02  0.83199463791E+02  0.00000000000E+00 0. -1.
         21    1    1    2  505  501 -0.34145278718E+02 -0.41910330160E+02  0.26874747261E+02  0.60370753459E+02  0.00000000000E+00 0. -1.
         -4    1    1    2    0  503 -0.11570599060E+03 -0.24549443971E+02 -0.58752269836E+03  0.59931083133E+03  0.00000000000E+00 0. -1.
<scales pt_clust_3="35.71635" pt_clust_4="35.71635" pt_clust_5="54.05900" pt_clust_6="120.38334"></scales>
<clustering>
<clus scale="   35.716">  3  4 -1 -1</clus>
<clus scale="   54.059">  1  5  2 -1</clus>
<clus scale="  120.383">  2  6  1 -1</clus>
<clus scale="   54.059">  1  3  2 -1</clus>
</clustering>
</event>
<event>
 6    0  0.2433432E+002  0.1459499E+03  0.7546771E-02  0.1205540E+00
          2   -1    0    0  503    0 -0.00000000000E+00  0.00000000000E+00  0.14959153352E+04  0.14959153352E+04  0.00000000000E+00 0.  1.
         21   -1    0    0  504  502  0.00000000000E+00 -0.00000000000E+00 -0.63361472123E+03  0.63361472123E+03  0.00000000000E+00 0.  1.
         21    1    1    2  503  502  0.11053463686E+03 -0.13192408072E+03  0.26330574469E+02  0.17411251584E+03  0.00000000000E+00 0.  1.
         21    1    1    2  504  505  0.10182651070E+03  0.83286897773E+02 -0.39804880892E+03  0.41922332939E+03  0.00000000000E+00 0.  1.
         21    1    1    2  505  501 -0.15002372430E+03  0.49574729568E+02 -0.10885736936E+03  0.19187156779E+03  0.00000000000E+00 0.  1.
          2    1    1    2  501    0 -0.62337423260E+02 -0.93754661701E+00  0.13428762177E+04  0.13443226434E+04  0.00000000000E+00 0.  1.
<scales pt_clust_3="14000.00000" pt_clust_4="128.18285" pt_clust_5="145.94995" pt_clust_6="62.34447"></scales>
<clustering>
<clus scale="   62.344">  1  6  2 -1</clus>
<clus scale="  128.183">  2  4  1 -1</clus>
<clus scale="  145.950">  2  5  1 -1</clus>
<clus scale="  128.183">  2  3  1 -1</clus>
</clustering>
</event>
<event>
 6    0  0.2433432E+002  0.1396920E+03  0.7546771E-02  0.1213744E+00
         21   -1    0    0  501  502  0.00000000000E+00  0.00000000000E+00  0.39648608677E+02  0.39648608677E+02  0.00000000000E+00 0. -1.
          1   -1    0    0  505    0 -0.00000000000E+00 -0.00000000000E+00 -0.91553661393E+03  0.91553661393E+03  0.00000000000E+00 0. -1.
         21    1    1    2  503  502  0.30493033315E+02  0.12473249858E+02  0.19936016310E+01  0.33005779649E+02  0.00000000000E+00 0. -1.
         21    1    1    2  504  503 -0.90673098728E+02  0.73441989201E+01 -0.29908401267E+03  0.31261285119E+03  0.00000000000E+00 0. -1.
         21    1    1    2  505  504 -0.61171380773E+02 -0.19955000962E+02 -0.13619333993E+03  0.15062790488E+03  0.00000000000E+00 0. -1.
          1    1    1    2  501    0  0.12135144619E+03  0.13755218352E+00 -0.44260425428E+03  0.45893868689E+03  0.00000000000E+00 0. -1.
<scales pt_clust_3="32.94552" pt_clust_4="35.32051" pt_clust_5="35.32051" pt_clust_6="132.68007"></scales>
<clustering>
<clus scale="   32.946">  1  3  2 -1</clus>
<clus scale="   35.321">  4  5 -1 -1</clus>
<clus scale="  132.680">  2  6  1 -1</clus>
<clus scale="   32.946">  1  3  2 -1</clus>
</clustering>
</event>
<event>
 6    0  0.2433432E+002  0.6790416E+02  0.7546771E-02  0.1367369E+00
         -2   -1    0    0    0  501 -0.00000000000E+00  0.00000000000E+00  0.33948575947E+03  0.33948575947E+03  0.00000000000E+00 0. -1.
         21   -1    0    0  504  502  0.00000000000E+00 -0.00000000000E+00 -0.29687743583E+03  0.29687743583E+03  0.00000000000E+00 0. -1.
         21    1    1    2  503  505 -0.28468788529E+02  0.33950330137E+02 -0.15033150701E+02  0.46787738315E+02  0.00000000000E+00 0. -1.
         21    1    1    2  504  501  0.80109676671E+02 -0.10997378397E+03 -0.31195277942E+02  0.13958846236E+03  0.00000000000E+00 0. -1.
         21    1    1    2  505  502 -0.51201401914E+02  0.34680897928E+02 -0.17361423801E+03  0.18429935399E+03  0.00000000000E+00 0. -1.
         -2    1    1    2    0  503 -0.43948622835E+00  0.41342555906E+02  0.26245099030E+03  0.26568764064E+03  0.00000000000E+00 0. -1.
<scales pt_clust_3="51.33343" pt_clust_4="67.90416" pt_clust_5="14000.00000" pt_clust_6="41.34489"></scales>
<clustering>
<clus scale="   41.345">  1  6  2 -1</clus>
<clus scale="   51.333">  1  3  2 -1</clus>
<clus scale="   67.904">  1  4  2 -1</clus>
<clus scale="   67.904">  2  3  1 -1</clus>
</clustering>
</event>
<event>
 6    0  0.2433432E+002  0.4473064E+03  0.7546771E-02  0.1028528E+00
          1   -1    0    0  502    0 -0.00000000000E+00  0.00000000000E+00  0.54790087261E+03  0.54790087261E+03  0.00000000000E+00 0. -1.
         21   -1    0    0  504  502  0.00000000000E+00 -0.00000000000E+00 -0.28478488516E+04  0.28478488516E+04  0.00000000000E+00 0. -1.
         21    1    1    2  503  505 -0.23403827481E+02 -0.94919687248E+02 -0.25879329577E+03  0.27664319276E+03  0.00000000000E+00 0. -1.
         21    1    1    2  504  503 -0.19491427319E+03 -0.33768549508E+03 -0.20874676327E+04  0.21235687380E+04  0.00000000000E+00 0. -1.
         21    1    1    2  505  501  0.19770507671E+03  0.23718538742E+03 -0.40150219774E+03  0.50650589350E+03  0.00000000000E+00 0.  1.
          1    1    1    2  501    0  0.20613023962E+02  0.19541979491E+03  0.44781514726E+03  0.48903189989E+03  0.00000000000E+00 0. -1.
<scales pt_clust_3="73.02322" pt_clust_4="73.02322" pt_clust_5="422.86656" pt_clust_6="196.50393"></scales>
<clustering>
<clus scale="   73.023">  3  4 -1 -1</clus>
<clus scale="  196.504">  1  6  2 -1</clus>
<clus scale="  422.867">  1  5  2 -1</clus>
<clus scale="  447.306">  2  3  1 -1</clus>
</clustering>
</event>
<event>
 6    0  0.2433432E+002  0.6025338E+02  0.7546771E-02  0.1396771E+00
          1   -1    0    0  503    0 -0.00000000000E+00  0.00000000000E+00  0.40704284147E+03  0.40704284147E+03  0.00000000000E+00 0.  1.
         21   -1    0    0  505  502  0.00000000000E+00 -0.00000000000E+00 -0.82278166032E+03  0.82278166032E+03  0.00000000000E+00 0. -1.
         21    1    1    2  503  502  0.97787980454E+01  0.39537778393E+02 -0.70026529680E+03  0.70144874846E+03  0.00000000000E+00 0. -1.
         21    1    1    2  504  501  0.42775964349E+02  0.76745615804E+02 -0.12161048495E+02  0.88699288450E+02  0.00000000000E+00 0.  1.
         21    1    1    2  505  504 -0.42035869204E+02 -0.58122836521E+02 -0.50352558910E+02  0.87639366804E+02  0.00000000000E+00 0.  1.
          1    1    1    2  501    0 -0.10518893191E+02 -0.58160557676E+02  0.34704008535E+03  0.35203709808E+03  0.00000000000E+00 0.  1.
<scales pt_clust_3="40.72912" pt_clust_4="60.25338" pt_clust_5="51.09190" pt_clust_6="14000.00000"></scales>
<clustering>
<clus scale="   40.729">  2  3  1 -1</clus>
<clus scale="   51.092">  2  5  1 -1</clus>
<clus scale="   60.253">  2  4  1 -1</clus>
<clus scale="   40.729">  2  3  1 -1</clus>
</clustering>
</event>
<event>
 6    0  0.2433432E+002  0.7819961E+02  0.7546771E-02  0.1334240E+00
          2   -1    0    0  505    0 -0.00000000000E+00  0.00000000000E+00  0.34693616281E+04  0.34693616281E+04  0.00000000000E+00 0. -1.
         21   -1    0    0  504  502  0.00000000000E+00 -0.00000000000E+00 -0.37951423885E+02  0.37951423885E+02  0.00000000000E+00 0.  1.
         21    1    1    2  503  502  0.27400081588E+02  0.33175565110E+02 -0.11875643185E+02  0.44636459228E+02  0.00000000000E+00 0.  1.
         21    1    1    2  504  501 -0.65939755942E+02 -0.10747910678E+03  0.66482686429E+03  0.67667907407E+03  0.00000000000E+00 0.  1.
         21    1    1    2  505  503  0.54135289532E+02 -0.56882655298E+00  0.22603491688E+03  0.23242791739E+03  0.00000000000E+00 0.  1.
          2    1    1    2  501    0 -0.15595615178E+02  0.74872368226E+02  0.25524240662E+04  0.25535696013E+04  0.00000000000E+00 0. -1.
<scales pt_clust_3="43.02770" pt_clust_4="78.19961" pt_clust_5="64.01427" pt_clust_6="14000.00000"></scales>
<clustering>
<clus scale="   43.028">  2  3  1 -1</clus>
<clus scale="   64.014">  2  5  1 -1</clus>
<clus scale="   78.200">  2  4  1 -1</clus>
<clus scale="   43.028">  2  3  1 -1</clus>
</clustering>
</event>
<event>
 6    0  0.2433432E+002  0.1174907E+03  0.7546771E-02  0.1247295E+00
          2   -1    0    0  503    0 -0.00000000000E+00  0.00000000000E+00  0.15566615931E+04  0.15566615931E+04  0.00000000000E+00 0. -1.
         21   -1    0    0  504  502  0.00000000000E+00 -0.00000000000E+00 -0.25217777057E+02  0.25217777057E+02  0.00000000000E+00 0. -1.
         21    1    1    2  503  505  0.35788621778E+01  0.31407309229E+02  0.13064003061E+03  0.13440998819E+03  0.00000000000E+00 0. -1.
         21    1    1    2  504  501 -0.71131304238E+02  0.99201207327E+00  0.72273240083E+02  0.10141039277E+03  0.00000000000E+00 0. -1.
         21    1    1    2  505  502 -0.61199466885E+02  0.22276603569E+02  0.24389832387E+03  0.25244408133E+03  0.00000000000E+00 0. -1.
          2    1    1    2  501    0  0.12875190894E+03 -0.54675924872E+02  0.10846322215E+04  0.10936149078E+04  0.00000000000E+00 0. -1.
<scales pt_clust_3="31.61056" pt_clust_4="117.49071" pt_clust_5="66.62937" pt_clust_6="14000.00000"></scales>
<clustering>
<clus scale="   31.611">  1  3  2 -1</clus>
<clus scale="   66.629">  2  5  1 -1</clus>
<clus scale="  117.491">  2  4  1 -1</clus>
<clus scale="   66.629">  2  3  1 -1</clus>
</clustering>
</event>
<event>
 6    0  0.2433432E+002  0.1547540E+03  0.7546771E-02  0.1194750E+00
         21   -1    0    0  505  502  0.00000000000E+00  0.00000000000E+00  0.25680523870E+03  0.25680523870E+03  0.00000000000E+00 0. -1.
          2   -1    0    0  503    0 -0.00000000000E+00 -0.00000000000E+00 -0.19371623346E+04  0.19371623346E+04  0.00000000000E+00 0.  1.
         21    1    1    2  503  502  0.41162955524E+02 -0.26469438756E+02  0.16388005739E+03  0.17103126412E+03  0.00000000000E+00 0. -1.
         21    1    1    2  504  501  0.36337274259E+02  0.10679601164E+03 -0.52210776972E+02  0.12430507163E+03  0.00000000000E+00 0.  1.
         21    1    1    2  505  504 -0.54305844528E+02  0.76980000502E+02  0.52320737503E+01  0.94352635485E+02  0.00000000000E+00 0.  1.
          2    1    1    2  501    0 -0.23194385255E+02 -0.15730657338E+03 -0.17972584500E+04  0.18042786020E+04  0.00000000000E+00 0.  1.
<scales pt_clust_3="48.93894" pt_clust_4="14000.00000" pt_clust_5="69.68750" pt_clust_6="154.75395"></scales>
<clustering>
<clus scale="   48.939">  1  3  2 -1</clus>
<clus scale="   69.688">  1  5  2 -1</clus>
<clus scale="  154.754">  2  6  1 -1</clus>
<clus scale="   48.939">  1  3  2 -1</clus>
</clustering>
</event>
<event>
 6    0  0.2433432E+002  0.7173124E+02  0.7546771E-02  0.1354303E+00
          3   -1    0    0  505    0 -0.00000000000E+00  0.00000000000E+00  0.14789443601E+04  0.14789443601E+04  0.00000000000E+00 0. -1.
         21   -1    0    0  504  502  0.00000000000E+00 -0.00000000000E+00 -0.18198745231E+02  0.18198745231E+02  0.00000000000E+00 0. -1.
         21    1    1    2  503  502  0.11014776277E+03 -0.17251260839E+00  0.58926839824E+03  0.59947460711E+03  0.00000000000E+00 0.  1.
         21    1    1    2  504  501 -0.58962747987E+02 -0.30759386707E+02  0.98201467822E+02  0.11860132294E+03  0.00000000000E+00 0. -1.
         21    1    1    2  505  503  0.71945790009E+01  0.30745256496E+02  0.16483657099E+03  0.16783363161E+03  0.00000000000E+00 0.  1.
          3    1    1    2  501    0 -0.58379593786E+02  0.18664281949E+00  0.60843917779E+03  0.61123354364E+03  0.00000000000E+00 0. -1.
<scales pt_clust_3="71.73124" pt_clust_4="14000.00000" pt_clust_5="31.57583" pt_clust_6="56.90762"></scales>
<clustering>
<clus scale="   31.576">  1  5  2 -1</clus>
<clus scale="   56.908">  1  6  2 -1</clus>
<clus scale="   71.731">  1  3  2 -1</clus>
<clus scale="   71.731">  2  3  1 -1</clus>
</clustering>
</event>
<event>
 6    0  0.2433432E+002  0.1900128E+03  0.7546771E-02  0.1158450E+00
         -4   -1    0    0    0  501 -0.00000000000E+00  0.00000000000E+00  0.73075070046E+03  0.73075070046E+03  0.00000000000E+00 0.  1.
         21   -1    0    0  504  502  0.00000000000E+00 -0.00000000000E+00 -0.13481503401E+03  0.13481503401E+03  0.00000000000E+00 0.  1.
         21    1    1    2  503  505  0.24119877749E+02 -0.68757082926E+02  0.33164150266E+02  0.80057265867E+02  0.00000000000E+00 0.  1.
         21    1    1    2  504  501  0.43152110578E+02 -0.19675655561E+02 -0.57232567521E+02  0.74329017578E+02  0.00000000000E+00 0.  1.
         21    1    1    2  505  502 -0.47177760274E+02 -0.92444664340E+02  0.54733618692E+02  0.11733510150E+03  0.00000000000E+00 0.  1.
         -4    1    1    2    0  503 -0.20094228053E+02  0.18087740283E+03  0.56527046501E+03  0.59384434953E+03  0.00000000000E+00 0.  1.
<scales pt_clust_3="61.73193" pt_clust_4="47.42611" pt_clust_5="61.73193" pt_clust_6="177.15753"></scales>
<clustering>
<clus scale="   47.426">  2  4  1 -1</clus>
<clus scale="   61.732">  3  5 -1 -1</clus>
<clus scale="  177.158">  1  6  2 -1</clus>
<clus scale="   47.426">  2  3  1 -1</clus>
</clustering>
</event>
<event>
 6    0  0.2433432E+002  0.1193461E+03  0.7546771E-02  0.1244180E+00
         -1   -1    0    0    0  501 -0.00000000000E+00  0.00000000000E+00  0.94521216237E+03  0.94521216237E+03  0.00000000000E+00 0.  1.
         21   -1    0    0  501  502  0.00000000000E+00 -0.00000000000E+00 -0.29636434400E+03  0.29636434400E+03  0.00000000000E+00 0.  1.
         21    1    1    2  503  504 -0.77786586966E+02 -0.95701171323E+02 -0.22117044098E+03  0.25323078657E+03  0.00000000000E+00 0.  1.
         21    1    1    2  504  502 -0.23905512500E+02  0.21970826941E+02 -0.42376574152E+02  0.53385061592E+02  0.00000000000E+00 0.  1.
         21    1    1    2  505  503  0.81276494958E+02  0.14836048537E+02  0.16077961088E+03  0.18076520750E+03  0.00000000000E+00 0. -1.
         -1    1    1    2    0  505  0.20415604509E+02  0.58894295845E+02  0.75161522263E+03  0.75419545071E+03  0.00000000000E+00 0.  1.
<scales pt_clust_3="14000.00000" pt_clust_4="32.46830" pt_clust_5="119.34609" pt_clust_6="62.39977"></scales>
<clustering>
<clus scale="   32.468">  2  4  1 -1</clus>
<clus scale="   62.400">  1  6  2 -1</clus>
<clus scale="  119.346">  1  5  2 -1</clus>
<clus scale="   32.468">  2  3  1 -1</clus>
</clustering>
</event>
<event>
 6    0  0.2433432E+002  0.8090575E+02  0.7546771E-02  0.1326501E+00
         21   -1    0    0  504  502  0.00000000000E+00  0.00000000000E+00  0.66160909123E+02  0.66160909123E+02  0.00000000000E+00 0. -1.
          1   -1    0    0  503    0 -0.00000000000E+00 -0.00000000000E+00 -0.11032741361E+04  0.11032741361E+04  0.00000000000E+00 0.  1.
         21    1    1    2  503  505  0.15587019541E+02  0.89982335737E+02 -0.89044969573E+02  0.12754913770E+03  0.00000000000E+00 0. -1.
         21    1    1    2  504  501 -0.98804928680E+02 -0.24190730571E+02 -0.53572979828E+02  0.11496812404E+03  0.00000000000E+00 0. -1.
         21    1    1    2  505  502  0.37442227739E+02 -0.32958900399E+02 -0.25359188168E+02  0.55958001735E+02  0.00000000000E+00 0. -1.
          1    1    1    2  501    0  0.45775681400E+02 -0.32832704767E+02 -0.86913608941E+03  0.87095978175E+03  0.00000000000E+00 0.  1.
<scales pt_clust_3="80.90575" pt_clust_4="14000.00000" pt_clust_5="49.88196" pt_clust_6="57.22286"></scales>
<clustering>
<clus scale="   49.882">  1  5  2 -1</clus>
<clus scale="   57.223">  2  6  1 -1</clus>
<clus scale="   80.906">  2  3  1 -1</clus>
<clus scale="   49.882">  1  3  2 -1</clus>
</clustering>
</event>
<event>
 6    0  0.2433432E+002  0.1245767E+03  0.7546771E-02  0.1235732E+00
          2   -1    0    0  503    0 -0.00000000000E+00  0.00000000000E+00  0.11883587589E+04  0.11883587589E+04  0.00000000000E+00 0. -1.
         21   -1    0    0  505  502  0.00000000000E+00 -0.00000000000E+00 -0.12877656948E+04  0.12877656948E+04  0.00000000000E+00 0.  1.
         21    1    1    2  503  504 -0.93497001079E+02  0.22113872636E+02 -0.36790639170E+03  0.38024442879E+03  0.00000000000E+00 0.  1.
         21    1    1    2  504  502  0.16059064851E+03 -0.53220072959E+02 -0.88267198327E+03  0.89873887343E+03  0.00000000000E+00 0.  1.
         21    1    1    2  505  501 -0.24907764717E+02  0.24128940155E+02 -0.92827456463E+01  0.35899468840E+02  0.00000000000E+00 0.  1.
          2    1    1    2  501    0 -0.42185882712E+02  0.69772601676E+01  0.11604541847E+04  0.11612416827E+04  0.00000000000E+00 0. -1.
<scales pt_clust_3="124.57674" pt_clust_4="14000.00000" pt_clust_5="34.67856" pt_clust_6="42.76786"></scales>
<clustering>
<clus scale="   34.679">  2  5  1 -1</clus>
<clus scale="   42.768">  1  6  2 -1</clus>
<clus scale="  124.577">  1  3  2 -1</clus>
<clus scale="   34.679">  2  3  1 -1</clus>
</clustering>
</event>
<event>
 6    0  0.2433432E+002  0.1240301E+03  0.7546771E-02  0.1236593E+00
          1   -1    0    0  502    0 -0.00000000000E+00  0.00000000000E+00  0.35111734710E+04  0.35111734710E+04  0.00000000000E+00 0. -1.
         21   -1    0    0  503  502  0.00000000000E+00 -0.00000000000E+00 -0.32793157313E+02  0.32793157313E+02  0.00000000000E+00 0. -1.
         21    1    1    2  503  505  0.69557969781E+01 -0.30103433290E+02 -0.77506547885E+00  0.30906318674E+02  0.00000000000E+00 0. -1.
         21    1    1    2  504  501  0.57059440475E+02  0.25264585252E+02  0.14679155740E+03  0.15950498531E+03  0.00000000000E+00 0. -1.
         21    1    1    2  505  504  0.21985689685E+02  0.70976498229E+02  0.13296716415E+03  0.15231973147E+03  0.00000000000E+00 0. -1.
          1    1    1    2  501    0 -0.86000927138E+02 -0.66137650190E+02  0.31993966576E+04  0.32012355929E+04  0.00000000000E+00 0. -1.
<scales pt_clust_3="30.89660" pt_clust_4="58.06457" pt_clust_5="58.06457" pt_clust_6="109.19816"></scales>
<clustering>
<clus scale="   30.897">  2  3  1 -1</clus>
<clus scale="   58.065">  4  5 -1 -1</clus>
<clus scale="  109.198">  1  6  2 -1</clus>
<clus scale="   30.897">  2  3  1 -1</clus>
</clustering>
</event>
<event>
 6    0  0.2433432E+002  0.1758441E+03  0.7546771E-02  0.1171887E+00
          1   -1    0    0  503    0 -0.00000000000E+00  0.00000000000E+00  0.16121824224E+04  0.16121824224E+04  0.00000000000E+00 0. -1.
         21   -1    0    0  504  502  0.00000000000E+00 -0.00000000000E+00 -0.25485175366E+04  0.25485175366E+04  0.00000000000E+00 0.  1.
         21    1    1    2  503  502 -0.37026842962E+02  0.25883238842E+02 -0.16622301605E+04  0.16628439601E+04  0.00000000000E+00 0.  1.
         21    1    1    2  504  505 -0.25274140347E+02  0.44129256757E+02 -0.55278610334E+03  0.55512039192E+03  0.00000000000E+00 0.  1.
         21    1    1    2  505  501  0.46150784464E+02  0.10620195887E+03 -0.31688900776E+03  0.33738315639E+03  0.00000000000E+00 0.  1.
          1    1    1    2  501    0  0.16150198845E+02 -0.17621445447E+03  0.15955701575E+04  0.16053524505E+04  0.00000000000E+00 0. -1.
<scales pt_clust_3="45.17664" pt_clust_4="77.34714" pt_clust_5="175.84408" pt_clust_6="14000.00000"></scales>
<clustering>
<clus scale="   45.177">  2  3  1 -1</clus>
<clus scale="   77.347">  2  4  1 -1</clus>
<clus scale="  175.844">  2  5  1 -1</clus>
<clus scale="   45.177">  2  3  1 -1</clus>
</clustering>
</event>
<event>
 6    0  0.2433432E+002  0.1949809E+03  0.7546771E-02  0.1154044E+00
         -1   -1    0    0    0  501 -0.00000000000E+00  0.00000000000E+00  0.47575222017E+03  0.47575222017E+03  0.00000000000E+00 0.  1.
         21   -1    0    0  504  502  0.00000000000E+00 -0.00000000000E+00 -0.10884757896E+04  0.10884757896E+04  0.00000000000E+00 0. -1.
         21    1    1    2  503  501 -0.84666157207E+02  0.90320347381E+02 -0.19916287236E+02  0.12539051728E+03  0.00000000000E+00 0.  1.
         21    1    1    2  504  505  0.13071159398E+03 -0.13066216950E+03 -0.94091750136E+03  0.95889721436E+03  0.00000000000E+00 0. -1.
         21    1    1    2  505  503 -0.94256198137E+02  0.33327610557E+02 -0.25493066312E+02  0.10317391600E+03  0.00000000000E+00 0. -1.
         -1    1    1    2    0  502  0.48210761364E+02  0.70142115603E+01  0.37360328550E+03  0.37676636211E+03  0.00000000000E+00 0.  1.
<scales pt_clust_3="48.20668" pt_clust_4="187.45632" pt_clust_5="48.20668" pt_clust_6="48.71834"></scales>
<clustering>
<clus scale="   48.207">  3  5 -1 -1</clus>
<clus scale="   48.718">  1  6  2 -1</clus>
<clus scale="  187.456">  2  4  1 -1</clus>
<clus scale="  187.456">  2  3  1 -1</clus>
</clustering>
</event>
<event>
 6    0  0.2433432E+002  0.6596064E+02  0.7546771E-02  0.1374394E+00
         21   -1    0    0  503  502  0.00000000000E+00  0.00000000000E+00  0.21434044042E+03  0.21434044042E+03  0.00000000000E+00 0.  1.
         -4   -1    0    0    0  501 -0.00000000000E+00 -0.00000000000E+00 -0.21056289546E+04  0.21056289546E+04  0.00000000000E+00 0. -1.
         21    1    1    2  503  501 -0.10389509818E+03 -0.11619493926E+02  0.57623806216E+02  0.11937213707E+03  0.00000000000E+00 0.  1.
         21    1    1    2  504  502  0.51445018410E+02  0.11794475295E+02  0.10141139525E+03  0.11432397235E+03  0.00000000000E+00 0.  1.
         21    1    1    2  505  504  0.83373963102E+02  0.14346196961E+02 -0.82544082585E+02  0.11819710936E+03  0.00000000000E+00 0.  1.
         -4    1    1    2    0  505 -0.30923883329E+02 -0.14521178329E+02 -0.19677796331E+04  0.19680761762E+04  0.00000000000E+00 0. -1.
<scales pt_clust_3="14000.00000" pt_clust_4="51.21547" pt_clust_5="65.96064" pt_clust_6="34.16359"></scales>
<clustering>
<clus scale="   34.164">  2  6  1 -1</clus>
<clus scale="   51.215">  1  4  2 -1</clus>
<clus scale="   65.961">  2  5  1 -1</clus>
<clus scale="   51.215">  1  3  2 -1</clus>
</clustering>
</event>
<event>
 6    0  0.2433432E+002  0.9023076E+02  0.7546771E-02  0.1302294E+00
          2   -1    0    0  504    0 -0.00000000000E+00  0.00000000000E+00  0.97996923700E+03  0.97996923700E+03  0.00000000000E+00 0. -1.
         21   -1    0    0  503  502  0.00000000000E+00 -0.00000000000E+00 -0.37985599503E+02  0.37985599503E+02  0.00000000000E+00 0.  1.
         21    1    1    2  503  501  0.67837968535E+02 -0.31478479681E+02  0.37575120257E+02  0.83694529811E+02  0.00000000000E+00 0.  1.
         21    1    1    2  504  505 -0.14668669330E+02  0.28646622327E+02  0.86106319298E+02  0.91924409455E+02  0.00000000000E+00 0. -1.
         21    1    1    2  505  502  0.29897900033E+02  0.48325111106E+02  0.80825404821E+02  0.98802565018E+02  0.00000000000E+00 0. -1.
          2    1    1    2  501    0 -0.83067199237E+02 -0.45493253752E+02  0.73747679313E+03  0.74353333222E+03  0.00000000000E+00 0. -1.
<scales pt_clust_3="90.23076" pt_clust_4="32.18383" pt_clust_5="58.56970" pt_clust_6="14000.00000"></scales>
<clustering>
<clus scale="   32.184">  1  4  2 -1</clus>
<clus scale="   58.570">  2  5  1 -1</clus>
<clus scale="   90.231">  2  3  1 -1</clus>
<clus scale="   58.570">  2  3  1 -1</clus>
</clustering>
</event>
<event>
 6    0  0.2433432E+002  0.9511313E+02  0.7546771E-02  0.1290921E+00
         -4   -1    0    0    0  501 -0.00000000000E+00  0.00000000000E+00  0.56857599518E+03  0.56857599518E+03  0.00000000000E+00 0.  1.
         21   -1    0    0  503  502  0.00000000000E+00 -0.00000000000E+00 -0.29324555113E+03  0.29324555113E+03  0.00000000000E+00 0.  1.
         21    1    1    2  503  501  0.47528184021E+02 -0.49630477020E+02 -0.25540485845E+02  0.73310496811E+02  0.00000000000E+00 0.  1.
         21    1    1    2  504  502  0.33881687663E+02 -0.18808231630E+02 -0.89648260134E+02  0.97665392443E+02  0.00000000000E+00 0.  1.
         21    1    1    2  505  504 -0.14325181909E+03  0.24335179611E+02 -0.11147385915E+03  0.18313848834E+03  0.00000000000E+00 0.  1.
         -4    1    1    2    0  505  0.61841947403E+02  0.44103529038E+02  0.50199304918E+03  0.50770716871E+03  0.00000000000E+00 0.  1.
<scales pt_clust_3="14000.00000" pt_clust_4="38.75201" pt_clust_5="95.11313" pt_clust_6="76.19773"></scales>
<clustering>
<clus scale="   38.752">  2  4  1 -1</clus>
<clus scale="   76.198">  1  6  2 -1</clus>
<clus scale="   95.113">  2  5  1 -1</clus>
<clus scale="   38.752">  2  3  1 -1</clus>
</clustering>
</event>
<event>
 6    0  0.2433432E+002  0.1254553E+03  0.7546771E-02  0.1234359E+00
         21   -1    0    0  505  502  0.00000000000E+00  0.00000000000E+00  0.28607710939E+03  0.28607710939E+03  0.00000000000E+00 0.  1.
          2   -1    0    0  504    0 -0.00000000000E+00 -0.00000000000E+00 -0.12951210574E+04  0.12951210574E+04  0.00000000000E+00 0. -1.
         21    1    1    2  503  502 -0.47426592205E+02 -0.72858613565E+02 -0.18016268861E+02  0.88782009227E+02  0.00000000000E+00 0.  1.
         21    1    1    2  504  503  0.61078116200E+02 -0.64699663137E+02 -0.74580449013E+01  0.89287205816E+02  0.00000000000E+00 0.  1.
         21    1    1    2  505  501 -0.13668755747E+03  0.15869275225E+03  0.15321966063E+03  0.25950557295E+03  0.00000000000E+00 0.  1.
          2    1    1    2  501    0  0.12303603348E+03 -0.21134475551E+02 -0.11367892948E+04  0.11436233788E+04  0.00000000000E+00 0. -1.
<scales pt_clust_3="86.93480" pt_clust_4="93.33296" pt_clust_5="125.45529" pt_clust_6="14000.00000"></scales>
<clustering>
<clus scale="   86.935">  1  3  2 -1</clus>
<clus scale="   93.333">  1  4  2 -1</clus>
<clus scale="  125.455">  1  5  2 -1</clus>
<clus scale="   86.935">  1  3  2 -1</clus>
</clustering>
</event>
<event>
 6    0  0.2433432E+002  0.1258646E+03  0.7546771E-02  0.1233724E+00
         21   -1    0    0  503  502  0.00000000000E+00  0.00000000000E+00  0.41799355960E+03  0.41799355960E+03  0.00000000000E+00 0. -1.
         -2   -1    0    0    0  501 -0.00000000000E+00 -0.00000000000E+00 -0.15132506027E+03  0.15132506027E+03  0.00000000000E+00 0.  1.
         21    1    1    2  503  501 -0.80937040320E+01 -0.38412087711E+02  0.84443625169E+02  0.93122083090E+02  0.00000000000E+00 0. -1.
         21    1    1    2  504  505  0.90036228908E+02  0.74004839574E+02  0.10179155916E+03  0.15474094582E+03  0.00000000000E+00 0. -1.
         21    1    1    2  505  502  0.35454793195E+02  0.18536904876E+02  0.16314863682E+03  0.16798254939E+03  0.00000000000E+00 0. -1.
         -2    1    1    2    0  504 -0.11739731807E+03 -0.54129656738E+02 -0.82715321818E+02  0.15347304158E+03  0.00000000000E+00 0.  1.
<scales pt_clust_3="39.25553" pt_clust_4="125.86464" pt_clust_5="31.39405" pt_clust_6="14000.00000"></scales>
<clustering>
<clus scale="   39.256">  1  3  2 -1</clus>
<clus scale="   31.394">  1  5  2 -1</clus>
<clus scale="  125.865">  1  4  2 -1</clus>
<clus scale="   39.256">  1  3  2 -1</clus>
</clustering>
</event>
<event>
 6    0  0.2433432E+002  0.9031737E+02  0.7546771E-02  0.1302085E+00
         -1   -1    0    0    0  501 -0.00000000000E+00  0.00000000000E+00  0.23357020003E+03  0.23357020003E+03  0.00000000000E+00 0. -1.
         21   -1    0    0  504  502  0.00000000000E+00 -0.00000000000E+00 -0.37339115311E+03  0.37339115311E+03  0.00000000000E+00 0. -1.
         21    1    1    2  503  502 -0.41974141046E+02 -0.11985942974E+02 -0.26419363234E+03  0.26777559022E+03  0.00000000000E+00 0. -1.
         21    1    1    2  504  505  0.75870109500E+01  0.90699090975E+02 -0.46946828318E+02  0.10241041221E+03  0.00000000000E+00 0. -1.
         21    1    1    2  505  501 -0.25573485374E+01  0.36982798912E+02  0.18085134952E+02  0.41247297525E+02  0.00000000000E+00 0. -1.
         -1    1    1    2    0  503  0.36944478633E+02 -0.11569594691E+03  0.15323437263E+03  0.19552805320E+03  0.00000000000E+00 0. -1.
<scales pt_clust_3="43.58550" pt_clust_4="14000.00000" pt_clust_5="37.07111" pt_clust_6="90.31737"></scales>
<clustering>
<clus scale="   37.071">  1  5  2 -1</clus>
<clus scale="   43.586">  2  3  1 -1</clus>
<clus scale="   90.317">  1  6  2 -1</clus>
<clus scale="   43.586">  2  3  1 -1</clus>
</clustering>
</event>
<event>
 6    0  0.2433432E+002  0.1292288E+03  0.7546771E-02  0.1228605E+00
         21   -1    0    0  503  502  0.00000000000E+00  0.00000000000E+00  0.52613065912E+03  0.52613065912E+03  0.00000000000E+00 0. -1.
          2   -1    0    0  505    0 -0.00000000000E+00 -0.00000000000E+00 -0.22119492171E+03  0.22119492171E+03  0.00000000000E+00 0. -1.
         21    1    1    2  503  504  0.10897443182E+03  0.10244452382E+03  0.31061556883E+03  0.34474967563E+03  0.00000000000E+00 0. -1.
         21    1    1    2  504  501 -0.10485181112E+03 -0.40981831861E+02  0.12707629135E+03  0.16976983437E+03  0.00000000000E+00 0.  1.
         21    1    1    2  505  502 -0.27400787254E+02  0.34614614037E+02  0.21879536095E+02  0.49271581533E+02  0.00000000000E+00 0. -1.
          2    1    1    2  501    0  0.23278166554E+02 -0.96077305994E+02 -0.15463565887E+03  0.18353448929E+03  0.00000000000E+00 0. -1.
<scales pt_clust_3="14000.00000" pt_clust_4="129.22877" pt_clust_5="44.14719" pt_clust_6="97.67763"></scales>
<clustering>
<clus scale="   44.147">  1  5  2 -1</clus>
<clus scale="   97.678">  2  6  1 -1</clus>
<clus scale="  129.229">  2  4  1 -1</clus>
<clus scale="   44.147">  1  3  2 -1</clus>
</clustering>
</event>
<event>
 6    0  0.2433432E+002  0.1280470E+03  0.7546771E-02  0.1230383E+00
         21   -1    0    0  501  502  0.00000000000E+00  0.00000000000E+00  0.20031260845E+04  0.20031260845E+04  0.00000000000E+00 0. -1.
          4   -1    0    0  504    0 -0.00000000000E+00 -0.00000000000E+00 -0.31958876645E+02  0.31958876645E+02  0.00000000000E+00 0. -1.
         21    1    1    2  503  502 -0.16976594355E+02 -0.37431823534E+02  0.15009885237E+04  0.15015511628E+04  0.00000000000E+00 0. -1.
         21    1    1    2  504  505  0.71759068983E+02 -0.37075150786E+02  0.94040933800E+02  0.12396623741E+03  0.00000000000E+00 0. -1.
         21    1    1    2  505  503  0.23428421925E+02 -0.24480240044E+02  0.10887491680E+03  0.11402596465E+03  0.00000000000E+00 0. -1.
          4    1    1    2  501    0 -0.78210896552E+02  0.98987214364E+02  0.26726283356E+03  0.29554159631E+03  0.00000000000E+00 0. -1.
<scales pt_clust_3="41.10166" pt_clust_4="33.12609" pt_clust_5="33.12609" pt_clust_6="117.38954"></scales>
<clustering>
<clus scale="   33.126">  4  5 -1 -1</clus>
<clus scale="   41.102">  1  3  2 -1</clus>
<clus scale="  117.390">  1  6  2 -1</clus>
<clus scale="   41.102">  1  3  2 -1</clus>
</clustering>
</event>
<event>
 6    0  0.2433432E+002  0.6665565E+02  0.7546771E-02  0.1371850E+00
         21   -1    0    0  505  502  0.00000000000E+00  0.00000000000E+00  0.60121318285E+02  0.60121318285E+02  0.00000000000E+00 0.  1.
          2   -1    0    0  503    0 -0.00000000000E+00 -0.00000000000E+00 -0.14237573447E+04  0.14237573447E+04  0.00000000000E+00 0.  1.
         21    1    1    2  503  504 -0.45784653857E+02 -0.65498916242E+02 -0.10029228303E+03  0.12823760990E+03  0.00000000000E+00 0.  1.
         21    1    1    2  504  502 -0.55624686548E+02  0.50317831683E+01 -0.49273118442E+02  0.74479962382E+02  0.00000000000E+00 0.  1.
         21    1    1    2  505  501  0.73235750900E+02  0.92656032261E+00 -0.84330963376E+01  0.73725510088E+02  0.00000000000E+00 0.  1.
          2    1    1    2  501    0  0.28173589505E+02  0.59540572751E+02 -0.12056375287E+04  0.12074355807E+04  0.00000000000E+00 0.  1.
<scales pt_clust_3="66.65565" pt_clust_4="55.85181" pt_clust_5="35.29322" pt_clust_6="14000.00000"></scales>
<clustering>
<clus scale="   55.852">  1  4  2 -1</clus>
<clus scale="   35.293">  1  5  2 -1</clus>
<clus scale="   66.656">  1  3  2 -1</clus>
<clus scale="   55.852">  1  3  2 -1</clus>
</clustering>
</event>
<event>
 6    0  0.2433432E+002  0.9602562E+02  0.7546771E-02  0.1288883E+00
         21   -1    0    0  503  502  0.00000000000E+00  0.00000000000E+00  0.34126901598E+03  0.34126901598E+03  0.00000000000E+00 0.  1.
          2   -1    0    0  505    0 -0.00000000000E+00 -0.00000000000E+00 -0.90490640816E+03  0.90490640816E+03  0.00000000000E+00 0. -1.
         21    1    1    2  503  501  0.24403226154E+02  0.47108126598E+02  0.22791783266E+03  0.23401117811E+03  0.00000000000E+00 0.  1.
         21    1    1    2  504  502  0.30807103376E+02  0.27290164557E+02  0.63836688415E+02  0.75953627219E+02  0.00000000000E+00 0.  1.
         21    1    1    2  505  504 -0.60256322700E+02  0.22079551182E+02  0.10429286273E+02  0.65016159667E+02  0.00000000000E+00 0.  1.
          2    1    1    2  501    0  0.50459931702E+01 -0.96477842337E+02 -0.86582119952E+03  0.87119445915E+03  0.00000000000E+00 0. -1.
<scales pt_clust_3="14000.00000" pt_clust_4="41.15617" pt_clust_5="61.66439" pt_clust_6="96.02562"></scales>
<clustering>
<clus scale="   41.156">  1  4  2 -1</clus>
<clus scale="   61.664">  1  5  2 -1</clus>
<clus scale="   96.026">  2  6  1 -1</clus>
<clus scale="   41.156">  1  3  2 -1</clus>
</clustering>
</event>
<event>
 6    0  0.2433432E+002  0.6550723E+02  0.7546771E-02  0.1376074E+00
          2   -1    0    0  504    0 -0.00000000000E+00  0.00000000000E+00  0.11135276229E+04  0.11135276229E+04  0.00000000000E+00 0.  1.
         21   -1    0    0  501  502  0.00000000000E+00 -0.00000000000E+00 -0.45215523048E+03  0.45215523048E+03  0.00000000000E+00 0. -1.
         21    1    1    2  503  505  0.10416814482E+03  0.47576394724E+02  0.27110247797E+03  0.29429758628E+03  0.00000000000E+00 0. -1.
         21    1    1    2  504  503 -0.11917572364E+02  0.31193102278E+02  0.37614873471E+03  0.37762800317E+03  0.00000000000E+00 0.  1.
         21    1    1    2  505  502 -0.41435407980E+02 -0.50320401281E+02 -0.43551459408E+03  0.44036575421E+03  0.00000000000E+00 0. -1.
          2    1    1    2  501    0 -0.50815164479E+02 -0.28449095721E+02  0.44963577380E+03  0.45339150970E+03  0.00000000000E+00 0.  1.
<scales pt_clust_3="65.50723" pt_clust_4="33.39219" pt_clust_5="14000.00000" pt_clust_6="58.86395"></scales>
<clustering>
<clus scale="   33.392">  1  4  2 -1</clus>
<clus scale="   58.864">  1  6  2 -1</clus>
<clus scale="   65.507">  1  3  2 -1</clus>
<clus scale="   65.507">  2  3  1 -1</clus>
</clustering>
</event>
<event>
 6    0  0.2433432E+002  0.7745116E+02  0.7546771E-02  0.1336444E+00
         21   -1    0    0  503  502  0.00000000000E+00  0.00000000000E+00  0.12131186941E+04  0.12131186941E+04  0.00000000000E+00 0. -1.
         -2   -1    0    0    0  501 -0.00000000000E+00 -0.00000000000E+00 -0.11034482365E+03  0.11034482365E+03  0.00000000000E+00 0.  1.
         21    1    1    2  503  505  0.38289688604E+02 -0.34078229774E+02  0.52820545091E+03  0.53068674788E+03  0.00000000000E+00 0. -1.
         21    1    1    2  504  501 -0.49684724449E+02  0.10791593913E+03  0.54266254749E+03  0.55551513230E+03  0.00000000000E+00 0. -1.
         21    1    1    2  505  504 -0.47341360604E+02 -0.24650204320E+02  0.11344738052E+03  0.12537601503E+03  0.00000000000E+00 0. -1.
         -2    1    1    2    0  502  0.58736396449E+02 -0.49187505035E+02 -0.81541508495E+02  0.11188562252E+03  0.00000000000E+00 0.  1.
<scales pt_clust_3="51.25842" pt_clust_4="77.45116" pt_clust_5="50.88439" pt_clust_6="14000.00000"></scales>
<clustering>
<clus scale="   51.258">  1  3  2 -1</clus>
<clus scale="   50.884">  1  5  2 -1</clus>
<clus scale="   77.451">  1  4  2 -1</clus>
<clus scale="   51.258">  1  3  2 -1</clus>
</clustering>
</event>
<event>
 6    0  0.2433432E+002  0.8533547E+02  0.7546771E-02  0.1314558E+00
          1   -1    0    0  503    0 -0.00000000000E+00  0.00000000000E+00  0.39164711201E+04  0.39164711201E+04  0.00000000000E+00 0.  1.
         21   -1    0    0  504  502  0.00000000000E+00 -0.00000000000E+00 -0.93717324600E+01  0.93717324600E+01  0.00000000000E+00 0.  1.
         21    1    1    2  503  505  0.23270401786E+02  0.36572864554E+02  0.98049109779E+03  0.98144886717E+03  0.00000000000E+00 0.  1.
         21    1    1    2  504  501  0.55522932530E+01 -0.36225436762E+02  0.62310111529E+02  0.72288728220E+02  0.00000000000E+00 0.  1.
         21    1    1    2  505  502 -0.94668811440E+02  0.28610988897E+02  0.73876898268E+03  0.74535923038E+03  0.00000000000E+00 0.  1.
          1    1    1    2  501    0  0.65846116400E+02 -0.28958416689E+02  0.21255291956E+04  0.21267460267E+04  0.00000000000E+00 0.  1.
<scales pt_clust_3="40.42047" pt_clust_4="36.64847" pt_clust_5="85.33547" pt_clust_6="14000.00000"></scales>
<clustering>
<clus scale="   36.648">  2  4  1 -1</clus>
<clus scale="   40.420">  1  3  2 -1</clus>
<clus scale="   85.335">  2  5  1 -1</clus>
<clus scale="   36.648">  2  3  1 -1</clus>
</clustering>
</event>
<event>
 6    0  0.2433432E+002  0.1370603E+03  0.7546771E-02  0.1217340E+00
         21   -1    0    0  501  502  0.00000000000E+00  0.00000000000E+00  0.82272957289E+02  0.82272957289E+02  0.00000000000E+00 0. -1.
          1   -1    0    0  503    0 -0.00000000000E+00 -0.00000000000E+00 -0.55794169752E+03  0.55794169752E+03  0.00000000000E+00 0. -1.
         21    1    1    2  503  505  0.36487731400E+02  0.36032027967E+02 -0.18699000200E+02  0.54583094366E+02  0.00000000000E+00 0. -1.
         21    1    1    2  504  502 -0.73194273746E+01  0.38183838918E+02  0.16937456104E+01  0.38915913786E+02  0.00000000000E+00 0. -1.
         21    1    1    2  505  504  0.75700814556E+02  0.47886810311E+01 -0.67924106144E+01  0.76155640844E+02  0.00000000000E+00 0. -1.
          1    1    1    2  501    0 -0.10486911858E+03 -0.79004547916E+02 -0.45187107503E+03  0.47056000581E+03  0.00000000000E+00 0. -1.
<scales pt_clust_3="38.47986" pt_clust_4="38.87904" pt_clust_5="38.47986" pt_clust_6="128.82280"></scales>
<clustering>
<clus scale="   38.480">  3  5 -1 -1</clus>
<clus scale="   38.879">  1  4  2 -1</clus>
<clus scale="  128.823">  2  6  1 -1</clus>
<clus scale="   38.879">  1  3  2 -1</clus>
</clustering>
</event>
<event>
 6    0  0.2433432E+002  0.9686924E+02  0.7546771E-02  0.1287021E+00
         21   -1    0    0  504  502  0.00000000000E+00  0.00000000000E+00  0.16899101446E+03  0.16899101446E+03  0.00000000000E+00 0.  1.
          2   -1    0    0  503    0 -0.00000000000E+00 -0.00000000000E+00 -0.31725771388E+04  0.31725771388E+04  0.00000000000E+00 0. -1.
         21    1    1    2  503  505 -0.30867278326E+02 -0.25770615973E+02 -0.79710193556E+02  0.89278376304E+02  0.00000000000E+00 0.  1.
         21    1    1    2  504  501  0.60938606150E+02  0.50776421668E+02  0.13306900306E+03  0.15491648812E+03  0.00000000000E+00 0.  1.
         21    1    1    2  505  502 -0.24434611676E+02 -0.80178429889E+02 -0.68052979061E+02  0.10796684133E+03  0.00000000000E+00 0. -1.
          2    1    1    2  501    0 -0.56367161490E+01  0.55172624194E+02 -0.29888919548E+04  0.29894064475E+04  0.00000000000E+00 0. -1.
<scales pt_clust_3="36.57329" pt_clust_4="81.21224" pt_clust_5="36.57329" pt_clust_6="55.45981"></scales>
<clustering>
<clus scale="   36.573">  3  5 -1 -1</clus>
<clus scale="   55.460">  2  6  1 -1</clus>
<clus scale="   81.212">  1  4  2 -1</clus>
<clus scale="   81.212">  1  3  2 -1</clus>
</clustering>
</event>
<event>
 6    0  0.2433432E+002  0.1000317E+03  0.7546771E-02  0.1280229E+00
          2   -1    0    0  505    0 -0.00000000000E+00  0.00000000000E+00  0.11227794324E+03  0.11227794324E+03  0.00000000000E+00 0. -1.
         21   -1    0    0  503  502  0.00000000000E+00 -0.00000000000E+00 -0.30838806549E+03  0.30838806549E+03  0.00000000000E+00 0. -1.
         21    1    1    2  503  501 -0.79681904625E+02 -0.12949633229E+02 -0.17581215546E+03  0.19346010683E+03  0.00000000000E+00 0. -1.
         21    1    1    2  504  502 -0.78796157548E+01 -0.46189104847E+02 -0.41995615448E+02  0.62921804391E+02  0.00000000000E+00 0. -1.
         21    1    1    2  505  504  0.12176248095E+02 -0.36478503582E+02  0.18016487817E+02  0.42468059463E+02  0.00000000000E+00 0.  1.
          2    1    1    2  501    0  0.75385272284E+02  0.95617241659E+02  0.36811608433E+01  0.12181603805E+03  0.00000000000E+00 0. -1.
<scales pt_clust_3="14000.00000" pt_clust_4="51.23381" pt_clust_5="38.45702" pt_clust_6="100.03169"></scales>
<clustering>
<clus scale="   38.457">  1  5  2 -1</clus>
<clus scale="   51.234">  2  4  1 -1</clus>
<clus scale="  100.032">  1  6  2 -1</clus>
<clus scale="   51.234">  2  3  1 -1</clus>
</clustering>
</event>
<event>
 6    0  0.2433432E+002  0.1095787E+03  0.7546771E-02  0.1261352E+00
         21   -1    0    0  503  502  0.00000000000E+00  0.00000000000E+00  0.77300917355E+03  0.77300917355E+03  0.00000000000E+00 0. -1.
          4   -1    0    0  505    0 -0.00000000000E+00 -0.00000000000E+00 -0.19733351349E+03  0.19733351349E+03  0.00000000000E+00 0. -1.
         21    1    1    2  503  504 -0.23859279206E+02  0.22454896729E+02  0.48337133642E+02  0.58394914848E+02  0.00000000000E+00 0. -1.
         21    1    1    2  504  501  0.71900814213E+02  0.48781506108E+02  0.57738563190E+01  0.87078699115E+02  0.00000000000E+00 0. -1.
         21    1    1    2  505  502 -0.84897956110E+02 -0.64320466940E+02  0.66660433692E+03  0.67506009171E+03  0.00000000000E+00 0. -1.
          4    1    1    2  501    0  0.36856421103E+02 -0.69159358972E+01 -0.14503966682E+03  0.14980898137E+03  0.00000000000E+00 0. -1.
<scales pt_clust_3="32.76412" pt_clust_4="109.57874" pt_clust_5="14000.00000" pt_clust_6="37.40830"></scales>
<clustering>
<clus scale="   32.764">  1  3  2 -1</clus>
<clus scale="   37.408">  2  6  1 -1</clus>
<clus scale="  109.579">  2  4  1 -1</clus>
<clus scale="   32.764">  1  3  2 -1</clus>
</clustering>
</event>
<event>
 6    0  0.2433432E+002  0.1423321E+03  0.7546771E-02  0.1210225E+00
         21   -1    0    0  501  502  0.00000000000E+00  0.00000000000E+00  0.44514563998E+03  0.44514563998E+03  0.00000000000E+00 0. -1.
          2   -1    0    0  505    0 -0.00000000000E+00 -0.00000000000E+00 -0.52042841929E+03  0.52042841929E+03  0.00000000000E+00 0. -1.
         21    1    1    2  503  502 -0.28515642324E+02 -0.23698531185E+02  0.16800244347E+03  0.17204529418E+03  0.00000000000E+00 0. -1.
         21    1    1    2  504  503  0.13415467684E+03  0.30621495863E+02  0.19150056942E+03  0.23581268290E+03  0.00000000000E+00 0. -1.
         21    1    1    2  505  504  0.15098496619E+02  0.32617395987E+02  0.47166036286E+02  0.59300034571E+02  0.00000000000E+00 0. -1.
          2    1    1    2  501    0 -0.12073753114E+03 -0.39540360665E+02 -0.48195182848E+03  0.49841604762E+03  0.00000000000E+00 0. -1.
<scales pt_clust_3="37.07779" pt_clust_4="31.72839" pt_clust_5="31.72839" pt_clust_6="128.07940"></scales>
<clustering>
<clus scale="   31.728">  4  5 -1 -1</clus>
<clus scale="   37.078">  1  3  2 -1</clus>
<clus scale="  128.079">  2  6  1 -1</clus>
<clus scale="   37.078">  1  3  2 -1</clus>
</clustering>
</event>
<event>
 6    0  0.2433432E+002  0.8587093E+02  0.7546771E-02  0.1313171E+00
         21   -1    0    0  503  502  0.00000000000E+00  0.00000000000E+00  0.15415239515E+04  0.15415239515E+04  0.00000000000E+00 0.  1.
          2   -1    0    0  504    0 -0.00000000000E+00 -0.00000000000E+00 -0.17557515257E+04  0.17557515257E+04  0.00000000000E+00 0.  1.
         21    1    1    2  503  505 -0.30390582289E+02 -0.10560378702E+02  0.10701870588E+04  0.10706705609E+04  0.00000000000E+00 0.  1.
         21    1    1    2  504  502 -0.87629790422E+02  0.80433451881E+02  0.25075618369E+03  0.27753771637E+03  0.00000000000E+00 0.  1.
         21    1    1    2  505  501  0.45653630103E+02 -0.23879416986E+02  0.20266798694E+03  0.20911430708E+03  0.00000000000E+00 0.  1.
          2    1    1    2  501    0  0.72366742609E+02 -0.45993656193E+02 -0.17378388037E+04  0.17399528929E+04  0.00000000000E+00 0.  1.
<scales pt_clust_3="32.17311" pt_clust_4="14000.00000" pt_clust_5="43.12618" pt_clust_6="85.87093"></scales>
<clustering>
<clus scale="   32.173">  1  3  2 -1</clus>
<clus scale="   43.126">  1  5  2 -1</clus>
<clus scale="   85.871">  2  6  1 -1</clus>
<clus scale="   32.173">  1  3  2 -1</clus>
</clustering>
</event>
<event>
 6    0  0.2433432E+002  0.2171952E+03  0.7546771E-02  0.1135992E+00
         21   -1    0    0  505  502  0.00000000000E+00  0.00000000000E+00  0.13834768720E+04  0.13834768720E+04  0.00000000000E+00 0.  1.
         -2   -1    0    0    0  501 -0.00000000000E+00 -0.00000000000E+00 -0.33343028652E+03  0.33343028652E+03  0.00000000000E+00 0. -1.
         21    1    1    2  503  502 -0.11147830484E+02  0.51316352380E+02  0.42665796121E+03  0.42987749187E+03  0.00000000000E+00 0. -1.
         21    1    1    2  504  503 -0.98414210089E+02  0.13060707531E+03  0.86905100377E+03  0.88430380075E+03  0.00000000000E+00 0.  1.
         21    1    1    2  505  501 -0.63596696685E+01 -0.95733706917E+02  0.22124228769E+02  0.98462528593E+02  0.00000000000E+00 0.  1.
         -2    1    1    2    0  504  0.11592171024E+03 -0.86189720774E+02 -0.26778660827E+03  0.30426333732E+03  0.00000000000E+00 0. -1.
<scales pt_clust_3="31.60559" pt_clust_4="31.60559" pt_clust_5="95.94471" pt_clust_6="209.91181"></scales>
<clustering>
<clus scale="   31.606">  3  4 -1 -1</clus>
<clus scale="   95.945">  2  5  1 -1</clus>
<clus scale="  209.912">  2  6  1 -1</clus>
<clus scale="  217.195">  1  3  2 -1</clus>
</clustering>
</event>
<event>
 6    0  0.2433432E+002  0.7333506E+02  0.7546771E-02  0.1349106E+00
          3   -1    0    0  503    0 -0.00000000000E+00  0.00000000000E+00  0.84636700828E+03  0.84636700828E+03  0.00000000000E+00 0.  1.
         21   -1    0    0  504  502  0.00000000000E+00 -0.00000000000E+00 -0.93030066074E+02  0.93030066074E+02  0.00000000000E+00 0.  1.
         21    1    1    2  503  505  0.24273571930E+02 -0.88440885833E+02  0.40334104757E+03  0.41363631034E+03  0.00000000000E+00 0.  1.
         21    1    1    2  504  501  0.11821659714E+02  0.41260737987E+02 -0.70456616971E+02  0.82500515226E+02  0.00000000000E+00 0.  1.
         21    1    1    2  505  502 -0.77219751909E+02  0.11269394254E+02  0.17193368917E+03  0.18881494328E+03  0.00000000000E+00 0.  1.
          3    1    1    2  501    0  0.41124520265E+02  0.35910753592E+02  0.24851882244E+03  0.25444530551E+03  0.00000000000E+00 0.  1.
<scales pt_clust_3="73.33506" pt_clust_4="42.92086" pt_clust_5="14000.00000" pt_clust_6="61.19212"></scales>
<clustering>
<clus scale="   42.921">  2  4  1 -1</clus>
<clus scale="   61.192">  1  6  2 -1</clus>
<clus scale="   73.335">  1  3  2 -1</clus>
<clus scale="   42.921">  2  3  1 -1</clus>
</clustering>
</event>
<event>
 6    0  0.2433432E+002  0.2544406E+03  0.7546771E-02  0.1110530E+00
         21   -1    0    0  503  502  0.00000000000E+00  0.00000000000E+00  0.65887366102E+03  0.65887366102E+03  0.00000000000E+00 0. -1.
         -2   -1    0    0    0  501 -0.00000000000E+00 -0.00000000000E+00 -0.10058509164E+03  0.10058509164E+03  0.00000000000E+00 0. -1.
         21    1    1    2  503  504 -0.57296302747E+02  0.25566099482E+02  0.14072998657E+03  0.15408251319E+03  0.00000000000E+00 0. -1.
         21    1    1    2  504  501 -0.15139789256E+03  0.97298034957E+02  0.21339163705E+03  0.27914910038E+03  0.00000000000E+00 0. -1.
         21    1    1    2  505  502  0.16521294767E+03 -0.12810498073E+03  0.18179463323E+03  0.27704781688E+03  0.00000000000E+00 0. -1.
         -2    1    1    2    0  505  0.43481247640E+02  0.52408462868E+01  0.22372312524E+02  0.49179322217E+02  0.00000000000E+00 0. -1.
<scales pt_clust_3="35.61642" pt_clust_4="249.57465" pt_clust_5="35.72157" pt_clust_6="35.72157"></scales>
<clustering>
<clus scale="   35.616">  3  4 -1 -1</clus>
<clus scale="   35.722">  5  6 -1 -1</clus>
<clus scale="  249.575">  1  3  2 -1</clus>
<clus scale="  249.575">  1  3  2 -1</clus>
</clustering>
</event>
<event>
 6    0  0.2433432E+002  0.1280806E+03  0.7546771E-02  0.1230332E+00
         21   -1    0    0  504  502  0.00000000000E+00  0.00000000000E+00  0.18223232342E+03  0.18223232342E+03  0.00000000000E+00 0.  1.
          2   -1    0    0  505    0 -0.00000000000E+00 -0.00000000000E+00 -0.57784909228E+03  0.57784909228E+03  0.00000000000E+00 0. -1.
         21    1    1    2  503  502 -0.17191339876E+02  0.25072895261E+02 -0.22574984953E+02  0.37865844624E+02  0.00000000000E+00 0.  1.
         21    1    1    2  504  501  0.10944782214E+03  0.29319281832E+02  0.13132431375E+03  0.17344890152E+03  0.00000000000E+00 0.  1.
         21    1    1    2  505  503  0.59842687864E+01  0.29909329784E+02 -0.26477824785E+01  0.30616829246E+02  0.00000000000E+00 0.  1.
          2    1    1    2  501    0 -0.98240751046E+02 -0.84301506877E+02 -0.50171831518E+03  0.51814984031E+03  0.00000000000E+00 0. -1.
<scales pt_clust_3="30.03383" pt_clust_4="128.08064" pt_clust_5="63.66858" pt_clust_6="14000.00000"></scales>
<clustering>
<clus scale="   30.034">  3  5 -1 -1</clus>
<clus scale="   63.669">  1  3  2 -1</clus>
<clus scale="  128.081">  1  4  2 -1</clus>
<clus scale="   63.669">  1  3  2 -1</clus>
</clustering>
</event>
<event>
 6    0  0.2433432E+002  0.2155912E+03  0.7546771E-02  0.1137213E+00
         21   -1    0    0  504  502  0.00000000000E+00  0.00000000000E+00  0.49438636167E+03  0.49438636167E+03  0.00000000000E+00 0.  1.
          1   -1    0    0  505    0 -0.00000000000E+00 -0.00000000000E+00 -0.72239914780E+03  0.72239914780E+03  0.00000000000E+00 0. -1.
         21    1    1    2  503  501 -0.76259179557E+02 -0.19651927987E+02  0.11415858857E+03  0.13868613515E+03  0.00000000000E+00 0. -1.
         21    1    1    2  504  503 -0.12728322808E+03 -0.96651597219E+02  0.25801739710E+03  0.30350540127E+03  0.00000000000E+00 0.  1.
         21    1    1    2  505  502  0.11319121568E+03 -0.74924724538E+02  0.26112134943E+01  0.13576738964E+03  0.00000000000E+00 0. -1.
          1    1    1    2  501    0  0.90351191960E+02  0.19122824974E+03 -0.60279998529E+03  0.63882658340E+03  0.00000000000E+00 0. -1.
<scales pt_clust_3="31.87822" pt_clust_4="31.87822" pt_clust_5="135.74228" pt_clust_6="210.75388"></scales>
<clustering>
<clus scale="   31.878">  3  4 -1 -1</clus>
<clus scale="  135.742">  1  5  2 -1</clus>
<clus scale="  210.754">  2  6  1 -1</clus>
<clus scale="  135.742">  1  3  2 -1</clus>
</clustering>
</event>
<event>
 6    0  0.2433432E+002  0.1486331E+03  0.7546771E-02  0.1202163E+00
          2   -1    0    0  503    0 -0.00000000000E+00  0.00000000000E+00  0.16539257956E+04  0.16539257956E+04  0.00000000000E+00 0.  1.
         21   -1    0    0  504  502  0.00000000000E+00 -0.00000000000E+00 -0.12224978023E+03  0.12224978023E+03  0.00000000000E+00 0. -1.
         21    1    1    2  503  505  0.15131896434E+02 -0.84044509929E+02  0.33970417732E+03  0.35027329619E+03  0.00000000000E+00 0. -1.
         21    1    1    2  504  501 -0.12646075356E+03  0.11098939468E+02  0.15150411263E+03  0.19765880904E+03  0.00000000000E+00 0. -1.
         21    1    1    2  505  502 -0.35131560291E+02  0.15155857921E+02 -0.84264478194E+02  0.92544199402E+02  0.00000000000E+00 0. -1.
          2    1    1    2  501    0  0.14646041742E+03  0.57789712540E+02  0.11247322036E+04  0.11356992712E+04  0.00000000000E+00 0.  1.
<scales pt_clust_3="82.24578" pt_clust_4="14000.00000" pt_clust_5="38.26129" pt_clust_6="148.63314"></scales>
<clustering>
<clus scale="   38.261">  2  5  1 -1</clus>
<clus scale="   82.246">  1  3  2 -1</clus>
<clus scale="  148.633">  1  6  2 -1</clus>
<clus scale="   38.261">  2  3  1 -1</clus>
</clustering>
</event>
<event>
 6    0  0.2433432E+002  0.9463965E+02  0.7546771E-02  0.1291990E+00
          2   -1    0    0  505    0 -0.00000000000E+00  0.00000000000E+00  0.18869677973E+04  0.18869677973E+04  0.00000000000E+00 0.  1.
         21   -1    0    0  504  502  0.00000000000E+00 -0.00000000000E+00 -0.35754755660E+02  0.35754755660E+02  0.00000000000E+00 0. -1.
         21    1    1    2  503  502  0.65709632981E+01 -0.66472951167E+02  0.12550418545E+03  0.14217289250E+03  0.00000000000E+00 0. -1.
         21    1    1    2  504  501  0.87082258666E+01  0.75543639803E+02  0.46616327310E+02  0.89195048541E+02  0.00000000000E+00 0. -1.
         21    1    1    2  505  503 -0.30034239486E+02 -0.53313913676E+02  0.15635025726E+03  0.16789827837E+03  0.00000000000E+00 0. -1.
          2    1    1    2  501    0  0.14755050322E+02  0.44243225040E+02  0.15227422716E+04  0.15234563335E+04  0.00000000000E+00 0.  1.
<scales pt_clust_3="40.63874" pt_clust_4="84.58059" pt_clust_5="40.63874" pt_clust_6="46.63877"></scales>
<clustering>
<clus scale="   40.639">  3  5 -1 -1</clus>
<clus scale="   46.639">  1  6  2 -1</clus>
<clus scale="   84.581">  2  4  1 -1</clus>
<clus scale="   84.581">  2  3  1 -1</clus>
</clustering>
</event>
<event>
 6    0  0.2433432E+002  0.1400957E+03  0.7546771E-02  0.1213200E+00
          2   -1    0    0  502    0 -0.00000000000E+00  0.00000000000E+00  0.25336133303E+04  0.25336133303E+04  0.00000000000E+00 0. -1.
         21   -1    0    0  504  502  0.00000000000E+00 -0.00000000000E+00 -0.79250677486E+02  0.79250677486E+02  0.00000000000E+00 0.  1.
         21    1    1    2  503  505  0.35964100137E+02  0.14635891583E+02  0.15510114311E+03  0.15988743045E+03  0.00000000000E+00 0. -1.
         21    1    1    2  504  503 -0.61582153392E+02 -0.11551716003E+03 -0.11740543995E+02  0.13143217358E+03  0.00000000000E+00 0.  1.
         21    1    1    2  505  501  0.10339152037E+03  0.17671740519E+02  0.94544693944E+03  0.95124760825E+03  0.00000000000E+00 0.  1.
          2    1    1    2  501    0 -0.77773467114E+02  0.83209527926E+02  0.13655551143E+04  0.13702967955E+04  0.00000000000E+00 0. -1.
<scales pt_clust_3="33.05258" pt_clust_4="129.13397" pt_clust_5="33.05258" pt_clust_6="113.89705"></scales>
<clustering>
<clus scale="   33.053">  3  5 -1 -1</clus>
<clus scale="  113.897">  1  6  2 -1</clus>
<clus scale="  129.134">  2  4  1 -1</clus>
<clus scale="  129.134">  2  3  1 -1</clus>
</clustering>
</event>
<event>
 6    0  0.2433432E+002  0.1515293E+03  0.7546771E-02  0.1198606E+00
         -4   -1    0    0    0  501 -0.00000000000E+00  0.00000000000E+00  0.19712724193E+04  0.19712724193E+04  0.00000000000E+00 0.  1.
         21   -1    0    0  505  502  0.00000000000E+00 -0.00000000000E+00 -0.14707409697E+03  0.14707409697E+03  0.00000000000E+00 0. -1.
         21    1    1    2  503  504  0.63169622750E+02 -0.70603452222E+01  0.17995077381E+02  0.66061127170E+02  0.00000000000E+00 0. -1.
         21    1    1    2  504  501  0.87973499301E+02 -0.43945264985E+02  0.10550592959E+03  0.14422906806E+03  0.00000000000E+00 0. -1.
         21    1    1    2  505  503 -0.11556163215E+03  0.69541250048E+02 -0.59491724433E+02  0.14741011349E+03  0.00000000000E+00 0. -1.
         -4    1    1    2    0  502 -0.35581489899E+02 -0.18535639842E+02  0.17601890397E+04  0.17606462075E+04  0.00000000000E+00 0.  1.
<scales pt_clust_3="48.21233" pt_clust_4="48.21233" pt_clust_5="139.41830" pt_clust_6="40.11997"></scales>
<clustering>
<clus scale="   40.120">  1  6  2 -1</clus>
<clus scale="   48.212">  3  4 -1 -1</clus>
<clus scale="  139.418">  2  5  1 -1</clus>
<clus scale="  139.418">  2  3  1 -1</clus>
</clustering>
</event>
<event>
 6    0  0.2433432E+002  0.1356121E+03  0.7546771E-02  0.1219358E+00
          1   -1    0    0  505    0 -0.00000000000E+00  0.00000000000E+00  0.18540861642E+04  0.18540861642E+04  0.00000000000E+00 0.  1.
         21   -1    0    0  503  502  0.00000000000E+00 -0.00000000000E+00 -0.14411895063E+03  0.14411895063E+03  0.00000000000E+00 0.  1.
         21    1    1    2  503  501  0.57073139614E+01  0.43386445389E+02 -0.20984804765E+02  0.48531629966E+02  0.00000000000E+00 0.  1.
         21    1    1    2  504  502 -0.63622910245E+02 -0.13946961582E+02 -0.63884128615E+02  0.91233625020E+02  0.00000000000E+00 0.  1.
         21    1    1    2  505  504 -0.63908124152E+02  0.42238012979E+02  0.21617349598E+02  0.79596531813E+02  0.00000000000E+00 0. -1.
          1    1    1    2  501    0  0.12182372044E+03 -0.71677496786E+02  0.17732187974E+04  0.17788433281E+04  0.00000000000E+00 0.  1.
<scales pt_clust_3="43.76022" pt_clust_4="61.90492" pt_clust_5="14000.00000" pt_clust_6="135.61209"></scales>
<clustering>
<clus scale="   43.760">  2  3  1 -1</clus>
<clus scale="   61.905">  2  4  1 -1</clus>
<clus scale="  135.612">  1  6  2 -1</clus>
<clus scale="   43.760">  2  3  1 -1</clus>
</clustering>
</event>
<event>
 6    0  0.2433432E+002  0.1034138E+03  0.7546771E-02  0.1273277E+00
         21   -1    0    0  503  502  0.00000000000E+00  0.00000000000E+00  0.54632616212E+03  0.54632616212E+03  0.00000000000E+00 0. -1.
          2   -1    0    0  504    0 -0.00000000000E+00 -0.00000000000E+00 -0.15911411921E+04  0.15911411921E+04  0.00000000000E+00 0. -1.
         21    1    1    2  503  501 -0.34190648986E+02 -0.74684265338E+02 -0.29173233503E+03  0.30307506541E+03  0.00000000000E+00 0. -1.
         21    1    1    2  504  505  0.11497484237E+03  0.90243458458E+02 -0.41670650104E+03  0.44159642682E+03  0.00000000000E+00 0. -1.
         21    1    1    2  505  502 -0.98197510511E+02  0.33276333904E+02  0.52233242315E+03  0.53252345089E+03  0.00000000000E+00 0. -1.
          2    1    1    2  501    0  0.17413317130E+02 -0.48835527025E+02 -0.85870861706E+03  0.86027241112E+03  0.00000000000E+00 0. -1.
<scales pt_clust_3="98.34616" pt_clust_4="103.41377" pt_clust_5="14000.00000" pt_clust_6="51.84720"></scales>
<clustering>
<clus scale="   51.847">  2  6  1 -1</clus>
<clus scale="   98.346">  2  3  1 -1</clus>
<clus scale="  103.414">  2  4  1 -1</clus>
<clus scale="  103.414">  1  3  2 -1</clus>
</clustering>
</event>
<event>
 6    0  0.2433432E+002  0.8357782E+02  0.7546771E-02  0.1319194E+00
         21   -1    0    0  505  502  0.00000000000E+00  0.00000000000E+00  0.43969957430E+02  0.43969957430E+02  0.00000000000E+00 0.  1.
          1   -1    0    0  503    0 -0.00000000000E+00 -0.00000000000E+00 -0.72976327595E+03  0.72976327595E+03  0.00000000000E+00 0.  1.
         21    1    1    2  503  504 -0.60914547489E+02 -0.13383530048E+02 -0.65514779246E+02  0.90453785282E+02  0.00000000000E+00 0.  1.
         21    1    1    2  504  502 -0.46498964947E+02  0.37113308200E+02 -0.24493740344E+02  0.64338905048E+02  0.00000000000E+00 0.  1.
         21    1    1    2  505  501  0.18371770419E+02 -0.35224756827E+02 -0.41571015881E+02  0.57501780870E+02  0.00000000000E+00 0.  1.
          1    1    1    2  501    0  0.89041742017E+02  0.11494978676E+02 -0.55421378305E+03  0.56143876218E+03  0.00000000000E+00 0.  1.
<scales pt_clust_3="14000.00000" pt_clust_4="40.38126" pt_clust_5="39.72789" pt_clust_6="83.57782"></scales>
<clustering>
<clus scale="   39.728">  1  5  2 -1</clus>
<clus scale="   40.381">  1  4  2 -1</clus>
<clus scale="   83.578">  2  6  1 -1</clus>
<clus scale="   39.728">  1  3  2 -1</clus>
</clustering>
</event>
<event>
 6    0  0.2433432E+002  0.1859256E+03  0.7546771E-02  0.1162188E+00
         21   -1    0    0  501  502  0.00000000000E+00  0.00000000000E+00  0.97222114602E+02  0.97222114602E+02  0.00000000000E+00 0. -1.
          4   -1    0    0  503    0 -0.00000000000E+00 -0.00000000000E+00 -0.12856289487E+04  0.12856289487E+04  0.00000000000E+00 0. -1.
         21    1    1    2  503  505 -0.16414345050E+02  0.48682612025E+02 -0.12324366006E+03  0.13352313351E+03  0.00000000000E+00 0.  1.
         21    1    1    2  504  502  0.55990681696E+02 -0.22735338595E+02 -0.52052683090E+02  0.79757970603E+02  0.00000000000E+00 0. -1.
         21    1    1    2  505  504 -0.22675799443E+03 -0.22678842052E+02 -0.12098510034E+03  0.25801339582E+03  0.00000000000E+00 0. -1.
          4    1    1    2  501    0  0.18718165779E+03 -0.32684313783E+01 -0.89212539061E+03  0.91155656337E+03  0.00000000000E+00 0. -1.
<scales pt_clust_3="51.37536" pt_clust_4="58.56335" pt_clust_5="185.92562" pt_clust_6="14000.00000"></scales>
<clustering>
<clus scale="   51.375">  2  3  1 -1</clus>
<clus scale="   58.563">  1  4  2 -1</clus>
<clus scale="  185.926">  1  5  2 -1</clus>
<clus scale="   58.563">  1  3  2 -1</clus>
</clustering>
</event>
<event>
 6    0  0.2433432E+002  0.1075759E+03  0.7546771E-02  0.1265126E+00
         21   -1    0    0  503  502  0.00000000000E+00  0.00000000000E+00  0.78114319632E+03  0.78114319632E+03  0.00000000000E+00 0.  1.
         -2   -1    0    0    0  501 -0.00000000000E+00 -0.00000000000E+00 -0.15397129134E+03  0.15397129134E+03  0.00000000000E+00 0. -1.
         21    1    1    2  503  501 -0.11095395150E+03  0.63578813899E+02  0.63182225363E+03  0.64463354327E+03  0.00000000000E+00 0.  1.
         21    1    1    2  504  505  0.34618174056E+02  0.35954919887E+02  0.35577609356E+02  0.61293886535E+02  0.00000000000E+00 0. -1.
         21    1    1    2  505  502  0.53514889973E+02  0.63704154241E+01  0.60665694928E+02  0.81146485954E+02  0.00000000000E+00 0.  1.
         -2    1    1    2    0  504  0.22820887473E+02 -0.10590414921E+03 -0.10089365294E+03  0.14804057190E+03  0.00000000000E+00 0. -1.
<scales pt_clust_3="107.57585" pt_clust_4="36.86736" pt_clust_5="105.00708" pt_clust_6="14000.00000"></scales>
<clustering>
<clus scale="   36.867">  4  5 -1 -1</clus>
<clus scale="  105.007">  1  4  2 -1</clus>
<clus scale="  107.576">  1  3  2 -1</clus>
<clus scale="  105.007">  1  3  2 -1</clus>
</clustering>
</event>
<event>
 6    0  0.2433432E+002  0.1534664E+03  0.7546771E-02  0.1196277E+00
         21   -1    0    0  505  502  0.00000000000E+00  0.00000000000E+00  0.74951628131E+03  0.74951628131E+03  0.00000000000E+00 0. -1.
          2   -1    0    0  503    0 -0.00000000000E+00 -0.00000000000E+00 -0.11797340797E+04  0.11797340797E+04  0.00000000000E+00 0.  1.
         21    1    1    2  503  502  0.86662473862E+02  0.13920329598E+03  0.70520496064E+03  0.72401794073E+03  0.00000000000E+00 0. -1.
         21    1    1    2  504  501  0.33500913263E+02 -0.72228714319E+02 -0.35253902225E+03  0.36141812430E+03  0.00000000000E+00 0. -1.
         21    1    1    2  505  504 -0.74048231094E+02 -0.47773078978E+02 -0.35886277225E+02  0.95148476058E+02  0.00000000000E+00 0. -1.
          2    1    1    2  501    0 -0.46115156030E+02 -0.19201502684E+02 -0.74699745955E+03  0.74866581991E+03  0.00000000000E+00 0.  1.
<scales pt_clust_3="14000.00000" pt_clust_4="88.22002" pt_clust_5="153.46642" pt_clust_6="49.95303"></scales>
<clustering>
<clus scale="   49.953">  2  6  1 -1</clus>
<clus scale="   88.220">  2  4  1 -1</clus>
<clus scale="  153.466">  2  5  1 -1</clus>
<clus scale="  153.466">  1  3  2 -1</clus>
</clustering>
</event>
<event>
 6    0  0.2433432E+002  0.2341408E+03  0.7546771E-02  0.1123759E+00
          1   -1    0    0  503    0 -0.00000000000E+00  0.00000000000E+00  0.13345499390E+04  0.13345499390E+04  0.00000000000E+00 0. -1.
         21   -1    0    0  505  502  0.00000000000E+00 -0.00000000000E+00 -0.30518400203E+03  0.30518400203E+03  0.00000000000E+00 0.  1.
         21    1    1    2  503  502 -0.34658612990E+02  0.60874805017E+01  0.27439714563E+02  0.44623030024E+02  0.00000000000E+00 0.  1.
         21    1    1    2  504  501 -0.14007143367E+03 -0.10718092490E+03 -0.56763863286E+02  0.18528327871E+03  0.00000000000E+00 0.  1.
         21    1    1    2  505  504 -0.16254181595E+02 -0.43773941633E+02 -0.16057267941E+03  0.16722422599E+03  0.00000000000E+00 0.  1.
          1    1    1    2  501    0  0.19098422826E+03  0.14486738604E+03  0.12192627651E+04  0.12426034063E+04  0.00000000000E+00 0. -1.
<scales pt_clust_3="35.18916" pt_clust_4="234.14075" pt_clust_5="53.72709" pt_clust_6="14000.00000"></scales>
<clustering>
<clus scale="   35.189">  2  3  1 -1</clus>
<clus scale="   53.727">  2  5  1 -1</clus>
<clus scale="  234.141">  2  4  1 -1</clus>
<clus scale="   35.189">  2  3  1 -1</clus>
</clustering>
</event>
<event>
 6    0  0.2433432E+002  0.8763459E+02  0.7546771E-02  0.1308683E+00
         -4   -1    0    0    0  501 -0.00000000000E+00  0.00000000000E+00  0.24527225556E+03  0.24527225556E+03  0.00000000000E+00 0. -1.
         21   -1    0    0  504  502  0.00000000000E+00 -0.00000000000E+00 -0.57744663255E+03  0.57744663255E+03  0.00000000000E+00 0. -1.
         21    1    1    2  503  502 -0.27991600144E+02 -0.73381310073E+02 -0.14278153001E+03  0.16295677850E+03  0.00000000000E+00 0. -1.
         21    1    1    2  504  505 -0.36288561644E+02  0.38593104850E+02 -0.50222417664E+02  0.72997114218E+02  0.00000000000E+00 0.  1.
         21    1    1    2  505  501  0.14490907217E+03  0.64277495156E+02 -0.33627889496E+03  0.37177107308E+03  0.00000000000E+00 0. -1.
         -4    1    1    2    0  503 -0.80628910381E+02 -0.29489289933E+02  0.19710846564E+03  0.21499392233E+03  0.00000000000E+00 0. -1.
<scales pt_clust_3="73.06378" pt_clust_4="52.97440" pt_clust_5="14000.00000" pt_clust_6="87.63459"></scales>
<clustering>
<clus scale="   52.974">  2  4  1 -1</clus>
<clus scale="   73.064">  2  3  1 -1</clus>
<clus scale="   87.635">  1  6  2 -1</clus>
<clus scale="   52.974">  2  3  1 -1</clus>
</clustering>
</event>
<event>
 6    0  0.2433432E+002  0.1789326E+03  0.7546771E-02  0.1168840E+00
          2   -1    0    0  504    0 -0.00000000000E+00  0.00000000000E+00  0.79625021829E+03  0.79625021829E+03  0.00000000000E+00 0.  1.
         21   -1    0    0  505  502  0.00000000000E+00 -0.00000000000E+00 -0.22187159746E+03  0.22187159746E+03  0.00000000000E+00 0. -1.
         21    1    1    2  503  501  0.13824433085E+03 -0.62840102741E+02  0.65707151685E+02  0.16546239242E+03  0.00000000000E+00 0. -1.
         21    1    1    2  504  502  0.98584320683E+01 -0.28478520599E+02 -0.16515734602E+02  0.34365452242E+02  0.00000000000E+00 0.  1.
         21    1    1    2  505  503 -0.18053991847E+03  0.10101788208E+03 -0.72825564963E+02  0.21932359101E+03  0.00000000000E+00 0. -1.
          2    1    1    2  501    0  0.32437155549E+02 -0.96992587401E+01  0.59801276870E+03  0.59897038008E+03  0.00000000000E+00 0.  1.
<scales pt_clust_3="178.93258" pt_clust_4="30.13660" pt_clust_5="14000.00000" pt_clust_6="33.89920"></scales>
<clustering>
<clus scale="   30.137">  2  4  1 -1</clus>
<clus scale="   33.899">  1  6  2 -1</clus>
<clus scale="  178.933">  1  3  2 -1</clus>
<clus scale="   30.137">  2  3  1 -1</clus>
</clustering>
</event>
<event>
 6    0  0.2433432E+002  0.1039312E+03  0.7546771E-02  0.1272240E+00
          2   -1    0    0  503    0 -0.00000000000E+00  0.00000000000E+00  0.53330191901E+03  0.53330191901E+03  0.00000000000E+00 0. -1.
         21   -1    0    0  501  502  0.00000000000E+00 -0.00000000000E+00 -0.87660900701E+02  0.87660900701E+02  0.00000000000E+00 0. -1.
         21    1    1    2  503  505 -0.34865127383E+02 -0.15687647397E+02  0.45538215127E+02  0.59459300579E+02  0.00000000000E+00 0. -1.
         21    1    1    2  504  502 -0.19443570628E+02  0.11048615604E+03 -0.10303239535E+02  0.11265611328E+03  0.00000000000E+00 0. -1.
         21    1    1    2  505  504 -0.12979211711E+02 -0.48671845713E+02  0.27586598178E+02  0.57431950174E+02  0.00000000000E+00 0.  1.
          2    1    1    2  501    0  0.67287909722E+02 -0.46126662926E+02  0.38281944454E+03  0.39141545568E+03  0.00000000000E+00 0. -1.
<scales pt_clust_3="37.82533" pt_clust_4="94.42768" pt_clust_5="37.82533" pt_clust_6="81.58022"></scales>
<clustering>
<clus scale="   37.825">  3  5 -1 -1</clus>
<clus scale="   81.580">  1  6  2 -1</clus>
<clus scale="   94.428">  2  4  1 -1</clus>
<clus scale="   94.428">  2  3  1 -1</clus>
</clustering>
</event>
<event>
 6    0  0.2433432E+002  0.2953231E+03  0.7546771E-02  0.1087602E+00
          2   -1    0    0  505    0 -0.00000000000E+00  0.00000000000E+00  0.70487777775E+03  0.70487777775E+03  0.00000000000E+00 0. -1.
         21   -1    0    0  503  502  0.00000000000E+00 -0.00000000000E+00 -0.31193503029E+03  0.31193503029E+03  0.00000000000E+00 0. -1.
         21    1    1    2  503  501 -0.13670235904E+02 -0.86177202642E+02 -0.17648860421E+03  0.19687969174E+03  0.00000000000E+00 0. -1.
         21    1    1    2  504  502 -0.76345436570E+02 -0.10968593285E+03  0.26517949481E+02  0.13624548138E+03  0.00000000000E+00 0.  1.
         21    1    1    2  505  504  0.27404638203E+02 -0.99943007989E+02  0.80629990546E+02  0.13130428179E+03  0.00000000000E+00 0.  1.
          2    1    1    2  501    0  0.62611034271E+02  0.29580614348E+03  0.46228341164E+03  0.55238335313E+03  0.00000000000E+00 0. -1.
<scales pt_clust_3="87.25472" pt_clust_4="98.86724" pt_clust_5="98.86724" pt_clust_6="271.02216"></scales>
<clustering>
<clus scale="   87.255">  2  3  1 -1</clus>
<clus scale="   98.867">  4  5 -1 -1</clus>
<clus scale="  271.022">  1  6  2 -1</clus>
<clus scale="   87.255">  2  3  1 -1</clus>
</clustering>
</event>
<event>
 6    0  0.2433432E+002  0.1357122E+03  0.7546771E-02  0.1219218E+00
          2   -1    0    0  503    0 -0.00000000000E+00  0.00000000000E+00  0.88417303549E+03  0.88417303549E+03  0.00000000000E+00 0. -1.
         21   -1    0    0  504  502  0.00000000000E+00 -0.00000000000E+00 -0.69720830036E+02  0.69720830036E+02  0.00000000000E+00 0.  1.
         21    1    1    2  503  502  0.17884540381E+02 -0.27331873449E+02  0.30360393942E+02  0.44594188088E+02  0.00000000000E+00 0. -1.
         21    1    1    2  504  505 -0.48423160008E+02 -0.19713652276E+02 -0.14001373774E+02  0.54124569087E+02  0.00000000000E+00 0.  1.
         21    1    1    2  505  501 -0.25947423243E+02 -0.62541879949E+02  0.24790917763E+02  0.72106484618E+02  0.00000000000E+00 0.  1.
          2    1    1    2  501    0  0.56486042870E+02  0.10958740567E+03  0.77330226752E+03  0.78306862373E+03  0.00000000000E+00 0. -1.
<scales pt_clust_3="32.66325" pt_clust_4="49.24245" pt_clust_5="49.24245" pt_clust_6="122.05285"></scales>
<clustering>
<clus scale="   32.663">  2  3  1 -1</clus>
<clus scale="   49.242">  4  5 -1 -1</clus>
<clus scale="  122.053">  1  6  2 -1</clus>
<clus scale="   32.663">  2  3  1 -1</clus>
</clustering>
</event>
<event>
 6    0  0.2433432E+002  0.1087065E+03  0.7546771E-02  0.1262984E+00
          2   -1    0    0  503    0 -0.00000000000E+00  0.00000000000E+00  0.23877561607E+04  0.23877561607E+04  0.00000000000E+00 0.  1.
         21   -1    0    0  504  502  0.00000000000E+00 -0.00000000000E+00 -0.22766033827E+03  0.22766033827E+03  0.00000000000E+00 0.  1.
         21    1    1    2  503  502  0.29888391461E+02 -0.25462991438E+02 -0.13039025990E+02  0.41372648887E+02  0.00000000000E+00 0. -1.
         21    1    1    2  504  505 -0.60952665400E+02 -0.27294292925E+02 -0.15350029552E+03  0.16739936251E+03  0.00000000000E+00 0.  1.
         21    1    1    2  505  501 -0.75948818739E+02  0.26937439377E+02  0.32469304326E+01  0.80649806356E+02  0.00000000000E+00 0.  1.
          2    1    1    2  501    0  0.10701309268E+03  0.25819844986E+02  0.23233882135E+04  0.23259946812E+04  0.00000000000E+00 0.  1.
<scales pt_clust_3="39.26423" pt_clust_4="60.36655" pt_clust_5="108.70649" pt_clust_6="14000.00000"></scales>
<clustering>
<clus scale="   39.264">  2  3  1 -1</clus>
<clus scale="   60.367">  2  4  1 -1</clus>
<clus scale="  108.706">  2  5  1 -1</clus>
<clus scale="   39.264">  2  3  1 -1</clus>
</clustering>
</event>
<event>
 6    0  0.2433432E+002  0.1166903E+03  0.7546771E-02  0.1248659E+00
         21   -1    0    0  505  502  0.00000000000E+00  0.00000000000E+00  0.62851502598E+02  0.62851502598E+02  0.00000000000E+00 0.  1.
         -1   -1    0    0    0  501 -0.00000000000E+00 -0.00000000000E+00 -0.11480242663E+04  0.11480242663E+04  0.00000000000E+00 0. -1.
         21    1    1    2  503  504 -0.83697896003E+02  0.47525813967E+02 -0.26739339965E+03  0.28418879458E+03  0.00000000000E+00 0. -1.
         21    1    1    2  504  501 -0.37219166652E+02 -0.28230257121E+02 -0.46101543209E+03  0.46337613491E+03  0.00000000000E+00 0. -1.
         21    1    1    2  505  503 -0.30733558988E+02 -0.21408538536E+02  0.29925791349E+02  0.47941945707E+02  0.00000000000E+00 0.  1.
         -1    1    1    2    0  502  0.15165062164E+03  0.21129816901E+01 -0.38668972332E+03  0.41536889371E+03  0.00000000000E+00 0. -1.
<scales pt_clust_3="116.69032" pt_clust_4="48.56114" pt_clust_5="37.45500" pt_clust_6="14000.00000"></scales>
<clustering>
<clus scale="   37.455">  1  5  2 -1</clus>
<clus scale="   48.561">  2  4  1 -1</clus>
<clus scale="  116.690">  2  3  1 -1</clus>
<clus scale="   37.455">  1  3  2 -1</clus>
</clustering>
</event>
<event>
 6    0  0.2433432E+002  0.1137931E+03  0.7546771E-02  0.1253703E+00
         21   -1    0    0  501  502  0.00000000000E+00  0.00000000000E+00  0.15031186616E+03  0.15031186616E+03  0.00000000000E+00 0.  1.
          2   -1    0    0  505    0 -0.00000000000E+00 -0.00000000000E+00 -0.17562794275E+04  0.17562794275E+04  0.00000000000E+00 0. -1.
         21    1    1    2  503  504  0.81499937978E+01 -0.95062669153E+02  0.91203820249E+02  0.13199041743E+03  0.00000000000E+00 0.  1.
         21    1    1    2  504  502  0.30729990074E+02 -0.13162419639E+02  0.22882973127E+02  0.40511875294E+02  0.00000000000E+00 0.  1.
         21    1    1    2  505  503 -0.33470912457E+02 -0.16532786307E+02 -0.70142028381E+02  0.79457782182E+02  0.00000000000E+00 0.  1.
          2    1    1    2  501    0 -0.54090714147E+01  0.12475787510E+03 -0.16499123263E+04  0.16546312187E+04  0.00000000000E+00 0. -1.
<scales pt_clust_3="113.79306" pt_clust_4="33.43025" pt_clust_5="36.49203" pt_clust_6="14000.00000"></scales>
<clustering>
<clus scale="   33.430">  1  4  2 -1</clus>
<clus scale="   36.492">  2  5  1 -1</clus>
<clus scale="  113.793">  1  3  2 -1</clus>
<clus scale="   33.430">  1  3  2 -1</clus>
</clustering>
</event>
<event>
 6    0  0.2433432E+002  0.1572295E+03  0.7546771E-02  0.1191861E+00
         21   -1    0    0  501  502  0.00000000000E+00  0.00000000000E+00  0.24859306868E+03  0.24859306868E+03  0.00000000000E+00 0.  1.
          1   -1    0    0  504    0 -0.00000000000E+00 -0.00000000000E+00 -0.10085784216E+04  0.10085784216E+04  0.00000000000E+00 0. -1.
         21    1    1    2  503  502 -0.56967218209E+02  0.13544515743E+03  0.11260800814E+03  0.18512487169E+03  0.00000000000E+00 0.  1.
         21    1    1    2  504  505 -0.35292258718E+01 -0.53056737900E+02 -0.87698915498E+02  0.10256009288E+03  0.00000000000E+00 0.  1.
         21    1    1    2  505  503  0.28871288004E+02 -0.18800915583E+03 -0.13977988164E+02  0.19072592404E+03  0.00000000000E+00 0.  1.
          1    1    1    2  501    0  0.31625156076E+02  0.10562073631E+03 -0.77091645738E+03  0.77876060165E+03  0.00000000000E+00 0. -1.
<scales pt_clust_3="157.22947" pt_clust_4="53.17399" pt_clust_5="14000.00000" pt_clust_6="67.03689"></scales>
<clustering>
<clus scale="   53.174">  2  4  1 -1</clus>
<clus scale="   67.037">  2  6  1 -1</clus>
<clus scale="  157.229">  1  3  2 -1</clus>
<clus scale="  157.229">  1  3  2 -1</clus>
</clustering>
</event>
<event>
 6    0  0.2433432E+002  0.1651740E+03  0.7546771E-02  0.1182976E+00
         21   -1    0    0  505  502  0.00000000000E+00  0.00000000000E+00  0.19461051721E+03  0.19461051721E+03  0.00000000000E+00 0.  1.
          1   -1    0    0  503    0 -0.00000000000E+00 -0.00000000000E+00 -0.15044349020E+04  0.15044349020E+04  0.00000000000E+00 0.  1.
         21    1    1    2  503  504  0.22255035826E+02  0.25526844291E+02 -0.41769642658E+02  0.53773687309E+02  0.00000000000E+00 0.  1.
         21    1    1    2  504  502  0.10814298694E+03  0.10466259232E+03 -0.10561090831E+04  0.10667781209E+04  0.00000000000E+00 0.  1.
         21    1    1    2  505  501  0.67679676792E+01 -0.44112200565E+02  0.16356996753E+03  0.16954888942E+03  0.00000000000E+00 0.  1.
          1    1    1    2  501    0 -0.13716599044E+03 -0.86077236047E+02 -0.37551562658E+03  0.40894472158E+03  0.00000000000E+00 0.  1.
<scales pt_clust_3="33.86601" pt_clust_4="165.17404" pt_clust_5="44.58355" pt_clust_6="14000.00000"></scales>
<clustering>
<clus scale="   33.866">  2  3  1 -1</clus>
<clus scale="   44.584">  1  5  2 -1</clus>
<clus scale="  165.174">  2  4  1 -1</clus>
<clus scale="   44.584">  1  3  2 -1</clus>
</clustering>
</event>
<event>
 6    0  0.2433432E+002  0.8398596E+02  0.7546771E-02  0.1318106E+00
         21   -1    0    0  505  502  0.00000000000E+00  0.00000000000E+00  0.16910701166E+03  0.16910701166E+03  0.00000000000E+00 0.  1.
         -2   -1    0    0    0  501 -0.00000000000E+00 -0.00000000000E+00 -0.10897498013E+03  0.10897498013E+03  0.00000000000E+00 0.  1.
         21    1    1    2  503  502 -0.36187044941E+02 -0.90153860558E+02  0.72052912496E+02  0.12094975401E+03  0.00000000000E+00 0.  1.
         21    1    1    2  504  503  0.27317409622E+02  0.58956201772E+02 -0.56341310927E+01  0.65221300424E+02  0.00000000000E+00 0. -1.
         21    1    1    2  505  501  0.41531476414E+02 -0.62171213503E+01 -0.15984651525E+01  0.42024650169E+02  0.00000000000E+00 0. -1.
         -2    1    1    2    0  504 -0.32661841095E+02  0.37414780137E+02 -0.46882847228E+01  0.49886287194E+02  0.00000000000E+00 0.  1.
<scales pt_clust_3="83.98596" pt_clust_4="14000.00000" pt_clust_5="41.99424" pt_clust_6="40.55279"></scales>
<clustering>
<clus scale="   41.994">  2  5  1 -1</clus>
<clus scale="   40.553">  2  6  1 -1</clus>
<clus scale="   83.986">  1  3  2 -1</clus>
<clus scale="   83.986">  1  3  2 -1</clus>
</clustering>
</event>
<event>
 6    0  0.2433432E+002  0.1388024E+03  0.7546771E-02  0.1214950E+00
          2   -1    0    0  505    0 -0.00000000000E+00  0.00000000000E+00  0.15898794451E+04  0.15898794451E+04  0.00000000000E+00 0.  1.
         21   -1    0    0  504  502  0.00000000000E+00 -0.00000000000E+00 -0.55289012064E+02  0.55289012064E+02  0.00000000000E+00 0. -1.
         21    1    1    2  503  501 -0.29587216755E+02 -0.13080211102E+03  0.89239253112E+02  0.16108457387E+03  0.00000000000E+00 0. -1.
         21    1    1    2  504  503 -0.39245095823E+02 -0.18820747383E+02  0.96651921438E+02  0.10599996224E+03  0.00000000000E+00 0. -1.
         21    1    1    2  505  502  0.31636889673E+02  0.12343597434E+03  0.27140783030E+03  0.29983252475E+03  0.00000000000E+00 0.  1.
          2    1    1    2  501    0  0.37195422904E+02  0.26186884065E+02  0.10772914282E+04  0.10782513963E+04  0.00000000000E+00 0.  1.
<scales pt_clust_3="138.80237" pt_clust_4="43.52468" pt_clust_5="14000.00000" pt_clust_6="45.08203"></scales>
<clustering>
<clus scale="   43.525">  2  4  1 -1</clus>
<clus scale="   45.082">  1  6  2 -1</clus>
<clus scale="  138.802">  2  3  1 -1</clus>
<clus scale="   43.525">  2  3  1 -1</clus>
</clustering>
</event>
<event>
 6    0  0.2433432E+002  0.9083850E+02  0.7546771E-02  0.1300834E+00
         21   -1    0    0  505  502  0.00000000000E+00  0.00000000000E+00  0.75312280342E+03  0.75312280342E+03  0.00000000000E+00 0. -1.
          2   -1    0    0  504    0 -0.00000000000E+00 -0.00000000000E+00 -0.41582541077E+03  0.41582541077E+03  0.00000000000E+00 0.  1.
         21    1    1    2  503  501 -0.32692205325E+02 -0.49332902699E+02  0.33551352140E+01  0.59277082502E+02  0.00000000000E+00 0.  1.
         21    1    1    2  504  502  0.46885143566E+02 -0.45621803841E+01  0.19215183571E+03  0.19784175025E+03  0.00000000000E+00 0. -1.
         21    1    1    2  505  503 -0.12051130145E+02  0.99902316823E+02  0.52059712623E+03  0.53023303413E+03  0.00000000000E+00 0. -1.
          2    1    1    2  501    0 -0.21418080964E+01 -0.46007233740E+02 -0.37880670451E+03  0.38159634731E+03  0.00000000000E+00 0.  1.
<scales pt_clust_3="14000.00000" pt_clust_4="47.43463" pt_clust_5="90.83850" pt_clust_6="46.05706"></scales>
<clustering>
<clus scale="   46.057">  2  6  1 -1</clus>
<clus scale="   47.435">  1  4  2 -1</clus>
<clus scale="   90.839">  1  5  2 -1</clus>
<clus scale="   47.435">  1  3  2 -1</clus>
</clustering>
</event>
<event>
 6    0  0.2433432E+002  0.1013428E+03  0.7546771E-02  0.1277497E+00
         21   -1    0    0  501  502  0.00000000000E+00  0.00000000000E+00  0.16204290599E+03  0.16204290599E+03  0.00000000000E+00 0.  1.
          2   -1    0    0  505    0 -0.00000000000E+00 -0.00000000000E+00 -0.94956111788E+03  0.94956111788E+03  0.00000000000E+00 0. -1.
         21    1    1    2  503  502 -0.45785074267E+01 -0.51991579474E+02  0.64434893397E+02  0.82921303376E+02  0.00000000000E+00 0.  1.
         21    1    1    2  504  503  0.57525248700E+02  0.39962516296E+02  0.16428044173E+02  0.71944684182E+02  0.00000000000E+00 0.  1.
         21    1    1    2  505  504 -0.28158788727E+02 -0.87932686064E+02 -0.10761150034E+02  0.92956317757E+02  0.00000000000E+00 0.  1.
          2    1    1    2  501    0 -0.24787952547E+02  0.99961749241E+02 -0.85761999943E+03  0.86378171856E+03  0.00000000000E+00 0. -1.
<scales pt_clust_3="52.19279" pt_clust_4="56.97365" pt_clust_5="14000.00000" pt_clust_6="101.34284"></scales>
<clustering>
<clus scale="   52.193">  1  3  2 -1</clus>
<clus scale="   56.974">  1  4  2 -1</clus>
<clus scale="  101.343">  2  6  1 -1</clus>
<clus scale="   52.193">  1  3  2 -1</clus>
</clustering>
</event>
<event>
 6    0  0.2433432E+002  0.1362313E+03  0.7546771E-02  0.1218492E+00
          2   -1    0    0  503    0 -0.00000000000E+00  0.00000000000E+00  0.27307561102E+04  0.27307561102E+04  0.00000000000E+00 0. -1.
         21   -1    0    0  505  502  0.00000000000E+00 -0.00000000000E+00 -0.13170754994E+03  0.13170754994E+03  0.00000000000E+00 0.  1.
         21    1    1    2  503  504  0.12463048384E+03 -0.13508934037E+01  0.26491358602E+03  0.29276917610E+03  0.00000000000E+00 0.  1.
         21    1    1    2  504  502  0.27552151978E+02 -0.31494877639E+02  0.11745991316E+02  0.43462819836E+02  0.00000000000E+00 0.  1.
         21    1    1    2  505  501 -0.24149814501E+02 -0.21504657976E+02 -0.97308002559E+02  0.10254029070E+03  0.00000000000E+00 0.  1.
          2    1    1    2  501    0 -0.12803282131E+03  0.54350429019E+02  0.24196969855E+04  0.24236913735E+04  0.00000000000E+00 0. -1.
<scales pt_clust_3="14000.00000" pt_clust_4="44.98058" pt_clust_5="32.33673" pt_clust_6="136.23127"></scales>
<clustering>
<clus scale="   32.337">  2  5  1 -1</clus>
<clus scale="   44.981">  2  4  1 -1</clus>
<clus scale="  136.231">  1  6  2 -1</clus>
<clus scale="   32.337">  2  3  1 -1</clus>
</clustering>
</event>
<event>
 6    0  0.2433432E+002  0.1178322E+03  0.7546771E-02  0.1246717E+00
         21   -1    0    0  501  502  0.00000000000E+00  0.00000000000E+00  0.61673767250E+03  0.61673767250E+03  0.00000000000E+00 0.  1.
          2   -1    0    0  504    0 -0.00000000000E+00 -0.00000000000E+00 -0.32674299251E+03  0.32674299251E+03  0.00000000000E+00 0. -1.
         21    1    1    2  503  502  0.36955564831E+02 -0.49596476997E+02  0.25906147870E+03  0.26634258775E+03  0.00000000000E+00 0.  1.
         21    1    1    2  504  505  0.88862374644E+01  0.41242725775E+02  0.13276315566E+02  0.44228816406E+02  0.00000000000E+00 0. -1.
         21    1    1    2  505  503 -0.13899763695E+03 -0.10567908817E+02  0.30225728471E+03  0.33285355629E+03  0.00000000000E+00 0.  1.
          2    1    1    2  501    0  0.93155834655E+02  0.18921660039E+02 -0.28460039898E+03  0.30005570457E+03  0.00000000000E+00 0. -1.
<scales pt_clust_3="61.52724" pt_clust_4="42.18919" pt_clust_5="117.83223" pt_clust_6="14000.00000"></scales>
<clustering>
<clus scale="   42.189">  2  4  1 -1</clus>
<clus scale="   61.527">  1  3  2 -1</clus>
<clus scale="  117.832">  1  5  2 -1</clus>
<clus scale="   61.527">  1  3  2 -1</clus>
</clustering>
</event>
<event>
 6    0  0.2433432E+002  0.1025446E+03  0.7546771E-02  0.1275034E+00
          2   -1    0    0  503    0 -0.00000000000E+00  0.00000000000E+00  0.47652900554E+03  0.47652900554E+03  0.00000000000E+00 0. -1.
         21   -1    0    0  505  502  0.00000000000E+00 -0.00000000000E+00 -0.47961823692E+03  0.47961823692E+03  0.00000000000E+00 0.  1.
         21    1    1    2  503  502  0.11360403632E+03 -0.58280466940E+02  0.43961381346E+02  0.13503737610E+03  0.00000000000E+00 0. -1.
         21    1    1    2  504  501  0.18067110995E+02  0.40294027154E+02  0.20745550436E+02  0.48789414701E+02  0.00000000000E+00 0. -1.
         21    1    1    2  505  504 -0.93565856195E+02  0.37689447132E+02 -0.41265442232E+03  0.42480435042E+03  0.00000000000E+00 0.  1.
          2    1    1    2  501    0 -0.38105291116E+02 -0.19703007346E+02  0.34485825917E+03  0.34751610125E+03  0.00000000000E+00 0. -1.
<scales pt_clust_3="102.54464" pt_clust_4="35.91862" pt_clust_5="14000.00000" pt_clust_6="42.89781"></scales>
<clustering>
<clus scale="   42.898">  1  6  2 -1</clus>
<clus scale="   35.919">  1  4  2 -1</clus>
<clus scale="  102.545">  1  3  2 -1</clus>
<clus scale="  102.545">  2  3  1 -1</clus>
</clustering>
</event>
<event>
 6    0  0.2433432E+002  0.1395865E+03  0.7546771E-02  0.1213886E+00
         21   -1    0    0  503  502  0.00000000000E+00  0.00000000000E+00  0.18921999599E+03  0.18921999599E+03  0.00000000000E+00 0. -1.
          2   -1    0    0  505    0 -0.00000000000E+00 -0.00000000000E+00 -0.29439636226E+04  0.29439636226E+04  0.00000000000E+00 0.  1.
         21    1    1    2  503  504 -0.14321663962E+02  0.51766726909E+02  0.78363490465E+02  0.95003898401E+02  0.00000000000E+00 0. -1.
         21    1    1    2  504  501 -0.65024995886E+02  0.12223142421E+02  0.59456724504E+02  0.88953681145E+02  0.00000000000E+00 0. -1.
         21    1    1    2  505  502  0.37082896806E+01  0.55949004925E+02 -0.29649225074E+01  0.56150096438E+02  0.00000000000E+00 0. -1.
          2    1    1    2  501    0  0.75638370168E+02 -0.11993887426E+03 -0.28895989190E+04  0.28930759426E+04  0.00000000000E+00 0.  1.
<scales pt_clust_3="53.71130" pt_clust_4="139.58647" pt_clust_5="69.37460" pt_clust_6="14000.00000"></scales>
<clustering>
<clus scale="   53.711">  1  3  2 -1</clus>
<clus scale="   69.375">  1  5  2 -1</clus>
<clus scale="  139.586">  1  4  2 -1</clus>
<clus scale="   53.711">  1  3  2 -1</clus>
</clustering>
</event>
<event>
 6    0  0.2433432E+002  0.7348054E+02  0.7546771E-02  0.1348642E+00
         21   -1    0    0  503  502  0.00000000000E+00  0.00000000000E+00  0.93507151431E+02  0.93507151431E+02  0.00000000000E+00 0.  1.
          2   -1    0    0  505    0 -0.00000000000E+00 -0.00000000000E+00 -0.91997748253E+03  0.91997748253E+03  0.00000000000E+00 0. -1.
         21    1    1    2  503  501 -0.40386337178E+02 -0.13948437444E+02 -0.31955177155E+02  0.53354929340E+02  0.00000000000E+00 0.  1.
         21    1    1    2  504  502  0.90532385777E+02  0.89758491454E+02 -0.89649095528E+01  0.12780089697E+03  0.00000000000E+00 0.  1.
         21    1    1    2  505  504 -0.88868771798E+01 -0.45899863850E+02 -0.16577733181E+01  0.46781644903E+02  0.00000000000E+00 0.  1.
          2    1    1    2  501    0 -0.41259171419E+02 -0.29910190160E+02 -0.78389247108E+03  0.78554716275E+03  0.00000000000E+00 0. -1.
<scales pt_clust_3="42.72722" pt_clust_4="14000.00000" pt_clust_5="73.48054" pt_clust_6="51.36881"></scales>
<clustering>
<clus scale="   42.727">  1  3  2 -1</clus>
<clus scale="   51.369">  2  6  1 -1</clus>
<clus scale="   73.481">  2  5  1 -1</clus>
<clus scale="   42.727">  1  3  2 -1</clus>
</clustering>
</event>
<event>
 6    0  0.2433432E+002  0.1827609E+03  0.7546771E-02  0.1165157E+00
         21   -1    0    0  503  502  0.00000000000E+00  0.00000000000E+00  0.24287120814E+03  0.24287120814E+03  0.00000000000E+00 0.  1.
         -1   -1    0    0    0  501 -0.00000000000E+00 -0.00000000000E+00 -0.24320814820E+03  0.24320814820E+03  0.00000000000E+00 0.  1.
         21    1    1    2  503  505  0.46886653907E+02  0.14996845189E+01  0.84492360098E+02  0.96641431504E+02  0.00000000000E+00 0.  1.
         21    1    1    2  504  501  0.32954807597E+02 -0.40128058975E+02  0.44486376650E+02  0.68376298293E+02  0.00000000000E+00 0.  1.
         21    1    1    2  505  504  0.73196202761E+02 -0.12529973008E+02  0.42329367607E+02  0.85477831536E+02  0.00000000000E+00 0.  1.
         -1    1    1    2    0  502 -0.15303766426E+03  0.51158347463E+02 -0.17164504441E+03  0.23558379501E+03  0.00000000000E+00 0.  1.
<scales pt_clust_3="39.41973" pt_clust_4="38.25762" pt_clust_5="39.41973" pt_clust_6="161.36203"></scales>
<clustering>
<clus scale="   38.258">  4  5 -1 -1</clus>
<clus scale="   39.420">  3  4 -1 -1</clus>
<clus scale="  161.362">  2  6  1 -1</clus>
<clus scale="  182.761">  1  3  2 -1</clus>
</clustering>
</event>
<event>
 6    0  0.2433432E+002  0.9010630E+02  0.7546771E-02  0.1302594E+00
         21   -1    0    0  503  502  0.00000000000E+00  0.00000000000E+00  0.10691426612E+04  0.10691426612E+04  0.00000000000E+00 0.  1.
          2   -1    0    0  505    0 -0.00000000000E+00 -0.00000000000E+00 -0.90507385439E+03  0.90507385439E+03  0.00000000000E+00 0.  1.
         21    1    1    2  503  501  0.27317152167E+02 -0.81245852534E+02  0.11854907688E+02  0.86531232470E+02  0.00000000000E+00 0.  1.
         21    1    1    2  504  502  0.56715490520E+02  0.32774849912E+02  0.10116023856E+04  0.10137209795E+04  0.00000000000E+00 0.  1.
         21    1    1    2  505  504 -0.41548337033E+02  0.74841195726E+02 -0.28960477757E+03  0.30199072184E+03  0.00000000000E+00 0.  1.
          2    1    1    2  501    0 -0.42484305654E+02 -0.26370193105E+02 -0.56978370893E+03  0.57197358180E+03  0.00000000000E+00 0.  1.
<scales pt_clust_3="90.10630" pt_clust_4="65.34607" pt_clust_5="14000.00000" pt_clust_6="50.00303"></scales>
<clustering>
<clus scale="   50.003">  2  6  1 -1</clus>
<clus scale="   65.346">  1  4  2 -1</clus>
<clus scale="   90.106">  1  3  2 -1</clus>
<clus scale="   65.346">  1  3  2 -1</clus>
</clustering>
</event>
<event>
 6    0  0.2433432E+002  0.9192152E+02  0.7546771E-02  0.1298264E+00
         21   -1    0    0  503  502  0.00000000000E+00  0.00000000000E+00  0.82407220733E+02  0.82407220733E+02  0.00000000000E+00 0. -1.
         -3   -1    0    0    0  501 -0.00000000000E+00 -0.00000000000E+00 -0.44606990429E+03  0.44606990429E+03  0.00000000000E+00 0. -1.
         21    1    1    2  503  501 -0.91979949631E+02 -0.30378653699E+02 -0.88706032635E+02  0.13134661762E+03  0.00000000000E+00 0. -1.
         21    1    1    2  504  502  0.46792895088E+02 -0.76570843605E+01 -0.22491609279E+01  0.47468565351E+02  0.00000000000E+00 0. -1.
         21    1    1    2  505  504 -0.24867796214E+02  0.99213185535E+02 -0.62674508211E+02  0.11995731512E+03  0.00000000000E+00 0. -1.
         -3    1    1    2    0  505  0.70054850757E+02 -0.61177447475E+02 -0.21003298179E+03  0.22970462693E+03  0.00000000000E+00 0. -1.
<scales pt_clust_3="82.25404" pt_clust_4="47.41525" pt_clust_5="91.92152" pt_clust_6="14000.00000"></scales>
<clustering>
<clus scale="   47.415">  1  4  2 -1</clus>
<clus scale="   82.254">  1  3  2 -1</clus>
<clus scale="   91.922">  1  5  2 -1</clus>
<clus scale="   47.415">  1  3  2 -1</clus>
</clustering>
</event>
<event>
 6    0  0.2433432E+002  0.8937319E+02  0.7546771E-02  0.1304377E+00
          2   -1    0    0  503    0 -0.00000000000E+00  0.00000000000E+00  0.32374042081E+04  0.32374042081E+04  0.00000000000E+00 0.  1.
         21   -1    0    0  505  502  0.00000000000E+00 -0.00000000000E+00 -0.18784320514E+03  0.18784320514E+03  0.00000000000E+00 0.  1.
         21    1    1    2  503  502  0.30263081232E+02  0.45761049855E+01 -0.13632206668E+03  0.13971578539E+03  0.00000000000E+00 0.  1.
         21    1    1    2  504  501 -0.87214614984E+02 -0.71133724853E+02  0.32973391434E+02  0.11727591578E+03  0.00000000000E+00 0. -1.
         21    1    1    2  505  504 -0.23086947636E+02  0.27483414730E+02  0.38738623110E+02  0.52811231352E+02  0.00000000000E+00 0.  1.
          2    1    1    2  501    0  0.80038481388E+02  0.39074205138E+02  0.31141710551E+04  0.31154444807E+04  0.00000000000E+00 0.  1.
<scales pt_clust_3="30.60710" pt_clust_4="89.37319" pt_clust_5="33.84097" pt_clust_6="14000.00000"></scales>
<clustering>
<clus scale="   30.607">  2  3  1 -1</clus>
<clus scale="   33.841">  2  5  1 -1</clus>
<clus scale="   89.373">  2  4  1 -1</clus>
<clus scale="   30.607">  2  3  1 -1</clus>
</clustering>
</event>
<event>
 6    0  0.2433432E+002  0.1749535E+03  0.7546771E-02  0.1172778E+00
         -1   -1    0    0    0  501 -0.00000000000E+00  0.00000000000E+00  0.17104135958E+04  0.17104135958E+04  0.00000000000E+00 0. -1.
         21   -1    0    0  505  502  0.00000000000E+00 -0.00000000000E+00 -0.30601492541E+02  0.30601492541E+02  0.00000000000E+00 0.  1.
         21    1    1    2  503  501 -0.20294895155E+02 -0.64308748940E+02  0.23572455282E+03  0.24518067371E+03  0.00000000000E+00 0.  1.
         21    1    1    2  504  502  0.65684326218E+02 -0.19294135869E+02  0.20600216597E+03  0.21707967840E+03  0.00000000000E+00 0.  1.
         21    1    1    2  505  503 -0.37826576217E+02 -0.84492804555E+02  0.13991485983E+03  0.16776785119E+03  0.00000000000E+00 0.  1.
         -1    1    1    2    0  504 -0.75628548460E+01  0.16809568936E+03  0.10981705247E+04  0.11109868851E+04  0.00000000000E+00 0. -1.
<scales pt_clust_3="53.31086" pt_clust_4="68.45944" pt_clust_5="53.31086" pt_clust_6="163.42341"></scales>
<clustering>
<clus scale="   53.311">  3  5 -1 -1</clus>
<clus scale="   68.459">  2  4  1 -1</clus>
<clus scale="  163.423">  1  6  2 -1</clus>
<clus scale="   68.459">  2  3  1 -1</clus>
</clustering>
</event>
<event>
 6    0  0.2433432E+002  0.1813250E+03  0.7546771E-02  0.1166527E+00
         21   -1    0    0  503  502  0.00000000000E+00  0.00000000000E+00  0.12441195098E+04  0.12441195098E+04  0.00000000000E+00 0.  1.
         -4   -1    0    0    0  501 -0.00000000000E+00 -0.00000000000E+00 -0.30795877005E+03  0.30795877005E+03  0.00000000000E+00 0. -1.
         21    1    1    2  503  501  0.41938641526E+02 -0.10496063091E+03  0.29799184746E+03  0.31870789894E+03  0.00000000000E+00 0. -1.
         21    1    1    2  504  505 -0.86791974030E+02  0.12618412740E+03  0.35756034428E+03  0.38897902330E+03  0.00000000000E+00 0. -1.
         21    1    1    2  505  502 -0.21585310825E+02  0.10547435209E+03  0.53867272468E+03  0.54932601332E+03  0.00000000000E+00 0.  1.
         -4    1    1    2    0  504  0.66438643329E+02 -0.12669784857E+03 -0.25806417664E+03  0.29506534433E+03  0.00000000000E+00 0. -1.
<scales pt_clust_3="113.02913" pt_clust_4="90.96636" pt_clust_5="90.96636" pt_clust_6="145.28397"></scales>
<clustering>
<clus scale="   90.966">  4  5 -1 -1</clus>
<clus scale="  113.029">  1  3  2 -1</clus>
<clus scale="  145.284">  2  6  1 -1</clus>
<clus scale="  113.029">  1  3  2 -1</clus>
</clustering>
</event>
<event>
 6    0  0.2433432E+002  0.8136354E+02  0.7546771E-02  0.1325226E+00
          1   -1    0    0  504    0 -0.00000000000E+00  0.00000000000E+00  0.27530992610E+04  0.27530992610E+04  0.00000000000E+00 0.  1.
         21   -1    0    0  501  502  0.00000000000E+00 -0.00000000000E+00 -0.19263433788E+03  0.19263433788E+03  0.00000000000E+00 0. -1.
         21    1    1    2  503  505  0.16316190554E+02 -0.70597500684E+02  0.18489586023E+03  0.19858676771E+03  0.00000000000E+00 0.  1.
         21    1    1    2  504  503  0.81489404133E+02 -0.22796052838E+02  0.10387353639E+03  0.13397721662E+03  0.00000000000E+00 0.  1.
         21    1    1    2  505  502 -0.22515521489E+02  0.62875610826E+02 -0.16350272572E+03  0.17661662567E+03  0.00000000000E+00 0. -1.
          1    1    1    2  501    0 -0.75290073199E+02  0.30517942696E+02  0.24351982522E+04  0.24365529889E+04  0.00000000000E+00 0.  1.
<scales pt_clust_3="52.39765" pt_clust_4="14000.00000" pt_clust_5="66.78541" pt_clust_6="81.36354"></scales>
<clustering>
<clus scale="   66.785">  2  5  1 -1</clus>
<clus scale="   52.398">  2  3  1 -1</clus>
<clus scale="   81.364">  1  6  2 -1</clus>
<clus scale="   66.785">  2  3  1 -1</clus>
</clustering>
</event>
<event>
 6    0  0.2433432E+002  0.7911985E+02  0.7546771E-02  0.1331568E+00
          2   -1    0    0  503    0 -0.00000000000E+00  0.00000000000E+00  0.38590716377E+02  0.38590716377E+02  0.00000000000E+00 0.  1.
         21   -1    0    0  504  502  0.00000000000E+00 -0.00000000000E+00 -0.10374525885E+04  0.10374525885E+04  0.00000000000E+00 0. -1.
         21    1    1    2  503  505  0.37643651963E+02 -0.29906409755E+02 -0.68780560044E+02  0.83917836707E+02  0.00000000000E+00 0. -1.
         21    1    1    2  504  501  0.51392417491E+02 -0.75020897145E+02 -0.68738131848E+03  0.69337031418E+03  0.00000000000E+00 0. -1.
         21    1    1    2  505  502 -0.38297998893E+02  0.58405206337E+01 -0.14678774930E+03  0.15181400379E+03  0.00000000000E+00 0.  1.
          2    1    1    2  501    0 -0.50738070562E+02  0.99086786266E+02 -0.95912244282E+02  0.14694115019E+03  0.00000000000E+00 0.  1.
<scales pt_clust_3="45.21762" pt_clust_4="14000.00000" pt_clust_5="38.74078" pt_clust_6="79.11985"></scales>
<clustering>
<clus scale="   38.741">  2  5  1 -1</clus>
<clus scale="   45.218">  1  3  2 -1</clus>
<clus scale="   79.120">  1  6  2 -1</clus>
<clus scale="   38.741">  2  3  1 -1</clus>
</clustering>
</event>
<event>
 6    0  0.2433432E+002  0.1013933E+03  0.7546771E-02  0.1277393E+00
         -1   -1    0    0    0  501 -0.00000000000E+00  0.00000000000E+00  0.96863941871E+03  0.96863941871E+03  0.00000000000E+00 0. -1.
         21   -1    0    0  505  502  0.00000000000E+00 -0.00000000000E+00 -0.47204811819E+03  0.47204811819E+03  0.00000000000E+00 0.  1.
         21    1    1    2  503  501 -0.31611308703E+02 -0.10558334128E+03 -0.75436571781E+02  0.13355820138E+03  0.00000000000E+00 0.  1.
         21    1    1    2  504  502  0.88548234476E+02  0.47037785200E+02 -0.87387642345E+02  0.13300354544E+03  0.00000000000E+00 0.  1.
         21    1    1    2  505  503  0.20385576933E+02  0.96463893045E+02 -0.24579282339E+03  0.26483007087E+03  0.00000000000E+00 0.  1.
         -1    1    1    2    0  504 -0.77322502707E+02 -0.37918336963E+02  0.90520833804E+03  0.90929571920E+03  0.00000000000E+00 0. -1.
<scales pt_clust_3="101.39331" pt_clust_4="68.29402" pt_clust_5="14000.00000" pt_clust_6="86.11951"></scales>
<clustering>
<clus scale="   86.120">  1  6  2 -1</clus>
<clus scale="   68.294">  1  4  2 -1</clus>
<clus scale="  101.393">  1  3  2 -1</clus>
<clus scale="  101.393">  2  3  1 -1</clus>
</clustering>
</event>
<event>
 6    0  0.2433432E+002  0.1525418E+03  0.7546771E-02  0.1197384E+00
         21   -1    0    0  505  502  0.00000000000E+00  0.00000000000E+00  0.15688787004E+04  0.15688787004E+04  0.00000000000E+00 0. -1.
          1   -1    0    0  503    0 -0.00000000000E+00 -0.00000000000E+00 -0.22565035570E+03  0.22565035570E+03  0.00000000000E+00 0. -1.
         21    1    1    2  503  504 -0.35156634835E+02 -0.12391860541E+03  0.68382915627E+03  0.69585495953E+03  0.00000000000E+00 0. -1.
         21    1    1    2  504  502  0.36246118317E+02 -0.13766503124E+02  0.10109691400E+03  0.10827688452E+03  0.00000000000E+00 0.  1.
         21    1    1    2  505  501 -0.48602714158E+02 -0.82625119489E+01  0.74617282325E+03  0.74779968914E+03  0.00000000000E+00 0. -1.
          1    1    1    2  501    0  0.47513230676E+02  0.14594762048E+03 -0.18787054881E+03  0.24259752292E+03  0.00000000000E+00 0. -1.
<scales pt_clust_3="152.54185" pt_clust_4="38.77238" pt_clust_5="33.76877" pt_clust_6="14000.00000"></scales>
<clustering>
<clus scale="   38.772">  1  4  2 -1</clus>
<clus scale="   33.769">  1  5  2 -1</clus>
<clus scale="  152.542">  1  3  2 -1</clus>
<clus scale="   38.772">  1  3  2 -1</clus>
</clustering>
</event>
<event>
 6    0  0.2433432E+002  0.1080154E+03  0.7546771E-02  0.1264290E+00
         21   -1    0    0  503  502  0.00000000000E+00  0.00000000000E+00  0.43005210278E+03  0.43005210278E+03  0.00000000000E+00 0.  1.
          1   -1    0    0  504    0 -0.00000000000E+00 -0.00000000000E+00 -0.15520707424E+03  0.15520707424E+03  0.00000000000E+00 0.  1.
         21    1    1    2  503  505  0.70270154614E+02 -0.37919485663E+02  0.25579296110E+03  0.26796608176E+03  0.00000000000E+00 0.  1.
         21    1    1    2  504  502 -0.52972890118E+02 -0.14544103181E+02  0.31706312901E+02  0.63426716000E+02  0.00000000000E+00 0.  1.
         21    1    1    2  505  501  0.18427090412E+02 -0.39774562044E+02  0.96845989976E+02  0.10630484101E+03  0.00000000000E+00 0.  1.
          1    1    1    2  501    0 -0.35724354909E+02  0.92238150888E+02 -0.10950023543E+03  0.14756153826E+03  0.00000000000E+00 0.  1.
<scales pt_clust_3="31.61748" pt_clust_4="54.93321" pt_clust_5="31.61748" pt_clust_6="99.22901"></scales>
<clustering>
<clus scale="   31.617">  3  5 -1 -1</clus>
<clus scale="   54.933">  1  4  2 -1</clus>
<clus scale="   99.229">  2  6  1 -1</clus>
<clus scale="   54.933">  1  3  2 -1</clus>
</clustering>
</event>
<event>
 6    0  0.2433432E+002  0.1267715E+03  0.7546771E-02  0.1232326E+00
          1   -1    0    0  504    0 -0.00000000000E+00  0.00000000000E+00  0.17249306548E+04  0.17249306548E+04  0.00000000000E+00 0. -1.
         21   -1    0    0  503  502  0.00000000000E+00 -0.00000000000E+00 -0.20952905862E+03  0.20952905862E+03  0.00000000000E+00 0.  1.
         21    1    1    2  503  501 -0.37367288472E+02  0.30702838687E+02 -0.18919725959E+03  0.19528077629E+03  0.00000000000E+00 0.  1.
         21    1    1    2  504  505 -0.32109598329E+02 -0.32776907749E+02  0.43306103770E+03  0.43548503345E+03  0.00000000000E+00 0.  1.
         21    1    1    2  505  502 -0.25890036292E+02 -0.12082766627E+03  0.40971982166E+03  0.42794853800E+03  0.00000000000E+00 0. -1.
          1    1    1    2  501    0  0.95366923094E+02  0.12290173533E+03  0.86181799642E+03  0.87574536568E+03  0.00000000000E+00 0. -1.
<scales pt_clust_3="48.37254" pt_clust_4="45.88411" pt_clust_5="126.77145" pt_clust_6="14000.00000"></scales>
<clustering>
<clus scale="   45.884">  1  4  2 -1</clus>
<clus scale="   48.373">  2  3  1 -1</clus>
<clus scale="  126.771">  2  5  1 -1</clus>
<clus scale="   48.373">  2  3  1 -1</clus>
</clustering>
</event>
<event>
 6    0  0.2433432E+002  0.8898562E+02  0.7546771E-02  0.1305327E+00
         21   -1    0    0  501  502  0.00000000000E+00  0.00000000000E+00  0.31215974921E+03  0.31215974921E+03  0.00000000000E+00 0. -1.
          4   -1    0    0  504    0 -0.00000000000E+00 -0.00000000000E+00 -0.57466265349E+02  0.57466265349E+02  0.00000000000E+00 0. -1.
         21    1    1    2  503  502  0.29400668995E+02 -0.22296797216E+02  0.35554560636E+02  0.51241324002E+02  0.00000000000E+00 0. -1.
         21    1    1    2  504  505 -0.81933914117E+02 -0.27086543300E+02  0.78174229356E+02  0.11643907096E+03  0.00000000000E+00 0. -1.
         21    1    1    2  505  503 -0.29560784835E+01 -0.38362932898E+02  0.55179395850E+02  0.67269746149E+02  0.00000000000E+00 0. -1.
          4    1    1    2  501    0  0.55489323606E+02  0.87746273415E+02  0.85785298015E+02  0.13467587344E+03  0.00000000000E+00 0. -1.
<scales pt_clust_3="36.89914" pt_clust_4="88.98562" pt_clust_5="43.60301" pt_clust_6="14000.00000"></scales>
<clustering>
<clus scale="   36.899">  1  3  2 -1</clus>
<clus scale="   43.603">  1  5  2 -1</clus>
<clus scale="   88.986">  2  4  1 -1</clus>
<clus scale="   36.899">  1  3  2 -1</clus>
</clustering>
</event>
<event>
 6    0  0.2433432E+002  0.1139128E+03  0.7546771E-02  0.1253491E+00
         21   -1    0    0  504  502  0.00000000000E+00  0.00000000000E+00  0.65285250372E+03  0.65285250372E+03  0.00000000000E+00 0. -1.
          2   -1    0    0  503    0 -0.00000000000E+00 -0.00000000000E+00 -0.37546767274E+04  0.37546767274E+04  0.00000000000E+00 0. -1.
         21    1    1    2  503  505  0.10092960675E+03  0.57411709330E+02  0.33790521374E+03  0.35729934698E+03  0.00000000000E+00 0. -1.
         21    1    1    2  504  501 -0.59652157011E+02 -0.30653642127E+02  0.37850626795E+02  0.77011009346E+02  0.00000000000E+00 0.  1.
         21    1    1    2  505  502  0.52683361274E+02 -0.71556809243E+01  0.24434193167E+03  0.25005943273E+03  0.00000000000E+00 0. -1.
          2    1    1    2  501    0 -0.93960811011E+02 -0.19602386279E+02 -0.37219219959E+04  0.37231594421E+04  0.00000000000E+00 0. -1.
<scales pt_clust_3="41.43915" pt_clust_4="67.06732" pt_clust_5="41.43915" pt_clust_6="96.05098"></scales>
<clustering>
<clus scale="   41.439">  3  5 -1 -1</clus>
<clus scale="   67.067">  1  4  2 -1</clus>
<clus scale="   96.051">  2  6  1 -1</clus>
<clus scale="   67.067">  1  3  2 -1</clus>
</clustering>
</event>
<event>
 6    0  0.2433432E+002  0.1128800E+03  0.7546771E-02  0.1255328E+00
         21   -1    0    0  504  502  0.00000000000E+00  0.00000000000E+00  0.43087481874E+02  0.43087481874E+02  0.00000000000E+00 0. -1.
          2   -1    0    0  505    0 -0.00000000000E+00 -0.00000000000E+00 -0.30796693020E+04  0.30796693020E+04  0.00000000000E+00 0. -1.
         21    1    1    2  503  501  0.64236219761E+02 -0.53379382926E+02 -0.80357716706E+02  0.11590087612E+03  0.00000000000E+00 0. -1.
         21    1    1    2  504  503  0.71465522524E+02  0.51678506277E+01 -0.36383261883E+02  0.80360247231E+02  0.00000000000E+00 0. -1.
         21    1    1    2  505  502 -0.33371919042E+02 -0.41837129940E+01 -0.12977953975E+03  0.13406683920E+03  0.00000000000E+00 0. -1.
          2    1    1    2  501    0 -0.10232982324E+03  0.52395245293E+02 -0.27900613017E+04  0.27924288213E+04  0.00000000000E+00 0. -1.
<scales pt_clust_3="14000.00000" pt_clust_4="53.62307" pt_clust_5="33.63314" pt_clust_6="112.87996"></scales>
<clustering>
<clus scale="   33.633">  1  5  2 -1</clus>
<clus scale="   53.623">  1  4  2 -1</clus>
<clus scale="  112.880">  2  6  1 -1</clus>
<clus scale="   33.633">  1  3  2 -1</clus>
</clustering>
</event>
<event>
 6    0  0.2433432E+002  0.1425467E+03  0.7546771E-02  0.1209943E+00
          2   -1    0    0  503    0 -0.00000000000E+00  0.00000000000E+00  0.89079683065E+03  0.89079683065E+03  0.00000000000E+00 0. -1.
         21   -1    0    0  504  502  0.00000000000E+00 -0.00000000000E+00 -0.77900282849E+02  0.77900282849E+02  0.00000000000E+00 0. -1.
         21    1    1    2  503  505  0.39536915941E+02  0.71090405710E+02  0.14779660084E+03  0.16870343424E+03  0.00000000000E+00 0. -1.
         21    1    1    2  504  501  0.19703814324E+02 -0.28690208242E+02 -0.39789790425E+02  0.52863936383E+02  0.00000000000E+00 0. -1.
         21    1    1    2  505  502  0.47698553019E+02  0.28863278521E+02  0.36820946181E+02  0.66813343613E+02  0.00000000000E+00 0. -1.
          2    1    1    2  501    0 -0.10693928328E+03 -0.71263475989E+02  0.66806879120E+03  0.68031639926E+03  0.00000000000E+00 0. -1.
<scales pt_clust_3="53.90195" pt_clust_4="34.80472" pt_clust_5="53.90195" pt_clust_6="128.59160"></scales>
<clustering>
<clus scale="   34.805">  2  4  1 -1</clus>
<clus scale="   53.902">  3  5 -1 -1</clus>
<clus scale="  128.592">  1  6  2 -1</clus>
<clus scale="   34.805">  2  3  1 -1</clus>
</clustering>
</event>
<event>
 6    0  0.2433432E+002  0.1743093E+03  0.7546771E-02  0.1173427E+00
         21   -1    0    0  504  502  0.00000000000E+00  0.00000000000E+00  0.13972253451E+04  0.13972253451E+04  0.00000000000E+00 0. -1.
          2   -1    0    0  503    0 -0.00000000000E+00 -0.00000000000E+00 -0.20426671383E+03  0.20426671383E+03  0.00000000000E+00 0. -1.
         21    1    1    2  503  502  0.12352793624E+03  0.31794766459E+02  0.10672967438E+04  0.10748918074E+04  0.00000000000E+00 0. -1.
         21    1    1    2  504  505 -0.27699960891E+02 -0.28893300460E+02  0.40119248425E+02  0.56671551409E+02  0.00000000000E+00 0.  1.
         21    1    1    2  505  501  0.14819993733E+02 -0.12774434841E+03  0.22056201907E+03  0.25531520719E+03  0.00000000000E+00 0. -1.
          2    1    1    2  501    0 -0.11064796908E+03  0.12484288241E+03 -0.13501938007E+03  0.21461349293E+03  0.00000000000E+00 0. -1.
<scales pt_clust_3="127.55414" pt_clust_4="38.16479" pt_clust_5="38.16479" pt_clust_6="160.32453"></scales>
<clustering>
<clus scale="   38.165">  4  5 -1 -1</clus>
<clus scale="  127.554">  1  3  2 -1</clus>
<clus scale="  160.325">  2  6  1 -1</clus>
<clus scale="  127.554">  1  3  2 -1</clus>
</clustering>
</event>
<event>
 6    0  0.2433432E+002  0.1539240E+03  0.7546771E-02  0.1195732E+00
         21   -1    0    0  505  502  0.00000000000E+00  0.00000000000E+00  0.44694477429E+03  0.44694477429E+03  0.00000000000E+00 0.  1.
          1   -1    0    0  504    0 -0.00000000000E+00 -0.00000000000E+00 -0.90969801827E+03  0.90969801827E+03  0.00000000000E+00 0.  1.
         21    1    1    2  503  501  0.94328627226E+02 -0.10020349558E+03 -0.44702365274E+03  0.46772724590E+03  0.00000000000E+00 0. -1.
         21    1    1    2  504  502  0.23446850857E+02  0.51409808749E+02  0.46552526559E+02  0.73211071429E+02  0.00000000000E+00 0.  1.
         21    1    1    2  505  503 -0.10849562901E+03  0.79444344271E+02  0.36409114900E+03  0.38813022316E+03  0.00000000000E+00 0.  1.
          1    1    1    2  501    0 -0.92798490707E+01 -0.30650657437E+02 -0.42637326680E+03  0.42757425208E+03  0.00000000000E+00 0.  1.
<scales pt_clust_3="153.92397" pt_clust_4="55.62795" pt_clust_5="14000.00000" pt_clust_6="32.02465"></scales>
<clustering>
<clus scale="   32.025">  2  6  1 -1</clus>
<clus scale="   55.628">  1  4  2 -1</clus>
<clus scale="  153.924">  2  3  1 -1</clus>
<clus scale="   55.628">  1  3  2 -1</clus>
</clustering>
</event>
<event>
 6    0  0.2433432E+002  0.2587321E+03  0.7546771E-02  0.1107907E+00
          2   -1    0    0  504    0 -0.00000000000E+00  0.00000000000E+00  0.32957522565E+03  0.32957522565E+03  0.00000000000E+00 0.  1.
         21   -1    0    0  505  502  0.00000000000E+00 -0.00000000000E+00 -0.39218248432E+03  0.39218248432E+03  0.00000000000E+00 0.  1.
         21    1    1    2  503  502 -0.29742031390E+02 -0.10308740176E+02 -0.39285461660E+02  0.50340898414E+02  0.00000000000E+00 0. -1.
         21    1    1    2  504  503 -0.24996234345E+03  0.10587258003E+03 -0.89274544832E+02  0.28576235004E+03  0.00000000000E+00 0.  1.
         21    1    1    2  505  501  0.22047432417E+03 -0.11194081633E+03 -0.51982102875E+02  0.25266937487E+03  0.00000000000E+00 0.  1.
          2    1    1    2  501    0  0.59230050669E+02  0.16376976477E+02  0.11793485070E+03  0.13298508664E+03  0.00000000000E+00 0.  1.
<scales pt_clust_3="31.47791" pt_clust_4="14000.00000" pt_clust_5="258.73206" pt_clust_6="60.77195"></scales>
<clustering>
<clus scale="   31.478">  2  3  1 -1</clus>
<clus scale="   60.772">  1  6  2 -1</clus>
<clus scale="  258.732">  2  5  1 -1</clus>
<clus scale="   31.478">  2  3  1 -1</clus>
</clustering>
</event>
<event>
 6    0  0.2433432E+002  0.1549108E+03  0.7546771E-02  0.1194565E+00
          2   -1    0    0  503    0 -0.00000000000E+00  0.00000000000E+00  0.36074442643E+04  0.36074442643E+04  0.00000000000E+00 0.  1.
         21   -1    0    0  504  502  0.00000000000E+00 -0.00000000000E+00 -0.30200034320E+03  0.30200034320E+03  0.00000000000E+00 0.  1.
         21    1    1    2  503  502 -0.32281925052E+02  0.12986953142E+03  0.12641192622E+04  0.12711828063E+04  0.00000000000E+00 0. -1.
         21    1    1    2  504  505 -0.31657194068E+02 -0.11610691137E+02 -0.28763086831E+03  0.28960059131E+03  0.00000000000E+00 0.  1.
         21    1    1    2  505  501 -0.14642436311E+02  0.40786640646E+02  0.67212370132E+02  0.79971580546E+02  0.00000000000E+00 0. -1.
          2    1    1    2  501    0  0.78581555431E+02 -0.15904548093E+03  0.22617431570E+04  0.22686896293E+04  0.00000000000E+00 0.  1.
<scales pt_clust_3="154.91083" pt_clust_4="33.71922" pt_clust_5="46.11616" pt_clust_6="14000.00000"></scales>
<clustering>
<clus scale="   33.719">  2  4  1 -1</clus>
<clus scale="   46.116">  2  5  1 -1</clus>
<clus scale="  154.911">  2  3  1 -1</clus>
<clus scale="   33.719">  2  3  1 -1</clus>
</clustering>
</event>
<event>
 6    0  0.2433432E+002  0.1265778E+03  0.7546771E-02  0.1232624E+00
          2   -1    0    0  505    0 -0.00000000000E+00  0.00000000000E+00  0.22737564200E+04  0.22737564200E+04  0.00000000000E+00 0. -1.
         21   -1    0    0  504  502  0.00000000000E+00 -0.00000000000E+00 -0.15348990874E+03  0.15348990874E+03  0.00000000000E+00 0. -1.
         21    1    1    2  503  501 -0.89321061861E+02 -0.56556292920E+02  0.16263975269E+03  0.19398081224E+03  0.00000000000E+00 0.  1.
         21    1    1    2  504  503  0.13365329262E+03  0.10997681544E+01 -0.86403597155E+02  0.15915399373E+03  0.00000000000E+00 0. -1.
         21    1    1    2  505  502  0.84552757996E+02 -0.43269501219E+02  0.18455372744E+03  0.20756082707E+03  0.00000000000E+00 0.  1.
          2    1    1    2  501    0 -0.12888498876E+03  0.98726025985E+02  0.18594766282E+04  0.18665506957E+04  0.00000000000E+00 0. -1.
<scales pt_clust_3="14000.00000" pt_clust_4="126.57779" pt_clust_5="94.98115" pt_clust_6="80.04759"></scales>
<clustering>
<clus scale="   94.981">  1  5  2 -1</clus>
<clus scale="   80.048">  1  6  2 -1</clus>
<clus scale="  126.578">  2  4  1 -1</clus>
<clus scale="  126.578">  2  3  1 -1</clus>
</clustering>
</event>
<event>
 6    0  0.2433432E+002  0.1261376E+03  0.7546771E-02  0.1233302E+00
         21   -1    0    0  505  502  0.00000000000E+00  0.00000000000E+00  0.29559492199E+03  0.29559492199E+03  0.00000000000E+00 0.  1.
          1   -1    0    0  504    0 -0.00000000000E+00 -0.00000000000E+00 -0.10687610661E+04  0.10687610661E+04  0.00000000000E+00 0.  1.
         21    1    1    2  503  501 -0.68621198216E+02 -0.80165609927E+02  0.12932014330E+03  0.16691043503E+03  0.00000000000E+00 0.  1.
         21    1    1    2  504  502 -0.54592016902E+02  0.64379895867E+02 -0.54700606654E+00  0.84411838725E+02  0.00000000000E+00 0. -1.
         21    1    1    2  505  503  0.91450071193E+01 -0.39881911746E+02  0.97410814855E+02  0.10565540635E+03  0.00000000000E+00 0.  1.
          1    1    1    2  501    0  0.11406820800E+03  0.55667625807E+02 -0.99935009621E+03  0.10073783080E+04  0.00000000000E+00 0.  1.
<scales pt_clust_3="126.13758" pt_clust_4="76.66731" pt_clust_5="40.91697" pt_clust_6="14000.00000"></scales>
<clustering>
<clus scale="   40.917">  1  5  2 -1</clus>
<clus scale="   76.667">  1  4  2 -1</clus>
<clus scale="  126.138">  1  3  2 -1</clus>
<clus scale="   40.917">  1  3  2 -1</clus>
</clustering>
</event>
<event>
 6    0  0.2433432E+002  0.9822524E+02  0.7546771E-02  0.1284073E+00
          2   -1    0    0  504    0 -0.00000000000E+00  0.00000000000E+00  0.25014218328E+04  0.25014218328E+04  0.00000000000E+00 0. -1.
         21   -1    0    0  503  502  0.00000000000E+00 -0.00000000000E+00 -0.85651625491E+02  0.85651625491E+02  0.00000000000E+00 0. -1.
         21    1    1    2  503  501 -0.34290162569E+02 -0.18431512724E+02  0.80211508838E+02  0.89159531517E+02  0.00000000000E+00 0. -1.
         21    1    1    2  504  505  0.69090536898E+02  0.11460609704E+03  0.57597138682E+02  0.14568970503E+03  0.00000000000E+00 0. -1.
         21    1    1    2  505  502 -0.24581012378E+01 -0.74239407204E+02  0.35350347047E+00  0.74280931661E+02  0.00000000000E+00 0. -1.
          2    1    1    2  501    0 -0.32342273092E+02 -0.21935177114E+02  0.22776080563E+04  0.22779432901E+04  0.00000000000E+00 0. -1.
<scales pt_clust_3="38.92988" pt_clust_4="14000.00000" pt_clust_5="98.22524" pt_clust_6="39.15904"></scales>
<clustering>
<clus scale="   38.930">  2  3  1 -1</clus>
<clus scale="   39.159">  1  6  2 -1</clus>
<clus scale="   98.225">  2  5  1 -1</clus>
<clus scale="   38.930">  2  3  1 -1</clus>
</clustering>
</event>
<event>
 6    0  0.2433432E+002  0.8142440E+02  0.7546771E-02  0.1325057E+00
          2   -1    0    0  505    0 -0.00000000000E+00  0.00000000000E+00  0.15784025323E+04  0.15784025323E+04  0.00000000000E+00 0.  1.
         21   -1    0    0  504  502  0.00000000000E+00 -0.00000000000E+00 -0.13278905332E+03  0.13278905332E+03  0.00000000000E+00 0. -1.
         21    1    1    2  503  502 -0.31423412262E+02  0.10892650479E+02 -0.10327208473E+02  0.34824300531E+02  0.00000000000E+00 0.  1.
         21    1    1    2  504  501  0.89036052174E+02 -0.79321259321E+02 -0.50226022707E+02  0.12939062611E+03  0.00000000000E+00 0. -1.
         21    1    1    2  505  503  0.18367928788E+02  0.40182007218E+02  0.59597706431E+01  0.44581311984E+02  0.00000000000E+00 0. -1.
          2    1    1    2  501    0 -0.75980568700E+02  0.28246601624E+02  0.15002069395E+04  0.15023953470E+04  0.00000000000E+00 0.  1.
<scales pt_clust_3="33.25779" pt_clust_4="14000.00000" pt_clust_5="44.01191" pt_clust_6="81.42440"></scales>
<clustering>
<clus scale="   33.258">  2  3  1 -1</clus>
<clus scale="   44.012">  2  5  1 -1</clus>
<clus scale="   81.424">  1  6  2 -1</clus>
<clus scale="   33.258">  2  3  1 -1</clus>
</clustering>
</event>
<event>
 6    0  0.2433432E+002  0.1427161E+03  0.7546771E-02  0.1209720E+00
          2   -1    0    0  505    0 -0.00000000000E+00  0.00000000000E+00  0.19424577158E+04  0.19424577158E+04  0.00000000000E+00 0. -1.
         21   -1    0    0  501  502  0.00000000000E+00 -0.00000000000E+00 -0.18174140781E+03  0.18174140781E+03  0.00000000000E+00 0. -1.
         21    1    1    2  503  502  0.29036231138E+02 -0.19452463588E+02 -0.94594494691E+02  0.10084453126E+03  0.00000000000E+00 0. -1.
         21    1    1    2  504  503  0.56145108135E+02 -0.27977442762E+02 -0.34310369698E+02  0.71499733844E+02  0.00000000000E+00 0. -1.
         21    1    1    2  505  504  0.46643776461E+02  0.15652809668E+02 -0.76089224054E+01  0.49785018160E+02  0.00000000000E+00 0. -1.
          2    1    1    2  501    0 -0.13182511573E+03  0.31777096682E+02  0.18972300948E+04  0.19020698404E+04  0.00000000000E+00 0. -1.
<scales pt_clust_3="34.94998" pt_clust_4="38.90046" pt_clust_5="38.90046" pt_clust_6="134.65724"></scales>
<clustering>
<clus scale="   34.950">  2  3  1 -1</clus>
<clus scale="   38.900">  4  5 -1 -1</clus>
<clus scale="  134.657">  1  6  2 -1</clus>
<clus scale="   34.950">  2  3  1 -1</clus>
</clustering>
</event>
<event>
 6    0  0.2433432E+002  0.1345825E+03  0.7546771E-02  0.1220810E+00
         21   -1    0    0  501  502  0.00000000000E+00  0.00000000000E+00  0.83760249061E+03  0.83760249061E+03  0.00000000000E+00 0. -1.
          4   -1    0    0  503    0 -0.00000000000E+00 -0.00000000000E+00 -0.22147811631E+03  0.22147811631E+03  0.00000000000E+00 0.  1.
         21    1    1    2  503  504  0.21996903739E+01 -0.38201689525E+02 -0.27144004561E+02  0.46914866555E+02  0.00000000000E+00 0. -1.
         21    1    1    2  504  505  0.10111337080E+03 -0.11900911329E+03  0.10857108256E+03  0.19019664237E+03  0.00000000000E+00 0. -1.
         21    1    1    2  505  502 -0.21667968882E+02  0.27682972794E+02  0.63690682004E+03  0.63787627741E+03  0.00000000000E+00 0. -1.
          4    1    1    2  501    0 -0.81645092292E+02  0.12952783002E+03 -0.10220952375E+03  0.18409282059E+03  0.00000000000E+00 0.  1.
<scales pt_clust_3="36.85216" pt_clust_4="14000.00000" pt_clust_5="35.15463" pt_clust_6="134.58248"></scales>
<clustering>
<clus scale="   35.155">  1  5  2 -1</clus>
<clus scale="   36.852">  2  3  1 -1</clus>
<clus scale="  134.582">  2  6  1 -1</clus>
<clus scale="   35.155">  1  3  2 -1</clus>
</clustering>
</event>
<event>
 6    0  0.2433432E+002  0.2139767E+03  0.7546771E-02  0.1138455E+00
         21   -1    0    0  503  502  0.00000000000E+00  0.00000000000E+00  0.90625437542E+03  0.90625437542E+03  0.00000000000E+00 0.  1.
          1   -1    0    0  504    0 -0.00000000000E+00 -0.00000000000E+00 -0.19999808319E+03  0.19999808319E+03  0.00000000000E+00 0.  1.
         21    1    1    2  503  505  0.52942946496E+01  0.47843781488E+02  0.96926194905E+02  0.10822081242E+03  0.00000000000E+00 0.  1.
         21    1    1    2  504  502  0.22298987310E+03 -0.83880972363E+02  0.46922527630E+03  0.52624410776E+03  0.00000000000E+00 0.  1.
         21    1    1    2  505  501 -0.19293703936E+03  0.13756168999E+02  0.27181273879E+03  0.33361069874E+03  0.00000000000E+00 0.  1.
          1    1    1    2  501    0 -0.35347128388E+02  0.22281021876E+02 -0.13170791777E+03  0.13817683968E+03  0.00000000000E+00 0.  1.
<scales pt_clust_3="49.82768" pt_clust_4="213.97671" pt_clust_5="14000.00000" pt_clust_6="41.78353"></scales>
<clustering>
<clus scale="   41.784">  2  6  1 -1</clus>
<clus scale="   49.828">  1  3  2 -1</clus>
<clus scale="  213.977">  1  4  2 -1</clus>
<clus scale="   49.828">  1  3  2 -1</clus>
</clustering>
</event>
<event>
 6    0  0.2433432E+002  0.1227785E+03  0.7546771E-02  0.1238582E+00
          2   -1    0    0  503    0 -0.00000000000E+00  0.00000000000E+00  0.14770494647E+04  0.14770494647E+04  0.00000000000E+00 0.  1.
         21   -1    0    0  504  502  0.00000000000E+00 -0.00000000000E+00 -0.30344167355E+02  0.30344167355E+02  0.00000000000E+00 0.  1.
         21    1    1    2  503  502 -0.65684371387E+02 -0.22212697163E+02  0.45088416854E+02  0.82709164511E+02  0.00000000000E+00 0.  1.
         21    1    1    2  504  505 -0.49924581864E+02  0.67571058374E+02  0.22863156825E+03  0.24357895190E+03  0.00000000000E+00 0.  1.
         21    1    1    2  505  501  0.65442447225E+02  0.57363023310E+01  0.49215531804E+03  0.49652036831E+03  0.00000000000E+00 0.  1.
          2    1    1    2  501    0  0.50166506026E+02 -0.51094663541E+02  0.68082999416E+03  0.68458514731E+03  0.00000000000E+00 0.  1.
<scales pt_clust_3="69.33859" pt_clust_4="106.68497" pt_clust_5="58.20638" pt_clust_6="58.20638"></scales>
<clustering>
<clus scale="   58.206">  5  6 -1 -1</clus>
<clus scale="   69.339">  2  3  1 -1</clus>
<clus scale="  106.685">  2  4  1 -1</clus>
<clus scale="   69.339">  2  3  1 -1</clus>
</clustering>
</event>
<event>
 6    0  0.2433432E+002  0.1145997E+03  0.7546771E-02  0.1252282E+00
         21   -1    0    0  505  502  0.00000000000E+00  0.00000000000E+00  0.48418428419E+02  0.48418428419E+02  0.00000000000E+00 0.  1.
          2   -1    0    0  504    0 -0.00000000000E+00 -0.00000000000E+00 -0.12040642252E+04  0.12040642252E+04  0.00000000000E+00 0.  1.
         21    1    1    2  503  502 -0.39285376034E+02  0.37409212431E+02 -0.17275794304E+02  0.56931915598E+02  0.00000000000E+00 0.  1.
         21    1    1    2  504  503 -0.11663520991E+02  0.45712099261E+02 -0.45788097141E+02  0.65743315862E+02  0.00000000000E+00 0.  1.
         21    1    1    2  505  501 -0.39264950148E+02 -0.21570263887E+02 -0.15804295828E+02  0.47505666619E+02  0.00000000000E+00 0.  1.
          2    1    1    2  501    0  0.90213847173E+02 -0.61551047806E+02 -0.10767776095E+04  0.10823017555E+04  0.00000000000E+00 0.  1.
<scales pt_clust_3="36.91798" pt_clust_4="36.91798" pt_clust_5="44.79969" pt_clust_6="107.54473"></scales>
<clustering>
<clus scale="   36.918">  3  4 -1 -1</clus>
<clus scale="   44.800">  1  5  2 -1</clus>
<clus scale="  107.545">  2  6  1 -1</clus>
<clus scale="   44.800">  1  3  2 -1</clus>
</clustering>
</event>
<event>
 6    0  0.2433432E+002  0.7098714E+02  0.7546771E-02  0.1356768E+00
          2   -1    0    0  504    0 -0.00000000000E+00  0.00000000000E+00  0.33798160030E+03  0.33798160030E+03  0.00000000000E+00 0.  1.
         21   -1    0    0  505  502  0.00000000000E+00 -0.00000000000E+00 -0.30760822162E+03  0.30760822162E+03  0.00000000000E+00 0.  1.
         21    1    1    2  503  501  0.83736096292E+02  0.50214477191E+02  0.48760080919E+02  0.10913648809E+03  0.00000000000E+00 0.  1.
         21    1    1    2  504  502  0.33673000152E+01 -0.71884098011E+02  0.37465984749E+02  0.81131758698E+02  0.00000000000E+00 0.  1.
         21    1    1    2  505  503 -0.53106065113E+02  0.36454365450E+02 -0.24974435152E+03  0.25791745972E+03  0.00000000000E+00 0.  1.
          2    1    1    2  501    0 -0.33997331194E+02 -0.14784744630E+02  0.19389166454E+03  0.19740411541E+03  0.00000000000E+00 0.  1.
<scales pt_clust_3="70.98714" pt_clust_4="14000.00000" pt_clust_5="64.98487" pt_clust_6="37.07300"></scales>
<clustering>
<clus scale="   37.073">  1  6  2 -1</clus>
<clus scale="   64.985">  2  5  1 -1</clus>
<clus scale="   70.987">  1  3  2 -1</clus>
<clus scale="   64.985">  2  3  1 -1</clus>
</clustering>
</event>
<event>
 6    0  0.2433432E+002  0.9385642E+02  0.7546771E-02  0.1293773E+00
         21   -1    0    0  505  502  0.00000000000E+00  0.00000000000E+00  0.42637452187E+03  0.42637452187E+03  0.00000000000E+00 0. -1.
         -3   -1    0    0    0  501 -0.00000000000E+00 -0.00000000000E+00 -0.22309236393E+03  0.22309236393E+03  0.00000000000E+00 0. -1.
         21    1    1    2  503  502  0.36136818732E+02 -0.91222595676E+02  0.10382017117E+02  0.98667207872E+02  0.00000000000E+00 0.  1.
         21    1    1    2  504  501 -0.34954625175E+02  0.71474688491E+02  0.75230267452E+02  0.10949908701E+03  0.00000000000E+00 0. -1.
         21    1    1    2  505  504 -0.29282042639E+01  0.64146889690E+02  0.27263294059E+03  0.28009305263E+03  0.00000000000E+00 0. -1.
         -3    1    1    2    0  503  0.17460107067E+01 -0.44398982505E+02 -0.15496306722E+03  0.16120753829E+03  0.00000000000E+00 0. -1.
<scales pt_clust_3="14000.00000" pt_clust_4="93.85642" pt_clust_5="61.66419" pt_clust_6="44.43330"></scales>
<clustering>
<clus scale="   44.433">  2  6  1 -1</clus>
<clus scale="   61.664">  1  5  2 -1</clus>
<clus scale="   93.856">  2  4  1 -1</clus>
<clus scale="   61.664">  1  3  2 -1</clus>
</clustering>
</event>
<event>
 6    0  0.2433432E+002  0.1847135E+03  0.7546771E-02  0.1163318E+00
         21   -1    0    0  503  502  0.00000000000E+00  0.00000000000E+00  0.31163120658E+03  0.31163120658E+03  0.00000000000E+00 0. -1.
          2   -1    0    0  504    0 -0.00000000000E+00 -0.00000000000E+00 -0.14983586149E+04  0.14983586149E+04  0.00000000000E+00 0.  1.
         21    1    1    2  503  505  0.43122569440E+02  0.16256165977E+02  0.44249617710E+02  0.63889338664E+02  0.00000000000E+00 0.  1.
         21    1    1    2  504  502 -0.44584855568E+02  0.81958039467E+01 -0.36555591309E+02  0.58234798911E+02  0.00000000000E+00 0.  1.
         21    1    1    2  505  501  0.47461921864E+02 -0.20273521327E+03  0.19561314331E+03  0.28568987130E+03  0.00000000000E+00 0. -1.
          2    1    1    2  501    0 -0.45999635737E+02  0.17828324335E+03 -0.13900345780E+04  0.14021758126E+04  0.00000000000E+00 0.  1.
<scales pt_clust_3="39.33081" pt_clust_4="45.33189" pt_clust_5="184.71351" pt_clust_6="14000.00000"></scales>
<clustering>
<clus scale="   45.332">  1  4  2 -1</clus>
<clus scale="   39.331">  1  3  2 -1</clus>
<clus scale="  184.714">  1  5  2 -1</clus>
<clus scale="   45.332">  1  3  2 -1</clus>
</clustering>
</event>
<event>
 6    0  0.2433432E+002  0.1548503E+03  0.7546771E-02  0.1194636E+00
         21   -1    0    0  504  502  0.00000000000E+00  0.00000000000E+00  0.10996789059E+04  0.10996789059E+04  0.00000000000E+00 0.  1.
          3   -1    0    0  503    0 -0.00000000000E+00 -0.00000000000E+00 -0.37797478973E+03  0.37797478973E+03  0.00000000000E+00 0.  1.
         21    1    1    2  503  502 -0.28263098478E+02 -0.28907521327E+02  0.99363822555E+02  0.10727356038E+03  0.00000000000E+00 0. -1.
         21    1    1    2  504  505  0.51102230501E+02 -0.14180114908E+02  0.42272454165E+03  0.42603820454E+03  0.00000000000E+00 0.  1.
         21    1    1    2  505  501  0.11911623353E+03  0.20752099374E+02  0.55131480129E+03  0.56441769713E+03  0.00000000000E+00 0.  1.
          3    1    1    2  501    0 -0.14195536555E+03  0.22335536860E+02 -0.35169904928E+03  0.37992423361E+03  0.00000000000E+00 0.  1.
<scales pt_clust_3="40.42830" pt_clust_4="37.65537" pt_clust_5="37.65537" pt_clust_6="144.03435"></scales>
<clustering>
<clus scale="   37.655">  4  5 -1 -1</clus>
<clus scale="   40.428">  1  3  2 -1</clus>
<clus scale="  144.034">  2  6  1 -1</clus>
<clus scale="   40.428">  1  3  2 -1</clus>
</clustering>
</event>
<event>
 6    0  0.2433432E+002  0.2134566E+03  0.7546771E-02  0.1138858E+00
         21   -1    0    0  501  502  0.00000000000E+00  0.00000000000E+00  0.16753809637E+03  0.16753809637E+03  0.00000000000E+00 0.  1.
          2   -1    0    0  504    0 -0.00000000000E+00 -0.00000000000E+00 -0.14276400230E+04  0.14276400230E+04  0.00000000000E+00 0.  1.
         21    1    1    2  503  505 -0.48312219434E+02 -0.55233496659E+02 -0.37694770648E+01  0.73478014788E+02  0.00000000000E+00 0.  1.
         21    1    1    2  504  503  0.29255137784E-01 -0.18158065688E+03 -0.60346277664E+02  0.19134578396E+03  0.00000000000E+00 0.  1.
         21    1    1    2  505  502 -0.70057830086E+02  0.84367207842E+02  0.89814362694E+01  0.11002995734E+03  0.00000000000E+00 0.  1.
          2    1    1    2  501    0  0.11834079438E+03  0.15244694570E+03 -0.12049676082E+04  0.12203243633E+04  0.00000000000E+00 0.  1.
<scales pt_clust_3="55.45120" pt_clust_4="55.45120" pt_clust_5="109.66278" pt_clust_6="194.82070"></scales>
<clustering>
<clus scale="   55.451">  3  4 -1 -1</clus>
<clus scale="  109.663">  1  5  2 -1</clus>
<clus scale="  194.821">  2  6  1 -1</clus>
<clus scale="  109.663">  1  3  2 -1</clus>
</clustering>
</event>
<event>
 6    0  0.2433432E+002  0.1193660E+03  0.7546771E-02  0.1244147E+00
          1   -1    0    0  505    0 -0.00000000000E+00  0.00000000000E+00  0.12292943650E+03  0.12292943650E+03  0.00000000000E+00 0.  1.
         21   -1    0    0  503  502  0.00000000000E+00 -0.00000000000E+00 -0.15614922526E+04  0.15614922526E+04  0.00000000000E+00 0.  1.
         21    1    1    2  503  504 -0.98249211177E+01 -0.12991316079E+03 -0.57342785973E+03  0.58804206375E+03  0.00000000000E+00 0.  1.
         21    1    1    2  504  501  0.82691039463E+02  0.77201205032E+02 -0.13500550035E+03  0.17613721694E+03  0.00000000000E+00 0.  1.
         21    1    1    2  505  502 -0.11077652491E+03  0.84833122055E+02 -0.81231104541E+03  0.82420709264E+03  0.00000000000E+00 0.  1.
          1    1    1    2  501    0  0.37910406562E+02 -0.32121166293E+02  0.82181589361E+02  0.96035315794E+02  0.00000000000E+00 0.  1.
<scales pt_clust_3="119.36595" pt_clust_4="120.44674" pt_clust_5="14000.00000" pt_clust_6="49.68871"></scales>
<clustering>
<clus scale="   49.689">  1  6  2 -1</clus>
<clus scale="  120.447">  1  4  2 -1</clus>
<clus scale="  119.366">  1  3  2 -1</clus>
<clus scale="  119.366">  2  3  1 -1</clus>
</clustering>
</event>
<event>
 6    0  0.2433432E+002  0.1104436E+03  0.7546771E-02  0.1259751E+00
         21   -1    0    0  503  502  0.00000000000E+00  0.00000000000E+00  0.54618870939E+03  0.54618870939E+03  0.00000000000E+00 0. -1.
          1   -1    0    0  504    0 -0.00000000000E+00 -0.00000000000E+00 -0.27929634940E+03  0.27929634940E+03  0.00000000000E+00 0. -1.
         21    1    1    2  503  505  0.18108232343E+02  0.33511009406E+02  0.45486221607E+03  0.45645430378E+03  0.00000000000E+00 0. -1.
         21    1    1    2  504  502 -0.53885056075E+02 -0.96621657324E+02 -0.36233303259E+02  0.11641390036E+03  0.00000000000E+00 0. -1.
         21    1    1    2  505  501 -0.71140328797E+02  0.12869669045E+02 -0.18647141444E+02  0.74661172283E+02  0.00000000000E+00 0.  1.
          1    1    1    2  501    0  0.10691715253E+03  0.50240978873E+02 -0.13308941138E+03  0.17795568236E+03  0.00000000000E+00 0. -1.
<scales pt_clust_3="38.09063" pt_clust_4="110.44357" pt_clust_5="69.53570" pt_clust_6="14000.00000"></scales>
<clustering>
<clus scale="   38.091">  1  3  2 -1</clus>
<clus scale="   69.536">  1  5  2 -1</clus>
<clus scale="  110.444">  1  4  2 -1</clus>
<clus scale="   38.091">  1  3  2 -1</clus>
</clustering>
</event>
<event>
 6    0  0.2433432E+002  0.1654521E+03  0.7546771E-02  0.1182675E+00
         -4   -1    0    0    0  501 -0.00000000000E+00  0.00000000000E+00  0.70479585879E+03  0.70479585879E+03  0.00000000000E+00 0.  1.
         21   -1    0    0  505  502  0.00000000000E+00 -0.00000000000E+00 -0.94986621313E+02  0.94986621313E+02  0.00000000000E+00 0. -1.
         21    1    1    2  503  502 -0.80189475094E+02  0.17489221708E+00  0.24388305526E+02  0.83816298830E+02  0.00000000000E+00 0. -1.
         21    1    1    2  504  503 -0.71348147277E+02  0.30794611395E+02  0.52266342797E+02  0.93651678043E+02  0.00000000000E+00 0. -1.
         21    1    1    2  505  501  0.16957157886E+03  0.23350515261E+01  0.12077266185E+03  0.20819704291E+03  0.00000000000E+00 0.  1.
         -4    1    1    2    0  504 -0.18033956492E+02 -0.33304555138E+02  0.41238192730E+03  0.41411746033E+03  0.00000000000E+00 0.  1.
<scales pt_clust_3="40.02882" pt_clust_4="40.02882" pt_clust_5="160.24423" pt_clust_6="37.87370"></scales>
<clustering>
<clus scale="   37.874">  1  6  2 -1</clus>
<clus scale="   40.029">  3  4 -1 -1</clus>
<clus scale="  160.244">  1  5  2 -1</clus>
<clus scale="  165.452">  2  3  1 -1</clus>
</clustering>
</event>
<event>
 6    0  0.2433432E+002  0.1414176E+03  0.7546771E-02  0.1211434E+00
          1   -1    0    0  505    0 -0.00000000000E+00  0.00000000000E+00  0.20729816882E+03  0.20729816882E+03  0.00000000000E+00 0.  1.
         21   -1    0    0  501  502  0.00000000000E+00 -0.00000000000E+00 -0.10453371957E+04  0.10453371957E+04  0.00000000000E+00 0. -1.
         21    1    1    2  503  504  0.40059916531E+02 -0.24436969500E+02 -0.17988313626E+03  0.18590294538E+03  0.00000000000E+00 0. -1.
         21    1    1    2  504  502  0.68961227730E+01 -0.88658026709E+02 -0.48472702393E+03  0.49281648708E+03  0.00000000000E+00 0. -1.
         21    1    1    2  505  503 -0.54657701064E+01  0.13985729212E+03 -0.35719221864E+03  0.38363552736E+03  0.00000000000E+00 0. -1.
          1    1    1    2  501    0 -0.41490269198E+02 -0.26762295909E+02  0.18376335191E+03  0.19028040473E+03  0.00000000000E+00 0.  1.
<scales pt_clust_3="45.70139" pt_clust_4="45.70139" pt_clust_5="126.65260" pt_clust_6="49.37269"></scales>
<clustering>
<clus scale="   45.701">  3  4 -1 -1</clus>
<clus scale="   49.373">  1  6  2 -1</clus>
<clus scale="  126.653">  1  5  2 -1</clus>
<clus scale="  141.418">  2  3  1 -1</clus>
</clustering>
</event>
<event>
 6    0  0.2433432E+002  0.8908405E+02  0.7546771E-02  0.1305085E+00
          2   -1    0    0  504    0 -0.00000000000E+00  0.00000000000E+00  0.12710684038E+04  0.12710684038E+04  0.00000000000E+00 0.  1.
         21   -1    0    0  505  502  0.00000000000E+00 -0.00000000000E+00 -0.45391245629E+02  0.45391245629E+02  0.00000000000E+00 0. -1.
         21    1    1    2  503  501 -0.67397365032E+02  0.34599014068E+02  0.26299181711E+03  0.27368630301E+03  0.00000000000E+00 0.  1.
         21    1    1    2  504  502  0.36527247971E+02 -0.90691515160E+01  0.58921451280E+02  0.69915854958E+02  0.00000000000E+00 0. -1.
         21    1    1    2  505  503  0.72906687554E+02  0.32100373974E+02  0.14784723372E+02  0.81021029027E+02  0.00000000000E+00 0. -1.
          2    1    1    2  501    0 -0.42036570493E+02 -0.57630236527E+02  0.88897916644E+03  0.89183646246E+03  0.00000000000E+00 0.  1.
<scales pt_clust_3="89.08405" pt_clust_4="37.63628" pt_clust_5="14000.00000" pt_clust_6="70.83497"></scales>
<clustering>
<clus scale="   37.636">  2  4  1 -1</clus>
<clus scale="   70.835">  1  6  2 -1</clus>
<clus scale="   89.084">  1  3  2 -1</clus>
<clus scale="   37.636">  2  3  1 -1</clus>
</clustering>
</event>
<event>
 6    0  0.2433432E+002  0.1645560E+03  0.7546771E-02  0.1183647E+00
         21   -1    0    0  503  502  0.00000000000E+00  0.00000000000E+00  0.59287889171E+02  0.59287889171E+02  0.00000000000E+00 0.  1.
          2   -1    0    0  504    0 -0.00000000000E+00 -0.00000000000E+00 -0.34182022026E+04  0.34182022026E+04  0.00000000000E+00 0.  1.
         21    1    1    2  503  501 -0.41808344474E+01 -0.31699985642E+02  0.38787213446E+02  0.50267448644E+02  0.00000000000E+00 0.  1.
         21    1    1    2  504  505 -0.84805177344E+02  0.13713107777E+03 -0.22798826040E+04  0.22855768503E+04  0.00000000000E+00 0.  1.
         21    1    1    2  505  502  0.11089965087E+02  0.50425631256E+02 -0.16051035213E+03  0.16860991891E+03  0.00000000000E+00 0. -1.
          2    1    1    2  501    0  0.77896046704E+02 -0.15585672338E+03 -0.95730857074E+03  0.97303587392E+03  0.00000000000E+00 0.  1.
<scales pt_clust_3="31.97450" pt_clust_4="164.55599" pt_clust_5="42.89649" pt_clust_6="14000.00000"></scales>
<clustering>
<clus scale="   31.974">  1  3  2 -1</clus>
<clus scale="   42.896">  1  5  2 -1</clus>
<clus scale="  164.556">  2  4  1 -1</clus>
<clus scale="   31.974">  1  3  2 -1</clus>
</clustering>
</event>
<event>
 6    0  0.2433432E+002  0.1141575E+03  0.7546771E-02  0.1253059E+00
          2   -1    0    0  503    0 -0.00000000000E+00  0.00000000000E+00  0.25067237636E+03  0.25067237636E+03  0.00000000000E+00 0.  1.
         21   -1    0    0  501  502  0.00000000000E+00 -0.00000000000E+00 -0.41065548083E+03  0.41065548083E+03  0.00000000000E+00 0.  1.
         21    1    1    2  503  504  0.24915035013E+02  0.50138288579E+02  0.73082786574E+00  0.55992330374E+02  0.00000000000E+00 0.  1.
         21    1    1    2  504  505  0.84566881803E+02  0.12122989049E+02  0.19336842154E+03  0.21139978905E+03  0.00000000000E+00 0.  1.
         21    1    1    2  505  502 -0.46483421680E+02 -0.47260083359E+02 -0.30646895443E+03  0.31355612576E+03  0.00000000000E+00 0.  1.
          2    1    1    2  501    0 -0.62998495136E+02 -0.15001194269E+02 -0.47613399443E+02  0.80379612001E+02  0.00000000000E+00 0.  1.
<scales pt_clust_3="55.98756" pt_clust_4="14000.00000" pt_clust_5="114.15750" pt_clust_6="62.19863"></scales>
<clustering>
<clus scale="   55.988">  1  3  2 -1</clus>
<clus scale="   62.199">  2  6  1 -1</clus>
<clus scale="  114.157">  2  5  1 -1</clus>
<clus scale="   62.199">  2  3  1 -1</clus>
</clustering>
</event>
<event>
 6    0  0.2433432E+002  0.1511359E+03  0.7546771E-02  0.1199084E+00
         21   -1    0    0  501  502  0.00000000000E+00  0.00000000000E+00  0.67323645475E+02  0.67323645475E+02  0.00000000000E+00 0.  1.
          2   -1    0    0  505    0 -0.00000000000E+00 -0.00000000000E+00 -0.11677583120E+04  0.11677583120E+04  0.00000000000E+00 0. -1.
         21    1    1    2  503  504 -0.70113953703E+02 -0.71732977895E+01 -0.37701331121E+02  0.79930051128E+02  0.00000000000E+00 0.  1.
         21    1    1    2  504  502 -0.71132170395E+02 -0.32691758415E+02  0.17588655050E+01  0.78304727452E+02  0.00000000000E+00 0.  1.
         21    1    1    2  505  503  0.34130670773E+02  0.48756359406E+01 -0.99624724888E+02  0.10542182090E+03  0.00000000000E+00 0. -1.
          2    1    1    2  501    0  0.10711545332E+03  0.34989420264E+02 -0.96486747606E+03  0.97142535803E+03  0.00000000000E+00 0. -1.
<scales pt_clust_3="44.30375" pt_clust_4="44.30375" pt_clust_5="34.47716" pt_clust_6="143.65015"></scales>
<clustering>
<clus scale="   34.477">  2  5  1 -1</clus>
<clus scale="   44.304">  3  4 -1 -1</clus>
<clus scale="  143.650">  2  6  1 -1</clus>
<clus scale="  151.136">  1  3  2 -1</clus>
</clustering>
</event>
<event>
 6    0  0.2433432E+002  0.6215097E+02  0.7546771E-02  0.1389021E+00
         21   -1    0    0  504  502  0.00000000000E+00  0.00000000000E+00  0.26263563343E+04  0.26263563343E+04  0.00000000000E+00 0. -1.
          1   -1    0    0  505    0 -0.00000000000E+00 -0.00000000000E+00 -0.83874869757E+02  0.83874869757E+02  0.00000000000E+00 0.  1.
         21    1    1    2  503  501  0.72606739744E+01 -0.64456004799E+02  0.90756834176E+03  0.90988328313E+03  0.00000000000E+00 0. -1.
         21    1    1    2  504  503  0.39159928701E+02  0.25856237909E+02  0.14748412510E+03  0.15476954549E+03  0.00000000000E+00 0. -1.
         21    1    1    2  505  502 -0.10338391311E+03  0.14295792686E+02  0.15523504569E+04  0.15558549239E+04  0.00000000000E+00 0. -1.
          1    1    1    2  501    0  0.56963310432E+02  0.24303974204E+02 -0.64921459195E+02  0.89723451569E+02  0.00000000000E+00 0.  1.
<scales pt_clust_3="59.06909" pt_clust_4="46.92595" pt_clust_5="62.15097" pt_clust_6="14000.00000"></scales>
<clustering>
<clus scale="   46.926">  1  4  2 -1</clus>
<clus scale="   59.069">  1  3  2 -1</clus>
<clus scale="   62.151">  1  5  2 -1</clus>
<clus scale="   46.926">  1  3  2 -1</clus>
</clustering>
</event>
<event>
 6    0  0.2433432E+002  0.2630087E+03  0.7546771E-02  0.1105349E+00
         21   -1    0    0  504  502  0.00000000000E+00  0.00000000000E+00  0.23273098562E+02  0.23273098562E+02  0.00000000000E+00 0. -1.
          2   -1    0    0  503    0 -0.00000000000E+00 -0.00000000000E+00 -0.42583409930E+04  0.42583409930E+04  0.00000000000E+00 0. -1.
         21    1    1    2  503  505 -0.10892579136E+03  0.12825719456E+03 -0.21386031257E+04  0.21452128251E+04  0.00000000000E+00 0. -1.
         21    1    1    2  504  501  0.47284012505E+02  0.57860343246E+02 -0.25862084193E+03  0.26919943729E+03  0.00000000000E+00 0. -1.
         21    1    1    2  505  502 -0.39441545523E+02  0.55199890091E+02 -0.34570877819E+03  0.35230274296E+03  0.00000000000E+00 0. -1.
          2    1    1    2  501    0  0.10108332437E+03 -0.24131742790E+03 -0.14921351487E+04  0.15148990862E+04  0.00000000000E+00 0. -1.
<scales pt_clust_3="63.84156" pt_clust_4="74.72347" pt_clust_5="63.84156" pt_clust_6="243.03201"></scales>
<clustering>
<clus scale="   63.842">  3  5 -1 -1</clus>
<clus scale="   74.723">  1  4  2 -1</clus>
<clus scale="  243.032">  1  6  2 -1</clus>
<clus scale="   74.723">  1  3  2 -1</clus>
</clustering>
</event>
<event>
 6    0  0.2433432E+002  0.1180147E+03  0.7546771E-02  0.1246409E+00
         21   -1    0    0  504  502  0.00000000000E+00  0.00000000000E+00  0.24564266498E+02  0.24564266498E+02  0.00000000000E+00 0. -1.
          2   -1    0    0  503    0 -0.00000000000E+00 -0.00000000000E+00 -0.23320984846E+04  0.23320984846E+04  0.00000000000E+00 0.  1.
         21    1    1    2  503  505  0.11750289164E+02 -0.61600752613E+02 -0.39847351872E+03  0.40337806973E+03  0.00000000000E+00 0.  1.
         21    1    1    2  504  501  0.53398050867E+02  0.86658794310E+02 -0.94855431496E+03  0.95400020278E+03  0.00000000000E+00 0.  1.
         21    1    1    2  505  502 -0.81312484694E+02 -0.65910363282E+02 -0.12679695539E+03  0.16441825948E+03  0.00000000000E+00 0. -1.
          2    1    1    2  501    0  0.16164144664E+02  0.40852321585E+02 -0.83370942901E+03  0.83486621909E+03  0.00000000000E+00 0.  1.
<scales pt_clust_3="62.71142" pt_clust_4="32.72393" pt_clust_5="106.98799" pt_clust_6="32.72393"></scales>
<clustering>
<clus scale="   32.724">  4  6 -1 -1</clus>
<clus scale="   62.711">  2  3  1 -1</clus>
<clus scale="  106.988">  1  5  2 -1</clus>
<clus scale="  106.988">  1  3  2 -1</clus>
</clustering>
</event>
<event>
 6    0  0.2433432E+002  0.1029097E+03  0.7546771E-02  0.1274293E+00
         21   -1    0    0  505  502  0.00000000000E+00  0.00000000000E+00  0.97857181882E+03  0.97857181882E+03  0.00000000000E+00 0. -1.
          4   -1    0    0  504    0 -0.00000000000E+00 -0.00000000000E+00 -0.80160219224E+03  0.80160219224E+03  0.00000000000E+00 0.  1.
         21    1    1    2  503  501  0.55278462174E+02 -0.52395900225E+01 -0.22292868094E+03  0.22973976249E+03  0.00000000000E+00 0. -1.
         21    1    1    2  504  502  0.30555624832E+02  0.43166446310E+01 -0.27337832856E+02  0.41226650786E+02  0.00000000000E+00 0. -1.
         21    1    1    2  505  503 -0.80695522650E+02  0.64975669169E+02  0.96352688583E+03  0.96908083496E+03  0.00000000000E+00 0. -1.
          4    1    1    2  501    0 -0.51385643562E+01 -0.64052723777E+02 -0.53629074546E+03  0.54012676283E+03  0.00000000000E+00 0.  1.
<scales pt_clust_3="14000.00000" pt_clust_4="30.85903" pt_clust_5="102.90974" pt_clust_6="63.16271"></scales>
<clustering>
<clus scale="   30.859">  2  4  1 -1</clus>
<clus scale="   63.163">  2  6  1 -1</clus>
<clus scale="  102.910">  1  5  2 -1</clus>
<clus scale="  102.910">  1  3  2 -1</clus>
</clustering>
</event>
<event>
 6    0  0.2433432E+002  0.1359098E+03  0.7546771E-02  0.1218941E+00
         21   -1    0    0  503  502  0.00000000000E+00  0.00000000000E+00  0.52796727056E+03  0.52796727056E+03  0.00000000000E+00 0.  1.
          1   -1    0    0  504    0 -0.00000000000E+00 -0.00000000000E+00 -0.57812774477E+03  0.57812774477E+03  0.00000000000E+00 0.  1.
         21    1    1    2  503  505 -0.44259068897E+02  0.53150291573E+02  0.18052553057E+03  0.19332171596E+03  0.00000000000E+00 0.  1.
         21    1    1    2  504  502  0.69189093573E+02 -0.32736685688E+02 -0.48829977834E+01  0.76698532754E+02  0.00000000000E+00 0.  1.
         21    1    1    2  505  501 -0.72387453435E+02  0.31473381852E+02  0.29764058745E+03  0.30792927188E+03  0.00000000000E+00 0.  1.
          1    1    1    2  501    0  0.47457428759E+02 -0.51886987737E+02 -0.52344359445E+03  0.52814549474E+03  0.00000000000E+00 0.  1.
<scales pt_clust_3="40.17666" pt_clust_4="128.95481" pt_clust_5="40.17666" pt_clust_6="70.31690"></scales>
<clustering>
<clus scale="   40.177">  3  5 -1 -1</clus>
<clus scale="   70.317">  2  6  1 -1</clus>
<clus scale="  128.955">  2  4  1 -1</clus>
<clus scale="  135.910">  1  3  2 -1</clus>
</clustering>
</event>
<event>
 6    0  0.2433432E+002  0.8309131E+02  0.7546771E-02  0.1320501E+00
         21   -1    0    0  503  502  0.00000000000E+00  0.00000000000E+00  0.20148880785E+03  0.20148880785E+03  0.00000000000E+00 0. -1.
          2   -1    0    0  504    0 -0.00000000000E+00 -0.00000000000E+00 -0.11334373662E+04  0.11334373662E+04  0.00000000000E+00 0. -1.
         21    1    1    2  503  501 -0.45234355625E+02  0.51217915459E+02 -0.75710705788E+01  0.68751312005E+02  0.00000000000E+00 0. -1.
         21    1    1    2  504  505  0.13559999957E+03  0.42230483419E+02 -0.79541762696E+02  0.16278103583E+03  0.00000000000E+00 0. -1.
         21    1    1    2  505  502 -0.14690312539E+02 -0.65388440340E+02  0.11879158410E+03  0.13639242598E+03  0.00000000000E+00 0. -1.
          2    1    1    2  501    0 -0.75675331405E+02 -0.28059958537E+02 -0.96362730920E+03  0.96700140025E+03  0.00000000000E+00 0. -1.
<scales pt_clust_3="56.71419" pt_clust_4="83.09131" pt_clust_5="67.01831" pt_clust_6="14000.00000"></scales>
<clustering>
<clus scale="   67.018">  1  5  2 -1</clus>
<clus scale="   56.714">  1  3  2 -1</clus>
<clus scale="   83.091">  1  4  2 -1</clus>
<clus scale="   67.018">  1  3  2 -1</clus>
</clustering>
</event>
<event>
 6    0  0.2433432E+002  0.2299184E+03  0.7546771E-02  0.1126697E+00
          2   -1    0    0  504    0 -0.00000000000E+00  0.00000000000E+00  0.90710723384E+03  0.90710723384E+03  0.00000000000E+00 0. -1.
         21   -1    0    0  505  502  0.00000000000E+00 -0.00000000000E+00 -0.18726960482E+03  0.18726960482E+03  0.00000000000E+00 0. -1.
         21    1    1    2  503  501  0.67197923965E+02  0.37928111204E+02  0.28127421305E+02  0.82129497953E+02  0.00000000000E+00 0. -1.
         21    1    1    2  504  502 -0.60223435857E+02 -0.57842247381E+02 -0.26335444920E+02  0.87556515850E+02  0.00000000000E+00 0. -1.
         21    1    1    2  505  503  0.13311622472E+03  0.17944806412E+03  0.57284535023E+02  0.23065787425E+03  0.00000000000E+00 0. -1.
          2    1    1    2  501    0 -0.14009071283E+03 -0.15953392795E+03  0.66076111761E+03  0.69403295061E+03  0.00000000000E+00 0. -1.
<scales pt_clust_3="33.04857" pt_clust_4="83.50202" pt_clust_5="33.04857" pt_clust_6="222.93471"></scales>
<clustering>
<clus scale="   33.049">  3  5 -1 -1</clus>
<clus scale="   83.502">  2  4  1 -1</clus>
<clus scale="  222.935">  1  6  2 -1</clus>
<clus scale="   83.502">  2  3  1 -1</clus>
</clustering>
</event>
<event>
 6    0  0.2433432E+002  0.9514444E+02  0.7546771E-02  0.1290851E+00
          2   -1    0    0  503    0 -0.00000000000E+00  0.00000000000E+00  0.38588789010E+03  0.38588789010E+03  0.00000000000E+00 0.  1.
         21   -1    0    0  505  502  0.00000000000E+00 -0.00000000000E+00 -0.34310811597E+04  0.34310811597E+04  0.00000000000E+00 0. -1.
         21    1    1    2  503  502  0.55935487116E+02 -0.66158768321E+02 -0.33131331225E+04  0.33142656576E+04  0.00000000000E+00 0. -1.
         21    1    1    2  504  501 -0.59522723288E+02  0.39205134735E+02 -0.17058294218E+02  0.73286987786E+02  0.00000000000E+00 0.  1.
         21    1    1    2  505  504 -0.59445913607E+02  0.25213858074E+02 -0.54263133923E+02  0.84344786363E+02  0.00000000000E+00 0.  1.
          2    1    1    2  501    0  0.63033149779E+02  0.17397755124E+01  0.33926128105E+03  0.34507161809E+03  0.00000000000E+00 0.  1.
<scales pt_clust_3="87.14802" pt_clust_4="36.34032" pt_clust_5="36.34032" pt_clust_6="63.05715"></scales>
<clustering>
<clus scale="   36.340">  4  5 -1 -1</clus>
<clus scale="   63.057">  1  6  2 -1</clus>
<clus scale="   87.148">  2  3  1 -1</clus>
<clus scale="   87.148">  2  3  1 -1</clus>
</clustering>
</event>
<event>
 6    0  0.2433432E+002  0.1964091E+03  0.7546771E-02  0.1152805E+00
          2   -1    0    0  504    0 -0.00000000000E+00  0.00000000000E+00  0.11757674751E+04  0.11757674751E+04  0.00000000000E+00 0.  1.
         21   -1    0    0  505  502  0.00000000000E+00 -0.00000000000E+00 -0.12806293870E+03  0.12806293870E+03  0.00000000000E+00 0.  1.
         21    1    1    2  503  502 -0.40504213162E+02 -0.69914597543E+02  0.13843298536E+03  0.16028828300E+03  0.00000000000E+00 0.  1.
         21    1    1    2  504  503 -0.97650203061E+02 -0.16245315097E+01  0.23068825116E+03  0.25051002073E+03  0.00000000000E+00 0.  1.
         21    1    1    2  505  501  0.16716948113E+03  0.60290639879E+02 -0.33018068328E+02  0.18075062797E+03  0.00000000000E+00 0.  1.
          2    1    1    2  501    0 -0.29015064903E+02  0.11248489173E+02  0.71160136817E+03  0.71228148206E+03  0.00000000000E+00 0.  1.
<scales pt_clust_3="78.13025" pt_clust_4="78.13025" pt_clust_5="174.00074" pt_clust_6="31.11917"></scales>
<clustering>
<clus scale="   31.119">  1  6  2 -1</clus>
<clus scale="   78.130">  3  4 -1 -1</clus>
<clus scale="  174.001">  2  5  1 -1</clus>
<clus scale="  174.001">  2  3  1 -1</clus>
</clustering>
</event>
<event>
 6    0  0.2433432E+002  0.7430275E+02  0.7546771E-02  0.1346044E+00
         -1   -1    0    0    0  501 -0.00000000000E+00  0.00000000000E+00  0.45303810674E+03  0.45303810674E+03  0.00000000000E+00 0.  1.
         21   -1    0    0  503  502  0.00000000000E+00 -0.00000000000E+00 -0.98943327409E+03  0.98943327409E+03  0.00000000000E+00 0.  1.
         21    1    1    2  503  504 -0.57780835996E+02  0.86310697893E+02 -0.69168310264E+02  0.12478948964E+03  0.00000000000E+00 0.  1.
         21    1    1    2  504  501  0.37923288226E+02  0.30998403733E+02 -0.66636764986E+02  0.82701482887E+02  0.00000000000E+00 0.  1.
         21    1    1    2  505  502  0.24037822297E+02 -0.68672350268E+02 -0.81473053759E+03  0.81797283419E+03  0.00000000000E+00 0.  1.
         -1    1    1    2    0  505 -0.41802745270E+01 -0.48636751359E+02  0.41414044549E+03  0.41700757412E+03  0.00000000000E+00 0.  1.
<scales pt_clust_3="74.30275" pt_clust_4="42.35742" pt_clust_5="14000.00000" pt_clust_6="48.81607"></scales>
<clustering>
<clus scale="   48.816">  1  6  2 -1</clus>
<clus scale="   42.357">  1  4  2 -1</clus>
<clus scale="   74.303">  1  3  2 -1</clus>
<clus scale="   74.303">  2  3  1 -1</clus>
</clustering>
</event>
<event>
 6    0  0.2433432E+002  0.1129264E+03  0.7546771E-02  0.1255245E+00
         21   -1    0    0  504  502  0.00000000000E+00  0.00000000000E+00  0.25295699411E+03  0.25295699411E+03  0.00000000000E+00 0. -1.
          2   -1    0    0  503    0 -0.00000000000E+00 -0.00000000000E+00 -0.98184242257E+03  0.98184242257E+03  0.00000000000E+00 0. -1.
         21    1    1    2  503  502 -0.54204169878E+02 -0.80043616978E+01 -0.16302389274E+03  0.17198532334E+03  0.00000000000E+00 0. -1.
         21    1    1    2  504  505  0.45736156621E+02 -0.10031926311E+03  0.18879531361E+03  0.21863078698E+03  0.00000000000E+00 0. -1.
         21    1    1    2  505  501  0.10313749786E+02  0.15224412738E+03 -0.88142200294E+02  0.17622058685E+03  0.00000000000E+00 0.  1.
          2    1    1    2  501    0 -0.18457365284E+01 -0.43920502573E+02 -0.66651464903E+03  0.66796271951E+03  0.00000000000E+00 0. -1.
<scales pt_clust_3="63.48906" pt_clust_4="14000.00000" pt_clust_5="112.92642" pt_clust_6="43.95927"></scales>
<clustering>
<clus scale="   43.959">  2  6  1 -1</clus>
<clus scale="   63.489">  2  3  1 -1</clus>
<clus scale="  112.926">  2  5  1 -1</clus>
<clus scale="  112.926">  1  3  2 -1</clus>
</clustering>
</event>
<event>
 6    0  0.2433432E+002  0.1240055E+03  0.7546771E-02  0.1236632E+00
         21   -1    0    0  503  502  0.00000000000E+00  0.00000000000E+00  0.33427296774E+03  0.33427296774E+03  0.00000000000E+00 0.  1.
          3   -1    0    0  505    0 -0.00000000000E+00 -0.00000000000E+00 -0.94997406796E+02  0.94997406796E+02  0.00000000000E+00 0.  1.
         21    1    1    2  503  501  0.34323486715E+02  0.27133632271E+01  0.16655710072E+03  0.17007860501E+03  0.00000000000E+00 0.  1.
         21    1    1    2  504  502  0.36051098703E+02 -0.27276776267E+02  0.28046668263E+02  0.53200750388E+02  0.00000000000E+00 0.  1.
         21    1    1    2  505  504  0.38268260070E+02 -0.49431531626E+02 -0.10581365091E+02  0.63402691858E+02  0.00000000000E+00 0.  1.
          3    1    1    2  501    0 -0.10864284549E+03  0.73994944665E+02  0.55253157043E+02  0.14258832728E+03  0.00000000000E+00 0.  1.
<scales pt_clust_3="34.43057" pt_clust_4="38.54972" pt_clust_5="38.54972" pt_clust_6="116.16187"></scales>
<clustering>
<clus scale="   34.431">  1  3  2 -1</clus>
<clus scale="   38.550">  4  5 -1 -1</clus>
<clus scale="  116.162">  1  6  2 -1</clus>
<clus scale="   34.431">  1  3  2 -1</clus>
</clustering>
</event>
<event>
 6    0  0.2433432E+002  0.1416839E+03  0.7546771E-02  0.1211081E+00
         21   -1    0    0  505  502  0.00000000000E+00  0.00000000000E+00  0.72911663402E+02  0.72911663402E+02  0.00000000000E+00 0. -1.
          1   -1    0    0  503    0 -0.00000000000E+00 -0.00000000000E+00 -0.26562646672E+04  0.26562646672E+04  0.00000000000E+00 0.  1.
         21    1    1    2  503  504 -0.30347268823E+02 -0.39678286795E+02 -0.29171361464E+03  0.29595972046E+03  0.00000000000E+00 0.  1.
         21    1    1    2  504  502  0.15362369496E+03  0.15329063279E+02 -0.29121175332E+02  0.15710907894E+03  0.00000000000E+00 0. -1.
         21    1    1    2  505  501 -0.19295200690E+02  0.37593740277E+02 -0.75042808302E+02  0.86122106079E+02  0.00000000000E+00 0.  1.
          1    1    1    2  501    0 -0.10398122544E+03 -0.13244516761E+02 -0.21874754055E+04  0.21899854251E+04  0.00000000000E+00 0.  1.
<scales pt_clust_3="49.39625" pt_clust_4="141.68390" pt_clust_5="42.25629" pt_clust_6="14000.00000"></scales>
<clustering>
<clus scale="   42.256">  1  5  2 -1</clus>
<clus scale="   49.396">  2  3  1 -1</clus>
<clus scale="  141.684">  1  4  2 -1</clus>
<clus scale="   42.256">  1  3  2 -1</clus>
</clustering>
</event>
<event>
 6    0  0.2433432E+002  0.1162021E+03  0.7546771E-02  0.1249497E+00
          1   -1    0    0  502    0 -0.00000000000E+00  0.00000000000E+00  0.19591251546E+04  0.19591251546E+04  0.00000000000E+00 0.  1.
         21   -1    0    0  504  502  0.00000000000E+00 -0.00000000000E+00 -0.28053590840E+03  0.28053590840E+03  0.00000000000E+00 0.  1.
         21    1    1    2  503  505  0.58656253761E+02  0.82652464098E+01 -0.11378579176E+03  0.12828124106E+03  0.00000000000E+00 0.  1.
         21    1    1    2  504  503  0.53176384024E+02 -0.24389229652E+02 -0.11847130472E+03  0.13212877197E+03  0.00000000000E+00 0.  1.
         21    1    1    2  505  501 -0.10535116760E+03 -0.34741931645E+02  0.57043291986E+02  0.12473895738E+03  0.00000000000E+00 0. -1.
          1    1    1    2  501    0 -0.64814701892E+01  0.50865914887E+02  0.18538030506E+04  0.18545120925E+04  0.00000000000E+00 0.  1.
<scales pt_clust_3="33.01270" pt_clust_4="33.01270" pt_clust_5="111.35272" pt_clust_6="51.27720"></scales>
<clustering>
<clus scale="   33.013">  3  4 -1 -1</clus>
<clus scale="   51.277">  1  6  2 -1</clus>
<clus scale="  111.353">  1  5  2 -1</clus>
<clus scale="  116.202">  2  3  1 -1</clus>
</clustering>
</event>
<event>
 6    0  0.2433432E+002  0.7539553E+02  0.7546771E-02  0.1342651E+00
          2   -1    0    0  503    0 -0.00000000000E+00  0.00000000000E+00  0.24377088385E+04  0.24377088385E+04  0.00000000000E+00 0. -1.
         21   -1    0    0  505  502  0.00000000000E+00 -0.00000000000E+00 -0.40535476446E+03  0.40535476446E+03  0.00000000000E+00 0. -1.
         21    1    1    2  503  504  0.54007413941E+02  0.10115592322E+03  0.17038548410E+02  0.11592943412E+03  0.00000000000E+00 0. -1.
         21    1    1    2  504  502 -0.59866697688E+01  0.47817196235E+02 -0.27893248415E+03  0.28306475440E+03  0.00000000000E+00 0. -1.
         21    1    1    2  505  501 -0.19612756189E+02 -0.79639812662E+02 -0.51681273000E+02  0.96943870075E+02  0.00000000000E+00 0. -1.
          2    1    1    2  501    0 -0.28407987984E+02 -0.69333306795E+02  0.23459292828E+04  0.23471255444E+04  0.00000000000E+00 0. -1.
<scales pt_clust_3="75.39553" pt_clust_4="48.19050" pt_clust_5="56.08432" pt_clust_6="14000.00000"></scales>
<clustering>
<clus scale="   48.191">  2  4  1 -1</clus>
<clus scale="   56.084">  2  5  1 -1</clus>
<clus scale="   75.396">  2  3  1 -1</clus>
<clus scale="   48.191">  2  3  1 -1</clus>
</clustering>
</event>
<event>
 6    0  0.2433432E+002  0.8338605E+02  0.7546771E-02  0.1319708E+00
         21   -1    0    0  505  502  0.00000000000E+00  0.00000000000E+00  0.81758727041E+03  0.81758727041E+03  0.00000000000E+00 0. -1.
          2   -1    0    0  504    0 -0.00000000000E+00 -0.00000000000E+00 -0.95607473234E+03  0.95607473234E+03  0.00000000000E+00 0. -1.
         21    1    1    2  503  501  0.50445302727E+02  0.55586749820E+02  0.76241886757E+02  0.10699271292E+03  0.00000000000E+00 0. -1.
         21    1    1    2  504  502 -0.69612596088E+02 -0.50224375370E+02  0.21424055475E+02  0.88472546976E+02  0.00000000000E+00 0.  1.
         21    1    1    2  505  503  0.56003151655E+02  0.78212701786E+01  0.66940724568E+03  0.67179132611E+03  0.00000000000E+00 0. -1.
          2    1    1    2  501    0 -0.36835858293E+02 -0.13183644629E+02 -0.90556064984E+03  0.90640541673E+03  0.00000000000E+00 0. -1.
<scales pt_clust_3="83.38605" pt_clust_4="14000.00000" pt_clust_5="55.63543" pt_clust_6="39.12402"></scales>
<clustering>
<clus scale="   39.124">  2  6  1 -1</clus>
<clus scale="   55.635">  1  5  2 -1</clus>
<clus scale="   83.386">  2  3  1 -1</clus>
<clus scale="   55.635">  1  3  2 -1</clus>
</clustering>
</event>
<event>
 6    0  0.2433432E+002  0.9977238E+02  0.7546771E-02  0.1280775E+00
          2   -1    0    0  503    0 -0.00000000000E+00  0.00000000000E+00  0.40089582527E+04  0.40089582527E+04  0.00000000000E+00 0. -1.
         21   -1    0    0  504  502  0.00000000000E+00 -0.00000000000E+00 -0.29586366170E+02  0.29586366170E+02  0.00000000000E+00 0.  1.
         21    1    1    2  503  505 -0.35361235662E+02 -0.29612770553E+02  0.13902628338E+03  0.14647744072E+03  0.00000000000E+00 0.  1.
         21    1    1    2  504  501 -0.15256036449E+02 -0.80310389018E+02  0.90666450406E+02  0.12207747729E+03  0.00000000000E+00 0.  1.
         21    1    1    2  505  502 -0.21162708974E+02  0.38622384246E+02  0.41762919696E+02  0.60693412143E+02  0.00000000000E+00 0.  1.
          2    1    1    2  501    0  0.71779981084E+02  0.71300775326E+02  0.37079162330E+04  0.37092962887E+04  0.00000000000E+00 0. -1.
<scales pt_clust_3="45.24835" pt_clust_4="99.77238" pt_clust_5="44.04031" pt_clust_6="14000.00000"></scales>
<clustering>
<clus scale="   44.040">  2  5  1 -1</clus>
<clus scale="   45.248">  2  3  1 -1</clus>
<clus scale="   99.772">  2  4  1 -1</clus>
<clus scale="   44.040">  2  3  1 -1</clus>
</clustering>
</event>
<event>
 6    0  0.2433432E+002  0.1313848E+03  0.7546771E-02  0.1225415E+00
         21   -1    0    0  503  502  0.00000000000E+00  0.00000000000E+00  0.25314627220E+03  0.25314627220E+03  0.00000000000E+00 0.  1.
          2   -1    0    0  505    0 -0.00000000000E+00 -0.00000000000E+00 -0.46145956562E+03  0.46145956562E+03  0.00000000000E+00 0.  1.
         21    1    1    2  503  504  0.37160891598E+02  0.76418668728E+02  0.71352703928E+02  0.11095924095E+03  0.00000000000E+00 0.  1.
         21    1    1    2  504  501  0.80025708400E+02  0.67563933820E+02  0.66941050232E+02  0.12429844474E+03  0.00000000000E+00 0.  1.
         21    1    1    2  505  502 -0.51247025762E+02 -0.41930229620E+02  0.37766591003E+02  0.76228060459E+02  0.00000000000E+00 0.  1.
          2    1    1    2  501    0 -0.65939574237E+02 -0.10205237293E+03 -0.38437363858E+03  0.40312009167E+03  0.00000000000E+00 0.  1.
<scales pt_clust_3="37.75983" pt_clust_4="37.75983" pt_clust_5="66.21482" pt_clust_6="124.51766"></scales>
<clustering>
<clus scale="   37.760">  3  4 -1 -1</clus>
<clus scale="   66.215">  1  5  2 -1</clus>
<clus scale="  124.518">  2  6  1 -1</clus>
<clus scale="   66.215">  1  3  2 -1</clus>
</clustering>
</event>
<event>
 6    0  0.2433432E+002  0.8458162E+02  0.7546771E-02  0.1316530E+00
         -2   -1    0    0    0  501 -0.00000000000E+00  0.00000000000E+00  0.11064029045E+03  0.11064029045E+03  0.00000000000E+00 0. -1.
         21   -1    0    0  503  502  0.00000000000E+00 -0.00000000000E+00 -0.22379431959E+03  0.22379431959E+03  0.00000000000E+00 0.  1.
         21    1    1    2  503  504  0.24377720442E+02  0.58727036928E+02 -0.67287996164E+02  0.92578683011E+02  0.00000000000E+00 0.  1.
         21    1    1    2  504  501  0.24453072712E+02  0.64431019026E+02 -0.30362274000E+02  0.75307215194E+02  0.00000000000E+00 0.  1.
         21    1    1    2  505  502 -0.25754563119E+02 -0.57367372834E+02 -0.57456372453E+02  0.85179502950E+02  0.00000000000E+00 0.  1.
         -2    1    1    2    0  505 -0.23076230036E+02 -0.65790683120E+02  0.41952613476E+02  0.81369208891E+02  0.00000000000E+00 0. -1.
<scales pt_clust_3="31.82534" pt_clust_4="31.82534" pt_clust_5="62.88333" pt_clust_6="77.82226"></scales>
<clustering>
<clus scale="   31.825">  3  4 -1 -1</clus>
<clus scale="   62.883">  2  5  1 -1</clus>
<clus scale="   77.822">  1  6  2 -1</clus>
<clus scale="   62.883">  2  3  1 -1</clus>
</clustering>
</event>
<event>
 6    0  0.2433432E+002  0.8166729E+02  0.7546771E-02  0.1324385E+00
         -1   -1    0    0    0  501 -0.00000000000E+00  0.00000000000E+00  0.38640129521E+03  0.38640129521E+03  0.00000000000E+00 0.  1.
         21   -1    0    0  503  502  0.00000000000E+00 -0.00000000000E+00 -0.76918186581E+02  0.76918186581E+02  0.00000000000E+00 0. -1.
         21    1    1    2  503  505  0.35773690745E+02 -0.57392216463E+02  0.10076916903E+02  0.68375198094E+02  0.00000000000E+00 0. -1.
         21    1    1    2  504  502 -0.75912236200E+01  0.32944663575E+02  0.61945392439E+01  0.34370770293E+02  0.00000000000E+00 0. -1.
         21    1    1    2  505  501 -0.94009318173E+02 -0.20127491585E+02  0.57977168858E+02  0.11226851709E+03  0.00000000000E+00 0. -1.
         -1    1    1    2    0  504  0.65826851047E+02  0.44575044473E+02  0.23523448362E+03  0.24830499631E+03  0.00000000000E+00 0.  1.
<scales pt_clust_3="53.04022" pt_clust_4="33.80795" pt_clust_5="81.66729" pt_clust_6="14000.00000"></scales>
<clustering>
<clus scale="   33.808">  2  4  1 -1</clus>
<clus scale="   53.040">  2  3  1 -1</clus>
<clus scale="   81.667">  2  5  1 -1</clus>
<clus scale="   33.808">  2  3  1 -1</clus>
</clustering>
</event>
<event>
 6    0  0.2433432E+002  0.1300437E+03  0.7546771E-02  0.1227391E+00
         21   -1    0    0  501  502  0.00000000000E+00  0.00000000000E+00  0.32391142317E+02  0.32391142317E+02  0.00000000000E+00 0.  1.
          2   -1    0    0  503    0 -0.00000000000E+00 -0.00000000000E+00 -0.27621534514E+04  0.27621534514E+04  0.00000000000E+00 0.  1.
         21    1    1    2  503  504  0.65974075906E+02  0.48565634800E+02 -0.19190335757E+03  0.20865784966E+03  0.00000000000E+00 0. -1.
         21    1    1    2  504  505  0.74977235769E+02  0.16756361231E+02 -0.16640176098E+03  0.18328095259E+03  0.00000000000E+00 0.  1.
         21    1    1    2  505  502 -0.26575808317E+02 -0.20190991582E+02 -0.59463185327E+01  0.33901451781E+02  0.00000000000E+00 0.  1.
          2    1    1    2  501    0 -0.11437550336E+03 -0.45131004448E+02 -0.23655108720E+04  0.23687043397E+04  0.00000000000E+00 0.  1.
<scales pt_clust_3="32.10709" pt_clust_4="32.10709" pt_clust_5="33.37589" pt_clust_6="125.74632"></scales>
<clustering>
<clus scale="   32.107">  3  4 -1 -1</clus>
<clus scale="   33.376">  1  5  2 -1</clus>
<clus scale="  125.746">  2  6  1 -1</clus>
<clus scale="   33.376">  1  3  2 -1</clus>
</clustering>
</event>
<event>
 6    0  0.2433432E+002  0.1539911E+03  0.7546771E-02  0.1195653E+00
          1   -1    0    0  503    0 -0.00000000000E+00  0.00000000000E+00  0.14783624075E+04  0.14783624075E+04  0.00000000000E+00 0. -1.
         21   -1    0    0  504  502  0.00000000000E+00 -0.00000000000E+00 -0.28795366214E+02  0.28795366214E+02  0.00000000000E+00 0. -1.
         21    1    1    2  503  502  0.36172704316E+02 -0.31402881729E+02  0.87864121516E+02  0.10007351981E+03  0.00000000000E+00 0. -1.
         21    1    1    2  504  505 -0.10144592954E+03 -0.18597924045E+02  0.27995027416E+03  0.29834429004E+03  0.00000000000E+00 0. -1.
         21    1    1    2  505  501 -0.33667898311E+02 -0.42679353895E+02  0.73523589034E+02  0.91437261387E+02  0.00000000000E+00 0. -1.
          1    1    1    2  501    0  0.98941123538E+02  0.92680159668E+02  0.10082290566E+04  0.10173027025E+04  0.00000000000E+00 0. -1.
<scales pt_clust_3="47.90204" pt_clust_4="56.11149" pt_clust_5="56.11149" pt_clust_6="136.88692"></scales>
<clustering>
<clus scale="   47.902">  2  3  1 -1</clus>
<clus scale="   56.111">  4  5 -1 -1</clus>
<clus scale="  136.887">  1  6  2 -1</clus>
<clus scale="   47.902">  2  3  1 -1</clus>
</clustering>
</event>
<event>
 6    0  0.2433432E+002  0.2058368E+03  0.7546771E-02  0.1144906E+00
         21   -1    0    0  505  502  0.00000000000E+00  0.00000000000E+00  0.89331836644E+03  0.89331836644E+03  0.00000000000E+00 0. -1.
          2   -1    0    0  502    0 -0.00000000000E+00 -0.00000000000E+00 -0.90247040803E+03  0.90247040803E+03  0.00000000000E+00 0. -1.
         21    1    1    2  503  504  0.71250286256E+02  0.14539463619E+03  0.58344723781E+03  0.60549721951E+03  0.00000000000E+00 0. -1.
         21    1    1    2  504  501 -0.52480305050E+02 -0.93047745660E+02 -0.56376029246E+02  0.12079040551E+03  0.00000000000E+00 0.  1.
         21    1    1    2  505  503 -0.24872281865E+02  0.47939435637E+02  0.26071722364E+03  0.26625230627E+03  0.00000000000E+00 0. -1.
          2    1    1    2  501    0  0.61023006594E+01 -0.10028632617E+03 -0.79694047379E+03  0.80324884318E+03  0.00000000000E+00 0. -1.
<scales pt_clust_3="51.02238" pt_clust_4="185.91443" pt_clust_5="51.02238" pt_clust_6="100.47181"></scales>
<clustering>
<clus scale="   51.022">  3  5 -1 -1</clus>
<clus scale="  100.472">  2  6  1 -1</clus>
<clus scale="  185.914">  2  4  1 -1</clus>
<clus scale="  205.837">  1  3  2 -1</clus>
</clustering>
</event>
<event>
 6    0  0.2433432E+002  0.8546863E+02  0.7546771E-02  0.1314212E+00
          1   -1    0    0  505    0 -0.00000000000E+00  0.00000000000E+00  0.99614426303E+03  0.99614426303E+03  0.00000000000E+00 0.  1.
         21   -1    0    0  501  502  0.00000000000E+00 -0.00000000000E+00 -0.37023423185E+02  0.37023423185E+02  0.00000000000E+00 0.  1.
         21    1    1    2  503  504  0.53373455320E+02  0.13734466550E+02  0.16766070159E+03  0.17648646453E+03  0.00000000000E+00 0.  1.
         21    1    1    2  504  502  0.36277874963E+02 -0.10806562953E+02 -0.49213833634E+00  0.37856415769E+02  0.00000000000E+00 0.  1.
         21    1    1    2  505  503  0.37736173956E+02  0.31875273191E+02  0.44257934373E+03  0.44532743837E+03  0.00000000000E+00 0.  1.
          1    1    1    2  501    0 -0.12738750424E+03 -0.34803176789E+02  0.34937293286E+03  0.37349736754E+03  0.00000000000E+00 0.  1.
<scales pt_clust_3="85.46863" pt_clust_4="37.85322" pt_clust_5="51.05175" pt_clust_6="14000.00000"></scales>
<clustering>
<clus scale="   37.853">  2  4  1 -1</clus>
<clus scale="   51.052">  1  5  2 -1</clus>
<clus scale="   85.469">  2  3  1 -1</clus>
<clus scale="   37.853">  2  3  1 -1</clus>
</clustering>
</event>
<event>
 6    0  0.2433432E+002  0.1547458E+03  0.7546771E-02  0.1194760E+00
         21   -1    0    0  503  502  0.00000000000E+00  0.00000000000E+00  0.29684986374E+03  0.29684986374E+03  0.00000000000E+00 0.  1.
          1   -1    0    0  505    0 -0.00000000000E+00 -0.00000000000E+00 -0.12139867394E+04  0.12139867394E+04  0.00000000000E+00 0.  1.
         21    1    1    2  503  504  0.16389850462E+02  0.65223005205E+02  0.46528006339E+02  0.81777276673E+02  0.00000000000E+00 0.  1.
         21    1    1    2  504  501  0.23995768820E+02 -0.21086882650E+03  0.16646102584E+03  0.26972343620E+03  0.00000000000E+00 0.  1.
         21    1    1    2  505  502 -0.42229423963E+02 -0.11225704735E+02 -0.44259920705E+02  0.62195508486E+02  0.00000000000E+00 0.  1.
          1    1    1    2  501    0  0.18438046805E+01  0.15687152603E+03 -0.10858659871E+04  0.10971403818E+04  0.00000000000E+00 0.  1.
<scales pt_clust_3="66.93172" pt_clust_4="154.74578" pt_clust_5="43.69600" pt_clust_6="14000.00000"></scales>
<clustering>
<clus scale="   43.696">  2  5  1 -1</clus>
<clus scale="   66.932">  1  3  2 -1</clus>
<clus scale="  154.746">  1  4  2 -1</clus>
<clus scale="   66.932">  1  3  2 -1</clus>
</clustering>
</event>
<event>
 6    0  0.2433432E+002  0.1121743E+03  0.7546771E-02  0.1256596E+00
         21   -1    0    0  505  502  0.00000000000E+00  0.00000000000E+00  0.14983718115E+04  0.14983718115E+04  0.00000000000E+00 0.  1.
         -1   -1    0    0    0  501 -0.00000000000E+00 -0.00000000000E+00 -0.30521198941E+02  0.30521198941E+02  0.00000000000E+00 0. -1.
         21    1    1    2  503  504  0.65712407189E+02  0.77144315706E+02  0.66263898034E+03  0.67034303470E+03  0.00000000000E+00 0.  1.
         21    1    1    2  504  502  0.49649975257E+02 -0.23461657103E+02  0.40618945448E+03  0.40988466954E+03  0.00000000000E+00 0.  1.
         21    1    1    2  505  501 -0.89205037695E+02 -0.77698136950E+02  0.39569480275E+03  0.41299989850E+03  0.00000000000E+00 0.  1.
         -1    1    1    2    0  503 -0.26157344751E+02  0.24015478348E+02  0.33273750319E+01  0.35665407741E+02  0.00000000000E+00 0. -1.
<scales pt_clust_3="14000.00000" pt_clust_4="50.56701" pt_clust_5="112.17432" pt_clust_6="35.50986"></scales>
<clustering>
<clus scale="   35.510">  2  6  1 -1</clus>
<clus scale="   50.567">  1  4  2 -1</clus>
<clus scale="  112.174">  2  5  1 -1</clus>
<clus scale="   50.567">  1  3  2 -1</clus>
</clustering>
</event>
<event>
 6    0  0.2433432E+002  0.5822323E+02  0.7546771E-02  0.1405443E+00
         -2   -1    0    0    0  501 -0.00000000000E+00  0.00000000000E+00  0.43332897673E+03  0.43332897673E+03  0.00000000000E+00 0.  1.
         21   -1    0    0  505  502  0.00000000000E+00 -0.00000000000E+00 -0.17019604103E+03  0.17019604103E+03  0.00000000000E+00 0.  1.
         21    1    1    2  503  501 -0.11406668815E+03  0.83366555737E+01  0.20772097880E+02  0.11624194261E+03  0.00000000000E+00 0.  1.
         21    1    1    2  504  502  0.45284168552E+02  0.52562549028E+01  0.31880926158E+02  0.55629826440E+02  0.00000000000E+00 0.  1.
         21    1    1    2  505  503  0.18746526474E+02 -0.38912832806E+02 -0.10379025022E+03  0.11241911249E+03  0.00000000000E+00 0.  1.
         -2    1    1    2    0  504  0.50035993127E+02  0.25319922329E+02  0.31427016188E+03  0.31923413622E+03  0.00000000000E+00 0.  1.
<scales pt_clust_3="58.22323" pt_clust_4="48.91813" pt_clust_5="43.19306" pt_clust_6="14000.00000"></scales>
<clustering>
<clus scale="   43.193">  2  5  1 -1</clus>
<clus scale="   48.918">  2  4  1 -1</clus>
<clus scale="   58.223">  2  3  1 -1</clus>
<clus scale="   43.193">  2  3  1 -1</clus>
</clustering>
</event>
<event>
 6    0  0.2433432E+002  0.7696475E+02  0.7546771E-02  0.1337893E+00
          2   -1    0    0  503    0 -0.00000000000E+00  0.00000000000E+00  0.15956937669E+04  0.15956937669E+04  0.00000000000E+00 0. -1.
         21   -1    0    0  504  502  0.00000000000E+00 -0.00000000000E+00 -0.10158248773E+03  0.10158248773E+03  0.00000000000E+00 0.  1.
         21    1    1    2  503  502 -0.12179960713E+03  0.44003302135E+02  0.53243864527E+03  0.54796199309E+03  0.00000000000E+00 0. -1.
         21    1    1    2  504  505  0.53804751949E+02 -0.53295472735E+02 -0.72295618297E+02  0.10469964265E+03  0.00000000000E+00 0.  1.
         21    1    1    2  505  501  0.49621446350E+02 -0.18998726713E+02  0.13597248663E+03  0.14598546735E+03  0.00000000000E+00 0. -1.
          2    1    1    2  501    0  0.18373408830E+02  0.28290897312E+02  0.89799576554E+03  0.89862915152E+03  0.00000000000E+00 0. -1.
<scales pt_clust_3="14000.00000" pt_clust_4="76.96475" pt_clust_5="54.96405" pt_clust_6="33.73362"></scales>
<clustering>
<clus scale="   33.734">  1  6  2 -1</clus>
<clus scale="   54.964">  1  5  2 -1</clus>
<clus scale="   76.965">  2  4  1 -1</clus>
<clus scale="   76.965">  2  3  1 -1</clus>
</clustering>
</event>
<event>
 6    0  0.2433432E+002  0.1163707E+03  0.7546771E-02  0.1249207E+00
         21   -1    0    0  501  502  0.00000000000E+00  0.00000000000E+00  0.29110583496E+03  0.29110583496E+03  0.00000000000E+00 0. -1.
          2   -1    0    0  503    0 -0.00000000000E+00 -0.00000000000E+00 -0.17254397777E+04  0.17254397777E+04  0.00000000000E+00 0. -1.
         21    1    1    2  503  505 -0.15602817584E+03  0.18348038331E+02  0.98694530303E+02  0.18553180988E+03  0.00000000000E+00 0. -1.
         21    1    1    2  504  502  0.50490166694E+02  0.90467298093E+01  0.54476788876E+02  0.74825268320E+02  0.00000000000E+00 0. -1.
         21    1    1    2  505  504  0.42664291243E+02 -0.19344861439E+02  0.77186907952E+02  0.90290000391E+02  0.00000000000E+00 0. -1.
          2    1    1    2  501    0  0.62873717898E+02 -0.80499067014E+01 -0.16646921699E+04  0.16658985341E+04  0.00000000000E+00 0. -1.
<scales pt_clust_3="111.34726" pt_clust_4="32.32179" pt_clust_5="32.32179" pt_clust_6="63.38695"></scales>
<clustering>
<clus scale="   32.322">  4  5 -1 -1</clus>
<clus scale="   63.387">  2  6  1 -1</clus>
<clus scale="  111.347">  2  3  1 -1</clus>
<clus scale="  116.371">  1  3  2 -1</clus>
</clustering>
</event>
<event>
 6    0  0.2433432E+002  0.8384817E+02  0.7546771E-02  0.1318472E+00
         21   -1    0    0  505  502  0.00000000000E+00  0.00000000000E+00  0.38845216125E+02  0.38845216125E+02  0.00000000000E+00 0. -1.
          2   -1    0    0  504    0 -0.00000000000E+00 -0.00000000000E+00 -0.33015567067E+04  0.33015567067E+04  0.00000000000E+00 0. -1.
         21    1    1    2  503  501 -0.11115221605E+03 -0.33813582240E+02 -0.12482503045E+03  0.17052701166E+03  0.00000000000E+00 0. -1.
         21    1    1    2  504  502  0.26987582989E+02  0.54143643135E+02 -0.11939470426E+04  0.11954787343E+04  0.00000000000E+00 0. -1.
         21    1    1    2  505  503  0.38847804536E+02 -0.12570926318E+02 -0.12915652745E+02  0.42825158396E+02  0.00000000000E+00 0. -1.
          2    1    1    2  501    0  0.45316828525E+02 -0.77591345775E+01 -0.19310237648E+04  0.19315710185E+04  0.00000000000E+00 0. -1.
<scales pt_clust_3="83.84817" pt_clust_4="14000.00000" pt_clust_5="40.83112" pt_clust_6="46.43919"></scales>
<clustering>
<clus scale="   40.831">  1  5  2 -1</clus>
<clus scale="   46.439">  2  6  1 -1</clus>
<clus scale="   83.848">  1  3  2 -1</clus>
<clus scale="   40.831">  1  3  2 -1</clus>
</clustering>
</event>
<event>
 6    0  0.2433432E+002  0.1408145E+03  0.7546771E-02  0.1212237E+00
          1   -1    0    0  503    0 -0.00000000000E+00  0.00000000000E+00  0.31978678838E+03  0.31978678838E+03  0.00000000000E+00 0. -1.
         21   -1    0    0  505  502  0.00000000000E+00 -0.00000000000E+00 -0.22949563874E+03  0.22949563874E+03  0.00000000000E+00 0. -1.
         21    1    1    2  503  502  0.29687383126E+02 -0.11618185117E+02 -0.10558802074E+02  0.33582901059E+02  0.00000000000E+00 0. -1.
         21    1    1    2  504  501  0.15776626046E+02 -0.78315519497E+02 -0.93427060278E+02  0.12292614903E+03  0.00000000000E+00 0. -1.
         21    1    1    2  505  504  0.34560914945E+02 -0.81212660963E+01 -0.81742740669E+02  0.89119512212E+02  0.00000000000E+00 0. -1.
          1    1    1    2  501    0 -0.80024924117E+02  0.98054970710E+02  0.27601975266E+03  0.30365386482E+03  0.00000000000E+00 0. -1.
<scales pt_clust_3="31.87982" pt_clust_4="48.01340" pt_clust_5="48.01340" pt_clust_6="124.71967"></scales>
<clustering>
<clus scale="   31.880">  2  3  1 -1</clus>
<clus scale="   48.013">  4  5 -1 -1</clus>
<clus scale="  124.720">  1  6  2 -1</clus>
<clus scale="   31.880">  2  3  1 -1</clus>
</clustering>
</event>
<event>
 6    0  0.2433432E+002  0.1164040E+03  0.7546771E-02  0.1249150E+00
         21   -1    0    0  503  502  0.00000000000E+00  0.00000000000E+00  0.26770486349E+03  0.26770486349E+03  0.00000000000E+00 0.  1.
          2   -1    0    0  505    0 -0.00000000000E+00 -0.00000000000E+00 -0.15625455919E+04  0.15625455919E+04  0.00000000000E+00 0.  1.
         21    1    1    2  503  501 -0.47167250614E+02  0.15508073319E+02 -0.30409317501E+02  0.58223504355E+02  0.00000000000E+00 0. -1.
         21    1    1    2  504  502  0.13717152636E+03  0.55990602597E+01  0.12972783327E+03  0.18888273570E+03  0.00000000000E+00 0.  1.
         21    1    1    2  505  504 -0.10919808063E+03  0.29669003177E+02  0.59926554964E+02  0.12804554874E+03  0.00000000000E+00 0. -1.
          2    1    1    2  501    0  0.19193804882E+02 -0.50776136756E+02 -0.14540857992E+04  0.14550986666E+04  0.00000000000E+00 0.  1.
<scales pt_clust_3="49.65128" pt_clust_4="14000.00000" pt_clust_5="116.40398" pt_clust_6="54.22059"></scales>
<clustering>
<clus scale="   49.651">  1  3  2 -1</clus>
<clus scale="   54.221">  2  6  1 -1</clus>
<clus scale="  116.404">  2  5  1 -1</clus>
<clus scale="   49.651">  1  3  2 -1</clus>
</clustering>
</event>
<event>
 6    0  0.2433432E+002  0.9629676E+02  0.7546771E-02  0.1288282E+00
         21   -1    0    0  504  502  0.00000000000E+00  0.00000000000E+00  0.17916485217E+04  0.17916485217E+04  0.00000000000E+00 0. -1.
          1   -1    0    0  503    0 -0.00000000000E+00 -0.00000000000E+00 -0.16791987150E+04  0.16791987150E+04  0.00000000000E+00 0.  1.
         21    1    1    2  503  502 -0.28279940186E+02  0.70655406675E+02  0.17562846970E+04  0.17579328424E+04  0.00000000000E+00 0. -1.
         21    1    1    2  504  505  0.63941837243E+02 -0.21570144299E+01 -0.29836820995E+02  0.70593534749E+02  0.00000000000E+00 0. -1.
         21    1    1    2  505  501  0.45038906368E+02 -0.27535719015E+02 -0.41311714171E+02  0.67032653507E+02  0.00000000000E+00 0.  1.
          1    1    1    2  501    0 -0.80700803425E+02 -0.40962673230E+02 -0.15726863552E+04  0.15752882060E+04  0.00000000000E+00 0.  1.
<scales pt_clust_3="76.10481" pt_clust_4="30.40482" pt_clust_5="30.40482" pt_clust_6="90.29216"></scales>
<clustering>
<clus scale="   30.405">  4  5 -1 -1</clus>
<clus scale="   76.105">  1  3  2 -1</clus>
<clus scale="   90.292">  2  6  1 -1</clus>
<clus scale="   76.105">  1  3  2 -1</clus>
</clustering>
</event>
<event>
 6    0  0.2433432E+002  0.1009707E+03  0.7546771E-02  0.1278268E+00
          1   -1    0    0  502    0 -0.00000000000E+00  0.00000000000E+00  0.44729253636E+03  0.44729253636E+03  0.00000000000E+00 0.  1.
         21   -1    0    0  505  502  0.00000000000E+00 -0.00000000000E+00 -0.28533066901E+03  0.28533066901E+03  0.00000000000E+00 0.  1.
         21    1    1    2  503  504 -0.45361878002E+02  0.70167115045E+02  0.42948034501E+02  0.93944971537E+02  0.00000000000E+00 0.  1.
         21    1    1    2  504  501 -0.45989008182E+02  0.18676266104E+02  0.14396016232E+02  0.51682076898E+02  0.00000000000E+00 0.  1.
         21    1    1    2  505  503  0.48243584581E+02 -0.11753110898E+02 -0.23288902675E+03  0.23812366083E+03  0.00000000000E+00 0.  1.
          1    1    1    2  501    0  0.43107301603E+02 -0.77090270251E+02  0.33750684336E+03  0.34887249610E+03  0.00000000000E+00 0.  1.
<scales pt_clust_3="31.59900" pt_clust_4="31.59900" pt_clust_5="49.65460" pt_clust_6="92.27300"></scales>
<clustering>
<clus scale="   31.599">  3  4 -1 -1</clus>
<clus scale="   49.655">  2  5  1 -1</clus>
<clus scale="   92.273">  1  6  2 -1</clus>
<clus scale="   49.655">  2  3  1 -1</clus>
</clustering>
</event>
<event>
 6    0  0.2433432E+002  0.2283900E+03  0.7546771E-02  0.1127778E+00
         21   -1    0    0  503  502  0.00000000000E+00  0.00000000000E+00  0.18423251117E+03  0.18423251117E+03  0.00000000000E+00 0. -1.
         -2   -1    0    0    0  501 -0.00000000000E+00 -0.00000000000E+00 -0.58366897609E+03  0.58366897609E+03  0.00000000000E+00 0. -1.
         21    1    1    2  503  504  0.19717690216E+03 -0.13011445896E+03 -0.23659319243E+03  0.33434240216E+03  0.00000000000E+00 0. -1.
         21    1    1    2  504  501  0.99514373309E+01 -0.48935557847E+02 -0.10696226399E+03  0.11804510089E+03  0.00000000000E+00 0. -1.
         21    1    1    2  505  502 -0.16462604483E+03  0.15550189127E+03  0.17908159390E+02  0.22716354240E+03  0.00000000000E+00 0. -1.
         -2    1    1    2    0  505 -0.42502294667E+02  0.23548125535E+02 -0.73789167901E+02  0.88350441808E+02  0.00000000000E+00 0. -1.
<scales pt_clust_3="14000.00000" pt_clust_4="43.66665" pt_clust_5="228.39004" pt_clust_6="48.58970"></scales>
<clustering>
<clus scale="   48.590">  2  6  1 -1</clus>
<clus scale="   43.667">  2  4  1 -1</clus>
<clus scale="  228.390">  1  5  2 -1</clus>
<clus scale="  228.390">  1  3  2 -1</clus>
</clustering>
</event>
<event>
 6    0  0.2433432E+002  0.1365001E+03  0.7546771E-02  0.1218117E+00
          4   -1    0    0  505    0 -0.00000000000E+00  0.00000000000E+00  0.82746211527E+03  0.82746211527E+03  0.00000000000E+00 0.  1.
         21   -1    0    0  503  502  0.00000000000E+00 -0.00000000000E+00 -0.49469124152E+03  0.49469124152E+03  0.00000000000E+00 0. -1.
         21    1    1    2  503  501  0.47275889461E+01  0.33117760532E+02  0.14056800878E+03  0.14449394884E+03  0.00000000000E+00 0. -1.
         21    1    1    2  504  502  0.87758163864E+02 -0.90856187176E+02 -0.46743608406E+03  0.48420329899E+03  0.00000000000E+00 0. -1.
         21    1    1    2  505  504 -0.35584664421E+02 -0.14366450600E+02  0.13287252030E+02  0.40610519712E+02  0.00000000000E+00 0.  1.
          4    1    1    2  501    0 -0.56901088389E+02  0.72104877244E+02  0.64635169700E+03  0.65284558925E+03  0.00000000000E+00 0.  1.
<scales pt_clust_3="31.43892" pt_clust_4="126.16828" pt_clust_5="38.37529" pt_clust_6="31.43892"></scales>
<clustering>
<clus scale="   31.439">  3  6 -1 -1</clus>
<clus scale="   38.375">  1  5  2 -1</clus>
<clus scale="  126.168">  2  4  1 -1</clus>
<clus scale="  126.168">  2  3  1 -1</clus>
</clustering>
</event>
<event>
 6    0  0.2433432E+002  0.1103098E+03  0.7546771E-02  0.1259997E+00
         21   -1    0    0  505  502  0.00000000000E+00  0.00000000000E+00  0.11240982963E+03  0.11240982963E+03  0.00000000000E+00 0. -1.
          1   -1    0    0  503    0 -0.00000000000E+00 -0.00000000000E+00 -0.13453142511E+04  0.13453142511E+04  0.00000000000E+00 0. -1.
         21    1    1    2  503  504 -0.18424779698E+01 -0.98883668465E+02 -0.45750817626E+02  0.10897023414E+03  0.00000000000E+00 0. -1.
         21    1    1    2  504  502  0.36645212352E+02  0.51178405758E+01 -0.34548637606E+01  0.37161807868E+02  0.00000000000E+00 0. -1.
         21    1    1    2  505  501 -0.74802487412E+02  0.10942539116E+03 -0.55552428685E+01  0.13266570422E+03  0.00000000000E+00 0. -1.
          1    1    1    2  501    0  0.39999753031E+02 -0.15659563268E+02 -0.11781434972E+04  0.11789263345E+04  0.00000000000E+00 0. -1.
<scales pt_clust_3="14000.00000" pt_clust_4="37.00086" pt_clust_5="110.30978" pt_clust_6="43.08801"></scales>
<clustering>
<clus scale="   37.001">  1  4  2 -1</clus>
<clus scale="   43.088">  2  6  1 -1</clus>
<clus scale="  110.310">  1  5  2 -1</clus>
<clus scale="   37.001">  1  3  2 -1</clus>
</clustering>
</event>
<event>
 6    0  0.2433432E+002  0.1180614E+03  0.7546771E-02  0.1246330E+00
         21   -1    0    0  504  502  0.00000000000E+00  0.00000000000E+00  0.28165211232E+02  0.28165211232E+02  0.00000000000E+00 0. -1.
          2   -1    0    0  505    0 -0.00000000000E+00 -0.00000000000E+00 -0.11239012862E+04  0.11239012862E+04  0.00000000000E+00 0. -1.
         21    1    1    2  503  501 -0.23617112781E+02 -0.37715238672E+02 -0.19370951301E+03  0.19875508214E+03  0.00000000000E+00 0. -1.
         21    1    1    2  504  503 -0.11066010978E+03 -0.20850766560E+02 -0.31711115082E+03  0.33651136138E+03  0.00000000000E+00 0. -1.
         21    1    1    2  505  502  0.63415211201E+02  0.10116116660E+02 -0.70871086514E+02  0.95637522614E+02  0.00000000000E+00 0. -1.
          2    1    1    2  501    0  0.70862011362E+02  0.48449888572E+02 -0.51404432463E+03  0.52116253131E+03  0.00000000000E+00 0. -1.
<scales pt_clust_3="40.31107" pt_clust_4="40.31107" pt_clust_5="64.21701" pt_clust_6="99.12835"></scales>
<clustering>
<clus scale="   40.311">  3  4 -1 -1</clus>
<clus scale="   64.217">  1  5  2 -1</clus>
<clus scale="   99.128">  2  6  1 -1</clus>
<clus scale="   64.217">  1  3  2 -1</clus>
</clustering>
</event>
<event>
 6    0  0.2433432E+002  0.1213952E+03  0.7546771E-02  0.1240813E+00
         21   -1    0    0  501  502  0.00000000000E+00  0.00000000000E+00  0.13269980408E+03  0.13269980408E+03  0.00000000000E+00 0.  1.
         -2   -1    0    0    0  501 -0.00000000000E+00 -0.00000000000E+00 -0.67519329257E+03  0.67519329257E+03  0.00000000000E+00 0. -1.
         21    1    1    2  503  504  0.66599488687E+02 -0.19516435906E+02 -0.51676461040E+02  0.86526526508E+02  0.00000000000E+00 0.  1.
         21    1    1    2  504  505  0.78527045799E+02 -0.39708743903E+02 -0.22414330721E+01  0.88024458456E+02  0.00000000000E+00 0.  1.
         21    1    1    2  505  502 -0.95992068337E+02  0.48677933511E+01  0.36771863187E+02  0.10290938984E+03  0.00000000000E+00 0.  1.
         -2    1    1    2    0  503 -0.49134466149E+02  0.54357386458E+02 -0.52534745757E+03  0.53043272184E+03  0.00000000000E+00 0. -1.
<scales pt_clust_3="48.57344" pt_clust_4="48.57344" pt_clust_5="108.37538" pt_clust_6="73.27292"></scales>
<clustering>
<clus scale="   48.573">  3  4 -1 -1</clus>
<clus scale="   73.273">  2  6  1 -1</clus>
<clus scale="  108.375">  1  5  2 -1</clus>
<clus scale="  108.375">  1  3  2 -1</clus>
</clustering>
</event>
<event>
 6    0  0.2433432E+002  0.7507668E+02  0.7546771E-02  0.1343634E+00
          1   -1    0    0  503    0 -0.00000000000E+00  0.00000000000E+00  0.10327595735E+04  0.10327595735E+04  0.00000000000E+00 0. -1.
         21   -1    0    0  504  502  0.00000000000E+00 -0.00000000000E+00 -0.16423949351E+03  0.16423949351E+03  0.00000000000E+00 0. -1.
         21    1    1    2  503  502  0.26854230059E+02 -0.37150341570E+02  0.15927622945E+02  0.48528205443E+02  0.00000000000E+00 0. -1.
         21    1    1    2  504  505 -0.47999081901E+02 -0.27318631076E+02 -0.10828909051E+03  0.12155964212E+03  0.00000000000E+00 0. -1.
         21    1    1    2  505  501  0.68445711062E+02  0.88306086907E+02  0.64583889486E+02  0.12904983196E+03  0.00000000000E+00 0. -1.
          1    1    1    2  501    0 -0.47300859220E+02 -0.23837114261E+02  0.89629765806E+03  0.89786138749E+03  0.00000000000E+00 0. -1.
<scales pt_clust_3="45.83991" pt_clust_4="75.07668" pt_clust_5="14000.00000" pt_clust_6="52.92988"></scales>
<clustering>
<clus scale="   45.840">  2  3  1 -1</clus>
<clus scale="   52.930">  1  6  2 -1</clus>
<clus scale="   75.077">  2  4  1 -1</clus>
<clus scale="   45.840">  2  3  1 -1</clus>
</clustering>
</event>
<event>
 6    0  0.2433432E+002  0.1524488E+03  0.7546771E-02  0.1197496E+00
         21   -1    0    0  501  502  0.00000000000E+00  0.00000000000E+00  0.13785879989E+03  0.13785879989E+03  0.00000000000E+00 0.  1.
          2   -1    0    0  504    0 -0.00000000000E+00 -0.00000000000E+00 -0.43969708211E+04  0.43969708211E+04  0.00000000000E+00 0. -1.
         21    1    1    2  503  505 -0.37375177054E+02  0.96774205150E+02 -0.26056241421E+03  0.28045484902E+03  0.00000000000E+00 0. -1.
         21    1    1    2  504  503  0.21715213178E+01  0.63494468204E+02 -0.26817584270E+03  0.27559852251E+03  0.00000000000E+00 0.  1.
         21    1    1    2  505  502 -0.13455127329E+02 -0.27450360514E+02  0.12100188028E+03  0.12480391730E+03  0.00000000000E+00 0.  1.
          2    1    1    2  501    0  0.48658783065E+02 -0.13281831284E+03 -0.38513756446E+04  0.38539723322E+04  0.00000000000E+00 0. -1.
<scales pt_clust_3="41.02135" pt_clust_4="41.02135" pt_clust_5="30.57062" pt_clust_6="143.29957"></scales>
<clustering>
<clus scale="   30.571">  1  5  2 -1</clus>
<clus scale="   41.021">  3  4 -1 -1</clus>
<clus scale="  143.300">  2  6  1 -1</clus>
<clus scale="   30.571">  1  3  2 -1</clus>
</clustering>
</event>
<event>
 6    0  0.2433432E+002  0.2137505E+03  0.7546771E-02  0.1138630E+00
          1   -1    0    0  503    0 -0.00000000000E+00  0.00000000000E+00  0.20161941433E+04  0.20161941433E+04  0.00000000000E+00 0.  1.
         21   -1    0    0  504  502  0.00000000000E+00 -0.00000000000E+00 -0.11032613996E+03  0.11032613996E+03  0.00000000000E+00 0.  1.
         21    1    1    2  503  502  0.29603535243E+02  0.97668456186E+01 -0.37281788418E+02  0.48597246011E+02  0.00000000000E+00 0.  1.
         21    1    1    2  504  505 -0.37651994474E+02 -0.92487090758E+02  0.19864206938E+02  0.10181415109E+03  0.00000000000E+00 0.  1.
         21    1    1    2  505  501  0.16543644562E+02 -0.16024758285E+03  0.36498295449E+03  0.39895555775E+03  0.00000000000E+00 0. -1.
          1    1    1    2  501    0 -0.84951853306E+01  0.24296782799E+03  0.15583026303E+04  0.15771533284E+04  0.00000000000E+00 0.  1.
<scales pt_clust_3="31.17307" pt_clust_4="88.75123" pt_clust_5="213.75048" pt_clust_6="14000.00000"></scales>
<clustering>
<clus scale="   31.173">  2  3  1 -1</clus>
<clus scale="   88.751">  2  4  1 -1</clus>
<clus scale="  213.750">  2  5  1 -1</clus>
<clus scale="   31.173">  2  3  1 -1</clus>
</clustering>
</event>
<event>
 6    0  0.2433432E+002  0.7920658E+02  0.7546771E-02  0.1331318E+00
         21   -1    0    0  504  502  0.00000000000E+00  0.00000000000E+00  0.21286360115E+04  0.21286360115E+04  0.00000000000E+00 0. -1.
          2   -1    0    0  503    0 -0.00000000000E+00 -0.00000000000E+00 -0.18939903383E+04  0.18939903383E+04  0.00000000000E+00 0.  1.
         21    1    1    2  503  505  0.49141535564E+02 -0.13886573846E+02  0.16113999201E+03  0.16903793797E+03  0.00000000000E+00 0. -1.
         21    1    1    2  504  501 -0.53528666112E+02  0.77123674344E+02  0.16043085871E+04  0.16070530240E+04  0.00000000000E+00 0. -1.
         21    1    1    2  505  502 -0.37915836563E+02  0.37177050953E+01  0.35601920740E+03  0.35805182311E+03  0.00000000000E+00 0. -1.
          2    1    1    2  501    0  0.42302967111E+02 -0.66954805593E+02 -0.18868221133E+04  0.18884835648E+04  0.00000000000E+00 0.  1.
<scales pt_clust_3="47.57575" pt_clust_4="79.20658" pt_clust_5="38.09766" pt_clust_6="14000.00000"></scales>
<clustering>
<clus scale="   38.098">  1  5  2 -1</clus>
<clus scale="   47.576">  1  3  2 -1</clus>
<clus scale="   79.207">  1  4  2 -1</clus>
<clus scale="   38.098">  1  3  2 -1</clus>
</clustering>
</event>
<event>
 6    0  0.2433432E+002  0.9622032E+02  0.7546771E-02  0.1288451E+00
          2   -1    0    0  503    0 -0.00000000000E+00  0.00000000000E+00  0.70503069005E+03  0.70503069005E+03  0.00000000000E+00 0. -1.
         21   -1    0    0  504  502  0.00000000000E+00 -0.00000000000E+00 -0.50596571136E+03  0.50596571136E+03  0.00000000000E+00 0. -1.
         21    1    1    2  503  505 -0.51755435237E+02  0.48222654787E+02 -0.11467721994E+03  0.13474017324E+03  0.00000000000E+00 0.  1.
         21    1    1    2  504  501  0.27836482706E+02  0.69100697847E+02 -0.34371643761E+03  0.35169697994E+03  0.00000000000E+00 0. -1.
         21    1    1    2  505  502  0.28715096871E+02 -0.20968705178E+02 -0.19641638807E+02  0.40620651892E+02  0.00000000000E+00 0.  1.
          2    1    1    2  501    0 -0.47961443401E+01 -0.96354647456E+02  0.67710027505E+03  0.68393859634E+03  0.00000000000E+00 0. -1.
<scales pt_clust_3="61.49689" pt_clust_4="14000.00000" pt_clust_5="35.55620" pt_clust_6="96.22032"></scales>
<clustering>
<clus scale="   35.556">  2  5  1 -1</clus>
<clus scale="   61.497">  2  3  1 -1</clus>
<clus scale="   96.220">  1  6  2 -1</clus>
<clus scale="   35.556">  2  3  1 -1</clus>
</clustering>
</event>
<event>
 6    0  0.2433432E+002  0.1085848E+03  0.7546771E-02  0.1263213E+00
         21   -1    0    0  505  502  0.00000000000E+00  0.00000000000E+00  0.52574100341E+03  0.52574100341E+03  0.00000000000E+00 0.  1.
         -2   -1    0    0    0  501 -0.00000000000E+00 -0.00000000000E+00 -0.20373040609E+03  0.20373040609E+03  0.00000000000E+00 0.  1.
         21    1    1    2  503  501 -0.10597857659E+02  0.54830314592E+02  0.70173388838E+02  0.89682676623E+02  0.00000000000E+00 0.  1.
         21    1    1    2  504  502  0.41565754053E+02 -0.65344142531E+02  0.19191809931E+03  0.20695440492E+03  0.00000000000E+00 0. -1.
         21    1    1    2  505  503 -0.24975623147E+02  0.70346498337E+02  0.23560220598E+03  0.24714532373E+03  0.00000000000E+00 0.  1.
         -2    1    1    2    0  504 -0.59922732472E+01 -0.59832670398E+02 -0.17568309681E+03  0.18568900422E+03  0.00000000000E+00 0.  1.
<scales pt_clust_3="47.52940" pt_clust_4="93.65349" pt_clust_5="47.52940" pt_clust_6="60.13199"></scales>
<clustering>
<clus scale="   47.529">  3  5 -1 -1</clus>
<clus scale="   60.132">  2  6  1 -1</clus>
<clus scale="   93.653">  1  4  2 -1</clus>
<clus scale="   93.653">  1  3  2 -1</clus>
</clustering>
</event>
<event>
 6    0  0.2433432E+002  0.9125522E+02  0.7546771E-02  0.1299840E+00
          2   -1    0    0  504    0 -0.00000000000E+00  0.00000000000E+00  0.20298206993E+04  0.20298206993E+04  0.00000000000E+00 0. -1.
         21   -1    0    0  505  502  0.00000000000E+00 -0.00000000000E+00 -0.36087393747E+02  0.36087393747E+02  0.00000000000E+00 0. -1.
         21    1    1    2  503  501 -0.43018675174E+02  0.10330040813E+03  0.17940552068E+03  0.21144247819E+03  0.00000000000E+00 0. -1.
         21    1    1    2  504  502  0.17809953375E+02 -0.82878513101E+02  0.20025463484E+03  0.21745795260E+03  0.00000000000E+00 0. -1.
         21    1    1    2  505  503  0.62466398988E+02 -0.22369317145E+02  0.86684203055E+02  0.10916312753E+03  0.00000000000E+00 0.  1.
          2    1    1    2  501    0 -0.37257677189E+02  0.19474221200E+01  0.15273889469E+04  0.15278445347E+04  0.00000000000E+00 0. -1.
<scales pt_clust_3="14000.00000" pt_clust_4="91.25522" pt_clust_5="59.42019" pt_clust_6="37.30854"></scales>
<clustering>
<clus scale="   37.309">  1  6  2 -1</clus>
<clus scale="   59.420">  2  5  1 -1</clus>
<clus scale="   91.255">  1  4  2 -1</clus>
<clus scale="   59.420">  2  3  1 -1</clus>
</clustering>
</event>
<event>
 6    0  0.2433432E+002  0.1296549E+03  0.7546771E-02  0.1227969E+00
          2   -1    0    0  504    0 -0.00000000000E+00  0.00000000000E+00  0.10501456916E+04  0.10501456916E+04  0.00000000000E+00 0. -1.
         21   -1    0    0  501  502  0.00000000000E+00 -0.00000000000E+00 -0.26458320434E+02  0.26458320434E+02  0.00000000000E+00 0. -1.
         21    1    1    2  503  505  0.43341402843E+02 -0.53403731728E+02  0.50462396191E+03  0.50928948418E+03  0.00000000000E+00 0. -1.
         21    1    1    2  504  503  0.21811940661E+02 -0.60538610909E+02  0.25892170001E+03  0.26679792147E+03  0.00000000000E+00 0. -1.
         21    1    1    2  505  502 -0.21460472204E+02  0.97801426142E+02  0.14406865249E+03  0.17544642331E+03  0.00000000000E+00 0. -1.
          2    1    1    2  501    0 -0.43692871299E+02  0.16140916495E+02  0.11607305675E+03  0.12507018306E+03  0.00000000000E+00 0. -1.
<scales pt_clust_3="44.13360" pt_clust_4="44.13360" pt_clust_5="121.36113" pt_clust_6="46.57892"></scales>
<clustering>
<clus scale="   44.134">  3  4 -1 -1</clus>
<clus scale="   46.579">  2  6  1 -1</clus>
<clus scale="  121.361">  2  5  1 -1</clus>
<clus scale="   46.579">  2  3  1 -1</clus>
</clustering>
</event>
<event>
 6    0  0.2433432E+002  0.1132721E+03  0.7546771E-02  0.1254628E+00
         21   -1    0    0  504  502  0.00000000000E+00  0.00000000000E+00  0.29377774169E+03  0.29377774169E+03  0.00000000000E+00 0. -1.
          2   -1    0    0  503    0 -0.00000000000E+00 -0.00000000000E+00 -0.12976930253E+04  0.12976930253E+04  0.00000000000E+00 0. -1.
         21    1    1    2  503  505  0.78261975015E+02 -0.12263304161E+03 -0.13803053894E+03  0.20053984469E+03  0.00000000000E+00 0. -1.
         21    1    1    2  504  501 -0.57483814158E+02 -0.46078052397E+02  0.18000229788E+03  0.19449525198E+03  0.00000000000E+00 0. -1.
         21    1    1    2  505  502  0.24860034821E+02  0.68036928176E+02  0.54413229785E+02  0.90597155047E+02  0.00000000000E+00 0. -1.
          2    1    1    2  501    0 -0.45638195677E+02  0.10067416583E+03 -0.11003002723E+04  0.11058385152E+04  0.00000000000E+00 0. -1.
<scales pt_clust_3="14000.00000" pt_clust_4="38.21680" pt_clust_5="72.43649" pt_clust_6="113.27214"></scales>
<clustering>
<clus scale="   72.436">  1  5  2 -1</clus>
<clus scale="   38.217">  1  4  2 -1</clus>
<clus scale="  113.272">  2  6  1 -1</clus>
<clus scale="   72.436">  1  3  2 -1</clus>
</clustering>
</event>
<event>
 6    0  0.2433432E+002  0.1342130E+03  0.7546771E-02  0.1221335E+00
         -4   -1    0    0    0  501 -0.00000000000E+00  0.00000000000E+00  0.49941890026E+03  0.49941890026E+03  0.00000000000E+00 0.  1.
         21   -1    0    0  505  502  0.00000000000E+00 -0.00000000000E+00 -0.34873847442E+03  0.34873847442E+03  0.00000000000E+00 0.  1.
         21    1    1    2  503  504  0.22990830572E+02  0.39461060487E+02  0.10366948185E+03  0.11328333969E+03  0.00000000000E+00 0. -1.
         21    1    1    2  504  502 -0.12534479496E+03 -0.12717084355E+02  0.62522564521E+02  0.14064889950E+03  0.00000000000E+00 0.  1.
         21    1    1    2  505  501  0.16980936119E+02 -0.53575072781E+02 -0.29523432200E+03  0.30053609683E+03  0.00000000000E+00 0.  1.
         -4    1    1    2    0  503  0.85373028266E+02  0.26831096649E+02  0.27972270148E+03  0.29368903865E+03  0.00000000000E+00 0.  1.
<scales pt_clust_3="35.71589" pt_clust_4="124.55344" pt_clust_5="56.20178" pt_clust_6="35.71589"></scales>
<clustering>
<clus scale="   35.716">  3  6 -1 -1</clus>
<clus scale="   56.202">  2  5  1 -1</clus>
<clus scale="  124.553">  2  4  1 -1</clus>
<clus scale="   56.202">  2  3  1 -1</clus>
</clustering>
</event>
<event>
 6    0  0.2433432E+002  0.4349320E+03  0.7546771E-02  0.1032313E+00
         21   -1    0    0  501  502  0.00000000000E+00  0.00000000000E+00  0.92827197662E+03  0.92827197662E+03  0.00000000000E+00 0.  1.
          1   -1    0    0  505    0 -0.00000000000E+00 -0.00000000000E+00 -0.21750132052E+03  0.21750132052E+03  0.00000000000E+00 0.  1.
         21    1    1    2  503  502 -0.23505037671E+03  0.16379879644E+03  0.45901311740E+03  0.54108388190E+03  0.00000000000E+00 0.  1.
         21    1    1    2  504  503 -0.64610342882E+02  0.59080198809E+02  0.72752152850E+02  0.11383251751E+03  0.00000000000E+00 0.  1.
         21    1    1    2  505  504 -0.46998323438E+02 -0.10629493721E+02  0.35277697357E+02  0.59718878703E+02  0.00000000000E+00 0.  1.
          1    1    1    2  501    0  0.34665904303E+03 -0.21224950153E+03  0.14372768849E+03  0.43113801903E+03  0.00000000000E+00 0.  1.
<scales pt_clust_3="68.48447" pt_clust_4="68.48447" pt_clust_5="44.79390" pt_clust_6="406.47551"></scales>
<clustering>
<clus scale="   44.794">  4  5 -1 -1</clus>
<clus scale="   68.484">  3  4 -1 -1</clus>
<clus scale="  406.476">  2  6  1 -1</clus>
<clus scale="  434.932">  1  3  2 -1</clus>
</clustering>
</event>
<event>
 6    0  0.2433432E+002  0.8244833E+02  0.7546771E-02  0.1322244E+00
         21   -1    0    0  503  502  0.00000000000E+00  0.00000000000E+00  0.12291551874E+03  0.12291551874E+03  0.00000000000E+00 0. -1.
         -1   -1    0    0    0  501 -0.00000000000E+00 -0.00000000000E+00 -0.21116742829E+04  0.21116742829E+04  0.00000000000E+00 0. -1.
         21    1    1    2  503  504 -0.49930817893E+02  0.45834098457E+02  0.61807844999E+00  0.67780772921E+02  0.00000000000E+00 0. -1.
         21    1    1    2  504  501  0.12978622942E+03 -0.16457265104E+02 -0.77207619091E+03  0.78308170167E+03  0.00000000000E+00 0. -1.
         21    1    1    2  505  502 -0.29716215742E+02 -0.25509613553E+02  0.78090272589E+02  0.87360657820E+02  0.00000000000E+00 0. -1.
         -1    1    1    2    0  505 -0.50139195788E+02 -0.38672197998E+01 -0.12953909243E+04  0.12963666692E+04  0.00000000000E+00 0. -1.
<scales pt_clust_3="14000.00000" pt_clust_4="82.44833" pt_clust_5="39.16368" pt_clust_6="50.67237"></scales>
<clustering>
<clus scale="   39.164">  1  5  2 -1</clus>
<clus scale="   50.672">  2  6  1 -1</clus>
<clus scale="   82.448">  2  4  1 -1</clus>
<clus scale="   39.164">  1  3  2 -1</clus>
</clustering>
</event>
<event>
 6    0  0.2433432E+002  0.1673362E+03  0.7546771E-02  0.1180655E+00
         21   -1    0    0  503  502  0.00000000000E+00  0.00000000000E+00  0.19021857241E+02  0.19021857241E+02  0.00000000000E+00 0.  1.
          2   -1    0    0  505    0 -0.00000000000E+00 -0.00000000000E+00 -0.32511549914E+04  0.32511549914E+04  0.00000000000E+00 0. -1.
         21    1    1    2  503  501  0.10678812267E+02  0.10059640366E+03 -0.43434640346E+03  0.44597137987E+03  0.00000000000E+00 0.  1.
         21    1    1    2  504  502  0.44311403393E+02  0.44620312860E+02 -0.19729662857E+03  0.20707590984E+03  0.00000000000E+00 0.  1.
         21    1    1    2  505  504  0.54334113262E+02  0.25118820286E+01 -0.14656863097E+03  0.15633575727E+03  0.00000000000E+00 0. -1.
          2    1    1    2  501    0 -0.10932432892E+03 -0.14772859855E+03 -0.24539214711E+04  0.24607938016E+04  0.00000000000E+00 0. -1.
<scales pt_clust_3="101.16162" pt_clust_4="40.24282" pt_clust_5="40.24282" pt_clust_6="161.64488"></scales>
<clustering>
<clus scale="   40.243">  4  5 -1 -1</clus>
<clus scale="  101.162">  1  3  2 -1</clus>
<clus scale="  161.645">  2  6  1 -1</clus>
<clus scale="  101.162">  1  3  2 -1</clus>
</clustering>
</event>
<event>
 6    0  0.2433432E+002  0.8772761E+02  0.7546771E-02  0.1308450E+00
         21   -1    0    0  503  502  0.00000000000E+00  0.00000000000E+00  0.36448021009E+02  0.36448021009E+02  0.00000000000E+00 0.  1.
          1   -1    0    0  505    0 -0.00000000000E+00 -0.00000000000E+00 -0.10048086930E+04  0.10048086930E+04  0.00000000000E+00 0. -1.
         21    1    1    2  503  504 -0.51963754937E+02  0.42527451126E+02 -0.15694773052E+03  0.17070854121E+03  0.00000000000E+00 0. -1.
         21    1    1    2  504  501 -0.62983579865E+02  0.66655893993E+01 -0.14196896985E+03  0.15545594172E+03  0.00000000000E+00 0. -1.
         21    1    1    2  505  502  0.51359107399E+02 -0.50059635129E+02 -0.39366290188E+02  0.81813383900E+02  0.00000000000E+00 0.  1.
          1    1    1    2  501    0  0.63588227402E+02  0.86659460328E+00 -0.63007768143E+03  0.63327884718E+03  0.00000000000E+00 0. -1.
<scales pt_clust_3="36.32888" pt_clust_4="36.32888" pt_clust_5="79.35303" pt_clust_6="63.59413"></scales>
<clustering>
<clus scale="   36.329">  3  4 -1 -1</clus>
<clus scale="   63.594">  2  6  1 -1</clus>
<clus scale="   79.353">  1  5  2 -1</clus>
<clus scale="   79.353">  1  3  2 -1</clus>
</clustering>
</event>
<event>
 6    0  0.2433432E+002  0.2709105E+03  0.7546771E-02  0.1100760E+00
         21   -1    0    0  504  502  0.00000000000E+00  0.00000000000E+00  0.25983184715E+03  0.25983184715E+03  0.00000000000E+00 0. -1.
         -1   -1    0    0    0  501 -0.00000000000E+00 -0.00000000000E+00 -0.10060969424E+04  0.10060969424E+04  0.00000000000E+00 0. -1.
         21    1    1    2  503  505  0.14479413511E+03  0.78658147628E+01  0.12133008865E+03  0.18907195195E+03  0.00000000000E+00 0. -1.
         21    1    1    2  504  503  0.19704588799E+02  0.35433557991E+02  0.59544056435E+01  0.40978809136E+02  0.00000000000E+00 0.  1.
         21    1    1    2  505  501  0.97880391821E+02 -0.69697705975E+01  0.23193640523E+02  0.10083200765E+03  0.00000000000E+00 0. -1.
         -1    1    1    2    0  502 -0.26237911573E+03 -0.36329602156E+02 -0.89674323005E+03  0.93504602079E+03  0.00000000000E+00 0. -1.
<scales pt_clust_3="52.29415" pt_clust_4="40.54390" pt_clust_5="52.29415" pt_clust_6="262.92018"></scales>
<clustering>
<clus scale="   40.544">  1  4  2 -1</clus>
<clus scale="   52.294">  3  5 -1 -1</clus>
<clus scale="  262.920">  2  6  1 -1</clus>
<clus scale="   40.544">  1  3  2 -1</clus>
</clustering>
</event>
<event>
 6    0  0.2433432E+002  0.1185100E+03  0.7546771E-02  0.1245576E+00
         21   -1    0    0  503  502  0.00000000000E+00  0.00000000000E+00  0.83702423697E+02  0.83702423697E+02  0.00000000000E+00 0. -1.
          1   -1    0    0  505    0 -0.00000000000E+00 -0.00000000000E+00 -0.54583953346E+03  0.54583953346E+03  0.00000000000E+00 0. -1.
         21    1    1    2  503  504  0.61725150872E+02 -0.50521407362E+02  0.31489033007E+02  0.85755268362E+02  0.00000000000E+00 0. -1.
         21    1    1    2  504  501  0.29797831498E+02 -0.16860111007E+02 -0.19154680385E+02  0.39231057669E+02  0.00000000000E+00 0. -1.
         21    1    1    2  505  502 -0.17012010701E+02  0.65092465206E+02 -0.87004950153E+02  0.10998317547E+03  0.00000000000E+00 0. -1.
          1    1    1    2  501    0 -0.74510971670E+02  0.22890531636E+01 -0.38746651223E+03  0.39457245566E+03  0.00000000000E+00 0. -1.
<scales pt_clust_3="33.10124" pt_clust_4="33.10124" pt_clust_5="67.27880" pt_clust_6="107.20026"></scales>
<clustering>
<clus scale="   33.101">  3  4 -1 -1</clus>
<clus scale="   67.279">  2  5  1 -1</clus>
<clus scale="  107.200">  2  6  1 -1</clus>
<clus scale="  118.510">  1  3  2 -1</clus>
</clustering>
</event>
<event>
 6    0  0.2433432E+002  0.1913909E+03  0.7546771E-02  0.1157213E+00
          1   -1    0    0  504    0 -0.00000000000E+00  0.00000000000E+00  0.15729654223E+04  0.15729654223E+04  0.00000000000E+00 0. -1.
         21   -1    0    0  505  502  0.00000000000E+00 -0.00000000000E+00 -0.98817255602E+02  0.98817255602E+02  0.00000000000E+00 0. -1.
         21    1    1    2  503  502 -0.10630135718E+03  0.54916152368E+02  0.39900589794E+02  0.12612620424E+03  0.00000000000E+00 0. -1.
         21    1    1    2  504  503 -0.12620110400E+03  0.93468316237E+01  0.10094020438E+03  0.16187342824E+03  0.00000000000E+00 0.  1.
         21    1    1    2  505  501  0.84896768689E+02  0.27177336275E+02  0.84051687751E+02  0.12251838701E+03  0.00000000000E+00 0. -1.
          1    1    1    2  501    0  0.14760569249E+03 -0.91440320267E+02  0.12492556848E+04  0.12612646584E+04  0.00000000000E+00 0. -1.
<scales pt_clust_3="68.20783" pt_clust_4="68.20783" pt_clust_5="89.14073" pt_clust_6="178.07285"></scales>
<clustering>
<clus scale="   68.208">  3  4 -1 -1</clus>
<clus scale="   89.141">  2  5  1 -1</clus>
<clus scale="  178.073">  1  6  2 -1</clus>
<clus scale="   89.141">  2  3  1 -1</clus>
</clustering>
</event>
<event>
 6    0  0.2433432E+002  0.1376916E+03  0.7546771E-02  0.1216469E+00
         21   -1    0    0  501  502  0.00000000000E+00  0.00000000000E+00  0.67767108377E+02  0.67767108377E+02  0.00000000000E+00 0. -1.
          4   -1    0    0  504    0 -0.00000000000E+00 -0.00000000000E+00 -0.24077545138E+04  0.24077545138E+04  0.00000000000E+00 0.  1.
         21    1    1    2  503  502 -0.25208595369E+02 -0.28164081954E+02  0.30522437001E+02  0.48583000661E+02  0.00000000000E+00 0. -1.
         21    1    1    2  504  505  0.16183364715E+02 -0.46873283464E+02 -0.74061745167E+02  0.89129950597E+02  0.00000000000E+00 0. -1.
         21    1    1    2  505  503 -0.21866386075E+02 -0.47423943243E+02 -0.17080338386E+02  0.54944582918E+02  0.00000000000E+00 0. -1.
          4    1    1    2  501    0  0.30891616730E+02  0.12246130866E+03 -0.22793677589E+04  0.22828640880E+04  0.00000000000E+00 0.  1.
<scales pt_clust_3="37.79800" pt_clust_4="50.33900" pt_clust_5="50.33900" pt_clust_6="124.22820"></scales>
<clustering>
<clus scale="   37.798">  1  3  2 -1</clus>
<clus scale="   50.339">  4  5 -1 -1</clus>
<clus scale="  124.228">  2  6  1 -1</clus>
<clus scale="   37.798">  1  3  2 -1</clus>
</clustering>
</event>
<event>
 6    0  0.2433432E+002  0.2926552E+03  0.7546771E-02  0.1088971E+00
         21   -1    0    0  504  502  0.00000000000E+00  0.00000000000E+00  0.71359473646E+03  0.71359473646E+03  0.00000000000E+00 0. -1.
         -4   -1    0    0    0  501 -0.00000000000E+00 -0.00000000000E+00 -0.26548420391E+03  0.26548420391E+03  0.00000000000E+00 0. -1.
         21    1    1    2  503  501 -0.16683880617E+03 -0.12243957873E+03  0.17477931283E+03  0.27087717858E+03  0.00000000000E+00 0. -1.
         21    1    1    2  504  503 -0.11835833462E+03  0.58896950994E+01  0.16599411847E+03  0.20395448328E+03  0.00000000000E+00 0. -1.
         21    1    1    2  505  502  0.35386334532E+02  0.49679090816E+02  0.21547569669E+03  0.22394191345E+03  0.00000000000E+00 0.  1.
         -4    1    1    2    0  505  0.24981080626E+03  0.66870792812E+02 -0.10813859544E+03  0.28030536505E+03  0.00000000000E+00 0. -1.
<scales pt_clust_3="92.71168" pt_clust_4="92.71168" pt_clust_5="60.99348" pt_clust_6="266.88907"></scales>
<clustering>
<clus scale="   60.993">  1  5  2 -1</clus>
<clus scale="   92.712">  3  4 -1 -1</clus>
<clus scale="  266.889">  2  6  1 -1</clus>
<clus scale="   60.993">  1  3  2 -1</clus>
</clustering>
</event>
<event>
 6    0  0.2433432E+002  0.1414183E+03  0.7546771E-02  0.1211433E+00
          2   -1    0    0  504    0 -0.00000000000E+00  0.00000000000E+00  0.23542262318E+04  0.23542262318E+04  0.00000000000E+00 0.  1.
         21   -1    0    0  501  502  0.00000000000E+00 -0.00000000000E+00 -0.19975348490E+02  0.19975348490E+02  0.00000000000E+00 0.  1.
         21    1    1    2  503  502 -0.31047020372E+01 -0.33937792607E+02  0.96386385300E+02  0.10223379193E+03  0.00000000000E+00 0. -1.
         21    1    1    2  504  505  0.71948933718E+02 -0.50001766723E+02  0.56826618730E+03  0.57498111740E+03  0.00000000000E+00 0. -1.
         21    1    1    2  505  503 -0.13028953619E+03 -0.59979422468E+02  0.66682687306E+03  0.68207842144E+03  0.00000000000E+00 0.  1.
          2    1    1    2  501    0  0.61445304508E+02  0.14391898180E+03  0.10027714377E+04  0.10149082495E+04  0.00000000000E+00 0.  1.
<scales pt_clust_3="34.07951" pt_clust_4="91.11610" pt_clust_5="14000.00000" pt_clust_6="141.41826"></scales>
<clustering>
<clus scale="   34.080">  2  3  1 -1</clus>
<clus scale="   91.116">  1  4  2 -1</clus>
<clus scale="  141.418">  1  6  2 -1</clus>
<clus scale="   34.080">  2  3  1 -1</clus>
</clustering>
</event>
<event>
 6    0  0.2433432E+002  0.2667566E+03  0.7546771E-02  0.1103150E+00
          2   -1    0    0  504    0 -0.00000000000E+00  0.00000000000E+00  0.12016240433E+04  0.12016240433E+04  0.00000000000E+00 0. -1.
         21   -1    0    0  505  502  0.00000000000E+00 -0.00000000000E+00 -0.46543443071E+03  0.46543443071E+03  0.00000000000E+00 0. -1.
         21    1    1    2  503  501 -0.15953797139E+03 -0.26122418856E+02  0.30823914060E+02  0.16457478167E+03  0.00000000000E+00 0. -1.
         21    1    1    2  504  502  0.21253992973E+03 -0.18290740135E+03  0.31274098482E+03  0.42004197741E+03  0.00000000000E+00 0. -1.
         21    1    1    2  505  503 -0.12963862818E+03  0.23337421645E+03 -0.29053648705E+03  0.39456450566E+03  0.00000000000E+00 0. -1.
          2    1    1    2  501    0  0.76636669843E+02 -0.24344396241E+02  0.68316120076E+03  0.68787720926E+03  0.00000000000E+00 0. -1.
<scales pt_clust_3="148.25061" pt_clust_4="266.75658" pt_clust_5="14000.00000" pt_clust_6="80.41038"></scales>
<clustering>
<clus scale="   80.410">  1  6  2 -1</clus>
<clus scale="  148.251">  1  3  2 -1</clus>
<clus scale="  266.757">  1  4  2 -1</clus>
<clus scale="  266.757">  2  3  1 -1</clus>
</clustering>
</event>
<event>
 6    0  0.2433432E+002  0.8319727E+02  0.7546771E-02  0.1320215E+00
         21   -1    0    0  503  502  0.00000000000E+00  0.00000000000E+00  0.16867786234E+03  0.16867786234E+03  0.00000000000E+00 0.  1.
          2   -1    0    0  505    0 -0.00000000000E+00 -0.00000000000E+00 -0.32382493468E+03  0.32382493468E+03  0.00000000000E+00 0.  1.
         21    1    1    2  503  501  0.24501617590E+01 -0.60167708035E+02  0.18767913139E+02  0.63074487287E+02  0.00000000000E+00 0.  1.
         21    1    1    2  504  502 -0.19863779028E+02  0.11221434932E+03  0.81760414777E+02  0.14025475156E+03  0.00000000000E+00 0.  1.
         21    1    1    2  505  504  0.41922372761E+02 -0.27138676394E+02 -0.24965894032E+02  0.55832687192E+02  0.00000000000E+00 0.  1.
          2    1    1    2  501    0 -0.24508755492E+02 -0.24907964892E+02 -0.23070950622E+03  0.23334087098E+03  0.00000000000E+00 0.  1.
<scales pt_clust_3="83.19727" pt_clust_4="14000.00000" pt_clust_5="49.20476" pt_clust_6="34.94404"></scales>
<clustering>
<clus scale="   34.944">  2  6  1 -1</clus>
<clus scale="   49.205">  2  5  1 -1</clus>
<clus scale="   83.197">  1  3  2 -1</clus>
<clus scale="   83.197">  1  3  2 -1</clus>
</clustering>
</event>
<event>
 6    0  0.2433432E+002  0.2860800E+03  0.7546771E-02  0.1092414E+00
          4   -1    0    0  505    0 -0.00000000000E+00  0.00000000000E+00  0.12665244879E+04  0.12665244879E+04  0.00000000000E+00 0.  1.
         21   -1    0    0  504  502  0.00000000000E+00 -0.00000000000E+00 -0.11350340927E+04  0.11350340927E+04  0.00000000000E+00 0. -1.
         21    1    1    2  503  502 -0.69226199768E+02  0.11820323454E+03 -0.43476563900E+03  0.45583487388E+03  0.00000000000E+00 0. -1.
         21    1    1    2  504  501 -0.17170091218E+03 -0.23734979285E+03 -0.37886482842E+03  0.47890989301E+03  0.00000000000E+00 0. -1.
         21    1    1    2  505  503 -0.47874332938E+02  0.94699203097E+02 -0.23169183525E+03  0.25483523568E+03  0.00000000000E+00 0. -1.
          4    1    1    2  501    0  0.28880144489E+03  0.24447355211E+02  0.11768126979E+04  0.12119785781E+04  0.00000000000E+00 0.  1.
<scales pt_clust_3="246.75178" pt_clust_4="14000.00000" pt_clust_5="37.81989" pt_clust_6="286.08000"></scales>
<clustering>
<clus scale="   37.820">  3  5 -1 -1</clus>
<clus scale="  246.752">  2  3  1 -1</clus>
<clus scale="  286.080">  1  6  2 -1</clus>
<clus scale="  246.752">  2  3  1 -1</clus>
</clustering>
</event>
<event>
 6    0  0.2433432E+002  0.1377959E+03  0.7546771E-02  0.1216326E+00
         -2   -1    0    0    0  501 -0.00000000000E+00  0.00000000000E+00  0.54523633473E+03  0.54523633473E+03  0.00000000000E+00 0.  1.
         21   -1    0    0  504  502  0.00000000000E+00 -0.00000000000E+00 -0.34645918000E+03  0.34645918000E+03  0.00000000000E+00 0.  1.
         21    1    1    2  503  502 -0.72837156554E+01  0.42111962933E+02 -0.68066806517E+02  0.80371388474E+02  0.00000000000E+00 0.  1.
         21    1    1    2  504  501  0.37398033956E+02  0.29669521106E+01 -0.18317543960E+03  0.18697769231E+03  0.00000000000E+00 0.  1.
         21    1    1    2  505  503  0.11116323182E+03 -0.42666597187E+02 -0.30970257511E+02  0.12303194494E+03  0.00000000000E+00 0.  1.
         -2    1    1    2    0  505 -0.14127755012E+03 -0.24123178568E+01  0.48098965836E+03  0.50131448901E+03  0.00000000000E+00 0.  1.
<scales pt_clust_3="44.59280" pt_clust_4="37.51554" pt_clust_5="14000.00000" pt_clust_6="137.79586"></scales>
<clustering>
<clus scale="   37.516">  2  4  1 -1</clus>
<clus scale="   44.593">  2  3  1 -1</clus>
<clus scale="  137.796">  1  6  2 -1</clus>
<clus scale="   37.516">  2  3  1 -1</clus>
</clustering>
</event>
<event>
 6    0  0.2433432E+002  0.8989659E+02  0.7546771E-02  0.1303102E+00
          1   -1    0    0  505    0 -0.00000000000E+00  0.00000000000E+00  0.16268132898E+04  0.16268132898E+04  0.00000000000E+00 0. -1.
         21   -1    0    0  504  502  0.00000000000E+00 -0.00000000000E+00 -0.30489103203E+03  0.30489103203E+03  0.00000000000E+00 0.  1.
         21    1    1    2  503  501 -0.42806656015E+02  0.73665713801E+02 -0.38107119693E+02  0.93333808239E+02  0.00000000000E+00 0.  1.
         21    1    1    2  504  503  0.85858151305E+01  0.32378664647E+02 -0.80946551046E+02  0.87603871330E+02  0.00000000000E+00 0.  1.
         21    1    1    2  505  502  0.68615730305E+02 -0.76963694144E+02 -0.13737921689E+03  0.17176896663E+03  0.00000000000E+00 0.  1.
          1    1    1    2  501    0 -0.34394889420E+02 -0.29080684305E+02  0.15783551454E+04  0.15789976756E+04  0.00000000000E+00 0. -1.
<scales pt_clust_3="14000.00000" pt_clust_4="33.49767" pt_clust_5="89.89659" pt_clust_6="45.00105"></scales>
<clustering>
<clus scale="   33.498">  2  4  1 -1</clus>
<clus scale="   45.001">  1  6  2 -1</clus>
<clus scale="   89.897">  2  5  1 -1</clus>
<clus scale="   33.498">  2  3  1 -1</clus>
</clustering>
</event>
<event>
 6    0  0.2433432E+002  0.8817661E+02  0.7546771E-02  0.1307328E+00
          2   -1    0    0  505    0 -0.00000000000E+00  0.00000000000E+00  0.31551151820E+04  0.31551151820E+04  0.00000000000E+00 0. -1.
         21   -1    0    0  504  502  0.00000000000E+00 -0.00000000000E+00 -0.22494829125E+03  0.22494829125E+03  0.00000000000E+00 0. -1.
         21    1    1    2  503  502 -0.32254917260E+02  0.13162019878E+01  0.17592966675E+02  0.36764446841E+02  0.00000000000E+00 0.  1.
         21    1    1    2  504  501 -0.24835616074E+02  0.67265128413E+02  0.31037962802E+02  0.78132966545E+02  0.00000000000E+00 0.  1.
         21    1    1    2  505  503  0.73654070192E+02 -0.15492416834E+03 -0.15269800185E+03  0.22965865923E+03  0.00000000000E+00 0. -1.
          2    1    1    2  501    0 -0.16563536858E+02  0.86342837936E+02  0.30342339631E+04  0.30355074007E+04  0.00000000000E+00 0. -1.
<scales pt_clust_3="32.28176" pt_clust_4="73.13276" pt_clust_5="88.17661" pt_clust_6="14000.00000"></scales>
<clustering>
<clus scale="   32.282">  2  3  1 -1</clus>
<clus scale="   73.133">  2  4  1 -1</clus>
<clus scale="   88.177">  2  5  1 -1</clus>
<clus scale="   32.282">  2  3  1 -1</clus>
</clustering>
</event>
<event>
 6    0  0.2433432E+002  0.1767228E+03  0.7546771E-02  0.1171013E+00
          4   -1    0    0  505    0 -0.00000000000E+00  0.00000000000E+00  0.12661670842E+04  0.12661670842E+04  0.00000000000E+00 0.  1.
         21   -1    0    0  504  502  0.00000000000E+00 -0.00000000000E+00 -0.10822734628E+03  0.10822734628E+03  0.00000000000E+00 0.  1.
         21    1    1    2  503  502 -0.65849464032E+02  0.13768776182E+03  0.15356814192E+03  0.21651153753E+03  0.00000000000E+00 0.  1.
         21    1    1    2  504  501  0.44622764472E+02  0.41914755253E+02 -0.46743234769E+02  0.77025760715E+02  0.00000000000E+00 0.  1.
         21    1    1    2  505  503  0.11245318757E+02  0.31396521591E+02  0.73959648760E+02  0.81130933723E+02  0.00000000000E+00 0. -1.
          4    1    1    2  501    0  0.99813808026E+01 -0.21099903867E+03  0.97715518202E+03  0.99972619853E+03  0.00000000000E+00 0.  1.
<scales pt_clust_3="14000.00000" pt_clust_4="61.59975" pt_clust_5="33.34964" pt_clust_6="176.72277"></scales>
<clustering>
<clus scale="   33.350">  1  5  2 -1</clus>
<clus scale="   61.600">  2  4  1 -1</clus>
<clus scale="  176.723">  1  6  2 -1</clus>
<clus scale="   61.600">  2  3  1 -1</clus>
</clustering>
</event>
<event>
 6    0  0.2433432E+002  0.1363039E+03  0.7546771E-02  0.1218391E+00
          2   -1    0    0  504    0 -0.00000000000E+00  0.00000000000E+00  0.11957876275E+04  0.11957876275E+04  0.00000000000E+00 0.  1.
         21   -1    0    0  505  502  0.00000000000E+00 -0.00000000000E+00 -0.20704068775E+03  0.20704068775E+03  0.00000000000E+00 0. -1.
         21    1    1    2  503  501  0.58151405323E+02 -0.54540948392E+02 -0.63328241418E+02  0.10181732246E+03  0.00000000000E+00 0. -1.
         21    1    1    2  504  502 -0.24052222786E+02  0.88359096175E+02  0.30330036721E+02  0.96466317569E+02  0.00000000000E+00 0. -1.
         21    1    1    2  505  503  0.96173297911E+02 -0.46364631060E+02 -0.54844878685E+02  0.12002892552E+03  0.00000000000E+00 0. -1.
          2    1    1    2  501    0 -0.13027248045E+03  0.12546483277E+02  0.10765900231E+04  0.10845157497E+04  0.00000000000E+00 0.  1.
<scales pt_clust_3="30.58646" pt_clust_4="91.57423" pt_clust_5="30.58646" pt_clust_6="131.62802"></scales>
<clustering>
<clus scale="   30.586">  3  5 -1 -1</clus>
<clus scale="   91.574">  2  4  1 -1</clus>
<clus scale="  131.628">  1  6  2 -1</clus>
<clus scale="   91.574">  2  3  1 -1</clus>
</clustering>
</event>
<event>
 6    0  0.2433432E+002  0.7243995E+02  0.7546771E-02  0.1351987E+00
          1   -1    0    0  505    0 -0.00000000000E+00  0.00000000000E+00  0.12747615946E+04  0.12747615946E+04  0.00000000000E+00 0. -1.
         21   -1    0    0  503  502  0.00000000000E+00 -0.00000000000E+00 -0.32887044906E+02  0.32887044906E+02  0.00000000000E+00 0. -1.
         21    1    1    2  503  501  0.61133951871E+02  0.36188852050E+02  0.35511030615E+02  0.79423084675E+02  0.00000000000E+00 0. -1.
         21    1    1    2  504  502 -0.82992913418E+02 -0.16374279491E+02  0.32867679413E+03  0.33938823743E+03  0.00000000000E+00 0.  1.
         21    1    1    2  505  504  0.63838012423E+02 -0.18644935636E+02  0.22052139810E+03  0.23033152731E+03  0.00000000000E+00 0. -1.
          1    1    1    2  501    0 -0.41979050876E+02 -0.11696369235E+01  0.65716532685E+03  0.65850579009E+03  0.00000000000E+00 0. -1.
<scales pt_clust_3="72.43995" pt_clust_4="14000.00000" pt_clust_5="52.11413" pt_clust_6="41.99534"></scales>
<clustering>
<clus scale="   41.995">  1  6  2 -1</clus>
<clus scale="   52.114">  1  5  2 -1</clus>
<clus scale="   72.440">  2  3  1 -1</clus>
<clus scale="   72.440">  2  3  1 -1</clus>
</clustering>
</event>
<event>
 6    0  0.2433432E+002  0.1427116E+03  0.7546771E-02  0.1209726E+00
          1   -1    0    0  502    0 -0.00000000000E+00  0.00000000000E+00  0.13277347629E+03  0.13277347629E+03  0.00000000000E+00 0. -1.
         21   -1    0    0  504  502  0.00000000000E+00 -0.00000000000E+00 -0.25614664065E+03  0.25614664065E+03  0.00000000000E+00 0. -1.
         21    1    1    2  503  505  0.57492976618E+02  0.23685516283E+02 -0.81780373101E+02  0.10273497684E+03  0.00000000000E+00 0.  1.
         21    1    1    2  504  503  0.49782160230E+02  0.43878118931E+02 -0.39641531425E+02  0.77298148824E+02  0.00000000000E+00 0. -1.
         21    1    1    2  505  501 -0.13250048252E+03 -0.89134213788E+02 -0.33418898037E+02  0.16315057058E+03  0.00000000000E+00 0. -1.
          1    1    1    2  501    0  0.25225345671E+02  0.21570578575E+02  0.31467638196E+02  0.45736420694E+02  0.00000000000E+00 0. -1.
<scales pt_clust_3="37.89944" pt_clust_4="37.89944" pt_clust_5="137.00642" pt_clust_6="33.19048"></scales>
<clustering>
<clus scale="   33.190">  1  6  2 -1</clus>
<clus scale="   37.899">  3  4 -1 -1</clus>
<clus scale="  137.006">  1  5  2 -1</clus>
<clus scale="  142.712">  2  3  1 -1</clus>
</clustering>
</event>
<event>
 6    0  0.2433432E+002  0.1205943E+03  0.7546771E-02  0.1242120E+00
          1   -1    0    0  504    0 -0.00000000000E+00  0.00000000000E+00  0.18732164535E+04  0.18732164535E+04  0.00000000000E+00 0.  1.
         21   -1    0    0  505  502  0.00000000000E+00 -0.00000000000E+00 -0.38295725589E+03  0.38295725589E+03  0.00000000000E+00 0. -1.
         21    1    1    2  503  501  0.10039916165E+03  0.74607502993E+02 -0.20912481141E+03  0.24367900589E+03  0.00000000000E+00 0. -1.
         21    1    1    2  504  502 -0.58192204174E+02 -0.32824010729E+02 -0.94715266824E+02  0.11590828304E+03  0.00000000000E+00 0. -1.
         21    1    1    2  505  503  0.33853648821E+02  0.36656757962E+02 -0.37069681463E+02  0.62160668646E+02  0.00000000000E+00 0. -1.
          1    1    1    2  501    0 -0.76060606297E+02 -0.78440250226E+02  0.18311689574E+04  0.18344257519E+04  0.00000000000E+00 0.  1.
<scales pt_clust_3="31.72227" pt_clust_4="66.81129" pt_clust_5="31.72227" pt_clust_6="109.63741"></scales>
<clustering>
<clus scale="   31.722">  3  5 -1 -1</clus>
<clus scale="   66.811">  2  4  1 -1</clus>
<clus scale="  109.637">  1  6  2 -1</clus>
<clus scale="   66.811">  2  3  1 -1</clus>
</clustering>
</event>
<event>
 6    0  0.2433432E+002  0.8369572E+02  0.7546771E-02  0.1318879E+00
         21   -1    0    0  503  502  0.00000000000E+00  0.00000000000E+00  0.56150523116E+02  0.56150523116E+02  0.00000000000E+00 0.  1.
         -2   -1    0    0    0  501 -0.00000000000E+00 -0.00000000000E+00 -0.65366084809E+03  0.65366084809E+03  0.00000000000E+00 0. -1.
         21    1    1    2  503  501  0.24825316234E+02 -0.31248641165E+02 -0.56719634751E+02  0.69353376753E+02  0.00000000000E+00 0.  1.
         21    1    1    2  504  502 -0.41261852531E+02  0.17816519257E+02 -0.24432403700E+01  0.45010423862E+02  0.00000000000E+00 0.  1.
         21    1    1    2  505  504 -0.30289960519E+02  0.82531851185E+02 -0.52301832832E+02  0.10229599154E+03  0.00000000000E+00 0.  1.
         -2    1    1    2    0  505  0.46726496816E+02 -0.69099729277E+02 -0.48604561702E+03  0.49315157905E+03  0.00000000000E+00 0. -1.
<scales pt_clust_3="39.90957" pt_clust_4="30.98335" pt_clust_5="83.69572" pt_clust_6="14000.00000"></scales>
<clustering>
<clus scale="   39.910">  1  3  2 -1</clus>
<clus scale="   30.983">  1  4  2 -1</clus>
<clus scale="   83.696">  1  5  2 -1</clus>
<clus scale="   39.910">  1  3  2 -1</clus>
</clustering>
</event>
<event>
 6    0  0.2433432E+002  0.9810190E+02  0.7546771E-02  0.1284339E+00
         21   -1    0    0  505  502  0.00000000000E+00  0.00000000000E+00  0.88704584230E+02  0.88704584230E+02  0.00000000000E+00 0.  1.
          2   -1    0    0  503    0 -0.00000000000E+00 -0.00000000000E+00 -0.16925803742E+04  0.16925803742E+04  0.00000000000E+00 0.  1.
         21    1    1    2  503  502  0.28018800637E+02  0.34377236655E+02  0.12767719779E+02  0.46150430740E+02  0.00000000000E+00 0.  1.
         21    1    1    2  504  501 -0.67409783430E+02  0.29965983569E+01 -0.20784163140E+02  0.70604815283E+02  0.00000000000E+00 0.  1.
         21    1    1    2  505  504 -0.46749272466E+02 -0.21713852599E+02  0.13104409335E+02  0.53185631658E+02  0.00000000000E+00 0. -1.
          2    1    1    2  501    0  0.86140255259E+02 -0.15659982413E+02 -0.16089637560E+04  0.16113440808E+04  0.00000000000E+00 0.  1.
<scales pt_clust_3="44.34916" pt_clust_4="37.92151" pt_clust_5="37.92151" pt_clust_6="87.98587"></scales>
<clustering>
<clus scale="   37.922">  4  5 -1 -1</clus>
<clus scale="   44.349">  1  3  2 -1</clus>
<clus scale="   87.986">  2  6  1 -1</clus>
<clus scale="   44.349">  1  3  2 -1</clus>
</clustering>
</event>
<event>
 6    0  0.2433432E+002  0.9085788E+02  0.7546771E-02  0.1300787E+00
         21   -1    0    0  501  502  0.00000000000E+00  0.00000000000E+00  0.19870119023E+03  0.19870119023E+03  0.00000000000E+00 0.  1.
          2   -1    0    0  504    0 -0.00000000000E+00 -0.00000000000E+00 -0.93752076854E+03  0.93752076854E+03  0.00000000000E+00 0.  1.
         21    1    1    2  503  505 -0.29725945413E+02 -0.23320595918E+02 -0.66026294012E+01  0.38354618231E+02  0.00000000000E+00 0.  1.
         21    1    1    2  504  503 -0.91619481989E+00  0.93288172469E+02 -0.84068348272E+03  0.84584409950E+03  0.00000000000E+00 0.  1.
         21    1    1    2  505  502 -0.32524030235E+02 -0.79691552356E+01  0.15040059505E+03  0.15408328582E+03  0.00000000000E+00 0.  1.
          2    1    1    2  501    0  0.63166170468E+02 -0.61998421315E+02 -0.41934061229E+02  0.97939955219E+02  0.00000000000E+00 0.  1.
<scales pt_clust_3="48.43745" pt_clust_4="14000.00000" pt_clust_5="33.48612" pt_clust_6="90.85788"></scales>
<clustering>
<clus scale="   33.486">  1  5  2 -1</clus>
<clus scale="   48.437">  1  3  2 -1</clus>
<clus scale="   90.858">  1  6  2 -1</clus>
<clus scale="   33.486">  1  3  2 -1</clus>
</clustering>
</event>
<event>
 6    0  0.2433432E+002  0.1470282E+03  0.7546771E-02  0.1204173E+00
          1   -1    0    0  503    0 -0.00000000000E+00  0.00000000000E+00  0.17136595819E+04  0.17136595819E+04  0.00000000000E+00 0. -1.
         21   -1    0    0  505  502  0.00000000000E+00 -0.00000000000E+00 -0.71118092128E+03  0.71118092128E+03  0.00000000000E+00 0. -1.
         21    1    1    2  503  504  0.24497218193E+02 -0.18555651912E+02  0.20947382250E+02  0.37191648796E+02  0.00000000000E+00 0. -1.
         21    1    1    2  504  502  0.92920899173E+02  0.20417979333E+03 -0.53180123863E+03  0.57717955518E+03  0.00000000000E+00 0. -1.
         21    1    1    2  505  501 -0.11174980852E+03 -0.58640140003E+02 -0.11884381034E+03  0.17335090707E+03  0.00000000000E+00 0. -1.
          1    1    1    2  501    0 -0.56683088418E+01 -0.12698400142E+03  0.16321763273E+04  0.16371183921E+04  0.00000000000E+00 0. -1.
<scales pt_clust_3="30.73151" pt_clust_4="14000.00000" pt_clust_5="125.99033" pt_clust_6="147.02824"></scales>
<clustering>
<clus scale="   30.732">  1  3  2 -1</clus>
<clus scale="  125.990">  2  5  1 -1</clus>
<clus scale="  147.028">  1  6  2 -1</clus>
<clus scale="  125.990">  2  3  1 -1</clus>
</clustering>
</event>
<event>
 6    0  0.2433432E+002  0.1117834E+03  0.7546771E-02  0.1257303E+00
         21   -1    0    0  505  502  0.00000000000E+00  0.00000000000E+00  0.71942881075E+02  0.71942881075E+02  0.00000000000E+00 0.  1.
         -1   -1    0    0    0  501 -0.00000000000E+00 -0.00000000000E+00 -0.43967705048E+03  0.43967705048E+03  0.00000000000E+00 0.  1.
         21    1    1    2  503  504  0.48139478231E+02 -0.68246821765E+01 -0.15939555236E+03  0.16664611536E+03  0.00000000000E+00 0.  1.
         21    1    1    2  504  502 -0.65146543517E+02 -0.95165699751E+02 -0.23155319754E+02  0.11762972147E+03  0.00000000000E+00 0.  1.
         21    1    1    2  505  501 -0.23749205539E+02  0.80220420818E+02 -0.99520279579E+02  0.13001394820E+03  0.00000000000E+00 0.  1.
         -1    1    1    2    0  503  0.40756270825E+02  0.21769961109E+02 -0.85663017705E+02  0.97330146514E+02  0.00000000000E+00 0.  1.
<scales pt_clust_3="37.80550" pt_clust_4="104.84069" pt_clust_5="83.66206" pt_clust_6="37.80550"></scales>
<clustering>
<clus scale="   37.806">  3  6 -1 -1</clus>
<clus scale="   83.662">  2  5  1 -1</clus>
<clus scale="  104.841">  1  4  2 -1</clus>
<clus scale="  104.841">  1  3  2 -1</clus>
</clustering>
</event>
<event>
 6    0  0.2433432E+002  0.3104813E+03  0.7546771E-02  0.1080115E+00
         -1   -1    0    0    0  501 -0.00000000000E+00  0.00000000000E+00  0.34619955928E+03  0.34619955928E+03  0.00000000000E+00 0.  1.
         21   -1    0    0  505  502  0.00000000000E+00 -0.00000000000E+00 -0.36007452985E+03  0.36007452985E+03  0.00000000000E+00 0.  1.
         21    1    1    2  503  501 -0.98089792037E+02 -0.82248215239E+02 -0.81610962636E+01  0.12826916895E+03  0.00000000000E+00 0.  1.
         21    1    1    2  504  502  0.31050842699E+02 -0.12979725583E+02 -0.25196279464E+02  0.42041415383E+02  0.00000000000E+00 0.  1.
         21    1    1    2  505  503 -0.18316649221E+03 -0.38948696939E+02 -0.11714774022E+03  0.22088584812E+03  0.00000000000E+00 0.  1.
         -1    1    1    2    0  504  0.25020544155E+03  0.13417663776E+03  0.13663014538E+03  0.31507765666E+03  0.00000000000E+00 0.  1.
<scales pt_clust_3="94.62096" pt_clust_4="33.65454" pt_clust_5="94.62096" pt_clust_6="289.80253"></scales>
<clustering>
<clus scale="   33.655">  2  4  1 -1</clus>
<clus scale="   94.621">  3  5 -1 -1</clus>
<clus scale="  289.803">  1  6  2 -1</clus>
<clus scale="   33.655">  2  3  1 -1</clus>
</clustering>
</event>
<event>
 6    0  0.2433432E+002  0.1222909E+03  0.7546771E-02  0.1239365E+00
          2   -1    0    0  503    0 -0.00000000000E+00  0.00000000000E+00  0.95617999144E+03  0.95617999144E+03  0.00000000000E+00 0. -1.
         21   -1    0    0  505  502  0.00000000000E+00 -0.00000000000E+00 -0.56751015992E+02  0.56751015992E+02  0.00000000000E+00 0. -1.
         21    1    1    2  503  504  0.80787863583E+02  0.13322730173E+03  0.12625701371E+03  0.20054183189E+03  0.00000000000E+00 0. -1.
         21    1    1    2  504  502 -0.30058775430E+02  0.17547381942E+02  0.51028121134E+02  0.61768193594E+02  0.00000000000E+00 0. -1.
         21    1    1    2  505  501 -0.48055668056E+01 -0.42168696358E+02  0.39866757635E+02  0.58229294940E+02  0.00000000000E+00 0. -1.
          2    1    1    2  501    0 -0.45923521348E+02 -0.10860598731E+03  0.68227708297E+03  0.69239168701E+03  0.00000000000E+00 0. -1.
<scales pt_clust_3="14000.00000" pt_clust_4="34.80576" pt_clust_5="40.33799" pt_clust_6="122.29093"></scales>
<clustering>
<clus scale="   34.806">  2  4  1 -1</clus>
<clus scale="   40.338">  2  5  1 -1</clus>
<clus scale="  122.291">  1  6  2 -1</clus>
<clus scale="   34.806">  2  3  1 -1</clus>
</clustering>
</event>
<event>
 6    0  0.2433432E+002  0.1098575E+03  0.7546771E-02  0.1260834E+00
         21   -1    0    0  505  502  0.00000000000E+00  0.00000000000E+00  0.44241473189E+03  0.44241473189E+03  0.00000000000E+00 0. -1.
         -1   -1    0    0    0  501 -0.00000000000E+00 -0.00000000000E+00 -0.11707111928E+04  0.11707111928E+04  0.00000000000E+00 0.  1.
         21    1    1    2  503  502  0.15094016621E+02 -0.55415786436E+02  0.24143024175E+03  0.24816788744E+03  0.00000000000E+00 0. -1.
         21    1    1    2  504  503 -0.14238378188E+03  0.42552006840E+02  0.12346419213E+03  0.19320253976E+03  0.00000000000E+00 0.  1.
         21    1    1    2  505  501  0.24070328098E+02  0.48517900777E+02  0.16566851486E+02  0.56637690266E+02  0.00000000000E+00 0.  1.
         -1    1    1    2    0  504  0.10321943717E+03 -0.35654121181E+02 -0.11097577462E+04  0.11151178072E+04  0.00000000000E+00 0.  1.
<scales pt_clust_3="39.50595" pt_clust_4="14000.00000" pt_clust_5="54.16057" pt_clust_6="109.85749"></scales>
<clustering>
<clus scale="   54.161">  1  5  2 -1</clus>
<clus scale="   39.506">  1  3  2 -1</clus>
<clus scale="  109.857">  2  6  1 -1</clus>
<clus scale="   54.161">  1  3  2 -1</clus>
</clustering>
</event>
<event>
 6    0  0.2433432E+002  0.2169280E+03  0.7546771E-02  0.1136194E+00
         21   -1    0    0  505  502  0.00000000000E+00  0.00000000000E+00  0.37342053409E+03  0.37342053409E+03  0.00000000000E+00 0.  1.
          2   -1    0    0  503    0 -0.00000000000E+00 -0.00000000000E+00 -0.93003649646E+03  0.93003649646E+03  0.00000000000E+00 0.  1.
         21    1    1    2  503  504  0.28039420442E+02 -0.58722675041E+02  0.20480550969E+02  0.68220338834E+02  0.00000000000E+00 0.  1.
         21    1    1    2  504  502  0.17019257041E+03 -0.49774196354E+02  0.32853141521E+02  0.18033943150E+03  0.00000000000E+00 0.  1.
         21    1    1    2  505  501 -0.28685948113E+02  0.10514208785E+02  0.20983569744E+03  0.21204823066E+03  0.00000000000E+00 0.  1.
          2    1    1    2  501    0 -0.16954604274E+03  0.97982662610E+02 -0.81978535230E+03  0.84284902956E+03  0.00000000000E+00 0.  1.
<scales pt_clust_3="54.50850" pt_clust_4="54.50850" pt_clust_5="30.55212" pt_clust_6="197.95905"></scales>
<clustering>
<clus scale="   30.552">  1  5  2 -1</clus>
<clus scale="   54.508">  3  4 -1 -1</clus>
<clus scale="  197.959">  2  6  1 -1</clus>
<clus scale="   30.552">  1  3  2 -1</clus>
</clustering>
</event>
<event>
 6    0  0.2433432E+002  0.2293301E+03  0.7546771E-02  0.1127112E+00
          1   -1    0    0  504    0 -0.00000000000E+00  0.00000000000E+00  0.96394770620E+03  0.96394770620E+03  0.00000000000E+00 0.  1.
         21   -1    0    0  505  502  0.00000000000E+00 -0.00000000000E+00 -0.41661565794E+03  0.41661565794E+03  0.00000000000E+00 0.  1.
         21    1    1    2  503  502 -0.32420943943E+02  0.25263024585E+01 -0.45068250882E+02  0.55575597593E+02  0.00000000000E+00 0. -1.
         21    1    1    2  504  503  0.45182009189E+02  0.11240043302E+01  0.66162788738E+01  0.45677702287E+02  0.00000000000E+00 0.  1.
         21    1    1    2  505  501  0.20482544523E+03  0.70558537204E+02 -0.29670014588E+03  0.36737303487E+03  0.00000000000E+00 0.  1.
          1    1    1    2  501    0 -0.21758651048E+03 -0.74208843992E+02  0.88248416615E+03  0.91193702939E+03  0.00000000000E+00 0.  1.
<scales pt_clust_3="32.51922" pt_clust_4="43.47156" pt_clust_5="229.33014" pt_clust_6="14000.00000"></scales>
<clustering>
<clus scale="   32.519">  2  3  1 -1</clus>
<clus scale="   43.472">  2  4  1 -1</clus>
<clus scale="  229.330">  2  5  1 -1</clus>
<clus scale="   32.519">  2  3  1 -1</clus>
</clustering>
</event>
<event>
 6    0  0.2433432E+002  0.7645538E+02  0.7546771E-02  0.1339423E+00
          2   -1    0    0  504    0 -0.00000000000E+00  0.00000000000E+00  0.64153779366E+03  0.64153779366E+03  0.00000000000E+00 0.  1.
         21   -1    0    0  505  502  0.00000000000E+00 -0.00000000000E+00 -0.11455853992E+03  0.11455853992E+03  0.00000000000E+00 0.  1.
         21    1    1    2  503  501 -0.25417026836E+02 -0.34639935996E+02  0.13072985341E+03  0.13760902947E+03  0.00000000000E+00 0.  1.
         21    1    1    2  504  502  0.23793744512E+02 -0.60775792849E+02 -0.29788822918E+02  0.71744081604E+02  0.00000000000E+00 0.  1.
         21    1    1    2  505  503  0.25271348815E+02  0.12013101406E+03  0.34871383238E+01  0.12280986013E+03  0.00000000000E+00 0.  1.
          2    1    1    2  501    0 -0.23648066491E+02 -0.24715285220E+02  0.42255108492E+03  0.42393336239E+03  0.00000000000E+00 0.  1.
<scales pt_clust_3="63.86874" pt_clust_4="14000.00000" pt_clust_5="76.45538" pt_clust_6="34.20638"></scales>
<clustering>
<clus scale="   34.206">  1  6  2 -1</clus>
<clus scale="   63.869">  1  3  2 -1</clus>
<clus scale="   76.455">  1  5  2 -1</clus>
<clus scale="   76.455">  2  3  1 -1</clus>
</clustering>
</event>
<event>
 6    0  0.2433432E+002  0.5937440E+02  0.7546771E-02  0.1400476E+00
         21   -1    0    0  503  502  0.00000000000E+00  0.00000000000E+00  0.59582243770E+03  0.59582243770E+03  0.00000000000E+00 0. -1.
          1   -1    0    0  504    0 -0.00000000000E+00 -0.00000000000E+00 -0.36362696799E+03  0.36362696799E+03  0.00000000000E+00 0. -1.
         21    1    1    2  503  505 -0.52287890738E+02 -0.28533994833E+02  0.43183063875E+03  0.43591961752E+03  0.00000000000E+00 0. -1.
         21    1    1    2  504  502  0.27216178072E+02 -0.14803711681E+02  0.29569864399E+02  0.42828111200E+02  0.00000000000E+00 0. -1.
         21    1    1    2  505  501  0.29455541192E+02  0.10162385145E+03  0.10045610095E+03  0.14589881531E+03  0.00000000000E+00 0. -1.
          1    1    1    2  501    0 -0.43838285252E+01 -0.58286144933E+02 -0.32966113439E+03  0.33480286165E+03  0.00000000000E+00 0. -1.
<scales pt_clust_3="50.73014" pt_clust_4="30.98177" pt_clust_5="59.37440" pt_clust_6="14000.00000"></scales>
<clustering>
<clus scale="   30.982">  1  4  2 -1</clus>
<clus scale="   50.730">  1  3  2 -1</clus>
<clus scale="   59.374">  1  5  2 -1</clus>
<clus scale="   30.982">  1  3  2 -1</clus>
</clustering>
</event>
<event>
 6    0  0.2433432E+002  0.8132110E+02  0.7546771E-02  0.1325344E+00
         21   -1    0    0  503  502  0.00000000000E+00  0.00000000000E+00  0.75178858253E+02  0.75178858253E+02  0.00000000000E+00 0. -1.
         -2   -1    0    0    0  501 -0.00000000000E+00 -0.00000000000E+00 -0.80796493951E+03  0.80796493951E+03  0.00000000000E+00 0. -1.
         21    1    1    2  503  501 -0.67189657167E+02 -0.15168102927E+02 -0.55298978961E+02  0.88331752223E+02  0.00000000000E+00 0. -1.
         21    1    1    2  504  505 -0.37410791688E+02 -0.10601633821E+03 -0.14526476595E+03  0.18368691714E+03  0.00000000000E+00 0. -1.
         21    1    1    2  505  502  0.63820609978E+02  0.55812154025E+02 -0.12472032458E+02  0.85694914601E+02  0.00000000000E+00 0. -1.
         -2    1    1    2    0  504  0.40779838877E+02  0.65372287113E+02 -0.51975030388E+03  0.52543021379E+03  0.00000000000E+00 0. -1.
<scales pt_clust_3="68.88049" pt_clust_4="14000.00000" pt_clust_5="51.25405" pt_clust_6="81.32110"></scales>
<clustering>
<clus scale="   68.880">  1  3  2 -1</clus>
<clus scale="   51.254">  1  5  2 -1</clus>
<clus scale="   81.321">  2  6  1 -1</clus>
<clus scale="   68.880">  1  3  2 -1</clus>
</clustering>
</event>
<event>
 6    0  0.2433432E+002  0.8404556E+02  0.7546771E-02  0.1317948E+00
         -3   -1    0    0    0  501 -0.00000000000E+00  0.00000000000E+00  0.60346400655E+02  0.60346400655E+02  0.00000000000E+00 0.  1.
         21   -1    0    0  503  502  0.00000000000E+00 -0.00000000000E+00 -0.68365723935E+03  0.68365723935E+03  0.00000000000E+00 0.  1.
         21    1    1    2  503  505  0.11188651585E+03  0.13990808501E+02 -0.31730190141E+03  0.33674149105E+03  0.00000000000E+00 0.  1.
         21    1    1    2  504  501 -0.60157692405E+02 -0.49600950791E+01 -0.44770594323E+02  0.75152888266E+02  0.00000000000E+00 0. -1.
         21    1    1    2  505  504 -0.16527247988E+02  0.67520096342E+02 -0.14001275376E+02  0.70909442589E+02  0.00000000000E+00 0.  1.
         -3    1    1    2    0  502 -0.35201575460E+02 -0.76550809764E+02 -0.24723706758E+03  0.26119981810E+03  0.00000000000E+00 0.  1.
<scales pt_clust_3="14000.00000" pt_clust_4="60.36183" pt_clust_5="84.31976" pt_clust_6="84.04556"></scales>
<clustering>
<clus scale="   60.362">  1  4  2 -1</clus>
<clus scale="   84.320">  1  5  2 -1</clus>
<clus scale="   84.046">  2  6  1 -1</clus>
<clus scale="   84.046">  2  3  1 -1</clus>
</clustering>
</event>
<event>
 6    0  0.2433432E+002  0.1104830E+03  0.7546771E-02  0.1259678E+00
         21   -1    0    0  504  502  0.00000000000E+00  0.00000000000E+00  0.63647184590E+02  0.63647184590E+02  0.00000000000E+00 0. -1.
          1   -1    0    0  503    0 -0.00000000000E+00 -0.00000000000E+00 -0.23320558225E+04  0.23320558225E+04  0.00000000000E+00 0.  1.
         21    1    1    2  503  505  0.10509800814E+02  0.60074275800E+02 -0.83254218999E+02  0.10320193558E+03  0.00000000000E+00 0.  1.
         21    1    1    2  504  501 -0.99730569283E+02  0.95135777441E+01 -0.25919628894E+03  0.27788380812E+03  0.00000000000E+00 0.  1.
         21    1    1    2  505  502  0.25616160178E+02  0.31116921180E+02  0.32969737267E+02  0.52071623957E+02  0.00000000000E+00 0. -1.
          1    1    1    2  501    0  0.63604608291E+02 -0.10070477472E+03 -0.19589278672E+04  0.19625456394E+04  0.00000000000E+00 0.  1.
<scales pt_clust_3="78.10669" pt_clust_4="110.48299" pt_clust_5="40.30447" pt_clust_6="14000.00000"></scales>
<clustering>
<clus scale="   40.304">  1  5  2 -1</clus>
<clus scale="   78.107">  1  3  2 -1</clus>
<clus scale="  110.483">  1  4  2 -1</clus>
<clus scale="   40.304">  1  3  2 -1</clus>
</clustering>
</event>
<event>
 6    0  0.2433432E+002  0.1296943E+03  0.7546771E-02  0.1227910E+00
          2   -1    0    0  504    0 -0.00000000000E+00  0.00000000000E+00  0.10641941491E+04  0.10641941491E+04  0.00000000000E+00 0.  1.
         21   -1    0    0  505  502  0.00000000000E+00 -0.00000000000E+00 -0.28713211873E+03  0.28713211873E+03  0.00000000000E+00 0.  1.
         21    1    1    2  503  502 -0.16350737930E+02  0.37265358184E+02 -0.90751706453E+01  0.41694271474E+02  0.00000000000E+00 0.  1.
         21    1    1    2  504  503 -0.13221455354E+02  0.10558030402E+03 -0.12780093621E+03  0.16629818632E+03  0.00000000000E+00 0.  1.
         21    1    1    2  505  501  0.26610949624E+02 -0.95270157829E+02 -0.92701676967E+02  0.13556602275E+03  0.00000000000E+00 0.  1.
          2    1    1    2  501    0  0.29612436602E+01 -0.47575504373E+02  0.10066398142E+04  0.10077677872E+04  0.00000000000E+00 0.  1.
<scales pt_clust_3="35.23615" pt_clust_4="35.23615" pt_clust_5="116.50849" pt_clust_6="47.66757"></scales>
<clustering>
<clus scale="   35.236">  3  4 -1 -1</clus>
<clus scale="   47.668">  1  6  2 -1</clus>
<clus scale="  116.508">  2  5  1 -1</clus>
<clus scale="  116.508">  2  3  1 -1</clus>
</clustering>
</event>
<event>
 6    0  0.2433432E+002  0.2476825E+03  0.7546771E-02  0.1114778E+00
          2   -1    0    0  504    0 -0.00000000000E+00  0.00000000000E+00  0.34178654363E+04  0.34178654363E+04  0.00000000000E+00 0.  1.
         21   -1    0    0  505  502  0.00000000000E+00 -0.00000000000E+00 -0.48884205406E+02  0.48884205406E+02  0.00000000000E+00 0. -1.
         21    1    1    2  503  501  0.77564657423E+02  0.19819142033E+03  0.28554734745E+03  0.35613677542E+03  0.00000000000E+00 0. -1.
         21    1    1    2  504  502  0.16717316608E+02 -0.27719744809E+02  0.65748523114E+02  0.73285204636E+02  0.00000000000E+00 0. -1.
         21    1    1    2  505  503 -0.22612438402E+02  0.44494385750E+02  0.10962315937E+03  0.12045044543E+03  0.00000000000E+00 0. -1.
          2    1    1    2  501    0 -0.71669535629E+02 -0.21496606127E+03  0.29080622010E+04  0.29168772163E+04  0.00000000000E+00 0.  1.
<scales pt_clust_3="45.84744" pt_clust_4="32.37056" pt_clust_5="45.84744" pt_clust_6="228.66373"></scales>
<clustering>
<clus scale="   32.371">  2  4  1 -1</clus>
<clus scale="   45.847">  3  5 -1 -1</clus>
<clus scale="  228.664">  1  6  2 -1</clus>
<clus scale="   32.371">  2  3  1 -1</clus>
</clustering>
</event>
<event>
 6    0  0.2433432E+002  0.1048961E+03  0.7546771E-02  0.1270324E+00
          2   -1    0    0  505    0 -0.00000000000E+00  0.00000000000E+00  0.36391397267E+03  0.36391397267E+03  0.00000000000E+00 0. -1.
         21   -1    0    0  503  502  0.00000000000E+00 -0.00000000000E+00 -0.34400741557E+03  0.34400741557E+03  0.00000000000E+00 0. -1.
         21    1    1    2  503  501  0.26323950606E+02  0.63975983725E+02 -0.55200477524E+02  0.88504065376E+02  0.00000000000E+00 0. -1.
         21    1    1    2  504  502 -0.14964726956E+01  0.56245103468E+02 -0.24897711006E+03  0.25525546504E+03  0.00000000000E+00 0. -1.
         21    1    1    2  505  504 -0.20446265448E+02 -0.44653189788E+02  0.23970061337E+02  0.54649071076E+02  0.00000000000E+00 0. -1.
          2    1    1    2  501    0 -0.43812124624E+01 -0.75567897405E+02  0.30011408335E+03  0.30951278676E+03  0.00000000000E+00 0. -1.
<scales pt_clust_3="104.89611" pt_clust_4="55.83898" pt_clust_5="49.11168" pt_clust_6="14000.00000"></scales>
<clustering>
<clus scale="   49.112">  1  5  2 -1</clus>
<clus scale="   55.839">  2  4  1 -1</clus>
<clus scale="  104.896">  2  3  1 -1</clus>
<clus scale="   55.839">  2  3  1 -1</clus>
</clustering>
</event>
<event>
 6    0  0.2433432E+002  0.1130588E+03  0.7546771E-02  0.1255008E+00
          2   -1    0    0  504    0 -0.00000000000E+00  0.00000000000E+00  0.41997790301E+04  0.41997790301E+04  0.00000000000E+00 0. -1.
         21   -1    0    0  501  502  0.00000000000E+00 -0.00000000000E+00 -0.27960877565E+03  0.27960877565E+03  0.00000000000E+00 0.  1.
         21    1    1    2  503  502 -0.33754689332E+02 -0.11589093095E+02 -0.22929697638E+03  0.23205772882E+03  0.00000000000E+00 0.  1.
         21    1    1    2  504  505 -0.29780649020E+02 -0.91309841739E+01  0.70981263449E+02  0.77515170702E+02  0.00000000000E+00 0.  1.
         21    1    1    2  505  503  0.98740798392E+01 -0.10024702294E+03  0.12304827096E+02  0.10148089393E+03  0.00000000000E+00 0.  1.
          2    1    1    2  501    0  0.53661258514E+02  0.12096710021E+03  0.40661811402E+04  0.40683340123E+04  0.00000000000E+00 0. -1.
<scales pt_clust_3="35.69916" pt_clust_4="31.14903" pt_clust_5="14000.00000" pt_clust_6="113.05878"></scales>
<clustering>
<clus scale="   31.149">  1  4  2 -1</clus>
<clus scale="   35.699">  2  3  1 -1</clus>
<clus scale="  113.059">  1  6  2 -1</clus>
<clus scale="   35.699">  2  3  1 -1</clus>
</clustering>
</event>
<event>
 6    0  0.2433432E+002  0.1326596E+03  0.7546771E-02  0.1223562E+00
         21   -1    0    0  503  502  0.00000000000E+00  0.00000000000E+00  0.74013833019E+02  0.74013833019E+02  0.00000000000E+00 0. -1.
          2   -1    0    0  502    0 -0.00000000000E+00 -0.00000000000E+00 -0.17340051629E+04  0.17340051629E+04  0.00000000000E+00 0. -1.
         21    1    1    2  503  504  0.25295401549E+02 -0.12296442689E+03  0.46853979328E+01  0.12562667143E+03  0.00000000000E+00 0. -1.
         21    1    1    2  504  505 -0.49121689901E+02  0.53298661879E+02 -0.46529045176E+03  0.47090221095E+03  0.00000000000E+00 0.  1.
         21    1    1    2  505  501 -0.47843275602E+02  0.33300198642E+02 -0.18595761381E+03  0.19487974852E+03  0.00000000000E+00 0.  1.
          2    1    1    2  501    0  0.71669563955E+02  0.36365566369E+02 -0.10134286622E+04  0.10166103650E+04  0.00000000000E+00 0. -1.
<scales pt_clust_3="123.92967" pt_clust_4="42.44346" pt_clust_5="42.44346" pt_clust_6="80.36778"></scales>
<clustering>
<clus scale="   42.443">  4  5 -1 -1</clus>
<clus scale="   80.368">  2  6  1 -1</clus>
<clus scale="  123.930">  1  3  2 -1</clus>
<clus scale="  123.930">  1  3  2 -1</clus>
</clustering>
</event>
<event>
 6    0  0.2702062E+002  0.1180970E+03  0.7546771E-02  0.1246270E+00
         -4   -1    0    0    0  501 -0.00000000000E+00  0.00000000000E+00  0.76837609844E+03  0.76837609844E+03  0.00000000000E+00 0.  1.
         21   -1    0    0  504  502  0.00000000000E+00 -0.00000000000E+00 -0.13159538798E+04  0.13159538798E+04  0.00000000000E+00 0. -1.
         21    1    1    2  503  502  0.53567029635E+02  0.21800432810E+02 -0.11292515108E+03  0.12687306760E+03  0.00000000000E+00 0.  1.
         21    1    1    2  504  501 -0.46067005163E+02  0.61423232434E+02 -0.44587450882E+02  0.88786390982E+02  0.00000000000E+00 0.  1.
         21    1    1    2  505  503  0.30661759447E+02 -0.13209117050E+03 -0.11239854660E+04  0.11321358349E+04  0.00000000000E+00 0. -1.
         -4    1    1    2    0  505 -0.38161783918E+02  0.48867505253E+02  0.73392028660E+03  0.73653468480E+03  0.00000000000E+00 0.  1.
<scales pt_clust_3="57.83326" pt_clust_4="14000.00000" pt_clust_5="118.09696" pt_clust_6="61.98564"></scales>
<clustering>
<clus scale="   57.833">  2  3  1 -1</clus>
<clus scale="   61.986">  1  6  2 -1</clus>
<clus scale="  118.097">  2  5  1 -1</clus>
<clus scale="   57.833">  2  3  1 -1</clus>
</clustering>
</event>
<event>
 6    0  0.2433432E+002  0.9542864E+02  0.7546771E-02  0.1290214E+00
         21   -1    0    0  503  502  0.00000000000E+00  0.00000000000E+00  0.19431099090E+03  0.19431099090E+03  0.00000000000E+00 0. -1.
          2   -1    0    0  505    0 -0.00000000000E+00 -0.00000000000E+00 -0.31482070947E+04  0.31482070947E+04  0.00000000000E+00 0. -1.
         21    1    1    2  503  504  0.81244372042E+02 -0.30329886510E+02  0.20214296273E+02  0.89045874571E+02  0.00000000000E+00 0. -1.
         21    1    1    2  504  501 -0.78331745168E+02 -0.59701001812E+02  0.49699615434E+02  0.11031828358E+03  0.00000000000E+00 0. -1.
         21    1    1    2  505  502 -0.24744980205E+02  0.12562669281E+03 -0.93249469006E+01  0.12837965036E+03  0.00000000000E+00 0. -1.
          2    1    1    2  501    0  0.21832353331E+02 -0.35595804488E+02 -0.30144850686E+04  0.30147742771E+04  0.00000000000E+00 0. -1.
<scales pt_clust_3="95.42864" pt_clust_4="95.07741" pt_clust_5="14000.00000" pt_clust_6="41.75779"></scales>
<clustering>
<clus scale="   41.758">  2  6  1 -1</clus>
<clus scale="   95.429">  1  3  2 -1</clus>
<clus scale="   95.077">  1  4  2 -1</clus>
<clus scale="   95.429">  1  3  2 -1</clus>
</clustering>
</event>
<event>
 6    0  0.2433432E+002  0.1083339E+03  0.7546771E-02  0.1263687E+00
         -3   -1    0    0    0  501 -0.00000000000E+00  0.00000000000E+00  0.60656341051E+03  0.60656341051E+03  0.00000000000E+00 0.  1.
         21   -1    0    0  503  502  0.00000000000E+00 -0.00000000000E+00 -0.30415542704E+03  0.30415542704E+03  0.00000000000E+00 0.  1.
         21    1    1    2  503  501 -0.16596495773E+02 -0.42504526169E+02  0.84360518228E+02  0.95910246859E+02  0.00000000000E+00 0.  1.
         21    1    1    2  504  505  0.61825446918E+02  0.12109107492E+03 -0.18171179163E+03  0.22694627014E+03  0.00000000000E+00 0.  1.
         21    1    1    2  505  502  0.75594748851E+01 -0.36833282150E+02 -0.87887303495E+02  0.95592962346E+02  0.00000000000E+00 0.  1.
         -3    1    1    2    0  504 -0.52788426030E+02 -0.41753266602E+02  0.48764656037E+03  0.49226935821E+03  0.00000000000E+00 0.  1.
<scales pt_clust_3="46.49116" pt_clust_4="14000.00000" pt_clust_5="37.60102" pt_clust_6="108.33388"></scales>
<clustering>
<clus scale="   37.601">  2  5  1 -1</clus>
<clus scale="   46.491">  1  3  2 -1</clus>
<clus scale="  108.334">  1  6  2 -1</clus>
<clus scale="   37.601">  2  3  1 -1</clus>
</clustering>
</event>
<event>
 6    0  0.2433432E+002  0.1659197E+03  0.7546771E-02  0.1182171E+00
         21   -1    0    0  505  502  0.00000000000E+00  0.00000000000E+00  0.32064664274E+03  0.32064664274E+03  0.00000000000E+00 0.  1.
          2   -1    0    0  503    0 -0.00000000000E+00 -0.00000000000E+00 -0.26072108132E+04  0.26072108132E+04  0.00000000000E+00 0.  1.
         21    1    1    2  503  502 -0.10188205909E+03 -0.75701282245E+02  0.20350722367E+03  0.23984542561E+03  0.00000000000E+00 0.  1.
         21    1    1    2  504  501 -0.34566954338E+02  0.48812834964E+02  0.60069385832E+02  0.84769677973E+02  0.00000000000E+00 0. -1.
         21    1    1    2  505  504 -0.20472125080E+02 -0.28660437032E+02  0.10844440930E+02  0.36852821537E+02  0.00000000000E+00 0. -1.
          2    1    1    2  501    0  0.15692113851E+03  0.55548884313E+02 -0.25609852209E+04  0.25663895309E+04  0.00000000000E+00 0.  1.
<scales pt_clust_3="165.91974" pt_clust_4="57.56777" pt_clust_5="35.22114" pt_clust_6="14000.00000"></scales>
<clustering>
<clus scale="   35.221">  1  5  2 -1</clus>
<clus scale="   57.568">  1  4  2 -1</clus>
<clus scale="  165.920">  1  3  2 -1</clus>
<clus scale="   35.221">  1  3  2 -1</clus>
</clustering>
</event>
<event>
 6    0  0.2433432E+002  0.1013698E+03  0.7546771E-02  0.1277441E+00
         21   -1    0    0  505  502  0.00000000000E+00  0.00000000000E+00  0.39435391453E+02  0.39435391453E+02  0.00000000000E+00 0. -1.
          2   -1    0    0  504    0 -0.00000000000E+00 -0.00000000000E+00 -0.38513091016E+04  0.38513091016E+04  0.00000000000E+00 0. -1.
         21    1    1    2  503  502  0.22962709644E+02 -0.89131709354E+02 -0.19068292595E+02  0.93996528813E+02  0.00000000000E+00 0. -1.
         21    1    1    2  504  503  0.45826346493E+02 -0.28661247952E+01 -0.68450777473E+03  0.68604603517E+03  0.00000000000E+00 0. -1.
         21    1    1    2  505  501 -0.42867886740E+02  0.26057933500E+02 -0.10743559450E+04  0.10755265539E+04  0.00000000000E+00 0. -1.
          2    1    1    2  501    0 -0.25921169397E+02  0.65939900649E+02 -0.20339416978E+04  0.20351753752E+04  0.00000000000E+00 0. -1.
<scales pt_clust_3="92.29909" pt_clust_4="45.91589" pt_clust_5="35.26813" pt_clust_6="35.26813"></scales>
<clustering>
<clus scale="   35.268">  5  6 -1 -1</clus>
<clus scale="   45.916">  2  4  1 -1</clus>
<clus scale="   92.299">  1  3  2 -1</clus>
<clus scale="   92.299">  1  3  2 -1</clus>
</clustering>
</event>
<event>
 6    0  0.2790358E+002  0.1316285E+03  0.7546771E-02  0.1225059E+00
          2   -1    0    0  504    0 -0.00000000000E+00  0.00000000000E+00  0.27493869466E+04  0.27493869466E+04  0.00000000000E+00 0.  1.
         21   -1    0    0  505  502  0.00000000000E+00 -0.00000000000E+00 -0.24023569695E+03  0.24023569695E+03  0.00000000000E+00 0.  1.
         21    1    1    2  503  502 -0.34807504186E+02 -0.85476744833E+01 -0.52587798963E+01  0.36225403417E+02  0.00000000000E+00 0.  1.
         21    1    1    2  504  503 -0.17153405041E+02 -0.61794626970E+02  0.28932867574E+02  0.70355710876E+02  0.00000000000E+00 0. -1.
         21    1    1    2  505  501  0.47092803100E+02 -0.61789074473E+02 -0.18949567643E+03  0.20480291309E+03  0.00000000000E+00 0.  1.
          2    1    1    2  501    0  0.48681061271E+01  0.13213137593E+03  0.26749728384E+04  0.26782386162E+04  0.00000000000E+00 0.  1.
<scales pt_clust_3="35.84167" pt_clust_4="65.85297" pt_clust_5="131.62850" pt_clust_6="14000.00000"></scales>
<clustering>
<clus scale="   35.842">  2  3  1 -1</clus>
<clus scale="   65.853">  2  4  1 -1</clus>
<clus scale="  131.628">  2  5  1 -1</clus>
<clus scale="   35.842">  2  3  1 -1</clus>
</clustering>
</event>
<event>
 6    0  0.2433432E+002  0.1833534E+03  0.7546771E-02  0.1164596E+00
          2   -1    0    0  504    0 -0.00000000000E+00  0.00000000000E+00  0.50254658615E+04  0.50254658615E+04  0.00000000000E+00 0.  1.
         21   -1    0    0  503  502  0.00000000000E+00 -0.00000000000E+00 -0.65761040321E+02  0.65761040321E+02  0.00000000000E+00 0. -1.
         21    1    1    2  503  501 -0.46067967785E+02 -0.14483725473E+02  0.10099922852E+03  0.11195034668E+03  0.00000000000E+00 0. -1.
         21    1    1    2  504  505  0.91815775125E+02  0.43607821334E+02  0.51928811430E+02  0.11414192963E+03  0.00000000000E+00 0. -1.
         21    1    1    2  505  502  0.12249613033E+03 -0.97788094317E+01  0.10886745355E+03  0.16417383927E+03  0.00000000000E+00 0. -1.
          2    1    1    2  501    0 -0.16824393767E+03 -0.19345286429E+02  0.46979093277E+04  0.47009607862E+04  0.00000000000E+00 0.  1.
<scales pt_clust_3="48.29116" pt_clust_4="58.30085" pt_clust_5="58.30085" pt_clust_6="170.55278"></scales>
<clustering>
<clus scale="   48.291">  2  3  1 -1</clus>
<clus scale="   58.301">  4  5 -1 -1</clus>
<clus scale="  170.553">  1  6  2 -1</clus>
<clus scale="   48.291">  2  3  1 -1</clus>
</clustering>
</event>
<event>
 6    0  0.2433432E+002  0.8878725E+02  0.7546771E-02  0.1305815E+00
          1   -1    0    0  503    0 -0.00000000000E+00  0.00000000000E+00  0.25647940487E+04  0.25647940487E+04  0.00000000000E+00 0. -1.
         21   -1    0    0  504  502  0.00000000000E+00 -0.00000000000E+00 -0.86401644315E+02  0.86401644315E+02  0.00000000000E+00 0. -1.
         21    1    1    2  503  505 -0.54011490294E+02 -0.63886620537E+02  0.16768977956E+03  0.18739958254E+03  0.00000000000E+00 0.  1.
         21    1    1    2  504  501  0.92284685712E+02 -0.14777330418E+02  0.93218966736E+03  0.93686306824E+03  0.00000000000E+00 0. -1.
         21    1    1    2  505  502 -0.35098721400E+02  0.21637983713E+02 -0.67875205566E+02  0.79417668775E+02  0.00000000000E+00 0. -1.
          1    1    1    2  501    0 -0.31744740182E+01  0.57025967241E+02  0.14463881631E+04  0.14475153735E+04  0.00000000000E+00 0. -1.
<scales pt_clust_3="88.78725" pt_clust_4="14000.00000" pt_clust_5="41.23254" pt_clust_6="58.17430"></scales>
<clustering>
<clus scale="   41.233">  2  5  1 -1</clus>
<clus scale="   58.174">  1  6  2 -1</clus>
<clus scale="   88.787">  2  3  1 -1</clus>
<clus scale="   41.233">  2  3  1 -1</clus>
</clustering>
</event>
<event>
 6    0  0.2433432E+002  0.1263464E+03  0.7546771E-02  0.1232980E+00
          2   -1    0    0  504    0 -0.00000000000E+00  0.00000000000E+00  0.22086710152E+04  0.22086710152E+04  0.00000000000E+00 0.  1.
         21   -1    0    0  505  502  0.00000000000E+00 -0.00000000000E+00 -0.78326587637E+02  0.78326587637E+02  0.00000000000E+00 0. -1.
         21    1    1    2  503  502  0.26408875385E+02  0.18891910082E+02  0.32259926386E+02  0.45771561215E+02  0.00000000000E+00 0. -1.
         21    1    1    2  504  503  0.36156587331E+02 -0.12232314550E+02  0.47893881252E+02  0.61243384852E+02  0.00000000000E+00 0. -1.
         21    1    1    2  505  501  0.51905372537E+02  0.50889745490E+02 -0.41947064658E+02  0.83925503440E+02  0.00000000000E+00 0. -1.
          2    1    1    2  501    0 -0.11447083525E+03 -0.57549341022E+02  0.20921376846E+04  0.20960571533E+04  0.00000000000E+00 0.  1.
<scales pt_clust_3="30.15288" pt_clust_4="70.90533" pt_clust_5="14000.00000" pt_clust_6="126.34639"></scales>
<clustering>
<clus scale="   30.153">  3  4 -1 -1</clus>
<clus scale="   70.905">  2  3  1 -1</clus>
<clus scale="  126.346">  1  6  2 -1</clus>
<clus scale="   70.905">  2  3  1 -1</clus>
</clustering>
</event>
<event>
 6    0  0.2433432E+002  0.9201205E+02  0.7546771E-02  0.1298051E+00
         21   -1    0    0  503  502  0.00000000000E+00  0.00000000000E+00  0.52898844886E+02  0.52898844886E+02  0.00000000000E+00 0.  1.
          2   -1    0    0  505    0 -0.00000000000E+00 -0.00000000000E+00 -0.14412802629E+04  0.14412802629E+04  0.00000000000E+00 0.  1.
         21    1    1    2  503  501 -0.60657489494E+02  0.63671860278E+02 -0.13782418477E+03  0.16348988571E+03  0.00000000000E+00 0.  1.
         21    1    1    2  504  502  0.48412984599E+02  0.37075428763E+02 -0.10899331823E+02  0.61945136451E+02  0.00000000000E+00 0.  1.
         21    1    1    2  505  504 -0.64284662966E+02 -0.48141435742E+02 -0.11505326345E+03  0.14031168575E+03  0.00000000000E+00 0.  1.
          2    1    1    2  501    0  0.76529167861E+02 -0.52605853299E+02 -0.11246046379E+04  0.11284323998E+04  0.00000000000E+00 0.  1.
<scales pt_clust_3="92.01205" pt_clust_4="60.97872" pt_clust_5="52.18410" pt_clust_6="14000.00000"></scales>
<clustering>
<clus scale="   60.979">  1  4  2 -1</clus>
<clus scale="   52.184">  1  5  2 -1</clus>
<clus scale="   92.012">  1  3  2 -1</clus>
<clus scale="   60.979">  1  3  2 -1</clus>
</clustering>
</event>
<event>
 6    0  0.2433432E+002  0.7014885E+02  0.7546771E-02  0.1359588E+00
          1   -1    0    0  505    0 -0.00000000000E+00  0.00000000000E+00  0.80776605642E+03  0.80776605642E+03  0.00000000000E+00 0. -1.
         21   -1    0    0  504  502  0.00000000000E+00 -0.00000000000E+00 -0.30523319588E+03  0.30523319588E+03  0.00000000000E+00 0.  1.
         21    1    1    2  503  501 -0.12405523854E+02  0.80062938514E+02  0.29119194425E+03  0.30225274116E+03  0.00000000000E+00 0. -1.
         21    1    1    2  504  503  0.21047774142E+02  0.36026302713E+02 -0.11378747149E+03  0.12119608885E+03  0.00000000000E+00 0.  1.
         21    1    1    2  505  502  0.26156100758E+02 -0.87372187871E+02 -0.16970743365E+03  0.19266201976E+03  0.00000000000E+00 0.  1.
          1    1    1    2  501    0 -0.34798351046E+02 -0.28717053356E+02  0.49483582144E+03  0.49688840253E+03  0.00000000000E+00 0. -1.
<scales pt_clust_3="14000.00000" pt_clust_4="41.72413" pt_clust_5="70.14885" pt_clust_6="44.90354"></scales>
<clustering>
<clus scale="   41.724">  2  4  1 -1</clus>
<clus scale="   44.904">  1  6  2 -1</clus>
<clus scale="   70.149">  2  5  1 -1</clus>
<clus scale="   41.724">  2  3  1 -1</clus>
</clustering>
</event>
<event>
 6    0  0.2433432E+002  0.1291048E+03  0.7546771E-02  0.1228790E+00
         21   -1    0    0  503  502  0.00000000000E+00  0.00000000000E+00  0.11478294404E+03  0.11478294404E+03  0.00000000000E+00 0. -1.
          1   -1    0    0  504    0 -0.00000000000E+00 -0.00000000000E+00 -0.40842407747E+03  0.40842407747E+03  0.00000000000E+00 0. -1.
         21    1    1    2  503  501  0.25430160459E+02  0.24180213295E+02  0.23366328573E+02  0.42158760500E+02  0.00000000000E+00 0. -1.
         21    1    1    2  504  505  0.16539596079E+02 -0.28668229549E+02 -0.15162300900E+02  0.36404958351E+02  0.00000000000E+00 0.  1.
         21    1    1    2  505  502  0.65667239134E+02 -0.50479503902E+02  0.32613927259E+02  0.89017048148E+02  0.00000000000E+00 0. -1.
          1    1    1    2  501    0 -0.10763699567E+03  0.54967520156E+02 -0.33445908836E+03  0.35562625451E+03  0.00000000000E+00 0. -1.
<scales pt_clust_3="35.09096" pt_clust_4="30.99256" pt_clust_5="30.99256" pt_clust_6="119.43309"></scales>
<clustering>
<clus scale="   30.993">  4  5 -1 -1</clus>
<clus scale="   35.091">  1  3  2 -1</clus>
<clus scale="  119.433">  2  6  1 -1</clus>
<clus scale="   35.091">  1  3  2 -1</clus>
</clustering>
</event>
<event>
 6    0  0.2433432E+002  0.2392051E+03  0.7546771E-02  0.1120324E+00
          1   -1    0    0  504    0 -0.00000000000E+00  0.00000000000E+00  0.55572959739E+03  0.55572959739E+03  0.00000000000E+00 0.  1.
         21   -1    0    0  505  502  0.00000000000E+00 -0.00000000000E+00 -0.39115912141E+03  0.39115912141E+03  0.00000000000E+00 0. -1.
         21    1    1    2  503  502 -0.52422505717E+02  0.23044631281E+03 -0.22470060514E+03  0.32610425349E+03  0.00000000000E+00 0. -1.
         21    1    1    2  504  503 -0.15771758413E+02  0.46481318904E+02  0.57541001991E+02  0.75632190770E+02  0.00000000000E+00 0. -1.
         21    1    1    2  505  501  0.62074916470E+02 -0.23959687573E+03  0.39686741944E+02  0.25066909582E+03  0.00000000000E+00 0. -1.
          1    1    1    2  501    0  0.61193476592E+01 -0.37330755989E+02  0.29204333718E+03  0.29448317872E+03  0.00000000000E+00 0.  1.
<scales pt_clust_3="14000.00000" pt_clust_4="39.64818" pt_clust_5="239.20508" pt_clust_6="37.82898"></scales>
<clustering>
<clus scale="   37.829">  1  6  2 -1</clus>
<clus scale="   39.648">  1  4  2 -1</clus>
<clus scale="  239.205">  1  5  2 -1</clus>
<clus scale="  239.205">  2  3  1 -1</clus>
</clustering>
</event>
<event>
 6    0  0.2433432E+002  0.1717642E+03  0.7546771E-02  0.1176021E+00
         21   -1    0    0  503  502  0.00000000000E+00  0.00000000000E+00  0.40851460839E+03  0.40851460839E+03  0.00000000000E+00 0.  1.
          2   -1    0    0  505    0 -0.00000000000E+00 -0.00000000000E+00 -0.48397307092E+03  0.48397307092E+03  0.00000000000E+00 0. -1.
         21    1    1    2  503  501  0.19355548413E+03  0.27328459477E+02  0.44958737356E+02  0.20057880795E+03  0.00000000000E+00 0.  1.
         21    1    1    2  504  502 -0.11522514865E+02 -0.78650172680E+02  0.13191993173E+03  0.15401781196E+03  0.00000000000E+00 0.  1.
         21    1    1    2  505  504 -0.14915899703E+03  0.87793994590E+02  0.87906313195E+02  0.19412292956E+03  0.00000000000E+00 0.  1.
          2    1    1    2  501    0 -0.32873972234E+02 -0.36472281386E+02 -0.34024344481E+03  0.34376812984E+03  0.00000000000E+00 0. -1.
<scales pt_clust_3="14000.00000" pt_clust_4="82.69634" pt_clust_5="171.76417" pt_clust_6="49.10117"></scales>
<clustering>
<clus scale="   49.101">  2  6  1 -1</clus>
<clus scale="   82.696">  1  4  2 -1</clus>
<clus scale="  171.764">  1  5  2 -1</clus>
<clus scale="   82.696">  1  3  2 -1</clus>
</clustering>
</event>
<event>
 6    0  0.2433432E+002  0.1035026E+03  0.7546771E-02  0.1273098E+00
         21   -1    0    0  504  502  0.00000000000E+00  0.00000000000E+00  0.62126443708E+02  0.62126443708E+02  0.00000000000E+00 0.  1.
          2   -1    0    0  503    0 -0.00000000000E+00 -0.00000000000E+00 -0.19355314868E+04  0.19355314868E+04  0.00000000000E+00 0. -1.
         21    1    1    2  503  502  0.11497586912E+03 -0.25615328555E+02 -0.14725657023E+03  0.18857383968E+03  0.00000000000E+00 0.  1.
         21    1    1    2  504  505 -0.36914112127E+02 -0.77142479466E+01 -0.29983494153E+00  0.37712745809E+02  0.00000000000E+00 0.  1.
         21    1    1    2  505  501 -0.62793895528E+02  0.78945977668E+02 -0.91120461910E+02  0.13593557034E+03  0.00000000000E+00 0.  1.
          2    1    1    2  501    0 -0.15267861463E+02 -0.45616401166E+02 -0.16347281760E+04  0.16354357747E+04  0.00000000000E+00 0. -1.
<scales pt_clust_3="103.50263" pt_clust_4="37.71155" pt_clust_5="14000.00000" pt_clust_6="48.25948"></scales>
<clustering>
<clus scale="   37.712">  1  4  2 -1</clus>
<clus scale="   48.259">  2  6  1 -1</clus>
<clus scale="  103.503">  1  3  2 -1</clus>
<clus scale="   37.712">  1  3  2 -1</clus>
</clustering>
</event>
<event>
 6    0  0.2433432E+002  0.1306988E+03  0.7546771E-02  0.1226423E+00
         21   -1    0    0  505  502  0.00000000000E+00  0.00000000000E+00  0.65075042583E+03  0.65075042583E+03  0.00000000000E+00 0.  1.
          2   -1    0    0  504    0 -0.00000000000E+00 -0.00000000000E+00 -0.27538585690E+04  0.27538585690E+04  0.00000000000E+00 0. -1.
         21    1    1    2  503  502  0.87621490937E+02  0.30064960042E+02  0.46222638524E+03  0.47141771149E+03  0.00000000000E+00 0.  1.
         21    1    1    2  504  503  0.23741245165E+02  0.35840363021E+02  0.16024719139E+03  0.16591365432E+03  0.00000000000E+00 0. -1.
         21    1    1    2  505  501 -0.38455567151E+02 -0.62385612232E+02 -0.45625881497E+02  0.86327957933E+02  0.00000000000E+00 0. -1.
          2    1    1    2  501    0 -0.72907168951E+02 -0.35197108305E+01 -0.26799558383E+04  0.26809496711E+04  0.00000000000E+00 0. -1.
<scales pt_clust_3="30.25740" pt_clust_4="30.25740" pt_clust_5="122.92039" pt_clust_6="72.99208"></scales>
<clustering>
<clus scale="   30.257">  3  4 -1 -1</clus>
<clus scale="   72.992">  2  6  1 -1</clus>
<clus scale="  122.920">  2  5  1 -1</clus>
<clus scale="  130.699">  1  3  2 -1</clus>
</clustering>
</event>
<event>
 6    0  0.2515699E+002  0.7408429E+02  0.7546771E-02  0.1346730E+00
         21   -1    0    0  505  502  0.00000000000E+00  0.00000000000E+00  0.65814797674E+03  0.65814797674E+03  0.00000000000E+00 0. -1.
          1   -1    0    0  503    0 -0.00000000000E+00 -0.00000000000E+00 -0.57387015799E+03  0.57387015799E+03  0.00000000000E+00 0.  1.
         21    1    1    2  503  502  0.64859023956E+02 -0.51645366901E+02  0.50393188176E+03  0.51070664610E+03  0.00000000000E+00 0. -1.
         21    1    1    2  504  501 -0.19909795202E+01  0.61653341067E+02  0.34796195948E+02  0.70822833300E+02  0.00000000000E+00 0.  1.
         21    1    1    2  505  504 -0.24277290003E+01 -0.52775602509E+02  0.88198928419E+02  0.10281152203E+03  0.00000000000E+00 0. -1.
          1    1    1    2  501    0 -0.60440315436E+02  0.42767628342E+02 -0.54264918739E+03  0.54767713329E+03  0.00000000000E+00 0.  1.
<scales pt_clust_3="74.08429" pt_clust_4="56.74323" pt_clust_5="52.83141" pt_clust_6="14000.00000"></scales>
<clustering>
<clus scale="   52.831">  1  5  2 -1</clus>
<clus scale="   56.743">  1  4  2 -1</clus>
<clus scale="   74.084">  1  3  2 -1</clus>
<clus scale="   52.831">  1  3  2 -1</clus>
</clustering>
</event>
<event>
 6    0  0.2433432E+002  0.8323614E+02  0.7546771E-02  0.1320111E+00
         -2   -1    0    0    0  501 -0.00000000000E+00  0.00000000000E+00  0.58807453350E+03  0.58807453350E+03  0.00000000000E+00 0. -1.
         21   -1    0    0  503  502  0.00000000000E+00 -0.00000000000E+00 -0.28666157234E+03  0.28666157234E+03  0.00000000000E+00 0.  1.
         21    1    1    2  503  501 -0.54769163119E+02  0.13205417954E+03  0.63869603785E+02  0.15657999186E+03  0.00000000000E+00 0.  1.
         21    1    1    2  504  505 -0.23574633892E+02 -0.50573901069E+02  0.37417058148E+02  0.67182728978E+02  0.00000000000E+00 0.  1.
         21    1    1    2  505  502  0.69544932016E+02 -0.41473184444E+02 -0.21711671723E+03  0.23172438693E+03  0.00000000000E+00 0.  1.
         -2    1    1    2    0  504  0.87988649949E+01 -0.40007094027E+02  0.41724301646E+03  0.41924899807E+03  0.00000000000E+00 0. -1.
<scales pt_clust_3="14000.00000" pt_clust_4="66.26498" pt_clust_5="83.23614" pt_clust_6="40.96325"></scales>
<clustering>
<clus scale="   40.963">  1  6  2 -1</clus>
<clus scale="   66.265">  1  4  2 -1</clus>
<clus scale="   83.236">  2  5  1 -1</clus>
<clus scale="   83.236">  2  3  1 -1</clus>
</clustering>
</event>
<event>
 6    0  0.2433432E+002  0.1102768E+03  0.7546771E-02  0.1260058E+00
          1   -1    0    0  505    0 -0.00000000000E+00  0.00000000000E+00  0.37531279895E+04  0.37531279895E+04  0.00000000000E+00 0.  1.
         21   -1    0    0  504  502  0.00000000000E+00 -0.00000000000E+00 -0.50453400366E+02  0.50453400366E+02  0.00000000000E+00 0.  1.
         21    1    1    2  503  501 -0.17216541707E+02  0.44169022914E+02  0.71594499046E+02  0.85866665168E+02  0.00000000000E+00 0.  1.
         21    1    1    2  504  503 -0.93167797919E+01  0.44426929547E+02  0.15856135557E+00  0.45393607439E+02  0.00000000000E+00 0.  1.
         21    1    1    2  505  502  0.10064313353E+03 -0.41573850062E+01  0.10827851559E+03  0.14788698765E+03  0.00000000000E+00 0.  1.
          1    1    1    2  501    0 -0.74109812034E+02 -0.84438567454E+02  0.35226430131E+04  0.35244341296E+04  0.00000000000E+00 0.  1.
<scales pt_clust_3="58.91601" pt_clust_4="45.39333" pt_clust_5="14000.00000" pt_clust_6="110.27685"></scales>
<clustering>
<clus scale="   45.393">  2  4  1 -1</clus>
<clus scale="   58.916">  2  3  1 -1</clus>
<clus scale="  110.277">  1  6  2 -1</clus>
<clus scale="   45.393">  2  3  1 -1</clus>
</clustering>
</event>
<event>
 6    0  0.2433432E+002  0.8384903E+02  0.7546771E-02  0.1318470E+00
          2   -1    0    0  505    0 -0.00000000000E+00  0.00000000000E+00  0.12302319416E+04  0.12302319416E+04  0.00000000000E+00 0. -1.
         21   -1    0    0  504  502  0.00000000000E+00 -0.00000000000E+00 -0.11161057318E+03  0.11161057318E+03  0.00000000000E+00 0. -1.
         21    1    1    2  503  502 -0.41733229162E+02  0.63055020232E+02  0.80113200425E+02  0.11016225704E+03  0.00000000000E+00 0. -1.
         21    1    1    2  504  501  0.40880484420E+02 -0.44488021303E+02 -0.79928654848E+02  0.10019474992E+03  0.00000000000E+00 0. -1.
         21    1    1    2  505  503 -0.12772768125E+02  0.48644550415E+02  0.11269456495E+03  0.12340786385E+03  0.00000000000E+00 0. -1.
          2    1    1    2  501    0  0.13625512867E+02 -0.67211549345E+02  0.10057422579E+04  0.10080776440E+04  0.00000000000E+00 0. -1.
<scales pt_clust_3="35.85162" pt_clust_4="60.41852" pt_clust_5="35.85162" pt_clust_6="71.40161"></scales>
<clustering>
<clus scale="   35.852">  3  5 -1 -1</clus>
<clus scale="   60.419">  2  4  1 -1</clus>
<clus scale="   71.402">  1  6  2 -1</clus>
<clus scale="   60.419">  2  3  1 -1</clus>
</clustering>
</event>
<event>
 6    0  0.2433432E+002  0.9997733E+02  0.7546771E-02  0.1280344E+00
         21   -1    0    0  504  502  0.00000000000E+00  0.00000000000E+00  0.27276453390E+03  0.27276453390E+03  0.00000000000E+00 0.  1.
          2   -1    0    0  503    0 -0.00000000000E+00 -0.00000000000E+00 -0.25244183060E+04  0.25244183060E+04  0.00000000000E+00 0. -1.
         21    1    1    2  503  502  0.87762530646E+02 -0.42599635714E+02  0.20604299439E+03  0.22797084526E+03  0.00000000000E+00 0.  1.
         21    1    1    2  504  505 -0.13584880499E+03 -0.91442154968E+01 -0.43824713796E+02  0.14303538036E+03  0.00000000000E+00 0.  1.
         21    1    1    2  505  501  0.70338088524E+02  0.26927175974E+02 -0.22934353037E+03  0.24139381605E+03  0.00000000000E+00 0. -1.
          2    1    1    2  501    0 -0.22251814180E+02  0.24816675237E+02 -0.21845285224E+04  0.21847827983E+04  0.00000000000E+00 0. -1.
<scales pt_clust_3="99.97733" pt_clust_4="14000.00000" pt_clust_5="70.44880" pt_clust_6="33.33183"></scales>
<clustering>
<clus scale="   33.332">  2  6  1 -1</clus>
<clus scale="   70.449">  2  5  1 -1</clus>
<clus scale="   99.977">  1  3  2 -1</clus>
<clus scale="   99.977">  1  3  2 -1</clus>
</clustering>
</event>
<event>
 6    0  0.2433432E+002  0.1955576E+03  0.7546771E-02  0.1153542E+00
          1   -1    0    0  502    0 -0.00000000000E+00  0.00000000000E+00  0.23124699450E+04  0.23124699450E+04  0.00000000000E+00 0. -1.
         21   -1    0    0  504  502  0.00000000000E+00 -0.00000000000E+00 -0.99763568364E+02  0.99763568364E+02  0.00000000000E+00 0. -1.
         21    1    1    2  503  505  0.51246780205E+02  0.10752535383E+03  0.16197294687E+03  0.20105514098E+03  0.00000000000E+00 0.  1.
         21    1    1    2  504  503 -0.24614106934E+02 -0.31313073324E+02 -0.55972438117E+02  0.68696991564E+02  0.00000000000E+00 0. -1.
         21    1    1    2  505  501  0.60735386306E+02  0.89349476543E+02  0.20629601975E+03  0.23287370799E+03  0.00000000000E+00 0.  1.
          1    1    1    2  501    0 -0.87368059576E+02 -0.16556175705E+03  0.19004098481E+04  0.19096076728E+04  0.00000000000E+00 0. -1.
<scales pt_clust_3="35.28299" pt_clust_4="39.82917" pt_clust_5="35.28299" pt_clust_6="192.01633"></scales>
<clustering>
<clus scale="   35.283">  3  5 -1 -1</clus>
<clus scale="   39.829">  2  4  1 -1</clus>
<clus scale="  192.016">  1  6  2 -1</clus>
<clus scale="   39.829">  2  3  1 -1</clus>
</clustering>
</event>
<event>
 6    0  0.2433432E+002  0.2173817E+03  0.7546771E-02  0.1135850E+00
          1   -1    0    0  504    0 -0.00000000000E+00  0.00000000000E+00  0.61459829863E+03  0.61459829863E+03  0.00000000000E+00 0. -1.
         21   -1    0    0  503  502  0.00000000000E+00 -0.00000000000E+00 -0.90138798953E+02  0.90138798953E+02  0.00000000000E+00 0. -1.
         21    1    1    2  503  501 -0.21056074007E+02  0.96115310509E+02  0.18190037833E+03  0.20680729872E+03  0.00000000000E+00 0. -1.
         21    1    1    2  504  505  0.42396353049E+02 -0.36884131788E+02  0.50189240217E+02  0.75344872176E+02  0.00000000000E+00 0. -1.
         21    1    1    2  505  502  0.46564153251E+02 -0.15138208588E+03  0.71410868010E+02  0.17373620338E+03  0.00000000000E+00 0. -1.
          1    1    1    2  501    0 -0.67904432292E+02  0.92150907160E+02  0.22095901312E+03  0.24884872331E+03  0.00000000000E+00 0. -1.
<scales pt_clust_3="41.13593" pt_clust_4="37.18286" pt_clust_5="37.18286" pt_clust_6="212.90073"></scales>
<clustering>
<clus scale="   37.183">  4  5 -1 -1</clus>
<clus scale="   41.136">  3  6 -1 -1</clus>
<clus scale="  212.901">  1  3  2 -1</clus>
<clus scale="  217.382">  2  3  1 -1</clus>
</clustering>
</event>
<event>
 6    0  0.2433432E+002  0.1287379E+03  0.7546771E-02  0.1229341E+00
          2   -1    0    0  504    0 -0.00000000000E+00  0.00000000000E+00  0.12688976339E+04  0.12688976339E+04  0.00000000000E+00 0. -1.
         21   -1    0    0  503  502  0.00000000000E+00 -0.00000000000E+00 -0.51921604897E+03  0.51921604897E+03  0.00000000000E+00 0. -1.
         21    1    1    2  503  501 -0.13030402833E+03 -0.30038392977E+02 -0.95363212850E+02  0.16424246471E+03  0.00000000000E+00 0. -1.
         21    1    1    2  504  505  0.13831710229E+03  0.58280638505E+02 -0.99163747689E+02  0.17989358650E+03  0.00000000000E+00 0.  1.
         21    1    1    2  505  502 -0.80357314378E+02 -0.18005158886E+02 -0.24194516528E+03  0.25557571622E+03  0.00000000000E+00 0. -1.
          2    1    1    2  501    0  0.72344240418E+02 -0.10237086642E+02  0.11861537107E+04  0.11884019154E+04  0.00000000000E+00 0. -1.
<scales pt_clust_3="128.73793" pt_clust_4="14000.00000" pt_clust_5="76.67234" pt_clust_6="73.06495"></scales>
<clustering>
<clus scale="   73.065">  1  6  2 -1</clus>
<clus scale="   76.672">  2  5  1 -1</clus>
<clus scale="  128.738">  1  3  2 -1</clus>
<clus scale="   76.672">  2  3  1 -1</clus>
</clustering>
</event>
<event>
 6    0  0.2433432E+002  0.1091524E+03  0.7546771E-02  0.1262148E+00
          2   -1    0    0  503    0 -0.00000000000E+00  0.00000000000E+00  0.56982213396E+03  0.56982213396E+03  0.00000000000E+00 0. -1.
         21   -1    0    0  504  502  0.00000000000E+00 -0.00000000000E+00 -0.98891031311E+02  0.98891031311E+02  0.00000000000E+00 0.  1.
         21    1    1    2  503  505  0.16229472295E+01  0.52071392054E+02  0.37939070336E+02  0.64447163523E+02  0.00000000000E+00 0.  1.
         21    1    1    2  504  501  0.35534411272E+02  0.38275134393E+02 -0.20654251654E+02  0.56162962962E+02  0.00000000000E+00 0.  1.
         21    1    1    2  505  502 -0.22527644809E+02  0.31023925357E+02 -0.30354765621E+02  0.48901845784E+02  0.00000000000E+00 0.  1.
          2    1    1    2  501    0 -0.14629713692E+02 -0.12137045180E+03  0.48400104959E+03  0.49920119300E+03  0.00000000000E+00 0. -1.
<scales pt_clust_3="59.10861" pt_clust_4="14000.00000" pt_clust_5="38.34030" pt_clust_6="109.15241"></scales>
<clustering>
<clus scale="   38.340">  2  5  1 -1</clus>
<clus scale="   59.109">  2  3  1 -1</clus>
<clus scale="  109.152">  1  6  2 -1</clus>
<clus scale="   38.340">  2  3  1 -1</clus>
</clustering>
</event>
<event>
 6    0  0.2433432E+002  0.1807338E+03  0.7546771E-02  0.1167095E+00
         21   -1    0    0  505  502  0.00000000000E+00  0.00000000000E+00  0.63832365515E+02  0.63832365515E+02  0.00000000000E+00 0. -1.
          2   -1    0    0  503    0 -0.00000000000E+00 -0.00000000000E+00 -0.18909455298E+04  0.18909455298E+04  0.00000000000E+00 0.  1.
         21    1    1    2  503  504  0.44618438147E+02  0.19563481705E+03 -0.22171943996E+03  0.29903728316E+03  0.00000000000E+00 0. -1.
         21    1    1    2  504  502 -0.29290465204E+02  0.15647545588E+02 -0.55315462083E+02  0.64518039185E+02  0.00000000000E+00 0. -1.
         21    1    1    2  505  501 -0.42891397218E+01 -0.33227302119E+02 -0.27186503700E+01  0.33613113297E+02  0.00000000000E+00 0. -1.
          2    1    1    2  501    0 -0.11038833221E+02 -0.17805506051E+03 -0.15473596119E+04  0.15576094597E+04  0.00000000000E+00 0.  1.
<scales pt_clust_3="180.73377" pt_clust_4="33.20809" pt_clust_5="31.49276" pt_clust_6="14000.00000"></scales>
<clustering>
<clus scale="   33.208">  1  4  2 -1</clus>
<clus scale="   31.493">  1  5  2 -1</clus>
<clus scale="  180.734">  1  3  2 -1</clus>
<clus scale="   33.208">  1  3  2 -1</clus>
</clustering>
</event>
<event>
 6    0  0.2526103E+002  0.1112864E+03  0.7546771E-02  0.1258206E+00
         21   -1    0    0  503  502  0.00000000000E+00  0.00000000000E+00  0.39604117915E+04  0.39604117915E+04  0.00000000000E+00 0. -1.
          2   -1    0    0  505    0 -0.00000000000E+00 -0.00000000000E+00 -0.79077558362E+03  0.79077558362E+03  0.00000000000E+00 0.  1.
         21    1    1    2  503  501 -0.73716253721E+01 -0.44487199689E+02  0.21762914489E+03  0.22225187626E+03  0.00000000000E+00 0.  1.
         21    1    1    2  504  502  0.65223780095E+02 -0.72636260167E+02  0.35601511782E+04  0.35614893765E+04  0.00000000000E+00 0. -1.
         21    1    1    2  505  504 -0.38597171003E+02  0.62261461585E+02  0.17105499874E+03  0.18608074538E+03  0.00000000000E+00 0. -1.
          2    1    1    2  501    0 -0.19254983720E+02  0.54861998272E+02 -0.77919911389E+03  0.78136537697E+03  0.00000000000E+00 0.  1.
<scales pt_clust_3="45.09381" pt_clust_4="111.28642" pt_clust_5="14000.00000" pt_clust_6="58.13142"></scales>
<clustering>
<clus scale="   45.094">  1  3  2 -1</clus>
<clus scale="   58.131">  2  6  1 -1</clus>
<clus scale="  111.286">  1  4  2 -1</clus>
<clus scale="   45.094">  1  3  2 -1</clus>
</clustering>
</event>
<event>
 6    0  0.2433432E+002  0.1056831E+03  0.7546771E-02  0.1268779E+00
          2   -1    0    0  503    0 -0.00000000000E+00  0.00000000000E+00  0.18920747996E+04  0.18920747996E+04  0.00000000000E+00 0.  1.
         21   -1    0    0  504  502  0.00000000000E+00 -0.00000000000E+00 -0.38553302736E+03  0.38553302736E+03  0.00000000000E+00 0. -1.
         21    1    1    2  503  505 -0.78522268755E+02 -0.58293520798E+02 -0.17656954596E+02  0.99376301516E+02  0.00000000000E+00 0.  1.
         21    1    1    2  504  501  0.11132597301E+03  0.15257148523E+02 -0.25170899677E+03  0.27565135934E+03  0.00000000000E+00 0. -1.
         21    1    1    2  505  502  0.42706047775E+02 -0.31209650689E+02 -0.50484786698E+02  0.73120192154E+02  0.00000000000E+00 0. -1.
          2    1    1    2  501    0 -0.75509752033E+02  0.74246022964E+02  0.18263925103E+04  0.18294599740E+04  0.00000000000E+00 0.  1.
<scales pt_clust_3="95.39766" pt_clust_4="14000.00000" pt_clust_5="52.89470" pt_clust_6="105.68314"></scales>
<clustering>
<clus scale="   52.895">  2  5  1 -1</clus>
<clus scale="   95.398">  2  3  1 -1</clus>
<clus scale="  105.683">  1  6  2 -1</clus>
<clus scale="   52.895">  2  3  1 -1</clus>
</clustering>
</event>
<event>
 6    0  0.2433432E+002  0.1121169E+03  0.7546771E-02  0.1256699E+00
          2   -1    0    0  505    0 -0.00000000000E+00  0.00000000000E+00  0.78070877105E+03  0.78070877105E+03  0.00000000000E+00 0. -1.
         21   -1    0    0  504  502  0.00000000000E+00 -0.00000000000E+00 -0.21755798631E+03  0.21755798631E+03  0.00000000000E+00 0. -1.
         21    1    1    2  503  501 -0.78189484970E+02 -0.11343512163E+02  0.98635150320E+02  0.12637706954E+03  0.00000000000E+00 0. -1.
         21    1    1    2  504  503 -0.66499557365E+02 -0.37210565947E+02 -0.17364795082E+03  0.18963235001E+03  0.00000000000E+00 0. -1.
         21    1    1    2  505  502  0.13193565382E+03  0.97675033458E+02  0.31573794969E+03  0.35586216683E+03  0.00000000000E+00 0. -1.
          2    1    1    2  501    0  0.12753388518E+02 -0.49120955348E+02  0.32242563555E+03  0.32639517097E+03  0.00000000000E+00 0. -1.
<scales pt_clust_3="112.11686" pt_clust_4="76.43250" pt_clust_5="14000.00000" pt_clust_6="50.74955"></scales>
<clustering>
<clus scale="   50.750">  1  6  2 -1</clus>
<clus scale="   76.433">  2  4  1 -1</clus>
<clus scale="  112.117">  1  3  2 -1</clus>
<clus scale="   76.433">  2  3  1 -1</clus>
</clustering>
</event>
<event>
 6    0  0.2433432E+002  0.1721294E+03  0.7546771E-02  0.1175645E+00
          1   -1    0    0  503    0 -0.00000000000E+00  0.00000000000E+00  0.20193167186E+04  0.20193167186E+04  0.00000000000E+00 0.  1.
         21   -1    0    0  504  502  0.00000000000E+00 -0.00000000000E+00 -0.32730069425E+03  0.32730069425E+03  0.00000000000E+00 0. -1.
         21    1    1    2  503  505 -0.56231612903E+02 -0.95180167569E+02  0.12027260164E+03  0.16336081933E+03  0.00000000000E+00 0.  1.
         21    1    1    2  504  501 -0.15442750660E+03  0.90720538628E+02  0.27820842909E+02  0.18125140061E+03  0.00000000000E+00 0.  1.
         21    1    1    2  505  502  0.17577418551E+03 -0.13477801780E+01 -0.19510926305E+03  0.26261379501E+03  0.00000000000E+00 0. -1.
          1    1    1    2  501    0  0.34884933992E+02  0.58074091192E+01  0.17390318428E+04  0.17393913979E+04  0.00000000000E+00 0.  1.
<scales pt_clust_3="99.97899" pt_clust_4="14000.00000" pt_clust_5="172.12943" pt_clust_6="35.36502"></scales>
<clustering>
<clus scale="   35.365">  1  6  2 -1</clus>
<clus scale="   99.979">  1  3  2 -1</clus>
<clus scale="  172.129">  2  5  1 -1</clus>
<clus scale="  172.129">  2  3  1 -1</clus>
</clustering>
</event>
<event>
 6    0  0.2433432E+002  0.1008333E+03  0.7546771E-02  0.1278553E+00
         21   -1    0    0  503  502  0.00000000000E+00  0.00000000000E+00  0.76294731812E+03  0.76294731812E+03  0.00000000000E+00 0. -1.
         -4   -1    0    0    0  501 -0.00000000000E+00 -0.00000000000E+00 -0.25372991321E+03  0.25372991321E+03  0.00000000000E+00 0. -1.
         21    1    1    2  503  505 -0.41859952358E+02 -0.10448854036E+02  0.10483225672E+03  0.11336329305E+03  0.00000000000E+00 0. -1.
         21    1    1    2  504  502  0.48698228238E+02  0.11791334413E+03  0.60626545154E+03  0.61954246980E+03  0.00000000000E+00 0. -1.
         21    1    1    2  505  501 -0.56121903455E+01 -0.71270034418E+02  0.69467904957E+01  0.71827379074E+02  0.00000000000E+00 0.  1.
         -4    1    1    2    0  504 -0.12260855341E+01 -0.36194455675E+02 -0.20882709385E+03  0.21194408940E+03  0.00000000000E+00 0. -1.
<scales pt_clust_3="44.25690" pt_clust_4="100.83333" pt_clust_5="14000.00000" pt_clust_6="36.21522"></scales>
<clustering>
<clus scale="   36.215">  2  6  1 -1</clus>
<clus scale="   44.257">  1  3  2 -1</clus>
<clus scale="  100.833">  1  4  2 -1</clus>
<clus scale="   44.257">  1  3  2 -1</clus>
</clustering>
</event>
<event>
 6    0  0.2433432E+002  0.1096453E+03  0.7546771E-02  0.1261228E+00
         21   -1    0    0  505  502  0.00000000000E+00  0.00000000000E+00  0.64390415984E+02  0.64390415984E+02  0.00000000000E+00 0. -1.
         -1   -1    0    0    0  501 -0.00000000000E+00 -0.00000000000E+00 -0.39591569645E+03  0.39591569645E+03  0.00000000000E+00 0. -1.
         21    1    1    2  503  501  0.43149150052E+02  0.51326304061E+02 -0.67618422521E+02  0.95228618088E+02  0.00000000000E+00 0. -1.
         21    1    1    2  504  502 -0.25097202624E+02 -0.25328545268E+02  0.31960655789E+01  0.35799715364E+02  0.00000000000E+00 0. -1.
         21    1    1    2  505  503  0.54983653047E+02  0.35777184296E+02 -0.27213468416E+02  0.71019588014E+02  0.00000000000E+00 0. -1.
         -1    1    1    2    0  504 -0.73035600474E+02 -0.61774943088E+02 -0.23988945510E+03  0.25825819097E+03  0.00000000000E+00 0. -1.
<scales pt_clust_3="35.21457" pt_clust_4="35.65676" pt_clust_5="35.21457" pt_clust_6="102.92610"></scales>
<clustering>
<clus scale="   35.657">  1  4  2 -1</clus>
<clus scale="   35.215">  3  5 -1 -1</clus>
<clus scale="  102.926">  2  6  1 -1</clus>
<clus scale="   35.657">  1  3  2 -1</clus>
</clustering>
</event>
<event>
 6    0  0.2433432E+002  0.2812518E+03  0.7546771E-02  0.1095007E+00
         21   -1    0    0  505  502  0.00000000000E+00  0.00000000000E+00  0.79581488267E+03  0.79581488267E+03  0.00000000000E+00 0. -1.
          1   -1    0    0  502    0 -0.00000000000E+00 -0.00000000000E+00 -0.20044485475E+03  0.20044485475E+03  0.00000000000E+00 0.  1.
         21    1    1    2  503  501 -0.48534377957E+02  0.25977744582E+02  0.19761504886E+03  0.20513931021E+03  0.00000000000E+00 0. -1.
         21    1    1    2  504  503 -0.11670719485E+03  0.18578397959E+03  0.36903863481E+03  0.42933177193E+03  0.00000000000E+00 0. -1.
         21    1    1    2  505  504 -0.30500646290E+02 -0.34622267600E+02  0.80478048741E+02  0.92766950834E+02  0.00000000000E+00 0.  1.
          1    1    1    2  501    0  0.19574221909E+03 -0.17713945657E+03 -0.51761704498E+02  0.26902170444E+03  0.00000000000E+00 0.  1.
<scales pt_clust_3="50.90712" pt_clust_4="50.90712" pt_clust_5="46.14099" pt_clust_6="264.18403"></scales>
<clustering>
<clus scale="   46.141">  1  5  2 -1</clus>
<clus scale="   50.907">  3  4 -1 -1</clus>
<clus scale="  264.184">  2  6  1 -1</clus>
<clus scale="   46.141">  1  3  2 -1</clus>
</clustering>
</event>
<event>
 6    0  0.2433432E+002  0.7146880E+02  0.7546771E-02  0.1355168E+00
          2   -1    0    0  502    0 -0.00000000000E+00  0.00000000000E+00  0.21478609350E+04  0.21478609350E+04  0.00000000000E+00 0. -1.
         21   -1    0    0  503  502  0.00000000000E+00 -0.00000000000E+00 -0.48788689486E+03  0.48788689486E+03  0.00000000000E+00 0. -1.
         21    1    1    2  503  504 -0.20566819272E+02 -0.34548523320E+02 -0.20761154445E+03  0.21146902352E+03  0.00000000000E+00 0. -1.
         21    1    1    2  504  505 -0.49275205284E+02  0.49016273183E+02 -0.22175450651E+03  0.23239126931E+03  0.00000000000E+00 0. -1.
         21    1    1    2  505  501  0.11722388509E+03 -0.67051568303E+02  0.39330668911E+02  0.14065650915E+03  0.00000000000E+00 0. -1.
          2    1    1    2  501    0 -0.47381860539E+02  0.52583818441E+02  0.20500094222E+04  0.20512310279E+04  0.00000000000E+00 0. -1.
<scales pt_clust_3="40.20690" pt_clust_4="69.26056" pt_clust_5="14000.00000" pt_clust_6="71.46880"></scales>
<clustering>
<clus scale="   40.207">  2  3  1 -1</clus>
<clus scale="   69.261">  2  4  1 -1</clus>
<clus scale="   71.469">  1  6  2 -1</clus>
<clus scale="   40.207">  2  3  1 -1</clus>
</clustering>
</event>
<event>
 6    0  0.2433432E+002  0.1147247E+03  0.7546771E-02  0.1252062E+00
          2   -1    0    0  505    0 -0.00000000000E+00  0.00000000000E+00  0.83982561817E+03  0.83982561817E+03  0.00000000000E+00 0.  1.
         21   -1    0    0  503  502  0.00000000000E+00 -0.00000000000E+00 -0.22494518709E+02  0.22494518709E+02  0.00000000000E+00 0.  1.
         21    1    1    2  503  501 -0.95292379101E+02 -0.35308429128E+02  0.27010643955E+03  0.28859107985E+03  0.00000000000E+00 0.  1.
         21    1    1    2  504  502  0.15790508575E+02  0.34893039690E+02  0.63797725915E+02  0.74411116185E+02  0.00000000000E+00 0.  1.
         21    1    1    2  505  504  0.58240526160E+02  0.46118617253E+02  0.30394813576E+03  0.31289511818E+03  0.00000000000E+00 0.  1.
          2    1    1    2  501    0  0.21261344366E+02 -0.45703227815E+02  0.17947879823E+03  0.18642282267E+03  0.00000000000E+00 0.  1.
<scales pt_clust_3="102.15740" pt_clust_4="37.48583" pt_clust_5="37.48583" pt_clust_6="50.40664"></scales>
<clustering>
<clus scale="   37.486">  4  5 -1 -1</clus>
<clus scale="   50.407">  1  6  2 -1</clus>
<clus scale="  102.157">  2  3  1 -1</clus>
<clus scale="  102.157">  2  3  1 -1</clus>
</clustering>
</event>
<event>
 6    0  0.2433432E+002  0.1266820E+03  0.7546771E-02  0.1232464E+00
          2   -1    0    0  503    0 -0.00000000000E+00  0.00000000000E+00  0.19907092102E+04  0.19907092102E+04  0.00000000000E+00 0.  1.
         21   -1    0    0  501  502  0.00000000000E+00 -0.00000000000E+00 -0.35976202300E+02  0.35976202300E+02  0.00000000000E+00 0.  1.
         21    1    1    2  503  504  0.27007121280E+02 -0.15266796886E+02  0.33300128621E+03  0.33444329311E+03  0.00000000000E+00 0.  1.
         21    1    1    2  504  505  0.37386229899E+02  0.13079472821E+02  0.21184528325E+03  0.21551618693E+03  0.00000000000E+00 0.  1.
         21    1    1    2  505  502  0.94602670888E+02 -0.76731690716E+02  0.10799458186E+03  0.16278896588E+03  0.00000000000E+00 0.  1.
          2    1    1    2  501    0 -0.15899602207E+03  0.78919014781E+02  0.13018918566E+04  0.13139369666E+04  0.00000000000E+00 0.  1.
<scales pt_clust_3="31.02353" pt_clust_4="42.35236" pt_clust_5="14000.00000" pt_clust_6="126.68203"></scales>
<clustering>
<clus scale="   31.024">  1  3  2 -1</clus>
<clus scale="   42.352">  1  4  2 -1</clus>
<clus scale="  126.682">  1  6  2 -1</clus>
<clus scale="  126.682">  2  3  1 -1</clus>
</clustering>
</event>
<event>
 6    0  0.2433432E+002  0.1519615E+03  0.7546771E-02  0.1198083E+00
         21   -1    0    0  503  502  0.00000000000E+00  0.00000000000E+00  0.86675129278E+02  0.86675129278E+02  0.00000000000E+00 0.  1.
          2   -1    0    0  505    0 -0.00000000000E+00 -0.00000000000E+00 -0.21995545095E+04  0.21995545095E+04  0.00000000000E+00 0. -1.
         21    1    1    2  503  501 -0.15387129073E+03  0.26461548324E+02 -0.11016129348E+02  0.15651818667E+03  0.00000000000E+00 0.  1.
         21    1    1    2  504  502  0.73045846034E+02  0.50141068811E+02 -0.24117371886E+03  0.25693303617E+03  0.00000000000E+00 0.  1.
         21    1    1    2  505  504 -0.11810384225E+01  0.43759232751E+02 -0.90468012466E+03  0.90573858992E+03  0.00000000000E+00 0. -1.
          2    1    1    2  501    0  0.82006483123E+02 -0.12036184989E+03 -0.95600940733E+03  0.96703982601E+03  0.00000000000E+00 0. -1.
<scales pt_clust_3="14000.00000" pt_clust_4="93.44488" pt_clust_5="43.77517" pt_clust_6="151.96154"></scales>
<clustering>
<clus scale="   43.775">  2  5  1 -1</clus>
<clus scale="   93.445">  2  4  1 -1</clus>
<clus scale="  151.962">  2  6  1 -1</clus>
<clus scale="  151.962">  1  3  2 -1</clus>
</clustering>
</event>
<event>
 6    0  0.2433432E+002  0.1164931E+03  0.7546771E-02  0.1248997E+00
         -2   -1    0    0    0  501 -0.00000000000E+00  0.00000000000E+00  0.11781888273E+03  0.11781888273E+03  0.00000000000E+00 0.  1.
         21   -1    0    0  504  502  0.00000000000E+00 -0.00000000000E+00 -0.51429949088E+03  0.51429949088E+03  0.00000000000E+00 0.  1.
         21    1    1    2  503  501  0.32726929841E+02 -0.16361368945E+01 -0.24185998023E+02  0.40727035015E+02  0.00000000000E+00 0.  1.
         21    1    1    2  504  503  0.83544290800E+02  0.85479980561E+02 -0.84063408168E-01  0.11952607527E+03  0.00000000000E+00 0.  1.
         21    1    1    2  505  502 -0.10992830003E+03 -0.41368653206E+02 -0.40251619530E+03  0.41930285486E+03  0.00000000000E+00 0.  1.
         -2    1    1    2    0  505 -0.63429206153E+01 -0.42475190461E+02  0.30305648589E+02  0.52562408459E+02  0.00000000000E+00 0.  1.
<scales pt_clust_3="32.76780" pt_clust_4="116.49314" pt_clust_5="14000.00000" pt_clust_6="43.51458"></scales>
<clustering>
<clus scale="   32.768">  1  3  2 -1</clus>
<clus scale="   43.515">  1  6  2 -1</clus>
<clus scale="  116.493">  1  4  2 -1</clus>
<clus scale="  116.493">  2  3  1 -1</clus>
</clustering>
</event>
<event>
 6    0  0.2433432E+002  0.1107545E+03  0.7546771E-02  0.1259179E+00
          1   -1    0    0  505    0 -0.00000000000E+00  0.00000000000E+00  0.11072725074E+04  0.11072725074E+04  0.00000000000E+00 0.  1.
         21   -1    0    0  504  502  0.00000000000E+00 -0.00000000000E+00 -0.54530393543E+02  0.54530393543E+02  0.00000000000E+00 0.  1.
         21    1    1    2  503  502  0.28277966408E+02 -0.10224999122E+02 -0.13326889677E+02  0.32890727868E+02  0.00000000000E+00 0.  1.
         21    1    1    2  504  501 -0.30249200019E+02  0.36899868644E+02  0.57506441893E+02  0.74723525526E+02  0.00000000000E+00 0.  1.
         21    1    1    2  505  503  0.60562150034E+02  0.71269366774E+02  0.94244181642E+02  0.13277447959E+03  0.00000000000E+00 0.  1.
          1    1    1    2  501    0 -0.58590916423E+02 -0.97944236296E+02  0.91431837998E+03  0.92141416794E+03  0.00000000000E+00 0.  1.
<scales pt_clust_3="30.06982" pt_clust_4="40.85396" pt_clust_5="110.75449" pt_clust_6="14000.00000"></scales>
<clustering>
<clus scale="   30.070">  2  3  1 -1</clus>
<clus scale="   40.854">  2  4  1 -1</clus>
<clus scale="  110.754">  2  5  1 -1</clus>
<clus scale="   30.070">  2  3  1 -1</clus>
</clustering>
</event>
<event>
 6    0  0.2433432E+002  0.1113537E+03  0.7546771E-02  0.1258083E+00
         21   -1    0    0  503  502  0.00000000000E+00  0.00000000000E+00  0.16573040352E+03  0.16573040352E+03  0.00000000000E+00 0.  1.
         -2   -1    0    0    0  501 -0.00000000000E+00 -0.00000000000E+00 -0.49911089257E+03  0.49911089257E+03  0.00000000000E+00 0.  1.
         21    1    1    2  503  505  0.53576548628E+02  0.40580101259E+02  0.84162259456E+02  0.10770551099E+03  0.00000000000E+00 0.  1.
         21    1    1    2  504  502  0.62881600829E+02 -0.10151399522E+03 -0.47318606527E+02  0.12844546497E+03  0.00000000000E+00 0.  1.
         21    1    1    2  505  501 -0.12895525792E+03 -0.95171528954E+01 -0.15483265890E+03  0.20172552394E+03  0.00000000000E+00 0.  1.
         -2    1    1    2    0  504  0.12497108461E+02  0.70451046859E+02 -0.21539148308E+03  0.22696479619E+03  0.00000000000E+00 0.  1.
<scales pt_clust_3="67.21005" pt_clust_4="111.35374" pt_clust_5="14000.00000" pt_clust_6="75.73407"></scales>
<clustering>
<clus scale="   67.210">  1  3  2 -1</clus>
<clus scale="   75.734">  2  6  1 -1</clus>
<clus scale="  111.354">  1  4  2 -1</clus>
<clus scale="   67.210">  1  3  2 -1</clus>
</clustering>
</event>
<event>
 6    0  0.2433432E+002  0.1458996E+03  0.7546771E-02  0.1205604E+00
         21   -1    0    0  503  502  0.00000000000E+00  0.00000000000E+00  0.24199847487E+02  0.24199847487E+02  0.00000000000E+00 0. -1.
          2   -1    0    0  502    0 -0.00000000000E+00 -0.00000000000E+00 -0.22902692479E+04  0.22902692479E+04  0.00000000000E+00 0. -1.
         21    1    1    2  503  505 -0.18997657961E+02 -0.46273502322E+02 -0.18685754420E+03  0.19343704363E+03  0.00000000000E+00 0.  1.
         21    1    1    2  504  501 -0.36646237067E+02  0.90928267136E+01 -0.12178303876E+03  0.12750190085E+03  0.00000000000E+00 0.  1.
         21    1    1    2  505  504 -0.83244834741E+02  0.21790401741E+02 -0.10463081449E+03  0.13547003898E+03  0.00000000000E+00 0. -1.
          2    1    1    2  501    0  0.13888872977E+03  0.15390273868E+02 -0.18527980030E+04  0.18580601119E+04  0.00000000000E+00 0. -1.
<scales pt_clust_3="50.02148" pt_clust_4="33.53763" pt_clust_5="33.53763" pt_clust_6="136.83323"></scales>
<clustering>
<clus scale="   33.538">  4  5 -1 -1</clus>
<clus scale="   50.021">  1  3  2 -1</clus>
<clus scale="  136.833">  2  6  1 -1</clus>
<clus scale="   50.021">  1  3  2 -1</clus>
</clustering>
</event>
<event>
 6    0  0.2433432E+002  0.9921272E+02  0.7546771E-02  0.1281960E+00
          2   -1    0    0  505    0 -0.00000000000E+00  0.00000000000E+00  0.21215452192E+04  0.21215452192E+04  0.00000000000E+00 0. -1.
         21   -1    0    0  504  502  0.00000000000E+00 -0.00000000000E+00 -0.26675207106E+02  0.26675207106E+02  0.00000000000E+00 0. -1.
         21    1    1    2  503  502 -0.17485651326E+02 -0.68330739020E+02  0.90794334594E+02  0.11497151426E+03  0.00000000000E+00 0. -1.
         21    1    1    2  504  501 -0.13639523235E+02  0.42880617589E+02  0.99148968641E+02  0.10888205519E+03  0.00000000000E+00 0. -1.
         21    1    1    2  505  503 -0.39757509780E+02 -0.30903594551E+02  0.65049511295E+02  0.82262571439E+02  0.00000000000E+00 0. -1.
          2    1    1    2  501    0  0.70882684341E+02  0.56353715983E+02  0.18398771975E+04  0.18421042854E+04  0.00000000000E+00 0. -1.
<scales pt_clust_3="32.61263" pt_clust_4="44.99760" pt_clust_5="32.61263" pt_clust_6="91.39702"></scales>
<clustering>
<clus scale="   32.613">  3  5 -1 -1</clus>
<clus scale="   44.998">  2  4  1 -1</clus>
<clus scale="   91.397">  1  6  2 -1</clus>
<clus scale="   44.998">  2  3  1 -1</clus>
</clustering>
</event>
<event>
 6    0  0.2433432E+002  0.1122834E+03  0.7546771E-02  0.1256399E+00
         21   -1    0    0  505  502  0.00000000000E+00  0.00000000000E+00  0.87720232611E+02  0.87720232611E+02  0.00000000000E+00 0. -1.
          2   -1    0    0  504    0 -0.00000000000E+00 -0.00000000000E+00 -0.37921629011E+04  0.37921629011E+04  0.00000000000E+00 0. -1.
         21    1    1    2  503  501 -0.86953242832E+02 -0.96749868257E+02 -0.27451962152E+03  0.30378022656E+03  0.00000000000E+00 0. -1.
         21    1    1    2  504  502 -0.56061532199E+02 -0.22669663746E+02 -0.32326400375E+02  0.68569710573E+02  0.00000000000E+00 0. -1.
         21    1    1    2  505  503  0.90867723714E+02  0.11190278479E+03 -0.40100386382E+02  0.14962358586E+03  0.00000000000E+00 0. -1.
          2    1    1    2  501    0  0.52147051318E+02  0.75167472089E+01 -0.33574962602E+04  0.33579096107E+04  0.00000000000E+00 0. -1.
<scales pt_clust_3="14000.00000" pt_clust_4="54.55036" pt_clust_5="112.28341" pt_clust_6="52.68602"></scales>
<clustering>
<clus scale="   52.686">  2  6  1 -1</clus>
<clus scale="   54.550">  1  4  2 -1</clus>
<clus scale="  112.283">  1  5  2 -1</clus>
<clus scale="   54.550">  1  3  2 -1</clus>
</clustering>
</event>
<event>
 6    0  0.2433432E+002  0.1185042E+03  0.7546771E-02  0.1245585E+00
          2   -1    0    0  503    0 -0.00000000000E+00  0.00000000000E+00  0.14487535227E+04  0.14487535227E+04  0.00000000000E+00 0.  1.
         21   -1    0    0  505  502  0.00000000000E+00 -0.00000000000E+00 -0.52986967144E+03  0.52986967144E+03  0.00000000000E+00 0.  1.
         21    1    1    2  503  504  0.54893849707E+02 -0.43227362309E+02  0.49129701764E+02  0.85414677798E+02  0.00000000000E+00 0.  1.
         21    1    1    2  504  502 -0.24374643987E+02 -0.88880260641E+02 -0.42040825713E+03  0.43039159688E+03  0.00000000000E+00 0.  1.
         21    1    1    2  505  501  0.17166467145E+02 -0.30570501604E+02 -0.77303802616E+02  0.84882984522E+02  0.00000000000E+00 0. -1.
          2    1    1    2  501    0 -0.47685672865E+02  0.16267812455E+03  0.13674662092E+04  0.13779339349E+04  0.00000000000E+00 0.  1.
<scales pt_clust_3="71.18276" pt_clust_4="14000.00000" pt_clust_5="35.06056" pt_clust_6="118.50417"></scales>
<clustering>
<clus scale="   35.061">  2  5  1 -1</clus>
<clus scale="   71.183">  1  3  2 -1</clus>
<clus scale="  118.504">  1  6  2 -1</clus>
<clus scale="   35.061">  2  3  1 -1</clus>
</clustering>
</event>
<event>
 6    0  0.2433432E+002  0.1335901E+03  0.7546771E-02  0.1222224E+00
         21   -1    0    0  503  502  0.00000000000E+00  0.00000000000E+00  0.54953044934E+03  0.54953044934E+03  0.00000000000E+00 0.  1.
          2   -1    0    0  505    0 -0.00000000000E+00 -0.00000000000E+00 -0.91624655604E+03  0.91624655604E+03  0.00000000000E+00 0. -1.
         21    1    1    2  503  504  0.82428234247E+02  0.29729127875E+02  0.48725027617E+03  0.49506672931E+03  0.00000000000E+00 0.  1.
         21    1    1    2  504  501 -0.12255540481E+03 -0.20344658997E+02 -0.23552189500E+03  0.26627860489E+03  0.00000000000E+00 0. -1.
         21    1    1    2  505  502  0.30943000619E+02  0.48901602509E+02  0.21528788308E+02  0.61744025956E+02  0.00000000000E+00 0.  1.
          2    1    1    2  501    0  0.91841699483E+01 -0.58286071388E+02 -0.63997327617E+03  0.64268764521E+03  0.00000000000E+00 0. -1.
<scales pt_clust_3="133.59013" pt_clust_4="14000.00000" pt_clust_5="57.86913" pt_clust_6="58.88909"></scales>
<clustering>
<clus scale="   57.869">  1  5  2 -1</clus>
<clus scale="   58.889">  2  6  1 -1</clus>
<clus scale="  133.590">  1  3  2 -1</clus>
<clus scale="   57.869">  1  3  2 -1</clus>
</clustering>
</event>
<event>
 6    0  0.2433432E+002  0.2038107E+03  0.7546771E-02  0.1146563E+00
          1   -1    0    0  502    0 -0.00000000000E+00  0.00000000000E+00  0.10113161458E+04  0.10113161458E+04  0.00000000000E+00 0.  1.
         21   -1    0    0  505  502  0.00000000000E+00 -0.00000000000E+00 -0.61404027458E+03  0.61404027458E+03  0.00000000000E+00 0.  1.
         21    1    1    2  503  504  0.43323157072E+02 -0.85146156372E+02 -0.19268589178E+03  0.21506886519E+03  0.00000000000E+00 0.  1.
         21    1    1    2  504  501  0.10668482993E+03 -0.90233234575E+01 -0.44412158853E+02  0.11591166101E+03  0.00000000000E+00 0.  1.
         21    1    1    2  505  503  0.45700673254E+02 -0.67404131288E+01 -0.31572932184E+03  0.31909087950E+03  0.00000000000E+00 0.  1.
          1    1    1    2  501    0 -0.19570866026E+03  0.10090989296E+03  0.95010324365E+03  0.97528501464E+03  0.00000000000E+00 0.  1.
<scales pt_clust_3="116.81348" pt_clust_4="14000.00000" pt_clust_5="46.19507" pt_clust_6="203.81068"></scales>
<clustering>
<clus scale="   46.195">  2  5  1 -1</clus>
<clus scale="  116.813">  2  3  1 -1</clus>
<clus scale="  203.811">  1  6  2 -1</clus>
<clus scale="   46.195">  2  3  1 -1</clus>
</clustering>
</event>
<event>
 6    0  0.2433432E+002  0.1075589E+03  0.7546771E-02  0.1265158E+00
         21   -1    0    0  504  502  0.00000000000E+00  0.00000000000E+00  0.52106783091E+02  0.52106783091E+02  0.00000000000E+00 0.  1.
          2   -1    0    0  503    0 -0.00000000000E+00 -0.00000000000E+00 -0.25554422716E+04  0.25554422716E+04  0.00000000000E+00 0.  1.
         21    1    1    2  503  505  0.76415455779E+02  0.70674279771E+02 -0.55335236339E+02  0.11788199219E+03  0.00000000000E+00 0.  1.
         21    1    1    2  504  501 -0.53176627934E+02 -0.74145521415E+02 -0.27615139374E+03  0.29083484037E+03  0.00000000000E+00 0.  1.
         21    1    1    2  505  502 -0.13882915577E+02  0.33327720055E+02 -0.10979291523E+02  0.37736151252E+02  0.00000000000E+00 0. -1.
          2    1    1    2  501    0 -0.93559122674E+01 -0.29856478411E+02 -0.21608695669E+04  0.21610960709E+04  0.00000000000E+00 0.  1.
<scales pt_clust_3="107.55890" pt_clust_4="14000.00000" pt_clust_5="34.64619" pt_clust_6="31.28806"></scales>
<clustering>
<clus scale="   31.288">  2  6  1 -1</clus>
<clus scale="   34.646">  1  5  2 -1</clus>
<clus scale="  107.559">  1  3  2 -1</clus>
<clus scale="   34.646">  1  3  2 -1</clus>
</clustering>
</event>
<event>
 6    0  0.2433432E+002  0.6431924E+02  0.7546771E-02  0.1380551E+00
         21   -1    0    0  504  502  0.00000000000E+00  0.00000000000E+00  0.43645861377E+02  0.43645861377E+02  0.00000000000E+00 0. -1.
          1   -1    0    0  503    0 -0.00000000000E+00 -0.00000000000E+00 -0.26637656075E+04  0.26637656075E+04  0.00000000000E+00 0. -1.
         21    1    1    2  503  502 -0.84980959238E+02 -0.36869422463E+02 -0.42586775182E+02  0.10195465250E+03  0.00000000000E+00 0. -1.
         21    1    1    2  504  505 -0.34059174321E+02 -0.15865331075E+02 -0.13919432287E+03  0.14417626575E+03  0.00000000000E+00 0. -1.
         21    1    1    2  505  501  0.60226065037E+02  0.27739921441E+02 -0.88557216867E+02  0.11063029789E+03  0.00000000000E+00 0. -1.
          1    1    1    2  501    0  0.58814068522E+02  0.24994832097E+02 -0.23497814312E+04  0.23506502528E+04  0.00000000000E+00 0. -1.
<scales pt_clust_3="14000.00000" pt_clust_4="37.57308" pt_clust_5="56.23159" pt_clust_6="64.31924"></scales>
<clustering>
<clus scale="   37.573">  1  4  2 -1</clus>
<clus scale="   56.232">  1  5  2 -1</clus>
<clus scale="   64.319">  2  6  1 -1</clus>
<clus scale="   37.573">  1  3  2 -1</clus>
</clustering>
</event>
<event>
 6    0  0.2433432E+002  0.7369524E+02  0.7546771E-02  0.1347960E+00
         21   -1    0    0  504  502  0.00000000000E+00  0.00000000000E+00  0.14779546735E+03  0.14779546735E+03  0.00000000000E+00 0. -1.
          1   -1    0    0  505    0 -0.00000000000E+00 -0.00000000000E+00 -0.14004058926E+04  0.14004058926E+04  0.00000000000E+00 0. -1.
         21    1    1    2  503  501  0.57274824522E+02  0.82031917355E+02  0.37210137764E+02  0.10674378362E+03  0.00000000000E+00 0. -1.
         21    1    1    2  504  503  0.19668118416E+02 -0.24855665881E+02  0.51173108243E+02  0.60194069605E+02  0.00000000000E+00 0. -1.
         21    1    1    2  505  502 -0.67345745907E+02  0.15668277943E+02 -0.43496678762E+02  0.81687853986E+02  0.00000000000E+00 0.  1.
          1    1    1    2  501    0 -0.95971970319E+01 -0.72844529418E+02 -0.12974969925E+04  0.12995756527E+04  0.00000000000E+00 0. -1.
<scales pt_clust_3="73.69524" pt_clust_4="31.69604" pt_clust_5="64.13628" pt_clust_6="14000.00000"></scales>
<clustering>
<clus scale="   31.696">  1  4  2 -1</clus>
<clus scale="   64.136">  1  5  2 -1</clus>
<clus scale="   73.695">  1  3  2 -1</clus>
<clus scale="   31.696">  1  3  2 -1</clus>
</clustering>
</event>
<event>
 6    0  0.2433432E+002  0.2400538E+03  0.7546771E-02  0.1119757E+00
          2   -1    0    0  505    0 -0.00000000000E+00  0.00000000000E+00  0.15207180041E+04  0.15207180041E+04  0.00000000000E+00 0.  1.
         21   -1    0    0  501  502  0.00000000000E+00 -0.00000000000E+00 -0.11463025838E+04  0.11463025838E+04  0.00000000000E+00 0.  1.
         21    1    1    2  503  504 -0.36069228215E+02  0.29400670394E+03  0.77944485183E+02  0.30629442365E+03  0.00000000000E+00 0. -1.
         21    1    1    2  504  502 -0.44389086327E+02 -0.20821191739E+03 -0.99057159042E+03  0.10131903421E+04  0.00000000000E+00 0.  1.
         21    1    1    2  505  503 -0.50892196494E+02  0.45288647006E+02  0.26008818867E+02  0.72921436289E+02  0.00000000000E+00 0. -1.
          2    1    1    2  501    0  0.13135051104E+03 -0.13108343355E+03  0.12610337067E+04  0.12746143859E+04  0.00000000000E+00 0.  1.
<scales pt_clust_3="48.70613" pt_clust_4="217.51108" pt_clust_5="48.70613" pt_clust_6="185.56892"></scales>
<clustering>
<clus scale="   48.706">  3  5 -1 -1</clus>
<clus scale="  185.569">  1  6  2 -1</clus>
<clus scale="  217.511">  2  4  1 -1</clus>
<clus scale="  217.511">  2  3  1 -1</clus>
</clustering>
</event>
<event>
 6    0  0.2433432E+002  0.1047850E+03  0.7546771E-02  0.1270544E+00
         -4   -1    0    0    0  501 -0.00000000000E+00  0.00000000000E+00  0.21628886308E+04  0.21628886308E+04  0.00000000000E+00 0. -1.
         21   -1    0    0  505  502  0.00000000000E+00 -0.00000000000E+00 -0.14079553198E+03  0.14079553198E+03  0.00000000000E+00 0. -1.
         21    1    1    2  503  504 -0.25213131699E+02  0.34216503964E+02 -0.23293912014E+02  0.48467282681E+02  0.00000000000E+00 0. -1.
         21    1    1    2  504  501 -0.72044043484E+02  0.11478399678E+02  0.28433349898E+00  0.72953263849E+02  0.00000000000E+00 0. -1.
         21    1    1    2  505  503  0.39671934497E+02  0.24893496045E+02 -0.59482313037E+02  0.75707952662E+02  0.00000000000E+00 0.  1.
         -4    1    1    2    0  502  0.57585240685E+02 -0.70588399688E+02  0.21045849904E+04  0.21065556636E+04  0.00000000000E+00 0. -1.
<scales pt_clust_3="39.41486" pt_clust_4="39.41486" pt_clust_5="46.83533" pt_clust_6="91.17772"></scales>
<clustering>
<clus scale="   39.415">  3  4 -1 -1</clus>
<clus scale="   46.835">  2  5  1 -1</clus>
<clus scale="   91.178">  1  6  2 -1</clus>
<clus scale="   46.835">  2  3  1 -1</clus>
</clustering>
</event>
<event>
 6    0  0.2433432E+002  0.8513417E+02  0.7546771E-02  0.1315082E+00
         21   -1    0    0  504  502  0.00000000000E+00  0.00000000000E+00  0.18045125418E+03  0.18045125418E+03  0.00000000000E+00 0.  1.
          2   -1    0    0  505    0 -0.00000000000E+00 -0.00000000000E+00 -0.15706556079E+04  0.15706556079E+04  0.00000000000E+00 0.  1.
         21    1    1    2  503  501  0.41672225852E+01  0.55413098476E+02 -0.17761525212E+03  0.18610522565E+03  0.00000000000E+00 0.  1.
         21    1    1    2  504  503 -0.18053830590E+02 -0.26579318913E+02  0.15181986962E+03  0.15518271103E+03  0.00000000000E+00 0.  1.
         21    1    1    2  505  502  0.54050137061E+02 -0.10165009988E+03 -0.13425529083E+03  0.17685769205E+03  0.00000000000E+00 0.  1.
          2    1    1    2  501    0 -0.40163529056E+02  0.72816320320E+02 -0.12301536804E+04  0.12329612333E+04  0.00000000000E+00 0.  1.
<scales pt_clust_3="51.24359" pt_clust_4="32.13100" pt_clust_5="85.13417" pt_clust_6="14000.00000"></scales>
<clustering>
<clus scale="   32.131">  1  4  2 -1</clus>
<clus scale="   51.244">  1  3  2 -1</clus>
<clus scale="   85.134">  1  5  2 -1</clus>
<clus scale="   32.131">  1  3  2 -1</clus>
</clustering>
</event>
<event>
 6    0  0.2433432E+002  0.1410237E+03  0.7546771E-02  0.1211958E+00
         21   -1    0    0  501  502  0.00000000000E+00  0.00000000000E+00  0.22706216702E+04  0.22706216702E+04  0.00000000000E+00 0.  1.
          1   -1    0    0  505    0 -0.00000000000E+00 -0.00000000000E+00 -0.12334818966E+03  0.12334818966E+03  0.00000000000E+00 0. -1.
         21    1    1    2  503  504 -0.15378262774E+03  0.62490535727E+02  0.53555105696E+03  0.56068627437E+03  0.00000000000E+00 0.  1.
         21    1    1    2  504  502  0.83102734097E+02  0.74488076301E+02  0.15944985498E+04  0.15983992502E+04  0.00000000000E+00 0.  1.
         21    1    1    2  505  503  0.26765627056E+01 -0.82445725690E+02  0.89451800488E+02  0.12168026250E+03  0.00000000000E+00 0.  1.
          1    1    1    2  501    0  0.68003330942E+02 -0.54532886338E+02 -0.72227926641E+02  0.11320407280E+03  0.00000000000E+00 0. -1.
<scales pt_clust_3="141.02374" pt_clust_4="110.64126" pt_clust_5="82.48916" pt_clust_6="14000.00000"></scales>
<clustering>
<clus scale="   82.489">  2  5  1 -1</clus>
<clus scale="  110.641">  1  4  2 -1</clus>
<clus scale="  141.024">  1  3  2 -1</clus>
<clus scale="  110.641">  1  3  2 -1</clus>
</clustering>
</event>
<event>
 6    0  0.2433432E+002  0.9734931E+02  0.7546771E-02  0.1285971E+00
         21   -1    0    0  501  502  0.00000000000E+00  0.00000000000E+00  0.18898697069E+03  0.18898697069E+03  0.00000000000E+00 0. -1.
          3   -1    0    0  503    0 -0.00000000000E+00 -0.00000000000E+00 -0.59079050798E+03  0.59079050798E+03  0.00000000000E+00 0. -1.
         21    1    1    2  503  505  0.27692409345E+02 -0.20263391506E+02 -0.41513929031E+02  0.53859826162E+02  0.00000000000E+00 0.  1.
         21    1    1    2  504  502 -0.46304058226E+02 -0.22251803314E+02  0.14282915842E+03  0.15178727566E+03  0.00000000000E+00 0. -1.
         21    1    1    2  505  504  0.86435166685E+02  0.22030428246E+01 -0.25651425284E+02  0.90188064935E+02  0.00000000000E+00 0. -1.
          3    1    1    2  501    0 -0.67823517804E+02  0.40312151996E+02 -0.47746734139E+03  0.48394231191E+03  0.00000000000E+00 0. -1.
<scales pt_clust_3="33.85091" pt_clust_4="51.37323" pt_clust_5="33.85091" pt_clust_6="81.17610"></scales>
<clustering>
<clus scale="   33.851">  3  5 -1 -1</clus>
<clus scale="   51.373">  1  4  2 -1</clus>
<clus scale="   81.176">  2  6  1 -1</clus>
<clus scale="   51.373">  1  3  2 -1</clus>
</clustering>
</event>
<event>
 6    0  0.2433432E+002  0.1309216E+03  0.7546771E-02  0.1226095E+00
          2   -1    0    0  505    0 -0.00000000000E+00  0.00000000000E+00  0.19652018007E+04  0.19652018007E+04  0.00000000000E+00 0. -1.
         21   -1    0    0  504  502  0.00000000000E+00 -0.00000000000E+00 -0.18150648965E+03  0.18150648965E+03  0.00000000000E+00 0.  1.
         21    1    1    2  503  502  0.11097799544E+03  0.75086136768E+02 -0.15093667352E+03  0.20183142179E+03  0.00000000000E+00 0.  1.
         21    1    1    2  504  501 -0.12553981847E+02 -0.72660923492E+02  0.65589281891E+03  0.66002469815E+03  0.00000000000E+00 0. -1.
         21    1    1    2  505  503 -0.40636769471E+02 -0.15091604811E+02  0.20744333034E+03  0.21192413471E+03  0.00000000000E+00 0.  1.
          2    1    1    2  501    0 -0.57787244122E+02  0.12666391536E+02  0.10712958353E+04  0.10729280357E+04  0.00000000000E+00 0. -1.
<scales pt_clust_3="130.92162" pt_clust_4="14000.00000" pt_clust_5="43.34863" pt_clust_6="82.67652"></scales>
<clustering>
<clus scale="   43.349">  1  5  2 -1</clus>
<clus scale="   82.677">  1  6  2 -1</clus>
<clus scale="  130.922">  2  3  1 -1</clus>
<clus scale="  130.922">  2  3  1 -1</clus>
</clustering>
</event>
<event>
 6    0  0.2433432E+002  0.1077531E+03  0.7546771E-02  0.1264788E+00
          2   -1    0    0  504    0 -0.00000000000E+00  0.00000000000E+00  0.25307551407E+04  0.25307551407E+04  0.00000000000E+00 0.  1.
         21   -1    0    0  505  502  0.00000000000E+00 -0.00000000000E+00 -0.37048809164E+02  0.37048809164E+02  0.00000000000E+00 0. -1.
         21    1    1    2  503  502 -0.16682991476E+02 -0.41948923856E+02  0.22829575383E+03  0.23271653494E+03  0.00000000000E+00 0. -1.
         21    1    1    2  504  503 -0.33360722552E+02 -0.61827957433E+02  0.12398328460E+03  0.14250434727E+03  0.00000000000E+00 0. -1.
         21    1    1    2  505  501 -0.25112670425E+02  0.17891603732E+02 -0.14192819838E+02  0.33943951375E+02  0.00000000000E+00 0. -1.
          2    1    1    2  501    0  0.75156384453E+02  0.85885277558E+02  0.21556201129E+04  0.21586391163E+04  0.00000000000E+00 0.  1.
<scales pt_clust_3="44.18911" pt_clust_4="107.75315" pt_clust_5="30.83433" pt_clust_6="14000.00000"></scales>
<clustering>
<clus scale="   30.834">  2  5  1 -1</clus>
<clus scale="   44.189">  2  3  1 -1</clus>
<clus scale="  107.753">  2  4  1 -1</clus>
<clus scale="   30.834">  2  3  1 -1</clus>
</clustering>
</event>
<event>
 6    0  0.2433432E+002  0.8269632E+02  0.7546771E-02  0.1321569E+00
         21   -1    0    0  504  502  0.00000000000E+00  0.00000000000E+00  0.37967732086E+03  0.37967732086E+03  0.00000000000E+00 0. -1.
         -1   -1    0    0    0  501 -0.00000000000E+00 -0.00000000000E+00 -0.15426379447E+04  0.15426379447E+04  0.00000000000E+00 0.  1.
         21    1    1    2  503  501  0.61494718532E+02 -0.70437395459E+02  0.50708908214E+02  0.10636926463E+03  0.00000000000E+00 0. -1.
         21    1    1    2  504  503  0.32376087811E+02  0.21445460436E+01  0.49019534813E+02  0.58785414288E+02  0.00000000000E+00 0. -1.
         21    1    1    2  505  502 -0.10878372827E+02  0.70801927790E+02  0.24087757905E+03  0.25130312386E+03  0.00000000000E+00 0. -1.
         -1    1    1    2    0  505 -0.82992433516E+02 -0.25090783745E+01 -0.15035666459E+04  0.15058574628E+04  0.00000000000E+00 0.  1.
<scales pt_clust_3="14000.00000" pt_clust_4="32.44704" pt_clust_5="73.68386" pt_clust_6="82.69632"></scales>
<clustering>
<clus scale="   32.447">  1  4  2 -1</clus>
<clus scale="   73.684">  1  5  2 -1</clus>
<clus scale="   82.696">  2  6  1 -1</clus>
<clus scale="   32.447">  1  3  2 -1</clus>
</clustering>
</event>
<event>
 6    0  0.2433432E+002  0.1393181E+03  0.7546771E-02  0.1214249E+00
         21   -1    0    0  505  502  0.00000000000E+00  0.00000000000E+00  0.83514035037E+02  0.83514035037E+02  0.00000000000E+00 0. -1.
          2   -1    0    0  503    0 -0.00000000000E+00 -0.00000000000E+00 -0.13051497487E+04  0.13051497487E+04  0.00000000000E+00 0. -1.
         21    1    1    2  503  504  0.71750029350E+00 -0.69587216086E+02 -0.60809566150E+02  0.92415901146E+02  0.00000000000E+00 0. -1.
         21    1    1    2  504  502 -0.59417562614E+02 -0.93719081963E+02 -0.15891421640E+03  0.19382322163E+03  0.00000000000E+00 0. -1.
         21    1    1    2  505  501  0.99930886442E+02  0.45973557438E+02 -0.18941230430E+02  0.11161774168E+03  0.00000000000E+00 0. -1.
          2    1    1    2  501    0 -0.41230824122E+02  0.11733274061E+03 -0.98297070069E+03  0.99080691928E+03  0.00000000000E+00 0. -1.
<scales pt_clust_3="47.11500" pt_clust_4="47.11500" pt_clust_5="109.99886" pt_clust_6="125.97577"></scales>
<clustering>
<clus scale="   47.115">  3  4 -1 -1</clus>
<clus scale="  109.999">  1  5  2 -1</clus>
<clus scale="  125.976">  2  6  1 -1</clus>
<clus scale="  109.999">  1  3  2 -1</clus>
</clustering>
</event>
<event>
 6    0  0.2433432E+002  0.1450227E+03  0.7546771E-02  0.1206726E+00
         21   -1    0    0  505  502  0.00000000000E+00  0.00000000000E+00  0.16658690236E+03  0.16658690236E+03  0.00000000000E+00 0.  1.
          2   -1    0    0  503    0 -0.00000000000E+00 -0.00000000000E+00 -0.58895805890E+03  0.58895805890E+03  0.00000000000E+00 0.  1.
         21    1    1    2  503  502 -0.96021709152E+02  0.11227043299E+03 -0.51598140521E+01  0.14782233401E+03  0.00000000000E+00 0.  1.
         21    1    1    2  504  501 -0.54101607680E+00 -0.44691568273E+02  0.22298145969E+02  0.49948336176E+02  0.00000000000E+00 0.  1.
         21    1    1    2  505  504  0.64270390334E+02 -0.67021423831E+02  0.21761852483E+02  0.95373647039E+02  0.00000000000E+00 0.  1.
          2    1    1    2  501    0  0.32292334895E+02 -0.55744088667E+00 -0.46127134094E+03  0.46240064404E+03  0.00000000000E+00 0.  1.
<scales pt_clust_3="135.63047" pt_clust_4="34.44132" pt_clust_5="34.44132" pt_clust_6="32.29715"></scales>
<clustering>
<clus scale="   32.297">  2  6  1 -1</clus>
<clus scale="   34.441">  4  5 -1 -1</clus>
<clus scale="  135.630">  2  3  1 -1</clus>
<clus scale="  145.023">  1  3  2 -1</clus>
</clustering>
</event>
<event>
 6    0  0.2433432E+002  0.1359190E+03  0.7546771E-02  0.1218928E+00
         21   -1    0    0  501  502  0.00000000000E+00  0.00000000000E+00  0.22890124572E+03  0.22890124572E+03  0.00000000000E+00 0.  1.
          2   -1    0    0  504    0 -0.00000000000E+00 -0.00000000000E+00 -0.31495926268E+04  0.31495926268E+04  0.00000000000E+00 0. -1.
         21    1    1    2  503  505  0.77273930265E+02  0.46741804107E+02 -0.19023165695E+03  0.21058048309E+03  0.00000000000E+00 0.  1.
         21    1    1    2  504  503  0.71211417088E+02  0.13944475592E+02 -0.32856108612E+03  0.33647867931E+03  0.00000000000E+00 0.  1.
         21    1    1    2  505  502 -0.80048709946E+02  0.33946526851E+02  0.20460624169E+03  0.22231481459E+03  0.00000000000E+00 0.  1.
          2    1    1    2  501    0 -0.68436637406E+02 -0.94632806551E+02 -0.26065048797E+04  0.26091198956E+04  0.00000000000E+00 0. -1.
<scales pt_clust_3="59.43921" pt_clust_4="59.43921" pt_clust_5="86.94920" pt_clust_6="118.64605"></scales>
<clustering>
<clus scale="   59.439">  3  4 -1 -1</clus>
<clus scale="   86.949">  1  5  2 -1</clus>
<clus scale="  118.646">  2  6  1 -1</clus>
<clus scale="   86.949">  1  3  2 -1</clus>
</clustering>
</event>
<event>
 6    0  0.2433432E+002  0.8077090E+02  0.7546771E-02  0.1326878E+00
         21   -1    0    0  504  502  0.00000000000E+00  0.00000000000E+00  0.51692363892E+02  0.51692363892E+02  0.00000000000E+00 0. -1.
          1   -1    0    0  503    0 -0.00000000000E+00 -0.00000000000E+00 -0.33065672821E+04  0.33065672821E+04  0.00000000000E+00 0. -1.
         21    1    1    2  503  502 -0.69935650104E+02  0.83327718215E+02 -0.85405415067E+02  0.13830614123E+03  0.00000000000E+00 0. -1.
         21    1    1    2  504  505 -0.38773605448E+02 -0.77904004942E+02 -0.65611967442E+02  0.10898328650E+03  0.00000000000E+00 0. -1.
         21    1    1    2  505  501  0.56238931440E+02  0.18140944363E+02 -0.26410028995E+03  0.27063051273E+03  0.00000000000E+00 0.  1.
          1    1    1    2  501    0  0.52470324112E+02 -0.23564657636E+02 -0.28397572457E+04  0.28403397055E+04  0.00000000000E+00 0. -1.
<scales pt_clust_3="14000.00000" pt_clust_4="80.77090" pt_clust_5="86.43448" pt_clust_6="57.51894"></scales>
<clustering>
<clus scale="   57.519">  2  6  1 -1</clus>
<clus scale="   86.434">  2  5  1 -1</clus>
<clus scale="   80.771">  1  4  2 -1</clus>
<clus scale="   80.771">  1  3  2 -1</clus>
</clustering>
</event>
<event>
 6    0  0.2433432E+002  0.1727950E+03  0.7546771E-02  0.1174964E+00
          3   -1    0    0  505    0 -0.00000000000E+00  0.00000000000E+00  0.34622305709E+03  0.34622305709E+03  0.00000000000E+00 0.  1.
         21   -1    0    0  503  502  0.00000000000E+00 -0.00000000000E+00 -0.33374476460E+03  0.33374476460E+03  0.00000000000E+00 0.  1.
         21    1    1    2  503  504  0.17014468361E+02 -0.62562052924E+02 -0.46623521093E+02  0.79857719218E+02  0.00000000000E+00 0. -1.
         21    1    1    2  504  501  0.56496843409E+02 -0.13907919443E+03  0.30061999769E+02  0.15309683037E+03  0.00000000000E+00 0.  1.
         21    1    1    2  505  502  0.10818301195E+02  0.92168570615E+02 -0.17645883537E+03  0.19937352289E+03  0.00000000000E+00 0.  1.
          3    1    1    2  501    0 -0.84329612964E+02  0.10947267674E+03  0.20549864919E+03  0.24763974922E+03  0.00000000000E+00 0.  1.
<scales pt_clust_3="58.52444" pt_clust_4="58.52444" pt_clust_5="92.80130" pt_clust_6="148.07994"></scales>
<clustering>
<clus scale="   58.524">  3  4 -1 -1</clus>
<clus scale="   92.801">  2  5  1 -1</clus>
<clus scale="  148.080">  1  6  2 -1</clus>
<clus scale="   92.801">  2  3  1 -1</clus>
</clustering>
</event>
<event>
 6    0  0.2433432E+002  0.7326013E+02  0.7546771E-02  0.1349345E+00
         21   -1    0    0  503  502  0.00000000000E+00  0.00000000000E+00  0.43863503516E+02  0.43863503516E+02  0.00000000000E+00 0.  1.
         -1   -1    0    0    0  501 -0.00000000000E+00 -0.00000000000E+00 -0.11175353579E+04  0.11175353579E+04  0.00000000000E+00 0.  1.
         21    1    1    2  503  501  0.81624240807E+02  0.67020561878E+01 -0.22926104479E+03  0.24345032533E+03  0.00000000000E+00 0.  1.
         21    1    1    2  504  502  0.52452617396E+02  0.12575694078E+02  0.39708604561E+01  0.54085052334E+02  0.00000000000E+00 0.  1.
         21    1    1    2  505  504 -0.79372233237E+02  0.10796250816E+02 -0.25695242384E+03  0.26914876659E+03  0.00000000000E+00 0. -1.
         -1    1    1    2    0  505 -0.54704624966E+02 -0.30074001082E+02 -0.59142924617E+03  0.59471471712E+03  0.00000000000E+00 0.  1.
<scales pt_clust_3="73.26013" pt_clust_4="53.93909" pt_clust_5="14000.00000" pt_clust_6="56.68776"></scales>
<clustering>
<clus scale="   53.939">  1  4  2 -1</clus>
<clus scale="   56.688">  2  6  1 -1</clus>
<clus scale="   73.260">  2  3  1 -1</clus>
<clus scale="   53.939">  1  3  2 -1</clus>
</clustering>
</event>
<event>
 6    0  0.2433432E+002  0.1829906E+03  0.7546771E-02  0.1164940E+00
          2   -1    0    0  504    0 -0.00000000000E+00  0.00000000000E+00  0.12462454241E+04  0.12462454241E+04  0.00000000000E+00 0.  1.
         21   -1    0    0  505  502  0.00000000000E+00 -0.00000000000E+00 -0.13443576004E+03  0.13443576004E+03  0.00000000000E+00 0. -1.
         21    1    1    2  503  501 -0.14574808810E+03 -0.14518198467E+02  0.67670760601E+02  0.16134625843E+03  0.00000000000E+00 0. -1.
         21    1    1    2  504  502 -0.22301558278E+02 -0.42364620923E+02  0.58502629765E+02  0.75595491248E+02  0.00000000000E+00 0.  1.
         21    1    1    2  505  503 -0.19913826955E+01 -0.30961298902E+02 -0.67005536709E+02  0.73839756124E+02  0.00000000000E+00 0. -1.
          2    1    1    2  501    0  0.17004102907E+03  0.87844118293E+02  0.10526418104E+04  0.10698996783E+04  0.00000000000E+00 0.  1.
<scales pt_clust_3="14000.00000" pt_clust_4="51.68539" pt_clust_5="31.02527" pt_clust_6="182.99063"></scales>
<clustering>
<clus scale="   31.025">  2  5  1 -1</clus>
<clus scale="   51.685">  2  4  1 -1</clus>
<clus scale="  182.991">  1  6  2 -1</clus>
<clus scale="   31.025">  2  3  1 -1</clus>
</clustering>
</event>
<event>
 6    0  0.2433432E+002  0.2115813E+03  0.7546771E-02  0.1140320E+00
          1   -1    0    0  504    0 -0.00000000000E+00  0.00000000000E+00  0.39532063989E+03  0.39532063989E+03  0.00000000000E+00 0.  1.
         21   -1    0    0  501  502  0.00000000000E+00 -0.00000000000E+00 -0.16794603942E+04  0.16794603942E+04  0.00000000000E+00 0. -1.
         21    1    1    2  503  502  0.20068241873E+03 -0.48025678695E+02 -0.16284198112E+04  0.16414417384E+04  0.00000000000E+00 0. -1.
         21    1    1    2  504  505 -0.56971829172E+02  0.38393164654E+02  0.88004798234E+02  0.11164528169E+03  0.00000000000E+00 0. -1.
         21    1    1    2  505  503 -0.10439942360E+03  0.27490766112E+02  0.65896848433E+02  0.12648073570E+03  0.00000000000E+00 0.  1.
          1    1    1    2  501    0 -0.39311165958E+02 -0.17858252071E+02  0.19037841024E+03  0.19521327830E+03  0.00000000000E+00 0.  1.
<scales pt_clust_3="205.25526" pt_clust_4="40.96389" pt_clust_5="40.96389" pt_clust_6="43.17737"></scales>
<clustering>
<clus scale="   40.964">  4  5 -1 -1</clus>
<clus scale="   43.177">  1  6  2 -1</clus>
<clus scale="  205.255">  2  3  1 -1</clus>
<clus scale="  205.255">  2  3  1 -1</clus>
</clustering>
</event>
<event>
 6    0  0.2433432E+002  0.3201304E+03  0.7546771E-02  0.1075589E+00
          2   -1    0    0  504    0 -0.00000000000E+00  0.00000000000E+00  0.22255860648E+04  0.22255860648E+04  0.00000000000E+00 0.  1.
         21   -1    0    0  505  502  0.00000000000E+00 -0.00000000000E+00 -0.21442362626E+03  0.21442362626E+03  0.00000000000E+00 0.  1.
         21    1    1    2  503  501 -0.28526483483E+03 -0.41066496049E+02  0.10510520514E+03  0.30677285935E+03  0.00000000000E+00 0.  1.
         21    1    1    2  504  502  0.34141218229E+03  0.21961041712E+03  0.33462365738E+03  0.52608364886E+03  0.00000000000E+00 0.  1.
         21    1    1    2  505  503  0.98947288395E+01 -0.29088292827E+02  0.37223265538E+01  0.30949800539E+02  0.00000000000E+00 0.  1.
          2    1    1    2  501    0 -0.66042076302E+02 -0.14945562824E+03  0.15677112495E+04  0.15762033823E+04  0.00000000000E+00 0.  1.
<scales pt_clust_3="320.13041" pt_clust_4="14000.00000" pt_clust_5="30.72514" pt_clust_6="163.87549"></scales>
<clustering>
<clus scale="   30.725">  2  5  1 -1</clus>
<clus scale="  163.875">  1  6  2 -1</clus>
<clus scale="  320.130">  2  3  1 -1</clus>
<clus scale="   30.725">  2  3  1 -1</clus>
</clustering>
</event>
<event>
 6    0  0.2433432E+002  0.8779562E+02  0.7546771E-02  0.1308279E+00
         21   -1    0    0  503  502  0.00000000000E+00  0.00000000000E+00  0.76962591117E+02  0.76962591117E+02  0.00000000000E+00 0.  1.
          3   -1    0    0  504    0 -0.00000000000E+00 -0.00000000000E+00 -0.10014947384E+04  0.10014947384E+04  0.00000000000E+00 0.  1.
         21    1    1    2  503  501  0.40283833906E+02  0.42978564506E+02  0.75050770447E+01  0.59382408696E+02  0.00000000000E+00 0.  1.
         21    1    1    2  504  505  0.77501981503E+01 -0.79947816718E+02 -0.34801883428E+02  0.87537934974E+02  0.00000000000E+00 0. -1.
         21    1    1    2  505  502 -0.48068186484E+02 -0.51525749746E+02 -0.69120464870E+02  0.98707102595E+02  0.00000000000E+00 0. -1.
          3    1    1    2  501    0  0.34154428013E-01  0.88495001958E+02 -0.82811487607E+03  0.83282988330E+03  0.00000000000E+00 0.  1.
<scales pt_clust_3="58.90623" pt_clust_4="87.79562" pt_clust_5="50.44211" pt_clust_6="14000.00000"></scales>
<clustering>
<clus scale="   58.906">  1  3  2 -1</clus>
<clus scale="   50.442">  1  5  2 -1</clus>
<clus scale="   87.796">  1  4  2 -1</clus>
<clus scale="   58.906">  1  3  2 -1</clus>
</clustering>
</event>
<event>
 6    0  0.2433432E+002  0.1454024E+03  0.7546771E-02  0.1206239E+00
          2   -1    0    0  504    0 -0.00000000000E+00  0.00000000000E+00  0.14081944965E+04  0.14081944965E+04  0.00000000000E+00 0. -1.
         21   -1    0    0  505  502  0.00000000000E+00 -0.00000000000E+00 -0.26020275161E+03  0.26020275161E+03  0.00000000000E+00 0.  1.
         21    1    1    2  503  502 -0.17501750758E+02 -0.66793625308E+02 -0.41874226936E+02  0.80753641050E+02  0.00000000000E+00 0. -1.
         21    1    1    2  504  503  0.18762101602E+02 -0.89004402183E+02 -0.78061583560E+02  0.11986413514E+03  0.00000000000E+00 0.  1.
         21    1    1    2  505  501 -0.80081360157E+02  0.39989634500E+02 -0.75480286107E+02  0.11708744041E+03  0.00000000000E+00 0.  1.
          2    1    1    2  501    0  0.78821009313E+02  0.11580839299E+03  0.13434078415E+04  0.13506920316E+04  0.00000000000E+00 0. -1.
<scales pt_clust_3="34.72278" pt_clust_4="34.72278" pt_clust_5="89.51087" pt_clust_6="139.83416"></scales>
<clustering>
<clus scale="   34.723">  3  4 -1 -1</clus>
<clus scale="   89.511">  2  5  1 -1</clus>
<clus scale="  139.834">  1  6  2 -1</clus>
<clus scale="   89.511">  2  3  1 -1</clus>
</clustering>
</event>
<event>
 6    0  0.2433432E+002  0.2484327E+03  0.7546771E-02  0.1114299E+00
         21   -1    0    0  504  502  0.00000000000E+00  0.00000000000E+00  0.52609789381E+03  0.52609789381E+03  0.00000000000E+00 0.  1.
          4   -1    0    0  505    0 -0.00000000000E+00 -0.00000000000E+00 -0.47131622124E+03  0.47131622124E+03  0.00000000000E+00 0.  1.
         21    1    1    2  503  502 -0.17539882233E+03  0.10983672636E+03  0.45051472823E+02  0.21179822600E+03  0.00000000000E+00 0.  1.
         21    1    1    2  504  501  0.84319272565E+01  0.40879073329E+02  0.23714466419E+03  0.24078992460E+03  0.00000000000E+00 0.  1.
         21    1    1    2  505  503 -0.56928848178E+02  0.12443752727E+03 -0.93115107674E+02  0.16551741668E+03  0.00000000000E+00 0.  1.
          4    1    1    2  501    0  0.22389574326E+03 -0.27515332695E+03 -0.13429935678E+03  0.37930854777E+03  0.00000000000E+00 0.  1.
<scales pt_clust_3="248.43268" pt_clust_4="41.73962" pt_clust_5="141.12032" pt_clust_6="14000.00000"></scales>
<clustering>
<clus scale="   41.740">  1  4  2 -1</clus>
<clus scale="  141.120">  2  5  1 -1</clus>
<clus scale="  248.433">  1  3  2 -1</clus>
<clus scale="   41.740">  1  3  2 -1</clus>
</clustering>
</event>
<event>
 6    0  0.4516290E+002  0.1051749E+03  0.7546771E-02  0.1269775E+00
         21   -1    0    0  505  502  0.00000000000E+00  0.00000000000E+00  0.53990863587E+03  0.53990863587E+03  0.00000000000E+00 0. -1.
          2   -1    0    0  503    0 -0.00000000000E+00 -0.00000000000E+00 -0.11910344595E+04  0.11910344595E+04  0.00000000000E+00 0. -1.
         21    1    1    2  503  502  0.52224324265E+02 -0.68639594591E+02  0.29872612493E+01  0.86300044730E+02  0.00000000000E+00 0.  1.
         21    1    1    2  504  501 -0.93838177959E+01  0.89003650753E+02  0.44595438068E+03  0.45484614490E+03  0.00000000000E+00 0. -1.
         21    1    1    2  505  504 -0.23069416142E+02  0.22343289068E+02  0.38568297840E+02  0.50188984108E+02  0.00000000000E+00 0.  1.
          2    1    1    2  501    0 -0.19771090328E+02 -0.42707345230E+02 -0.11386357634E+04  0.11396079216E+04  0.00000000000E+00 0. -1.
<scales pt_clust_3="105.17489" pt_clust_4="14000.00000" pt_clust_5="32.11574" pt_clust_6="47.05143"></scales>
<clustering>
<clus scale="   32.116">  1  5  2 -1</clus>
<clus scale="   47.051">  2  6  1 -1</clus>
<clus scale="  105.175">  2  3  1 -1</clus>
<clus scale="   32.116">  1  3  2 -1</clus>
</clustering>
</event>
<event>
 6    0  0.2433432E+002  0.1169583E+03  0.7546771E-02  0.1248201E+00
          2   -1    0    0  505    0 -0.00000000000E+00  0.00000000000E+00  0.10772888632E+04  0.10772888632E+04  0.00000000000E+00 0. -1.
         21   -1    0    0  503  502  0.00000000000E+00 -0.00000000000E+00 -0.70350409429E+02  0.70350409429E+02  0.00000000000E+00 0. -1.
         21    1    1    2  503  504  0.23580381713E+01  0.56850805561E+02 -0.78390191600E+01  0.57437136579E+02  0.00000000000E+00 0. -1.
         21    1    1    2  504  501  0.27950095352E+02  0.77944891279E+02  0.58787403082E+02  0.10155083785E+03  0.00000000000E+00 0. -1.
         21    1    1    2  505  502  0.26111977795E+02 -0.53424368100E+02  0.51229615394E+02  0.78488674244E+02  0.00000000000E+00 0. -1.
          2    1    1    2  501    0 -0.56420111317E+02 -0.81371328740E+02  0.90476045443E+03  0.91016262394E+03  0.00000000000E+00 0. -1.
<scales pt_clust_3="49.68836" pt_clust_4="49.68836" pt_clust_5="59.46426" pt_clust_6="100.43038"></scales>
<clustering>
<clus scale="   49.688">  3  4 -1 -1</clus>
<clus scale="   59.464">  2  5  1 -1</clus>
<clus scale="  100.430">  1  6  2 -1</clus>
<clus scale="   59.464">  2  3  1 -1</clus>
</clustering>
</event>
<event>
 6    0  0.2433432E+002  0.1663765E+03  0.7546771E-02  0.1181680E+00
          2   -1    0    0  503    0 -0.00000000000E+00  0.00000000000E+00  0.10056014495E+04  0.10056014495E+04  0.00000000000E+00 0. -1.
         21   -1    0    0  504  502  0.00000000000E+00 -0.00000000000E+00 -0.18845084278E+03  0.18845084278E+03  0.00000000000E+00 0. -1.
         21    1    1    2  503  502 -0.64963804006E+02 -0.39859309037E+02 -0.20771491659E+02  0.78996931672E+02  0.00000000000E+00 0.  1.
         21    1    1    2  504  505  0.31226261760E+02 -0.23920992721E+02 -0.28050110812E+02  0.48312545295E+02  0.00000000000E+00 0.  1.
         21    1    1    2  505  501  0.19696982624E+03  0.45924459614E+02  0.18038169730E+02  0.20305551952E+03  0.00000000000E+00 0. -1.
          2    1    1    2  501    0 -0.16323228399E+03  0.17855842144E+02  0.84793403949E+03  0.86368729582E+03  0.00000000000E+00 0. -1.
<scales pt_clust_3="72.56570" pt_clust_4="39.33565" pt_clust_5="14000.00000" pt_clust_6="166.37655"></scales>
<clustering>
<clus scale="   39.336">  2  4  1 -1</clus>
<clus scale="   72.566">  2  3  1 -1</clus>
<clus scale="  166.377">  1  6  2 -1</clus>
<clus scale="   39.336">  2  3  1 -1</clus>
</clustering>
</event>
<event>
 6    0  0.2433432E+002  0.9870090E+02  0.7546771E-02  0.1283052E+00
          2   -1    0    0  504    0 -0.00000000000E+00  0.00000000000E+00  0.17582443102E+03  0.17582443102E+03  0.00000000000E+00 0. -1.
         21   -1    0    0  503  502  0.00000000000E+00 -0.00000000000E+00 -0.35322099614E+03  0.35322099614E+03  0.00000000000E+00 0.  1.
         21    1    1    2  503  501  0.13328417110E+03 -0.27968995739E+02 -0.16314988988E+01  0.13619690443E+03  0.00000000000E+00 0. -1.
         21    1    1    2  504  505 -0.19706128316E+02  0.51564131877E+02 -0.18753385482E+03  0.19548948282E+03  0.00000000000E+00 0.  1.
         21    1    1    2  505  502 -0.31621879662E+02  0.20172724481E+02 -0.66186900533E+02  0.76076197910E+02  0.00000000000E+00 0. -1.
          2    1    1    2  501    0 -0.81956163122E+02 -0.43767860618E+02  0.77955689129E+02  0.12128284200E+03  0.00000000000E+00 0. -1.
<scales pt_clust_3="90.27132" pt_clust_4="32.89966" pt_clust_5="32.89966" pt_clust_6="92.91092"></scales>
<clustering>
<clus scale="   32.900">  4  5 -1 -1</clus>
<clus scale="   92.911">  1  6  2 -1</clus>
<clus scale="   90.271">  1  3  2 -1</clus>
<clus scale="   98.701">  2  3  1 -1</clus>
</clustering>
</event>
<event>
 6    0  0.2433432E+002  0.9311840E+02  0.7546771E-02  0.1295471E+00
         21   -1    0    0  503  502  0.00000000000E+00  0.00000000000E+00  0.57278416853E+03  0.57278416853E+03  0.00000000000E+00 0. -1.
         -1   -1    0    0    0  501 -0.00000000000E+00 -0.00000000000E+00 -0.11628533322E+03  0.11628533322E+03  0.00000000000E+00 0.  1.
         21    1    1    2  503  505 -0.84665351026E+01 -0.85090106907E+02  0.26634425772E+03  0.27973428844E+03  0.00000000000E+00 0. -1.
         21    1    1    2  504  502 -0.54624238174E+02  0.47704175731E+02  0.69358312339E+02  0.10034974474E+03  0.00000000000E+00 0. -1.
         21    1    1    2  505  501  0.24992452860E+02 -0.26295484585E+02  0.19835438325E+03  0.20164457981E+03  0.00000000000E+00 0. -1.
         -1    1    1    2    0  504  0.38098320416E+02  0.63681415761E+02 -0.77558118009E+02  0.10734088877E+03  0.00000000000E+00 0.  1.
<scales pt_clust_3="36.27080" pt_clust_4="72.52238" pt_clust_5="36.27080" pt_clust_6="74.63313"></scales>
<clustering>
<clus scale="   36.271">  3  5 -1 -1</clus>
<clus scale="   72.522">  1  4  2 -1</clus>
<clus scale="   74.633">  2  6  1 -1</clus>
<clus scale="   72.522">  1  3  2 -1</clus>
</clustering>
</event>
<event>
 6    0  0.2433432E+002  0.1863255E+03  0.7546771E-02  0.1161818E+00
         21   -1    0    0  504  502  0.00000000000E+00  0.00000000000E+00  0.49401110626E+03  0.49401110626E+03  0.00000000000E+00 0. -1.
          1   -1    0    0  505    0 -0.00000000000E+00 -0.00000000000E+00 -0.22894803096E+04  0.22894803096E+04  0.00000000000E+00 0.  1.
         21    1    1    2  503  502 -0.19445824144E+02  0.52952524930E+02  0.19020548267E+03  0.19839414208E+03  0.00000000000E+00 0. -1.
         21    1    1    2  504  501  0.18141606807E+02 -0.55220444966E+02 -0.21457297993E+02  0.61958301114E+02  0.00000000000E+00 0.  1.
         21    1    1    2  505  503 -0.54877630932E+02  0.16222533577E+03  0.24967517546E+03  0.30276444174E+03  0.00000000000E+00 0. -1.
          1    1    1    2  501    0  0.56181848269E+02 -0.15995741574E+03 -0.22138925634E+04  0.22203745309E+04  0.00000000000E+00 0.  1.
<scales pt_clust_3="43.85728" pt_clust_4="58.12414" pt_clust_5="43.85728" pt_clust_6="169.93449"></scales>
<clustering>
<clus scale="   43.857">  3  5 -1 -1</clus>
<clus scale="   58.124">  1  4  2 -1</clus>
<clus scale="  169.934">  2  6  1 -1</clus>
<clus scale="   58.124">  1  3  2 -1</clus>
</clustering>
</event>
<event>
 6    0  0.2433432E+002  0.1151447E+03  0.7546771E-02  0.1251329E+00
          2   -1    0    0  505    0 -0.00000000000E+00  0.00000000000E+00  0.12865017995E+04  0.12865017995E+04  0.00000000000E+00 0.  1.
         21   -1    0    0  504  502  0.00000000000E+00 -0.00000000000E+00 -0.63378214140E+02  0.63378214140E+02  0.00000000000E+00 0. -1.
         21    1    1    2  503  502  0.17955813966E+02  0.52558823137E+02  0.73588528375E+02  0.92196055518E+02  0.00000000000E+00 0.  1.
         21    1    1    2  504  501  0.10352746962E+03 -0.77870901710E+02  0.51312465721E+02  0.13933694211E+03  0.00000000000E+00 0. -1.
         21    1    1    2  505  503 -0.24880924384E+02  0.88118848066E+02  0.37585808361E+03  0.38685047602E+03  0.00000000000E+00 0.  1.
          2    1    1    2  501    0 -0.96602359202E+02 -0.62806769493E+02  0.72236450766E+03  0.73149653999E+03  0.00000000000E+00 0.  1.
<scales pt_clust_3="55.54135" pt_clust_4="115.14468" pt_clust_5="96.26282" pt_clust_6="14000.00000"></scales>
<clustering>
<clus scale="   55.541">  2  3  1 -1</clus>
<clus scale="   96.263">  1  5  2 -1</clus>
<clus scale="  115.145">  2  4  1 -1</clus>
<clus scale="   55.541">  2  3  1 -1</clus>
</clustering>
</event>
<event>
 6    0  0.2433432E+002  0.9687804E+02  0.7546771E-02  0.1287001E+00
         -4   -1    0    0    0  501 -0.00000000000E+00  0.00000000000E+00  0.16034244946E+03  0.16034244946E+03  0.00000000000E+00 0. -1.
         21   -1    0    0  505  502  0.00000000000E+00 -0.00000000000E+00 -0.22869609864E+03  0.22869609864E+03  0.00000000000E+00 0. -1.
         21    1    1    2  503  502 -0.70447645433E+02  0.13403945836E+02 -0.86219646719E+02  0.11214438903E+03  0.00000000000E+00 0. -1.
         21    1    1    2  504  501  0.82389579827E+02 -0.26940412124E+00 -0.51346777609E+02  0.97080415190E+02  0.00000000000E+00 0. -1.
         21    1    1    2  505  504  0.42239009991E+02 -0.33967060712E+02 -0.32140067079E+02  0.63014911650E+02  0.00000000000E+00 0. -1.
         -4    1    1    2    0  503 -0.54180944385E+02  0.20832518998E+02  0.10135284222E+03  0.11679883223E+03  0.00000000000E+00 0. -1.
<scales pt_clust_3="86.19347" pt_clust_4="35.87241" pt_clust_5="35.87241" pt_clust_6="58.04799"></scales>
<clustering>
<clus scale="   35.872">  4  5 -1 -1</clus>
<clus scale="   58.048">  1  6  2 -1</clus>
<clus scale="   86.193">  2  3  1 -1</clus>
<clus scale="   86.193">  2  3  1 -1</clus>
</clustering>
</event>
<event>
 6    0  0.2433432E+002  0.2782520E+03  0.7546771E-02  0.1096647E+00
         21   -1    0    0  505  502  0.00000000000E+00  0.00000000000E+00  0.60544401728E+03  0.60544401728E+03  0.00000000000E+00 0.  1.
          1   -1    0    0  503    0 -0.00000000000E+00 -0.00000000000E+00 -0.97486620305E+03  0.97486620305E+03  0.00000000000E+00 0.  1.
         21    1    1    2  503  502 -0.98447872569E+02  0.74872617616E+02  0.32598162722E+02  0.12790829799E+03  0.00000000000E+00 0.  1.
         21    1    1    2  504  501 -0.15036312461E+03 -0.55336233671E+02  0.17950983730E+03  0.24061369389E+03  0.00000000000E+00 0.  1.
         21    1    1    2  505  504 -0.13297831282E+02 -0.14821557077E+03  0.27180706225E+03  0.30987701887E+03  0.00000000000E+00 0.  1.
          1    1    1    2  501    0  0.26210882846E+03  0.12867918682E+03 -0.85333724804E+03  0.90191120958E+03  0.00000000000E+00 0.  1.
<scales pt_clust_3="123.68465" pt_clust_4="14000.00000" pt_clust_5="126.47198" pt_clust_6="278.25202"></scales>
<clustering>
<clus scale="  123.685">  1  3  2 -1</clus>
<clus scale="  126.472">  1  5  2 -1</clus>
<clus scale="  278.252">  2  6  1 -1</clus>
<clus scale="  123.685">  1  3  2 -1</clus>
</clustering>
</event>
<event>
 6    0  0.2433432E+002  0.1433757E+03  0.7546771E-02  0.1208858E+00
         21   -1    0    0  504  502  0.00000000000E+00  0.00000000000E+00  0.29702846310E+03  0.29702846310E+03  0.00000000000E+00 0.  1.
          2   -1    0    0  503    0 -0.00000000000E+00 -0.00000000000E+00 -0.38207067056E+03  0.38207067056E+03  0.00000000000E+00 0.  1.
         21    1    1    2  503  505  0.60473173433E+02 -0.94031385103E+02 -0.26249546520E+03  0.28531171609E+03  0.00000000000E+00 0.  1.
         21    1    1    2  504  501 -0.53656718477E+02 -0.15002209238E+02 -0.52827482724E+01  0.55964427533E+02  0.00000000000E+00 0.  1.
         21    1    1    2  505  502  0.39522453444E+02  0.14924159053E+03  0.21794514279E+03  0.26708643158E+03  0.00000000000E+00 0.  1.
          2    1    1    2  501    0 -0.46338908399E+02 -0.40207996187E+02 -0.35209136775E+02  0.70736558450E+02  0.00000000000E+00 0.  1.
<scales pt_clust_3="111.79851" pt_clust_4="35.22398" pt_clust_5="138.52918" pt_clust_6="35.22398"></scales>
<clustering>
<clus scale="   35.224">  4  6 -1 -1</clus>
<clus scale="  111.799">  2  3  1 -1</clus>
<clus scale="  138.529">  1  5  2 -1</clus>
<clus scale="  138.529">  1  3  2 -1</clus>
</clustering>
</event>
<event>
 6    0  0.2433432E+002  0.7217694E+02  0.7546771E-02  0.1352843E+00
         21   -1    0    0  505  502  0.00000000000E+00  0.00000000000E+00  0.27158683390E+02  0.27158683390E+02  0.00000000000E+00 0. -1.
         -1   -1    0    0    0  501 -0.00000000000E+00 -0.00000000000E+00 -0.13066697418E+04  0.13066697418E+04  0.00000000000E+00 0. -1.
         21    1    1    2  503  502  0.33428055998E+02 -0.22619291294E+02 -0.46850203342E+02  0.61838570647E+02  0.00000000000E+00 0. -1.
         21    1    1    2  504  503 -0.86111304375E+02 -0.37872325560E+02 -0.19558373758E+03  0.21703103048E+03  0.00000000000E+00 0. -1.
         21    1    1    2  505  501 -0.15712713452E+02  0.46463983281E+02 -0.70616655176E+02  0.85979666751E+02  0.00000000000E+00 0. -1.
         -1    1    1    2    0  504  0.68395961828E+02  0.14027633573E+02 -0.96646046232E+03  0.96897915733E+03  0.00000000000E+00 0. -1.
<scales pt_clust_3="40.36171" pt_clust_4="14000.00000" pt_clust_5="37.72179" pt_clust_6="72.17694"></scales>
<clustering>
<clus scale="   40.362">  1  3  2 -1</clus>
<clus scale="   37.722">  1  5  2 -1</clus>
<clus scale="   72.177">  2  6  1 -1</clus>
<clus scale="   40.362">  1  3  2 -1</clus>
</clustering>
</event>
<event>
 6    0  0.2433432E+002  0.1055737E+03  0.7546771E-02  0.1268993E+00
          1   -1    0    0  504    0 -0.00000000000E+00  0.00000000000E+00  0.22472745317E+03  0.22472745317E+03  0.00000000000E+00 0. -1.
         21   -1    0    0  503  502  0.00000000000E+00 -0.00000000000E+00 -0.90994835951E+02  0.90994835951E+02  0.00000000000E+00 0. -1.
         21    1    1    2  503  501 -0.86317340292E+02  0.36188176760E+02 -0.10545723646E+02  0.94188532527E+02  0.00000000000E+00 0. -1.
         21    1    1    2  504  505  0.30907238406E+02 -0.73916562945E+02  0.73333505609E+02  0.10861270049E+03  0.00000000000E+00 0. -1.
         21    1    1    2  505  502  0.34956951679E+02 -0.92752148724E+01  0.34870280924E+02  0.50238974645E+02  0.00000000000E+00 0. -1.
          1    1    1    2  501    0  0.20453150207E+02  0.47003601057E+02  0.36074554335E+02  0.62682081461E+02  0.00000000000E+00 0. -1.
<scales pt_clust_3="94.22833" pt_clust_4="31.98878" pt_clust_5="31.98878" pt_clust_6="51.26080"></scales>
<clustering>
<clus scale="   31.989">  4  5 -1 -1</clus>
<clus scale="   51.261">  1  6  2 -1</clus>
<clus scale="   94.228">  2  3  1 -1</clus>
<clus scale="   94.228">  2  3  1 -1</clus>
</clustering>
</event>
<event>
 6    0  0.2433432E+002  0.9969634E+02  0.7546771E-02  0.1280936E+00
         -1   -1    0    0    0  501 -0.00000000000E+00  0.00000000000E+00  0.95006079008E+03  0.95006079008E+03  0.00000000000E+00 0. -1.
         21   -1    0    0  504  502  0.00000000000E+00 -0.00000000000E+00 -0.17133350320E+03  0.17133350320E+03  0.00000000000E+00 0.  1.
         21    1    1    2  503  502 -0.36043746032E+02 -0.13970301708E+02 -0.12148040507E+03  0.12748258616E+03  0.00000000000E+00 0.  1.
         21    1    1    2  504  501  0.14521875446E+03  0.25520180171E+02  0.10247809123E+03  0.17955925325E+03  0.00000000000E+00 0. -1.
         21    1    1    2  505  503 -0.64550177713E+02  0.18613358186E+01  0.13155307103E+03  0.14654828730E+03  0.00000000000E+00 0. -1.
         -1    1    1    2    0  505 -0.44624830719E+02 -0.13411214282E+02  0.66617652968E+03  0.66780416657E+03  0.00000000000E+00 0. -1.
<scales pt_clust_3="38.65645" pt_clust_4="14000.00000" pt_clust_5="99.69634" pt_clust_6="47.26598"></scales>
<clustering>
<clus scale="   38.656">  2  3  1 -1</clus>
<clus scale="   47.266">  1  6  2 -1</clus>
<clus scale="   99.696">  1  5  2 -1</clus>
<clus scale="   38.656">  2  3  1 -1</clus>
</clustering>
</event>
<event>
 6    0  0.2433432E+002  0.7218544E+02  0.7546771E-02  0.1352815E+00
         21   -1    0    0  505  502  0.00000000000E+00  0.00000000000E+00  0.50561121588E+03  0.50561121588E+03  0.00000000000E+00 0. -1.
         -2   -1    0    0    0  501 -0.00000000000E+00 -0.00000000000E+00 -0.82831616358E+02  0.82831616358E+02  0.00000000000E+00 0. -1.
         21    1    1    2  503  502  0.48273038799E+01 -0.34886362592E+02  0.41133510761E+02  0.54150963659E+02  0.00000000000E+00 0. -1.
         21    1    1    2  504  503 -0.48442139003E+02 -0.45785803479E+02  0.21219921160E+03  0.22242186502E+03  0.00000000000E+00 0. -1.
         21    1    1    2  505  501  0.77778387062E+02  0.15347526434E+02  0.21228709577E+03  0.22660722648E+03  0.00000000000E+00 0. -1.
         -2    1    1    2    0  504 -0.34163551939E+02  0.65324639637E+02 -0.42840218616E+02  0.85262777083E+02  0.00000000000E+00 0. -1.
<scales pt_clust_3="35.21876" pt_clust_4="70.07953" pt_clust_5="14000.00000" pt_clust_6="72.18544"></scales>
<clustering>
<clus scale="   35.219">  1  3  2 -1</clus>
<clus scale="   72.185">  2  6  1 -1</clus>
<clus scale="   70.080">  1  4  2 -1</clus>
<clus scale="   35.219">  1  3  2 -1</clus>
</clustering>
</event>
<event>
 6    0  0.2433432E+002  0.9670082E+02  0.7546771E-02  0.1287391E+00
         -4   -1    0    0    0  501 -0.00000000000E+00  0.00000000000E+00  0.80902854140E+03  0.80902854140E+03  0.00000000000E+00 0. -1.
         21   -1    0    0  501  502  0.00000000000E+00 -0.00000000000E+00 -0.30336042629E+03  0.30336042629E+03  0.00000000000E+00 0. -1.
         21    1    1    2  503  504  0.67485356323E+02  0.61998047774E+02  0.38369604320E+03  0.39448787663E+03  0.00000000000E+00 0.  1.
         21    1    1    2  504  505 -0.58094633519E+02 -0.59858881262E+02  0.88837973202E+02  0.12186163298E+03  0.00000000000E+00 0. -1.
         21    1    1    2  505  502  0.39318021568E+01 -0.38821952775E+02 -0.27887870307E+03  0.28159533752E+03  0.00000000000E+00 0. -1.
         -4    1    1    2    0  503 -0.13322524961E+02  0.36682786263E+02  0.31201280178E+03  0.31444412056E+03  0.00000000000E+00 0. -1.
<scales pt_clust_3="14000.00000" pt_clust_4="96.70082" pt_clust_5="39.02055" pt_clust_6="37.04160"></scales>
<clustering>
<clus scale="   39.021">  2  5  1 -1</clus>
<clus scale="   37.042">  1  6  2 -1</clus>
<clus scale="   96.701">  2  4  1 -1</clus>
<clus scale="   39.021">  2  3  1 -1</clus>
</clustering>
</event>
<event>
 6    0  0.2433432E+002  0.9999041E+02  0.7546771E-02  0.1280316E+00
         21   -1    0    0  505  502  0.00000000000E+00  0.00000000000E+00  0.53821553036E+03  0.53821553036E+03  0.00000000000E+00 0.  1.
          1   -1    0    0  502    0 -0.00000000000E+00 -0.00000000000E+00 -0.90195076195E+03  0.90195076195E+03  0.00000000000E+00 0.  1.
         21    1    1    2  503  504  0.38143506784E+02 -0.87483145094E+02  0.11931378667E+03  0.15278745850E+03  0.00000000000E+00 0.  1.
         21    1    1    2  504  501  0.52124571293E+02  0.10490852251E+03  0.52840488648E+02  0.12851025744E+03  0.00000000000E+00 0.  1.
         21    1    1    2  505  503 -0.57052656968E+02 -0.26892896683E+02  0.30793972813E+03  0.31433280090E+03  0.00000000000E+00 0.  1.
          1    1    1    2  501    0 -0.33215421108E+02  0.94675192660E+01 -0.84382923504E+03  0.84453577546E+03  0.00000000000E+00 0.  1.
<scales pt_clust_3="14000.00000" pt_clust_4="99.99041" pt_clust_5="64.52462" pt_clust_6="34.53836"></scales>
<clustering>
<clus scale="   34.538">  2  6  1 -1</clus>
<clus scale="   64.525">  1  5  2 -1</clus>
<clus scale="   99.990">  2  4  1 -1</clus>
<clus scale="   64.525">  1  3  2 -1</clus>
</clustering>
</event>
<event>
 6    0  0.2433432E+002  0.7193801E+02  0.7546771E-02  0.1353624E+00
          2   -1    0    0  505    0 -0.00000000000E+00  0.00000000000E+00  0.18495716710E+04  0.18495716710E+04  0.00000000000E+00 0. -1.
         21   -1    0    0  503  502  0.00000000000E+00 -0.00000000000E+00 -0.23763540426E+02  0.23763540426E+02  0.00000000000E+00 0.  1.
         21    1    1    2  503  501 -0.45719089597E+02  0.83764562970E+01  0.20603483236E+03  0.21121257614E+03  0.00000000000E+00 0. -1.
         21    1    1    2  504  502 -0.12452969515E+02 -0.30630389915E+02  0.34396546782E+02  0.47711839899E+02  0.00000000000E+00 0. -1.
         21    1    1    2  505  504  0.12594441747E+03  0.29838241688E+02  0.29393678047E+03  0.32117152407E+03  0.00000000000E+00 0.  1.
          2    1    1    2  501    0 -0.67772358359E+02 -0.75843080708E+01  0.12914399710E+04  0.12932392714E+04  0.00000000000E+00 0. -1.
<scales pt_clust_3="47.75052" pt_clust_4="33.06505" pt_clust_5="71.93801" pt_clust_6="14000.00000"></scales>
<clustering>
<clus scale="   33.065">  2  4  1 -1</clus>
<clus scale="   47.751">  2  3  1 -1</clus>
<clus scale="   71.938">  2  5  1 -1</clus>
<clus scale="   33.065">  2  3  1 -1</clus>
</clustering>
</event>
<event>
 6    0  0.2433432E+002  0.1508787E+03  0.7546771E-02  0.1199397E+00
         21   -1    0    0  501  502  0.00000000000E+00  0.00000000000E+00  0.40036105400E+03  0.40036105400E+03  0.00000000000E+00 0. -1.
          4   -1    0    0  503    0 -0.00000000000E+00 -0.00000000000E+00 -0.13953579545E+04  0.13953579545E+04  0.00000000000E+00 0.  1.
         21    1    1    2  503  505  0.34182033898E+02 -0.18622534608E+02 -0.12180705912E+03  0.12787560318E+03  0.00000000000E+00 0.  1.
         21    1    1    2  504  502 -0.52803071213E+02 -0.23062563368E+02  0.37308992728E+03  0.37751309910E+03  0.00000000000E+00 0. -1.
         21    1    1    2  505  504  0.20379533613E+02 -0.12855034224E+03 -0.83693086488E+03  0.84699102030E+03  0.00000000000E+00 0.  1.
          4    1    1    2  501    0 -0.17584962980E+01  0.17023544021E+03 -0.40934890380E+03  0.44333928594E+03  0.00000000000E+00 0.  1.
<scales pt_clust_3="38.92570" pt_clust_4="57.57831" pt_clust_5="150.87873" pt_clust_6="14000.00000"></scales>
<clustering>
<clus scale="   38.926">  2  3  1 -1</clus>
<clus scale="   57.578">  1  4  2 -1</clus>
<clus scale="  150.879">  2  5  1 -1</clus>
<clus scale="   57.578">  1  3  2 -1</clus>
</clustering>
</event>
<event>
 6    0  0.2433432E+002  0.1739968E+03  0.7546771E-02  0.1173743E+00
          3   -1    0    0  502    0 -0.00000000000E+00  0.00000000000E+00  0.21037007928E+03  0.21037007928E+03  0.00000000000E+00 0. -1.
         21   -1    0    0  504  502  0.00000000000E+00 -0.00000000000E+00 -0.15692173240E+04  0.15692173240E+04  0.00000000000E+00 0. -1.
         21    1    1    2  503  505  0.74685299707E+02  0.44014502109E+02 -0.85901546964E+03  0.86337868139E+03  0.00000000000E+00 0. -1.
         21    1    1    2  504  503  0.24234858442E+02  0.45279243410E+02 -0.33477929026E+03  0.33869560292E+03  0.00000000000E+00 0. -1.
         21    1    1    2  505  501  0.29352934926E+02 -0.13994139503E+02 -0.34359537457E+03  0.34513071749E+03  0.00000000000E+00 0. -1.
          3    1    1    2  501    0 -0.12827309308E+03 -0.75299606016E+02  0.17854288972E+03  0.23238240153E+03  0.00000000000E+00 0. -1.
<scales pt_clust_3="48.38975" pt_clust_4="48.38975" pt_clust_5="30.60434" pt_clust_6="148.74144"></scales>
<clustering>
<clus scale="   30.604">  3  5 -1 -1</clus>
<clus scale="   48.390">  3  4 -1 -1</clus>
<clus scale="  148.741">  1  6  2 -1</clus>
<clus scale="  173.997">  2  3  1 -1</clus>
</clustering>
</event>
<event>
 6    0  0.2433432E+002  0.1064800E+03  0.7546771E-02  0.1267231E+00
         21   -1    0    0  504  502  0.00000000000E+00  0.00000000000E+00  0.73058650643E+02  0.73058650643E+02  0.00000000000E+00 0.  1.
          2   -1    0    0  503    0 -0.00000000000E+00 -0.00000000000E+00 -0.75482190482E+03  0.75482190482E+03  0.00000000000E+00 0.  1.
         21    1    1    2  503  502 -0.32161588285E+02 -0.16284901192E+02 -0.49745636111E+01  0.36391098513E+02  0.00000000000E+00 0. -1.
         21    1    1    2  504  505  0.34980414957E+01 -0.35153807566E+02 -0.39867271586E+02  0.53267493130E+02  0.00000000000E+00 0.  1.
         21    1    1    2  505  501  0.12464647968E+03  0.86867357877E+02 -0.79469418591E+02  0.17145865756E+03  0.00000000000E+00 0.  1.
          2    1    1    2  501    0 -0.95982932890E+02 -0.35428649119E+02 -0.55745200039E+03  0.56676330626E+03  0.00000000000E+00 0.  1.
<scales pt_clust_3="39.84053" pt_clust_4="35.32742" pt_clust_5="106.48005" pt_clust_6="14000.00000"></scales>
<clustering>
<clus scale="   35.327">  1  4  2 -1</clus>
<clus scale="   39.841">  1  3  2 -1</clus>
<clus scale="  106.480">  1  5  2 -1</clus>
<clus scale="   35.327">  1  3  2 -1</clus>
</clustering>
</event>
<event>
 6    0  0.2433432E+002  0.9655638E+02  0.7546771E-02  0.1287709E+00
         21   -1    0    0  504  502  0.00000000000E+00  0.00000000000E+00  0.11719197095E+03  0.11719197095E+03  0.00000000000E+00 0. -1.
          1   -1    0    0  503    0 -0.00000000000E+00 -0.00000000000E+00 -0.57218918406E+03  0.57218918406E+03  0.00000000000E+00 0. -1.
         21    1    1    2  503  505 -0.86335077386E+02  0.33207207391E+02 -0.95882985128E+01  0.92996772408E+02  0.00000000000E+00 0. -1.
         21    1    1    2  504  501  0.31026557288E+02 -0.28374463003E+02 -0.17243483466E+02  0.45443317770E+02  0.00000000000E+00 0. -1.
         21    1    1    2  505  502  0.10646280436E+02  0.84588629192E+02  0.23429383409E+02  0.88416714951E+02  0.00000000000E+00 0. -1.
          1    1    1    2  501    0  0.44662239661E+02 -0.89421373580E+02 -0.45159481455E+03  0.46252434988E+03  0.00000000000E+00 0. -1.
<scales pt_clust_3="96.55638" pt_clust_4="42.04471" pt_clust_5="74.45240" pt_clust_6="14000.00000"></scales>
<clustering>
<clus scale="   42.045">  1  4  2 -1</clus>
<clus scale="   74.452">  1  5  2 -1</clus>
<clus scale="   96.556">  1  3  2 -1</clus>
<clus scale="   42.045">  1  3  2 -1</clus>
</clustering>
</event>
<event>
 6    0  0.2433432E+002  0.1061833E+03  0.7546771E-02  0.1267806E+00
         21   -1    0    0  501  502  0.00000000000E+00  0.00000000000E+00  0.12986381037E+02  0.12986381037E+02  0.00000000000E+00 0. -1.
          2   -1    0    0  504    0 -0.00000000000E+00 -0.00000000000E+00 -0.31475153879E+04  0.31475153879E+04  0.00000000000E+00 0. -1.
         21    1    1    2  503  502  0.75371478265E+02  0.10518070018E+03 -0.52585431654E+03  0.54154095103E+03  0.00000000000E+00 0. -1.
         21    1    1    2  504  505 -0.44942307046E+02  0.22271567946E+02 -0.81921363986E+03  0.82074772095E+03  0.00000000000E+00 0. -1.
         21    1    1    2  505  503  0.58564104018E+01 -0.94078983510E+02 -0.56884892344E+03  0.57660580155E+03  0.00000000000E+00 0. -1.
          2    1    1    2  501    0 -0.36285581621E+02 -0.33373284612E+02 -0.12206121270E+04  0.12216072954E+04  0.00000000000E+00 0. -1.
<scales pt_clust_3="106.18329" pt_clust_4="60.92371" pt_clust_5="14000.00000" pt_clust_6="49.29929"></scales>
<clustering>
<clus scale="   49.299">  2  6  1 -1</clus>
<clus scale="   60.924">  2  4  1 -1</clus>
<clus scale="  106.183">  1  3  2 -1</clus>
<clus scale="  106.183">  1  3  2 -1</clus>
</clustering>
</event>
<event>
 6    0  0.2433432E+002  0.8645783E+02  0.7546771E-02  0.1311664E+00
          2   -1    0    0  504    0 -0.00000000000E+00  0.00000000000E+00  0.12462660779E+04  0.12462660779E+04  0.00000000000E+00 0. -1.
         21   -1    0    0  501  502  0.00000000000E+00 -0.00000000000E+00 -0.51937408068E+02  0.51937408068E+02  0.00000000000E+00 0.  1.
         21    1    1    2  503  502  0.18193459022E+02 -0.34321758115E+02 -0.26172685539E+02  0.46840095000E+02  0.00000000000E+00 0.  1.
         21    1    1    2  504  505 -0.11128872923E+02  0.98335649695E+02  0.86191914876E+03  0.86758191015E+03  0.00000000000E+00 0. -1.
         21    1    1    2  505  503 -0.58428641436E+02 -0.11291257382E+02  0.11746237612E+03  0.13167690928E+03  0.00000000000E+00 0.  1.
          2    1    1    2  501    0  0.51364055337E+02 -0.52722634198E+02  0.24111983050E+03  0.25210457155E+03  0.00000000000E+00 0. -1.
<scales pt_clust_3="38.84566" pt_clust_4="86.45783" pt_clust_5="56.91465" pt_clust_6="14000.00000"></scales>
<clustering>
<clus scale="   38.846">  2  3  1 -1</clus>
<clus scale="   56.915">  2  5  1 -1</clus>
<clus scale="   86.458">  1  4  2 -1</clus>
<clus scale="   38.846">  2  3  1 -1</clus>
</clustering>
</event>
<event>
 6    0  0.2433432E+002  0.1513594E+03  0.7546771E-02  0.1198812E+00
         -1   -1    0    0    0  501 -0.00000000000E+00  0.00000000000E+00  0.30921174567E+03  0.30921174567E+03  0.00000000000E+00 0.  1.
         21   -1    0    0  505  502  0.00000000000E+00 -0.00000000000E+00 -0.53078704853E+03  0.53078704853E+03  0.00000000000E+00 0.  1.
         21    1    1    2  503  502  0.47683350440E+02 -0.70028067827E+02 -0.35215741198E+03  0.36220501792E+03  0.00000000000E+00 0.  1.
         21    1    1    2  504  501  0.39977998811E+02  0.59897501155E+02 -0.21429692919E+02  0.75134431335E+02  0.00000000000E+00 0.  1.
         21    1    1    2  505  504  0.37946382606E+02  0.81177551780E+02 -0.86075224443E+02  0.12425243309E+03  0.00000000000E+00 0.  1.
         -1    1    1    2    0  503 -0.12560773186E+03 -0.71046985108E+02  0.23808702647E+03  0.27840691186E+03  0.00000000000E+00 0.  1.
<scales pt_clust_3="84.72091" pt_clust_4="42.27116" pt_clust_5="42.27116" pt_clust_6="143.82711"></scales>
<clustering>
<clus scale="   42.271">  4  5 -1 -1</clus>
<clus scale="   84.721">  2  3  1 -1</clus>
<clus scale="  143.827">  1  6  2 -1</clus>
<clus scale="   84.721">  2  3  1 -1</clus>
</clustering>
</event>
<event>
 6    0  0.2433432E+002  0.1704302E+03  0.7546771E-02  0.1177400E+00
          2   -1    0    0  503    0 -0.00000000000E+00  0.00000000000E+00  0.34872489551E+04  0.34872489551E+04  0.00000000000E+00 0. -1.
         21   -1    0    0  504  502  0.00000000000E+00 -0.00000000000E+00 -0.15277034394E+02  0.15277034394E+02  0.00000000000E+00 0. -1.
         21    1    1    2  503  502 -0.93722604667E+02  0.10743346683E+03  0.98997689849E+03  0.10001900499E+04  0.00000000000E+00 0. -1.
         21    1    1    2  504  505  0.86158438610E+02 -0.25027099214E+02  0.32592725913E+03  0.33805060343E+03  0.00000000000E+00 0. -1.
         21    1    1    2  505  501  0.78042417645E+02 -0.45274203720E+02  0.66520651916E+03  0.67129731536E+03  0.00000000000E+00 0. -1.
          2    1    1    2  501    0 -0.70478251588E+02 -0.37132163897E+02  0.14908612439E+04  0.14929880208E+04  0.00000000000E+00 0. -1.
<scales pt_clust_3="156.56816" pt_clust_4="67.13811" pt_clust_5="67.13811" pt_clust_6="79.66167"></scales>
<clustering>
<clus scale="   67.138">  4  5 -1 -1</clus>
<clus scale="   79.662">  1  6  2 -1</clus>
<clus scale="  156.568">  1  3  2 -1</clus>
<clus scale="  170.430">  2  3  1 -1</clus>
</clustering>
</event>
<event>
 6    0  0.2433432E+002  0.1362485E+03  0.7546771E-02  0.1218468E+00
         21   -1    0    0  501  502  0.00000000000E+00  0.00000000000E+00  0.17081711078E+03  0.17081711078E+03  0.00000000000E+00 0. -1.
         -1   -1    0    0    0  501 -0.00000000000E+00 -0.00000000000E+00 -0.10790348874E+04  0.10790348874E+04  0.00000000000E+00 0. -1.
         21    1    1    2  503  502 -0.19431030961E+02 -0.23389368064E+02  0.20606439674E+02  0.36732177429E+02  0.00000000000E+00 0. -1.
         21    1    1    2  504  503 -0.44149431993E+02  0.58127547529E+02  0.73323255307E+02  0.10346150925E+03  0.00000000000E+00 0. -1.
         21    1    1    2  505  504 -0.15222311912E+02  0.66093992822E+02  0.26694098825E+02  0.72888336373E+02  0.00000000000E+00 0. -1.
         -1    1    1    2    0  505  0.78802774866E+02 -0.10083217229E+03 -0.10288415704E+04  0.10367699751E+04  0.00000000000E+00 0. -1.
<scales pt_clust_3="30.40769" pt_clust_4="43.16545" pt_clust_5="43.16545" pt_clust_6="128.15561"></scales>
<clustering>
<clus scale="   30.408">  1  3  2 -1</clus>
<clus scale="   43.165">  4  5 -1 -1</clus>
<clus scale="  128.156">  2  6  1 -1</clus>
<clus scale="   30.408">  1  3  2 -1</clus>
</clustering>
</event>
<event>
 6    0  0.2433432E+002  0.7723423E+02  0.7546771E-02  0.1337089E+00
          2   -1    0    0  504    0 -0.00000000000E+00  0.00000000000E+00  0.19100359534E+04  0.19100359534E+04  0.00000000000E+00 0.  1.
         21   -1    0    0  501  502  0.00000000000E+00 -0.00000000000E+00 -0.28525749846E+03  0.28525749846E+03  0.00000000000E+00 0. -1.
         21    1    1    2  503  505  0.39717408276E+02  0.43262340365E+02  0.13691284241E+03  0.14897727689E+03  0.00000000000E+00 0. -1.
         21    1    1    2  504  503 -0.22001902836E+02 -0.41449649912E+02  0.24697102948E+03  0.25138982996E+03  0.00000000000E+00 0.  1.
         21    1    1    2  505  502 -0.29202959889E+01  0.77174904869E+02 -0.27054482741E+03  0.28135208851E+03  0.00000000000E+00 0. -1.
          2    1    1    2  501    0 -0.14795209451E+02 -0.78987595322E+02  0.15114394105E+04  0.15135742565E+04  0.00000000000E+00 0.  1.
<scales pt_clust_3="54.82993" pt_clust_4="46.92715" pt_clust_5="14000.00000" pt_clust_6="77.23423"></scales>
<clustering>
<clus scale="   46.927">  1  4  2 -1</clus>
<clus scale="   54.830">  1  3  2 -1</clus>
<clus scale="   77.234">  1  6  2 -1</clus>
<clus scale="   77.234">  2  3  1 -1</clus>
</clustering>
</event>
<event>
 6    0  0.2433432E+002  0.2057969E+03  0.7546771E-02  0.1144938E+00
         21   -1    0    0  504  502  0.00000000000E+00  0.00000000000E+00  0.15260407964E+04  0.15260407964E+04  0.00000000000E+00 0. -1.
         -1   -1    0    0    0  501 -0.00000000000E+00 -0.00000000000E+00 -0.10276648065E+03  0.10276648065E+03  0.00000000000E+00 0.  1.
         21    1    1    2  503  501  0.12597930094E+03  0.22275155223E+03  0.30678939435E+03  0.39951066415E+03  0.00000000000E+00 0. -1.
         21    1    1    2  504  503  0.94048564008E+02 -0.18032370613E+02  0.22061297807E+03  0.24050028040E+03  0.00000000000E+00 0. -1.
         21    1    1    2  505  502 -0.32573716023E+02 -0.14579078745E+03  0.68279517468E+03  0.69894581424E+03  0.00000000000E+00 0. -1.
         -1    1    1    2    0  505 -0.18745414892E+03 -0.58928394167E+02  0.21307676861E+03  0.28985051822E+03  0.00000000000E+00 0.  1.
<scales pt_clust_3="14000.00000" pt_clust_4="95.76168" pt_clust_5="156.39865" pt_clust_6="205.79689"></scales>
<clustering>
<clus scale="   95.762">  1  4  2 -1</clus>
<clus scale="  156.399">  1  5  2 -1</clus>
<clus scale="  205.797">  2  6  1 -1</clus>
<clus scale="   95.762">  1  3  2 -1</clus>
</clustering>
</event>
<event>
 6    0  0.2433432E+002  0.3364841E+03  0.7546771E-02  0.1068303E+00
         21   -1    0    0  504  502  0.00000000000E+00  0.00000000000E+00  0.88417362001E+03  0.88417362001E+03  0.00000000000E+00 0. -1.
          1   -1    0    0  505    0 -0.00000000000E+00 -0.00000000000E+00 -0.24229620786E+03  0.24229620786E+03  0.00000000000E+00 0. -1.
         21    1    1    2  503  501 -0.27254576013E+02 -0.67005531956E+02  0.13304390571E+02  0.73549711317E+02  0.00000000000E+00 0. -1.
         21    1    1    2  504  503 -0.88932025584E+02 -0.97408253562E+02 -0.17479575375E+02  0.13305190187E+03  0.00000000000E+00 0. -1.
         21    1    1    2  505  502  0.15915127089E+03  0.27582323384E+03  0.71448766526E+03  0.78224050468E+03  0.00000000000E+00 0. -1.
          1    1    1    2  501    0 -0.42964669296E+02 -0.11140944832E+03 -0.68435068313E+02  0.13762770999E+03  0.00000000000E+00 0. -1.
<scales pt_clust_3="34.22280" pt_clust_4="68.27054" pt_clust_5="318.44557" pt_clust_6="68.27054"></scales>
<clustering>
<clus scale="   34.223">  3  4 -1 -1</clus>
<clus scale="   68.271">  3  6 -1 -1</clus>
<clus scale="  318.446">  1  5  2 -1</clus>
<clus scale="  318.446">  1  3  2 -1</clus>
</clustering>
</event>
<event>
 6    0  0.2433432E+002  0.7730498E+02  0.7546771E-02  0.1336878E+00
          1   -1    0    0  504    0 -0.00000000000E+00  0.00000000000E+00  0.11117520762E+04  0.11117520762E+04  0.00000000000E+00 0. -1.
         21   -1    0    0  505  502  0.00000000000E+00 -0.00000000000E+00 -0.20569818043E+03  0.20569818043E+03  0.00000000000E+00 0.  1.
         21    1    1    2  503  502  0.12965001806E+03 -0.21976316465E+01 -0.14441121726E+02  0.13047031373E+03  0.00000000000E+00 0.  1.
         21    1    1    2  504  503 -0.80914570278E+01  0.37740483341E+02  0.72216416467E+02  0.81884226607E+02  0.00000000000E+00 0.  1.
         21    1    1    2  505  501 -0.59384967438E+02 -0.22351755087E+02 -0.11946336820E+03  0.13526888650E+03  0.00000000000E+00 0.  1.
          1    1    1    2  501    0 -0.62173593598E+02 -0.13191096608E+02  0.96774196923E+03  0.96982682979E+03  0.00000000000E+00 0. -1.
<scales pt_clust_3="14000.00000" pt_clust_4="38.59813" pt_clust_5="63.40912" pt_clust_6="77.30498"></scales>
<clustering>
<clus scale="   38.598">  1  4  2 -1</clus>
<clus scale="   63.409">  2  5  1 -1</clus>
<clus scale="   77.305">  1  6  2 -1</clus>
<clus scale="   63.409">  2  3  1 -1</clus>
</clustering>
</event>
<event>
 6    0  0.2433432E+002  0.1170147E+03  0.7546771E-02  0.1248105E+00
         -1   -1    0    0    0  501 -0.00000000000E+00  0.00000000000E+00  0.15748075306E+03  0.15748075306E+03  0.00000000000E+00 0.  1.
         21   -1    0    0  505  502  0.00000000000E+00 -0.00000000000E+00 -0.15192689308E+04  0.15192689308E+04  0.00000000000E+00 0. -1.
         21    1    1    2  503  502  0.40849966290E+02  0.80543191253E+02 -0.37861685589E+03  0.38923855021E+03  0.00000000000E+00 0. -1.
         21    1    1    2  504  503 -0.19075438694E+02 -0.11054040403E+03 -0.82201816082E+03  0.82963661322E+03  0.00000000000E+00 0. -1.
         21    1    1    2  505  501 -0.37638413942E+02 -0.88133209364E+02 -0.27611706932E+03  0.29227512513E+03  0.00000000000E+00 0. -1.
         -1    1    1    2    0  504  0.15863886345E+02  0.11813042214E+03  0.11496390828E+03  0.16559939532E+03  0.00000000000E+00 0.  1.
<scales pt_clust_3="90.31016" pt_clust_4="53.03263" pt_clust_5="117.01472" pt_clust_6="14000.00000"></scales>
<clustering>
<clus scale="   90.310">  2  3  1 -1</clus>
<clus scale="   53.033">  2  4  1 -1</clus>
<clus scale="  117.015">  2  5  1 -1</clus>
<clus scale="   90.310">  2  3  1 -1</clus>
</clustering>
</event>
<event>
 6    0  0.2433432E+002  0.9788478E+02  0.7546771E-02  0.1284808E+00
         21   -1    0    0  505  502  0.00000000000E+00  0.00000000000E+00  0.26906895304E+02  0.26906895304E+02  0.00000000000E+00 0. -1.
          1   -1    0    0  503    0 -0.00000000000E+00 -0.00000000000E+00 -0.26549533195E+04  0.26549533195E+04  0.00000000000E+00 0.  1.
         21    1    1    2  503  504  0.36270329114E+02  0.61506835111E+02 -0.15637161586E+03  0.17190319888E+03  0.00000000000E+00 0. -1.
         21    1    1    2  504  502  0.22719775770E+02  0.60557598126E+02 -0.52303218440E+02  0.83180752347E+02  0.00000000000E+00 0. -1.
         21    1    1    2  505  501 -0.29866883097E+02 -0.49127962595E+02 -0.27397342229E+03  0.27994110726E+03  0.00000000000E+00 0. -1.
          1    1    1    2  501    0 -0.29123221788E+02 -0.72936470643E+02 -0.21453981676E+04  0.21468351563E+04  0.00000000000E+00 0.  1.
<scales pt_clust_3="53.35767" pt_clust_4="53.35767" pt_clust_5="57.49424" pt_clust_6="80.23935"></scales>
<clustering>
<clus scale="   53.358">  3  4 -1 -1</clus>
<clus scale="   57.494">  1  5  2 -1</clus>
<clus scale="   80.239">  2  6  1 -1</clus>
<clus scale="   57.494">  1  3  2 -1</clus>
</clustering>
</event>
<event>
 6    0  0.2433432E+002  0.1477020E+03  0.7546771E-02  0.1203325E+00
         21   -1    0    0  503  502  0.00000000000E+00  0.00000000000E+00  0.99440924416E+02  0.99440924416E+02  0.00000000000E+00 0. -1.
         -1   -1    0    0    0  501 -0.00000000000E+00 -0.00000000000E+00 -0.13316226304E+04  0.13316226304E+04  0.00000000000E+00 0. -1.
         21    1    1    2  503  501  0.53094522715E+02 -0.59766648353E+00 -0.10424445845E+03  0.11698842962E+03  0.00000000000E+00 0. -1.
         21    1    1    2  504  502 -0.36931225775E+02  0.80052698397E+02  0.40918197144E+02  0.97193872314E+02  0.00000000000E+00 0. -1.
         21    1    1    2  505  504 -0.10697027712E+02  0.51159945117E+02 -0.13269785373E+02  0.53924517523E+02  0.00000000000E+00 0.  1.
         -1    1    1    2    0  505 -0.54662692287E+01 -0.13061497703E+03 -0.11555856593E+04  0.11629567353E+04  0.00000000000E+00 0. -1.
<scales pt_clust_3="53.09789" pt_clust_4="39.16350" pt_clust_5="39.16350" pt_clust_6="138.66784"></scales>
<clustering>
<clus scale="   39.163">  4  5 -1 -1</clus>
<clus scale="   53.098">  2  3  1 -1</clus>
<clus scale="  138.668">  2  6  1 -1</clus>
<clus scale="  147.702">  1  3  2 -1</clus>
</clustering>
</event>
<event>
 6    0  0.2433432E+002  0.8063534E+02  0.7546771E-02  0.1327258E+00
         21   -1    0    0  503  502  0.00000000000E+00  0.00000000000E+00  0.10056197240E+02  0.10056197240E+02  0.00000000000E+00 0.  1.
          2   -1    0    0  504    0 -0.00000000000E+00 -0.00000000000E+00 -0.33355614539E+04  0.33355614539E+04  0.00000000000E+00 0.  1.
         21    1    1    2  503  505  0.10522399228E+02  0.10002960665E+03 -0.42549623773E+03  0.43722270231E+03  0.00000000000E+00 0.  1.
         21    1    1    2  504  502 -0.51131494307E+02 -0.49579091605E+02 -0.41343677839E+03  0.41952650185E+03  0.00000000000E+00 0. -1.
         21    1    1    2  505  501 -0.69132130049E+01 -0.48473610594E+02 -0.72361550551E+03  0.72527021396E+03  0.00000000000E+00 0.  1.
          2    1    1    2  501    0  0.47522308084E+02 -0.19769044508E+01 -0.17629567350E+04  0.17635982330E+04  0.00000000000E+00 0.  1.
<scales pt_clust_3="80.63534" pt_clust_4="14000.00000" pt_clust_5="51.60737" pt_clust_6="47.56341"></scales>
<clustering>
<clus scale="   47.563">  2  6  1 -1</clus>
<clus scale="   51.607">  2  5  1 -1</clus>
<clus scale="   80.635">  2  3  1 -1</clus>
<clus scale="   80.635">  1  3  2 -1</clus>
</clustering>
</event>
<event>
 6    0  0.2433432E+002  0.9794186E+02  0.7546771E-02  0.1284684E+00
         21   -1    0    0  503  502  0.00000000000E+00  0.00000000000E+00  0.81821676065E+03  0.81821676065E+03  0.00000000000E+00 0. -1.
          2   -1    0    0  504    0 -0.00000000000E+00 -0.00000000000E+00 -0.14876214410E+03  0.14876214410E+03  0.00000000000E+00 0.  1.
         21    1    1    2  503  501 -0.73669345655E+02 -0.27724787103E+02  0.53017511273E+03  0.53598646109E+03  0.00000000000E+00 0. -1.
         21    1    1    2  504  505  0.78362311026E+02 -0.25638899927E+01  0.17971245515E+03  0.19607088478E+03  0.00000000000E+00 0. -1.
         21    1    1    2  505  502  0.64702071801E+02  0.13026710606E+02  0.74517412675E+02  0.99543448184E+02  0.00000000000E+00 0. -1.
          2    1    1    2  501    0 -0.69395037173E+02  0.17261966490E+02 -0.11495036400E+03  0.13537811070E+03  0.00000000000E+00 0.  1.
<scales pt_clust_3="86.10742" pt_clust_4="42.81978" pt_clust_5="42.81978" pt_clust_6="71.50977"></scales>
<clustering>
<clus scale="   42.820">  4  5 -1 -1</clus>
<clus scale="   71.510">  2  6  1 -1</clus>
<clus scale="   86.107">  1  3  2 -1</clus>
<clus scale="   86.107">  1  3  2 -1</clus>
</clustering>
</event>
<event>
 6    0  0.2433432E+002  0.2264727E+03  0.7546771E-02  0.1129147E+00
          1   -1    0    0  502    0 -0.00000000000E+00  0.00000000000E+00  0.13945535183E+04  0.13945535183E+04  0.00000000000E+00 0. -1.
         21   -1    0    0  503  502  0.00000000000E+00 -0.00000000000E+00 -0.43795404329E+02  0.43795404329E+02  0.00000000000E+00 0. -1.
         21    1    1    2  503  505 -0.24367333707E+02 -0.20704886175E+02  0.38991557787E+02  0.50426192025E+02  0.00000000000E+00 0.  1.
         21    1    1    2  504  501  0.10209624004E+03 -0.26224865721E+02  0.21567325944E+03  0.24005487008E+03  0.00000000000E+00 0. -1.
         21    1    1    2  505  504  0.39584118825E+02 -0.11496051991E+03  0.24375190143E+03  0.27239275514E+03  0.00000000000E+00 0. -1.
          1    1    1    2  501    0 -0.11731302516E+03  0.16189027181E+03  0.85234139534E+03  0.87547510541E+03  0.00000000000E+00 0. -1.
<scales pt_clust_3="31.97592" pt_clust_4="95.39295" pt_clust_5="95.39295" pt_clust_6="199.41276"></scales>
<clustering>
<clus scale="   31.976">  2  3  1 -1</clus>
<clus scale="   95.393">  4  5 -1 -1</clus>
<clus scale="  199.413">  1  6  2 -1</clus>
<clus scale="   31.976">  2  3  1 -1</clus>
</clustering>
</event>
<event>
 6    0  0.2433432E+002  0.1312830E+03  0.7546771E-02  0.1225564E+00
         21   -1    0    0  504  502  0.00000000000E+00  0.00000000000E+00  0.58125115513E+03  0.58125115513E+03  0.00000000000E+00 0.  1.
         -2   -1    0    0    0  501 -0.00000000000E+00 -0.00000000000E+00 -0.11175600215E+04  0.11175600215E+04  0.00000000000E+00 0. -1.
         21    1    1    2  503  502  0.98806824771E+02 -0.41532742084E+02  0.24553557245E+03  0.26790945228E+03  0.00000000000E+00 0.  1.
         21    1    1    2  504  501 -0.10138835306E+03  0.25122006347E+02  0.26056707049E+03  0.28072390629E+03  0.00000000000E+00 0. -1.
         21    1    1    2  505  503  0.35226264864E+02 -0.29226408306E+02  0.43305752543E+02  0.63011593236E+02  0.00000000000E+00 0.  1.
         -2    1    1    2    0  505 -0.32644736575E+02  0.45637144043E+02 -0.10857172619E+04  0.10871662248E+04  0.00000000000E+00 0. -1.
<scales pt_clust_3="36.43012" pt_clust_4="118.85927" pt_clust_5="36.43012" pt_clust_6="56.11085"></scales>
<clustering>
<clus scale="   36.430">  3  5 -1 -1</clus>
<clus scale="   56.111">  2  6  1 -1</clus>
<clus scale="  118.859">  1  4  2 -1</clus>
<clus scale="  118.859">  1  3  2 -1</clus>
</clustering>
</event>
<event>
 6    0  0.2433432E+002  0.1572682E+03  0.7546771E-02  0.1191816E+00
         21   -1    0    0  501  502  0.00000000000E+00  0.00000000000E+00  0.31209136392E+03  0.31209136392E+03  0.00000000000E+00 0.  1.
          2   -1    0    0  505    0 -0.00000000000E+00 -0.00000000000E+00 -0.10991651238E+04  0.10991651238E+04  0.00000000000E+00 0.  1.
         21    1    1    2  503  502  0.19859879114E+02 -0.49570559424E+02  0.28517406620E+03  0.29013083806E+03  0.00000000000E+00 0.  1.
         21    1    1    2  504  503 -0.61197346078E+02 -0.48054028105E+02 -0.11065483075E+03  0.13527304370E+03  0.00000000000E+00 0.  1.
         21    1    1    2  505  504 -0.31550644408E+02 -0.44141799813E+02 -0.17297207593E+03  0.18128232320E+03  0.00000000000E+00 0.  1.
          2    1    1    2  501    0  0.72888111372E+02  0.14176638734E+03 -0.78862091941E+03  0.80457028275E+03  0.00000000000E+00 0.  1.
<scales pt_clust_3="53.40089" pt_clust_4="43.07485" pt_clust_5="43.07485" pt_clust_6="148.56806"></scales>
<clustering>
<clus scale="   43.075">  4  5 -1 -1</clus>
<clus scale="   53.401">  1  3  2 -1</clus>
<clus scale="  148.568">  2  6  1 -1</clus>
<clus scale="   53.401">  1  3  2 -1</clus>
</clustering>
</event>
<event>
 6    0  0.2433432E+002  0.1044003E+03  0.7546771E-02  0.1271306E+00
         21   -1    0    0  504  502  0.00000000000E+00  0.00000000000E+00  0.17761358395E+03  0.17761358395E+03  0.00000000000E+00 0. -1.
          2   -1    0    0  503    0 -0.00000000000E+00 -0.00000000000E+00 -0.10104341541E+04  0.10104341541E+04  0.00000000000E+00 0.  1.
         21    1    1    2  503  505 -0.35931505083E+02  0.21361283873E+01  0.44463360183E+02  0.57206874594E+02  0.00000000000E+00 0. -1.
         21    1    1    2  504  501 -0.30923645011E+02  0.75393267660E+02 -0.16738347063E+02  0.83190076882E+02  0.00000000000E+00 0. -1.
         21    1    1    2  505  502 -0.29866303062E+02 -0.28857658799E+02  0.85698806779E+02  0.95231538963E+02  0.00000000000E+00 0. -1.
          2    1    1    2  501    0  0.96721453156E+02 -0.48671737248E+02 -0.94624439001E+03  0.95241924756E+03  0.00000000000E+00 0.  1.
<scales pt_clust_3="32.93983" pt_clust_4="104.40029" pt_clust_5="79.34280" pt_clust_6="14000.00000"></scales>
<clustering>
<clus scale="   32.940">  3  5 -1 -1</clus>
<clus scale="   79.343">  1  3  2 -1</clus>
<clus scale="  104.400">  1  4  2 -1</clus>
<clus scale="   79.343">  1  3  2 -1</clus>
</clustering>
</event>
<event>
 6    0  0.2433432E+002  0.6010518E+02  0.7546771E-02  0.1397391E+00
         21   -1    0    0  505  502  0.00000000000E+00  0.00000000000E+00  0.64368924667E+02  0.64368924667E+02  0.00000000000E+00 0. -1.
          2   -1    0    0  504    0 -0.00000000000E+00 -0.00000000000E+00 -0.24677238619E+04  0.24677238619E+04  0.00000000000E+00 0.  1.
         21    1    1    2  503  501 -0.67828318214E+02 -0.34706895330E+02 -0.23046191757E+03  0.24273018928E+03  0.00000000000E+00 0.  1.
         21    1    1    2  504  502  0.92881371297E+02 -0.34933070320E+02 -0.16503562835E+02  0.10059640213E+03  0.00000000000E+00 0. -1.
         21    1    1    2  505  503 -0.41705236446E+02  0.30671526740E+02 -0.25956995414E+02  0.57912303619E+02  0.00000000000E+00 0.  1.
          2    1    1    2  501    0  0.16652183363E+02  0.38968438910E+02 -0.21304324614E+04  0.21308538916E+04  0.00000000000E+00 0.  1.
<scales pt_clust_3="14000.00000" pt_clust_4="60.10518" pt_clust_5="53.22078" pt_clust_6="42.37729"></scales>
<clustering>
<clus scale="   42.377">  2  6  1 -1</clus>
<clus scale="   53.221">  1  5  2 -1</clus>
<clus scale="   60.105">  1  4  2 -1</clus>
<clus scale="   53.221">  1  3  2 -1</clus>
</clustering>
</event>
<event>
 6    0  0.7070514E+002  0.7202016E+02  0.7546771E-02  0.1353355E+00
          2   -1    0    0  503    0 -0.00000000000E+00  0.00000000000E+00  0.82141053308E+03  0.82141053308E+03  0.00000000000E+00 0. -1.
         21   -1    0    0  505  502  0.00000000000E+00 -0.00000000000E+00 -0.49705210904E+03  0.49705210904E+03  0.00000000000E+00 0. -1.
         21    1    1    2  503  504  0.34786978195E+02 -0.69812347816E+02 -0.45123394579E+02  0.90111145248E+02  0.00000000000E+00 0. -1.
         21    1    1    2  504  502 -0.66573958315E+01  0.48949873159E+02 -0.64214343686E+01  0.49816120090E+02  0.00000000000E+00 0. -1.
         21    1    1    2  505  501 -0.24932369269E+02 -0.51100664672E+02 -0.39762027354E+03  0.40166501328E+03  0.00000000000E+00 0. -1.
          2    1    1    2  501    0 -0.31972130953E+01  0.71963139329E+02  0.77352352653E+03  0.77687036350E+03  0.00000000000E+00 0. -1.
<scales pt_clust_3="72.02016" pt_clust_4="49.40052" pt_clust_5="32.01226" pt_clust_6="14000.00000"></scales>
<clustering>
<clus scale="   49.401">  2  4  1 -1</clus>
<clus scale="   32.012">  2  5  1 -1</clus>
<clus scale="   72.020">  2  3  1 -1</clus>
<clus scale="   49.401">  2  3  1 -1</clus>
</clustering>
</event>
<event>
 6    0  0.2433432E+002  0.1209985E+03  0.7546771E-02  0.1241459E+00
         -2   -1    0    0    0  501 -0.00000000000E+00  0.00000000000E+00  0.10944240146E+04  0.10944240146E+04  0.00000000000E+00 0. -1.
         21   -1    0    0  504  502  0.00000000000E+00 -0.00000000000E+00 -0.38960788159E+02  0.38960788159E+02  0.00000000000E+00 0. -1.
         21    1    1    2  503  501 -0.39495333153E+02 -0.44009322909E+02  0.98187687929E+02  0.11461903814E+03  0.00000000000E+00 0. -1.
         21    1    1    2  504  505  0.12355523471E+03  0.34668060526E+02  0.19198709329E+03  0.23092599341E+03  0.00000000000E+00 0. -1.
         21    1    1    2  505  503  0.54921309031E+01 -0.63208028387E+02  0.16903667621E+03  0.18055142275E+03  0.00000000000E+00 0. -1.
         -2    1    1    2    0  502 -0.89552032461E+02  0.72549290770E+02  0.59625176902E+03  0.60728834846E+03  0.00000000000E+00 0. -1.
<scales pt_clust_3="53.44714" pt_clust_4="107.59033" pt_clust_5="53.44714" pt_clust_6="115.25175"></scales>
<clustering>
<clus scale="   53.447">  3  5 -1 -1</clus>
<clus scale="  115.252">  1  6  2 -1</clus>
<clus scale="  107.590">  2  4  1 -1</clus>
<clus scale="  107.590">  2  3  1 -1</clus>
</clustering>
</event>
<event>
 6    0  0.2433432E+002  0.1066079E+03  0.7546771E-02  0.1266984E+00
          1   -1    0    0  503    0 -0.00000000000E+00  0.00000000000E+00  0.19757764885E+04  0.19757764885E+04  0.00000000000E+00 0. -1.
         21   -1    0    0  504  502  0.00000000000E+00 -0.00000000000E+00 -0.32794783631E+02  0.32794783631E+02  0.00000000000E+00 0. -1.
         21    1    1    2  503  502 -0.49632540243E+02  0.57121788844E+02  0.59823993965E+03  0.60300689317E+03  0.00000000000E+00 0. -1.
         21    1    1    2  504  505 -0.36859987898E+02 -0.24989638404E+02  0.93961464246E+01  0.45512946543E+02  0.00000000000E+00 0. -1.
         21    1    1    2  505  501 -0.43693895504E+02 -0.28789549228E+02  0.66875015300E+02  0.84913263513E+02  0.00000000000E+00 0. -1.
          1    1    1    2  501    0  0.13018642364E+03 -0.33426012121E+01  0.12684706035E+04  0.12751381690E+04  0.00000000000E+00 0. -1.
<scales pt_clust_3="75.67224" pt_clust_4="39.27611" pt_clust_5="39.27611" pt_clust_6="97.73780"></scales>
<clustering>
<clus scale="   39.276">  4  5 -1 -1</clus>
<clus scale="   75.672">  1  3  2 -1</clus>
<clus scale="   97.738">  1  6  2 -1</clus>
<clus scale="  106.608">  2  3  1 -1</clus>
</clustering>
</event>
<event>
 6    0  0.2433432E+002  0.1764247E+03  0.7546771E-02  0.1171309E+00
          2   -1    0    0  505    0 -0.00000000000E+00  0.00000000000E+00  0.13239605917E+04  0.13239605917E+04  0.00000000000E+00 0. -1.
         21   -1    0    0  501  502  0.00000000000E+00 -0.00000000000E+00 -0.35079497854E+02  0.35079497854E+02  0.00000000000E+00 0. -1.
         21    1    1    2  503  504 -0.26140051757E+02 -0.76629853894E+02  0.23305997217E+03  0.24672330137E+03  0.00000000000E+00 0. -1.
         21    1    1    2  504  502 -0.61957858456E+02  0.25254877176E+02  0.14458467896E+03  0.15931514189E+03  0.00000000000E+00 0.  1.
         21    1    1    2  505  503 -0.33823531608E+02 -0.82087313388E+02  0.42681646457E+03  0.43595258083E+03  0.00000000000E+00 0. -1.
          2    1    1    2  501    0  0.12192144182E+03  0.13346229011E+03  0.48441997813E+03  0.51704906543E+03  0.00000000000E+00 0. -1.
<scales pt_clust_3="40.77006" pt_clust_4="66.90729" pt_clust_5="40.77006" pt_clust_6="171.18119"></scales>
<clustering>
<clus scale="   40.770">  3  5 -1 -1</clus>
<clus scale="   66.907">  2  4  1 -1</clus>
<clus scale="  171.181">  2  6  1 -1</clus>
<clus scale="   66.907">  2  3  1 -1</clus>
</clustering>
</event>
<event>
 6    0  0.2433432E+002  0.1032584E+03  0.7546771E-02  0.1273589E+00
          2   -1    0    0  503    0 -0.00000000000E+00  0.00000000000E+00  0.60867705913E+03  0.60867705913E+03  0.00000000000E+00 0.  1.
         21   -1    0    0  504  502  0.00000000000E+00 -0.00000000000E+00 -0.50738857070E+03  0.50738857070E+03  0.00000000000E+00 0.  1.
         21    1    1    2  503  505  0.11381882581E+03 -0.57515306458E+02 -0.26030022595E+03  0.28986021324E+03  0.00000000000E+00 0.  1.
         21    1    1    2  504  501  0.33432610123E+02 -0.56488973143E+01 -0.17410451340E+02  0.38115263037E+02  0.00000000000E+00 0.  1.
         21    1    1    2  505  502 -0.56601457762E+02  0.14563877402E+02 -0.19570946856E+03  0.20424991464E+03  0.00000000000E+00 0.  1.
          2    1    1    2  501    0 -0.90649978175E+02  0.48600326371E+02  0.57470863428E+03  0.58384023892E+03  0.00000000000E+00 0.  1.
<scales pt_clust_3="14000.00000" pt_clust_4="33.90648" pt_clust_5="44.37425" pt_clust_6="103.25844"></scales>
<clustering>
<clus scale="   33.906">  2  4  1 -1</clus>
<clus scale="   44.374">  2  5  1 -1</clus>
<clus scale="  103.258">  1  6  2 -1</clus>
<clus scale="   33.906">  2  3  1 -1</clus>
</clustering>
</event>
<event>
 6    0  0.2433432E+002  0.8135917E+02  0.7546771E-02  0.1325238E+00
         21   -1    0    0  503  502  0.00000000000E+00  0.00000000000E+00  0.49897352240E+03  0.49897352240E+03  0.00000000000E+00 0. -1.
          2   -1    0    0  505    0 -0.00000000000E+00 -0.00000000000E+00 -0.14847762092E+04  0.14847762092E+04  0.00000000000E+00 0. -1.
         21    1    1    2  503  504  0.43631846657E+02  0.38308664993E+02  0.99681841661E+02  0.11535927103E+03  0.00000000000E+00 0. -1.
         21    1    1    2  504  501  0.53735870350E+02 -0.43348108908E+02 -0.47172002416E+02  0.83616984639E+02  0.00000000000E+00 0. -1.
         21    1    1    2  505  502 -0.17470568208E+03  0.29321379718E+02  0.35096191824E+03  0.39313621903E+03  0.00000000000E+00 0. -1.
          2    1    1    2  501    0  0.77337965070E+02 -0.24281935803E+02 -0.13892744443E+04  0.13916372569E+04  0.00000000000E+00 0. -1.
<scales pt_clust_3="58.06283" pt_clust_4="69.55277" pt_clust_5="14000.00000" pt_clust_6="81.35917"></scales>
<clustering>
<clus scale="   58.063">  1  3  2 -1</clus>
<clus scale="   69.553">  1  4  2 -1</clus>
<clus scale="   81.359">  2  6  1 -1</clus>
<clus scale="   58.063">  1  3  2 -1</clus>
</clustering>
</event>
<event>
 6    0  0.2433432E+002  0.9918191E+02  0.7546771E-02  0.1282026E+00
         21   -1    0    0  503  502  0.00000000000E+00  0.00000000000E+00  0.14021894550E+03  0.14021894550E+03  0.00000000000E+00 0.  1.
          1   -1    0    0  505    0 -0.00000000000E+00 -0.00000000000E+00 -0.26220627839E+03  0.26220627839E+03  0.00000000000E+00 0. -1.
         21    1    1    2  503  501  0.14369933372E+02  0.45572219268E+02  0.54902010466E+02  0.72784290250E+02  0.00000000000E+00 0.  1.
         21    1    1    2  504  502  0.57547437655E+02 -0.78239549108E+02 -0.28462707884E+02  0.10120899350E+03  0.00000000000E+00 0.  1.
         21    1    1    2  505  504  0.20577161338E+02 -0.41942195887E+02 -0.76163162450E+02  0.89349844314E+02  0.00000000000E+00 0. -1.
          1    1    1    2  501    0 -0.92494532364E+02  0.74609525728E+02 -0.72263473022E+02  0.13908209583E+03  0.00000000000E+00 0. -1.
<scales pt_clust_3="46.12737" pt_clust_4="99.18191" pt_clust_5="46.71796" pt_clust_6="14000.00000"></scales>
<clustering>
<clus scale="   46.718">  2  5  1 -1</clus>
<clus scale="   46.127">  1  3  2 -1</clus>
<clus scale="   99.182">  1  4  2 -1</clus>
<clus scale="   46.127">  1  3  2 -1</clus>
</clustering>
</event>
<event>
 6    0  0.2433432E+002  0.9245011E+02  0.7546771E-02  0.1297025E+00
         21   -1    0    0  503  502  0.00000000000E+00  0.00000000000E+00  0.22750452533E+03  0.22750452533E+03  0.00000000000E+00 0. -1.
          1   -1    0    0  505    0 -0.00000000000E+00 -0.00000000000E+00 -0.94329857202E+03  0.94329857202E+03  0.00000000000E+00 0.  1.
         21    1    1    2  503  501  0.64988251263E+02 -0.41236938596E+02  0.13429143389E+03  0.15478419533E+03  0.00000000000E+00 0. -1.
         21    1    1    2  504  502 -0.40983321675E+02 -0.11661449796E+02  0.19264519181E+02  0.46762632155E+02  0.00000000000E+00 0. -1.
         21    1    1    2  505  504 -0.11504984746E+03  0.56451329180E+02 -0.39048078476E+02  0.13397004292E+03  0.00000000000E+00 0.  1.
          1    1    1    2  501    0  0.91044917869E+02 -0.35529407886E+01 -0.83030192128E+03  0.83528622695E+03  0.00000000000E+00 0.  1.
<scales pt_clust_3="60.68552" pt_clust_4="42.61012" pt_clust_5="14000.00000" pt_clust_6="92.45011"></scales>
<clustering>
<clus scale="   42.610">  1  4  2 -1</clus>
<clus scale="   60.686">  1  3  2 -1</clus>
<clus scale="   92.450">  2  6  1 -1</clus>
<clus scale="   42.610">  1  3  2 -1</clus>
</clustering>
</event>
<event>
 6    0  0.2433432E+002  0.1145883E+03  0.7546771E-02  0.1252301E+00
         -1   -1    0    0    0  501 -0.00000000000E+00  0.00000000000E+00  0.12149254515E+04  0.12149254515E+04  0.00000000000E+00 0.  1.
         21   -1    0    0  503  502  0.00000000000E+00 -0.00000000000E+00 -0.34926403080E+02  0.34926403080E+02  0.00000000000E+00 0.  1.
         21    1    1    2  503  504  0.24673762015E+02  0.17958111070E+02  0.49985423448E+02  0.58564757683E+02  0.00000000000E+00 0.  1.
         21    1    1    2  504  501  0.23827457952E+02  0.11068309263E+03  0.49305614990E+03  0.50588819091E+03  0.00000000000E+00 0.  1.
         21    1    1    2  505  502 -0.77416807430E+02 -0.11249235276E+03  0.17366447376E+03  0.22092360886E+03  0.00000000000E+00 0.  1.
         -1    1    1    2    0  505  0.28915587463E+02 -0.16148850938E+02  0.46329300127E+03  0.46447529709E+03  0.00000000000E+00 0.  1.
<scales pt_clust_3="30.51702" pt_clust_4="14000.00000" pt_clust_5="114.58827" pt_clust_6="33.37042"></scales>
<clustering>
<clus scale="   30.517">  2  3  1 -1</clus>
<clus scale="   33.370">  1  6  2 -1</clus>
<clus scale="  114.588">  2  5  1 -1</clus>
<clus scale="   30.517">  2  3  1 -1</clus>
</clustering>
</event>
<event>
 6    0  0.2433432E+002  0.1178412E+03  0.7546771E-02  0.1246701E+00
          2   -1    0    0  505    0 -0.00000000000E+00  0.00000000000E+00  0.72106245807E+03  0.72106245807E+03  0.00000000000E+00 0.  1.
         21   -1    0    0  504  502  0.00000000000E+00 -0.00000000000E+00 -0.15647843601E+03  0.15647843601E+03  0.00000000000E+00 0. -1.
         21    1    1    2  503  501 -0.90995163461E+02  0.30926665649E+02 -0.70598954853E+02  0.11925095743E+03  0.00000000000E+00 0.  1.
         21    1    1    2  504  503  0.23631047729E+01  0.56850728712E+02 -0.21642472636E+02  0.60876812015E+02  0.00000000000E+00 0. -1.
         21    1    1    2  505  502  0.46912516476E+02  0.26132678291E+02  0.35540812867E+02  0.64396043791E+02  0.00000000000E+00 0.  1.
          2    1    1    2  501    0  0.41719542213E+02 -0.11391007265E+03  0.62128463669E+03  0.63301708084E+03  0.00000000000E+00 0.  1.
<scales pt_clust_3="14000.00000" pt_clust_4="66.39514" pt_clust_5="53.70010" pt_clust_6="117.84122"></scales>
<clustering>
<clus scale="   53.700">  2  5  1 -1</clus>
<clus scale="   66.395">  2  4  1 -1</clus>
<clus scale="  117.841">  1  6  2 -1</clus>
<clus scale="   53.700">  2  3  1 -1</clus>
</clustering>
</event>
<event>
 6    0  0.2433432E+002  0.7791516E+02  0.7546771E-02  0.1335074E+00
         21   -1    0    0  503  502  0.00000000000E+00  0.00000000000E+00  0.48241912174E+03  0.48241912174E+03  0.00000000000E+00 0. -1.
          2   -1    0    0  504    0 -0.00000000000E+00 -0.00000000000E+00 -0.19600366293E+03  0.19600366293E+03  0.00000000000E+00 0. -1.
         21    1    1    2  503  501 -0.50932446123E+02 -0.16111936957E+01  0.94214815100E+02  0.10711275086E+03  0.00000000000E+00 0.  1.
         21    1    1    2  504  505 -0.42762938898E+02 -0.58042232536E+02  0.16240130843E+02  0.73900687079E+02  0.00000000000E+00 0.  1.
         21    1    1    2  505  502  0.67208449642E+01  0.72382051821E+02  0.32028110466E+03  0.32842703480E+03  0.00000000000E+00 0. -1.
          2    1    1    2  501    0  0.86974540056E+02 -0.12728625589E+02 -0.14432059180E+03  0.16898231193E+03  0.00000000000E+00 0. -1.
<scales pt_clust_3="50.95792" pt_clust_4="75.96133" pt_clust_5="14000.00000" pt_clust_6="77.91516"></scales>
<clustering>
<clus scale="   50.958">  1  3  2 -1</clus>
<clus scale="   75.961">  2  4  1 -1</clus>
<clus scale="   77.915">  2  6  1 -1</clus>
<clus scale="   50.958">  1  3  2 -1</clus>
</clustering>
</event>
<event>
 6    0  0.2433432E+002  0.1740378E+03  0.7546771E-02  0.1173701E+00
         21   -1    0    0  503  502  0.00000000000E+00  0.00000000000E+00  0.11427889582E+03  0.11427889582E+03  0.00000000000E+00 0. -1.
          2   -1    0    0  505    0 -0.00000000000E+00 -0.00000000000E+00 -0.17741995545E+04  0.17741995545E+04  0.00000000000E+00 0.  1.
         21    1    1    2  503  504 -0.21910438834E+02 -0.58110140843E+02 -0.11186780969E+02  0.63103089205E+02  0.00000000000E+00 0. -1.
         21    1    1    2  504  501 -0.69070148609E+02 -0.83719116914E+02  0.39488494237E+02  0.11549422991E+03  0.00000000000E+00 0. -1.
         21    1    1    2  505  502 -0.12923245539E+02  0.70410126116E+02 -0.14693783833E+03  0.16344823177E+03  0.00000000000E+00 0. -1.
          2    1    1    2  501    0  0.10390383298E+03  0.71419131641E+02 -0.15412845336E+04  0.15464328994E+04  0.00000000000E+00 0.  1.
<scales pt_clust_3="39.32781" pt_clust_4="39.32781" pt_clust_5="71.58628" pt_clust_6="166.09080"></scales>
<clustering>
<clus scale="   39.328">  3  4 -1 -1</clus>
<clus scale="   71.586">  2  5  1 -1</clus>
<clus scale="  166.091">  2  6  1 -1</clus>
<clus scale="  174.038">  1  3  2 -1</clus>
</clustering>
</event>
<event>
 6    0  0.2433432E+002  0.7416998E+02  0.7546771E-02  0.1346461E+00
         21   -1    0    0  504  502  0.00000000000E+00  0.00000000000E+00  0.95300820213E+02  0.95300820213E+02  0.00000000000E+00 0.  1.
          2   -1    0    0  503    0 -0.00000000000E+00 -0.00000000000E+00 -0.59205660033E+03  0.59205660033E+03  0.00000000000E+00 0.  1.
         21    1    1    2  503  505  0.26549520601E+02 -0.55119511266E+02 -0.18053687985E+03  0.19062162142E+03  0.00000000000E+00 0.  1.
         21    1    1    2  504  501 -0.46183028721E+02 -0.30288811650E+02 -0.92489660533E+02  0.10772474905E+03  0.00000000000E+00 0.  1.
         21    1    1    2  505  502 -0.76883066423E+01 -0.30731184804E+02  0.67350397641E+02  0.74428434357E+02  0.00000000000E+00 0.  1.
          2    1    1    2  501    0  0.27321814763E+02  0.11613950772E+03 -0.29107963737E+03  0.31458261571E+03  0.00000000000E+00 0.  1.
<scales pt_clust_3="14000.00000" pt_clust_4="62.85312" pt_clust_5="31.67832" pt_clust_6="74.16998"></scales>
<clustering>
<clus scale="   31.678">  1  5  2 -1</clus>
<clus scale="   62.853">  1  4  2 -1</clus>
<clus scale="   74.170">  1  6  2 -1</clus>
<clus scale="   31.678">  1  3  2 -1</clus>
</clustering>
</event>
<event>
 6    0  0.2433432E+002  0.1996763E+03  0.7546771E-02  0.1150012E+00
          2   -1    0    0  505    0 -0.00000000000E+00  0.00000000000E+00  0.12380377810E+04  0.12380377810E+04  0.00000000000E+00 0.  1.
         21   -1    0    0  503  502  0.00000000000E+00 -0.00000000000E+00 -0.14193245603E+03  0.14193245603E+03  0.00000000000E+00 0.  1.
         21    1    1    2  503  504 -0.12106887696E+01 -0.49922010745E+02  0.39463104322E+02  0.63647541405E+02  0.00000000000E+00 0.  1.
         21    1    1    2  504  501 -0.11376803904E+03  0.11938343164E+03  0.60321362966E+03  0.62534970494E+03  0.00000000000E+00 0.  1.
         21    1    1    2  505  502  0.12258974319E+03 -0.12494692565E+03 -0.51880823923E+02  0.18256943681E+03  0.00000000000E+00 0.  1.
          2    1    1    2  501    0 -0.76110153812E+01  0.55485504756E+02  0.50530941494E+03  0.50840355390E+03  0.00000000000E+00 0.  1.
<scales pt_clust_3="49.93669" pt_clust_4="199.67630" pt_clust_5="14000.00000" pt_clust_6="55.41781"></scales>
<clustering>
<clus scale="   49.937">  2  3  1 -1</clus>
<clus scale="   55.418">  1  6  2 -1</clus>
<clus scale="  199.676">  1  4  2 -1</clus>
<clus scale="   49.937">  2  3  1 -1</clus>
</clustering>
</event>
<event>
 6    0  0.2433432E+002  0.1306139E+03  0.7546771E-02  0.1226548E+00
         21   -1    0    0  503  502  0.00000000000E+00  0.00000000000E+00  0.22335714512E+03  0.22335714512E+03  0.00000000000E+00 0. -1.
          1   -1    0    0  505    0 -0.00000000000E+00 -0.00000000000E+00 -0.50314739994E+03  0.50314739994E+03  0.00000000000E+00 0. -1.
         21    1    1    2  503  501  0.43033485048E+02  0.10467874969E+03 -0.19458940572E+03  0.22511010260E+03  0.00000000000E+00 0. -1.
         21    1    1    2  504  502 -0.18290750280E+02 -0.24833110875E+02  0.13508378316E+03  0.13855996324E+03  0.00000000000E+00 0. -1.
         21    1    1    2  505  504 -0.45017541542E+02 -0.10557460017E+03  0.23252980872E+02  0.11710369920E+03  0.00000000000E+00 0. -1.
          1    1    1    2  501    0  0.20274806774E+02  0.25728961360E+02 -0.24353761313E+03  0.24573078002E+03  0.00000000000E+00 0. -1.
<scales pt_clust_3="130.61388" pt_clust_4="30.84210" pt_clust_5="14000.00000" pt_clust_6="32.36678"></scales>
<clustering>
<clus scale="   30.842">  1  4  2 -1</clus>
<clus scale="   32.367">  2  6  1 -1</clus>
<clus scale="  130.614">  2  3  1 -1</clus>
<clus scale="   30.842">  1  3  2 -1</clus>
</clustering>
</event>
<event>
 6    0  0.2433432E+002  0.1615106E+03  0.7546771E-02  0.1187002E+00
          1   -1    0    0  505    0 -0.00000000000E+00  0.00000000000E+00  0.21395559133E+04  0.21395559133E+04  0.00000000000E+00 0.  1.
         21   -1    0    0  504  502  0.00000000000E+00 -0.00000000000E+00 -0.92639600714E+02  0.92639600714E+02  0.00000000000E+00 0. -1.
         21    1    1    2  503  501 -0.77086288473E+02  0.12489802864E+03  0.31468935708E+03  0.34723364596E+03  0.00000000000E+00 0. -1.
         21    1    1    2  504  503 -0.64480311917E+02 -0.47563009624E+02 -0.35702283015E+02  0.87718889197E+02  0.00000000000E+00 0. -1.
         21    1    1    2  505  502  0.15970293170E+03 -0.10276773844E+03  0.60969696020E+03  0.63858955342E+03  0.00000000000E+00 0. -1.
          1    1    1    2  501    0 -0.18136331312E+02  0.25432719419E+02  0.11582322783E+04  0.11586534254E+04  0.00000000000E+00 0.  1.
<scales pt_clust_3="161.51059" pt_clust_4="80.11557" pt_clust_5="14000.00000" pt_clust_6="31.23699"></scales>
<clustering>
<clus scale="   31.237">  1  6  2 -1</clus>
<clus scale="   80.116">  2  4  1 -1</clus>
<clus scale="  161.511">  2  3  1 -1</clus>
<clus scale="   80.116">  2  3  1 -1</clus>
</clustering>
</event>
<event>
 6    0  0.2433432E+002  0.1679932E+03  0.7546771E-02  0.1179957E+00
         -4   -1    0    0    0  501 -0.00000000000E+00  0.00000000000E+00  0.94185088873E+03  0.94185088873E+03  0.00000000000E+00 0.  1.
         21   -1    0    0  501  502  0.00000000000E+00 -0.00000000000E+00 -0.14262892169E+03  0.14262892169E+03  0.00000000000E+00 0. -1.
         21    1    1    2  503  505  0.86041773528E+02  0.89871900810E+02  0.11822823039E+03  0.17163350433E+03  0.00000000000E+00 0.  1.
         21    1    1    2  504  502  0.57506837002E+02  0.36972741792E+02 -0.33659865680E+02  0.76203717070E+02  0.00000000000E+00 0.  1.
         21    1    1    2  505  504 -0.56051725681E+02  0.40826191214E+02 -0.24601178199E+02  0.73578473820E+02  0.00000000000E+00 0. -1.
         -4    1    1    2    0  503 -0.87496884850E+02 -0.16767083382E+03  0.73925478053E+03  0.76306411520E+03  0.00000000000E+00 0.  1.
<scales pt_clust_3="14000.00000" pt_clust_4="68.36680" pt_clust_5="65.98753" pt_clust_6="167.99319"></scales>
<clustering>
<clus scale="   68.367">  2  4  1 -1</clus>
<clus scale="   65.988">  2  5  1 -1</clus>
<clus scale="  167.993">  1  6  2 -1</clus>
<clus scale="   68.367">  2  3  1 -1</clus>
</clustering>
</event>
<event>
 6    0  0.2433432E+002  0.1242004E+03  0.7546771E-02  0.1236324E+00
         21   -1    0    0  503  502  0.00000000000E+00  0.00000000000E+00  0.25301175520E+03  0.25301175520E+03  0.00000000000E+00 0. -1.
          2   -1    0    0  504    0 -0.00000000000E+00 -0.00000000000E+00 -0.16789556346E+04  0.16789556346E+04  0.00000000000E+00 0.  1.
         21    1    1    2  503  505  0.46858986444E+02  0.15992479007E+03  0.15310591613E+03  0.22630316976E+03  0.00000000000E+00 0. -1.
         21    1    1    2  504  502  0.26055475366E+02 -0.71232270779E+02 -0.61200457615E+01  0.76094540914E+02  0.00000000000E+00 0. -1.
         21    1    1    2  505  501 -0.58913720789E+02 -0.47297012089E+02 -0.22928901017E+02  0.78952950240E+02  0.00000000000E+00 0. -1.
          2    1    1    2  501    0 -0.14000741021E+02 -0.41395507203E+02 -0.15500008487E+04  0.15506167288E+04  0.00000000000E+00 0.  1.
<scales pt_clust_3="124.20038" pt_clust_4="87.17339" pt_clust_5="14000.00000" pt_clust_6="43.69907"></scales>
<clustering>
<clus scale="   43.699">  2  6  1 -1</clus>
<clus scale="   87.173">  2  4  1 -1</clus>
<clus scale="  124.200">  1  3  2 -1</clus>
<clus scale="  124.200">  1  3  2 -1</clus>
</clustering>
</event>
<event>
 6    0  0.2433432E+002  0.8669947E+02  0.7546771E-02  0.1311047E+00
         21   -1    0    0  504  502  0.00000000000E+00  0.00000000000E+00  0.13316083057E+04  0.13316083057E+04  0.00000000000E+00 0. -1.
          2   -1    0    0  502    0 -0.00000000000E+00 -0.00000000000E+00 -0.14140609086E+03  0.14140609086E+03  0.00000000000E+00 0.  1.
         21    1    1    2  503  501  0.33231317912E+02 -0.82159623195E+02  0.35517301321E+03  0.36606337360E+03  0.00000000000E+00 0. -1.
         21    1    1    2  504  505 -0.74668949613E+02  0.35318560937E+02  0.57355939742E+03  0.57947669078E+03  0.00000000000E+00 0. -1.
         21    1    1    2  505  503  0.97241660723E+02 -0.19632385256E+02  0.37310590110E+03  0.38606914480E+03  0.00000000000E+00 0. -1.
          2    1    1    2  501    0 -0.55804029022E+02  0.66473447514E+02 -0.11163609691E+03  0.14140518736E+03  0.00000000000E+00 0.  1.
<scales pt_clust_3="14000.00000" pt_clust_4="82.60056" pt_clust_5="59.73473" pt_clust_6="86.69947"></scales>
<clustering>
<clus scale="   82.601">  1  4  2 -1</clus>
<clus scale="   59.735">  1  5  2 -1</clus>
<clus scale="   86.699">  2  6  1 -1</clus>
<clus scale="   82.601">  1  3  2 -1</clus>
</clustering>
</event>
<event>
 6    0  0.2433432E+002  0.9024039E+02  0.7546771E-02  0.1302271E+00
         21   -1    0    0  505  502  0.00000000000E+00  0.00000000000E+00  0.24165207680E+03  0.24165207680E+03  0.00000000000E+00 0. -1.
          2   -1    0    0  503    0 -0.00000000000E+00 -0.00000000000E+00 -0.11023233622E+03  0.11023233622E+03  0.00000000000E+00 0.  1.
         21    1    1    2  503  504 -0.66320336841E+02  0.65412757388E+02  0.20375521646E+01  0.93173856454E+02  0.00000000000E+00 0.  1.
         21    1    1    2  504  502 -0.37814270204E+02 -0.18980949324E+02  0.30985691661E+02  0.52443384292E+02  0.00000000000E+00 0. -1.
         21    1    1    2  505  501 -0.13819095065E+01 -0.52402672571E+02  0.84822625541E+02  0.99713728092E+02  0.00000000000E+00 0. -1.
          2    1    1    2  501    0  0.10551651655E+03  0.59708645070E+01  0.13573871214E+02  0.10655344419E+03  0.00000000000E+00 0.  1.
<scales pt_clust_3="14000.00000" pt_clust_4="42.31070" pt_clust_5="63.99586" pt_clust_6="90.24039"></scales>
<clustering>
<clus scale="   42.311">  1  4  2 -1</clus>
<clus scale="   63.996">  1  5  2 -1</clus>
<clus scale="   90.240">  1  6  2 -1</clus>
<clus scale="   42.311">  1  3  2 -1</clus>
</clustering>
</event>
<event>
 6    0  0.2433432E+002  0.9971760E+02  0.7546771E-02  0.1280891E+00
         21   -1    0    0  503  502  0.00000000000E+00  0.00000000000E+00  0.39083178181E+02  0.39083178181E+02  0.00000000000E+00 0.  1.
          2   -1    0    0  505    0 -0.00000000000E+00 -0.00000000000E+00 -0.24514387051E+04  0.24514387051E+04  0.00000000000E+00 0. -1.
         21    1    1    2  503  504 -0.86476603288E+02  0.49698783389E+02 -0.65413650290E+02  0.11927748166E+03  0.00000000000E+00 0.  1.
         21    1    1    2  504  501 -0.51497189184E+02 -0.22688761697E+02 -0.22222758763E+03  0.22924188340E+03  0.00000000000E+00 0.  1.
         21    1    1    2  505  502  0.92771709356E+02 -0.38140317132E+02 -0.29294527190E+03  0.30964206139E+03  0.00000000000E+00 0.  1.
          2    1    1    2  501    0  0.45202083116E+02  0.11130295441E+02 -0.18317690171E+04  0.18323604569E+04  0.00000000000E+00 0. -1.
<scales pt_clust_3="14000.00000" pt_clust_4="39.67079" pt_clust_5="99.71760" pt_clust_6="46.55225"></scales>
<clustering>
<clus scale="   46.552">  2  6  1 -1</clus>
<clus scale="   39.671">  2  4  1 -1</clus>
<clus scale="   99.718">  2  5  1 -1</clus>
<clus scale="   99.718">  1  3  2 -1</clus>
</clustering>
</event>
<event>
 6    0  0.2433432E+002  0.8881279E+02  0.7546771E-02  0.1305752E+00
         21   -1    0    0  503  502  0.00000000000E+00  0.00000000000E+00  0.16859339017E+03  0.16859339017E+03  0.00000000000E+00 0. -1.
          4   -1    0    0  504    0 -0.00000000000E+00 -0.00000000000E+00 -0.17503285075E+03  0.17503285075E+03  0.00000000000E+00 0. -1.
         21    1    1    2  503  501 -0.65644902541E+02  0.34614082938E+02  0.16101627307E+02  0.75938464359E+02  0.00000000000E+00 0. -1.
         21    1    1    2  504  505  0.29195971703E+02  0.30900803324E+02 -0.42511281568E+01  0.42723956984E+02  0.00000000000E+00 0. -1.
         21    1    1    2  505  502  0.48708943649E+02 -0.10476013629E+03  0.64652134172E+02  0.13239012728E+03  0.00000000000E+00 0. -1.
          4    1    1    2  501    0 -0.12260012811E+02  0.39245250028E+02 -0.82942093910E+02  0.92573692300E+02  0.00000000000E+00 0. -1.
<scales pt_clust_3="88.81279" pt_clust_4="48.88530" pt_clust_5="14000.00000" pt_clust_6="41.11566"></scales>
<clustering>
<clus scale="   41.116">  2  6  1 -1</clus>
<clus scale="   48.885">  2  4  1 -1</clus>
<clus scale="   88.813">  1  3  2 -1</clus>
<clus scale="   88.813">  1  3  2 -1</clus>
</clustering>
</event>
<event>
 6    0  0.2433432E+002  0.9825790E+02  0.7546771E-02  0.1284003E+00
         21   -1    0    0  505  502  0.00000000000E+00  0.00000000000E+00  0.30933488235E+02  0.30933488235E+02  0.00000000000E+00 0.  1.
          1   -1    0    0  503    0 -0.00000000000E+00 -0.00000000000E+00 -0.27129516022E+04  0.27129516022E+04  0.00000000000E+00 0.  1.
         21    1    1    2  503  504  0.18261206270E+02 -0.62449889961E+02 -0.56021294238E+03  0.56397872409E+03  0.00000000000E+00 0. -1.
         21    1    1    2  504  502 -0.22668027271E+02 -0.38088140019E+02 -0.18481132261E+03  0.19005202139E+03  0.00000000000E+00 0.  1.
         21    1    1    2  505  501 -0.67671988632E+02  0.90943289005E+02 -0.99235779864E+02  0.15065828841E+03  0.00000000000E+00 0.  1.
          1    1    1    2  501    0  0.72078809633E+02  0.95947409755E+01 -0.18377580691E+04  0.18391960565E+04  0.00000000000E+00 0.  1.
<scales pt_clust_3="67.10780" pt_clust_4="44.32320" pt_clust_5="98.25790" pt_clust_6="14000.00000"></scales>
<clustering>
<clus scale="   44.323">  1  4  2 -1</clus>
<clus scale="   67.108">  2  3  1 -1</clus>
<clus scale="   98.258">  1  5  2 -1</clus>
<clus scale="   44.323">  1  3  2 -1</clus>
</clustering>
</event>
<event>
 6    0  0.2433432E+002  0.1198284E+03  0.7546771E-02  0.1243380E+00
          2   -1    0    0  503    0 -0.00000000000E+00  0.00000000000E+00  0.53430579837E+03  0.53430579837E+03  0.00000000000E+00 0.  1.
         21   -1    0    0  504  502  0.00000000000E+00 -0.00000000000E+00 -0.10233058089E+03  0.10233058089E+03  0.00000000000E+00 0.  1.
         21    1    1    2  503  502 -0.44116501478E+02  0.10991959427E+02 -0.42520208780E+02  0.62249956060E+02  0.00000000000E+00 0.  1.
         21    1    1    2  504  505  0.64712658740E+02 -0.22120125274E+02  0.10611767072E+03  0.12624574520E+03  0.00000000000E+00 0.  1.
         21    1    1    2  505  501  0.95677485781E+02  0.56305412332E+02  0.89374915110E+02  0.14252142363E+03  0.00000000000E+00 0.  1.
          2    1    1    2  501    0 -0.11627364304E+03 -0.45177246486E+02  0.27900284043E+03  0.30561925436E+03  0.00000000000E+00 0.  1.
<scales pt_clust_3="45.46525" pt_clust_4="59.26588" pt_clust_5="14000.00000" pt_clust_6="119.82836"></scales>
<clustering>
<clus scale="   45.465">  2  3  1 -1</clus>
<clus scale="   59.266">  2  4  1 -1</clus>
<clus scale="  119.828">  1  6  2 -1</clus>
<clus scale="   45.465">  2  3  1 -1</clus>
</clustering>
</event>
<event>
 6    0  0.2433432E+002  0.2157803E+03  0.7546771E-02  0.1137069E+00
         21   -1    0    0  504  502  0.00000000000E+00  0.00000000000E+00  0.26213292092E+03  0.26213292092E+03  0.00000000000E+00 0.  1.
         -3   -1    0    0    0  501 -0.00000000000E+00 -0.00000000000E+00 -0.42084113713E+03  0.42084113713E+03  0.00000000000E+00 0.  1.
         21    1    1    2  503  502 -0.17924846514E+02  0.33197234586E+02  0.21654044279E+02  0.43500047591E+02  0.00000000000E+00 0.  1.
         21    1    1    2  504  505 -0.84545584566E+02 -0.37669201589E+02  0.59510902573E+02  0.11003850300E+03  0.00000000000E+00 0.  1.
         21    1    1    2  505  501 -0.86346862274E+02 -0.91216264844E+02  0.77763415637E+02  0.14772723651E+03  0.00000000000E+00 0.  1.
         -3    1    1    2    0  503  0.18881729335E+03  0.95688231847E+02 -0.31763657870E+03  0.38170827095E+03  0.00000000000E+00 0.  1.
<scales pt_clust_3="37.72740" pt_clust_4="36.25028" pt_clust_5="36.25028" pt_clust_6="211.60787"></scales>
<clustering>
<clus scale="   36.250">  4  5 -1 -1</clus>
<clus scale="   37.727">  1  3  2 -1</clus>
<clus scale="  211.608">  2  6  1 -1</clus>
<clus scale="   37.727">  1  3  2 -1</clus>
</clustering>
</event>
<event>
 6    0  0.2433432E+002  0.6409064E+02  0.7546771E-02  0.1381425E+00
         21   -1    0    0  503  502  0.00000000000E+00  0.00000000000E+00  0.20089161152E+04  0.20089161152E+04  0.00000000000E+00 0.  1.
         -2   -1    0    0    0  501 -0.00000000000E+00 -0.00000000000E+00 -0.15618305591E+03  0.15618305591E+03  0.00000000000E+00 0.  1.
         21    1    1    2  503  505 -0.49768453854E+02 -0.57478988649E+02  0.10442099536E+04  0.10469742883E+04  0.00000000000E+00 0.  1.
         21    1    1    2  504  502  0.52212746402E+02  0.14997370919E+02  0.40764435518E+03  0.41124811529E+03  0.00000000000E+00 0.  1.
         21    1    1    2  505  501 -0.39349096237E+02  0.65819235998E+02  0.54803750853E+03  0.55337657518E+03  0.00000000000E+00 0.  1.
         -2    1    1    2    0  504  0.36904803689E+02 -0.23337618268E+02 -0.14715875807E+03  0.15350019231E+03  0.00000000000E+00 0.  1.
<scales pt_clust_3="14000.00000" pt_clust_4="64.09064" pt_clust_5="59.59436" pt_clust_6="43.66473"></scales>
<clustering>
<clus scale="   43.665">  2  6  1 -1</clus>
<clus scale="   59.594">  2  5  1 -1</clus>
<clus scale="   64.091">  2  4  1 -1</clus>
<clus scale="   64.091">  1  3  2 -1</clus>
</clustering>
</event>
<event>
 6    0  0.2433432E+002  0.3685221E+03  0.7546771E-02  0.1055260E+00
          1   -1    0    0  504    0 -0.00000000000E+00  0.00000000000E+00  0.55479125132E+03  0.55479125132E+03  0.00000000000E+00 0. -1.
         21   -1    0    0  505  502  0.00000000000E+00 -0.00000000000E+00 -0.76904617351E+03  0.76904617351E+03  0.00000000000E+00 0. -1.
         21    1    1    2  503  501  0.49582385852E+02  0.18896476808E+02 -0.22482984026E+03  0.23100637847E+03  0.00000000000E+00 0.  1.
         21    1    1    2  504  502  0.13250740331E+03  0.86295919865E+02 -0.81057466906E+02  0.17769499334E+03  0.00000000000E+00 0. -1.
         21    1    1    2  505  503  0.13952022130E+03  0.94774838144E+02 -0.31633284672E+03  0.35848937504E+03  0.00000000000E+00 0. -1.
          1    1    1    2  501    0 -0.32161001046E+03 -0.19996723482E+03  0.40796523171E+03  0.55664667798E+03  0.00000000000E+00 0. -1.
<scales pt_clust_3="43.32725" pt_clust_4="158.13032" pt_clust_5="43.32725" pt_clust_6="360.33496"></scales>
<clustering>
<clus scale="   43.327">  3  5 -1 -1</clus>
<clus scale="  158.130">  2  4  1 -1</clus>
<clus scale="  360.335">  1  6  2 -1</clus>
<clus scale="  158.130">  2  3  1 -1</clus>
</clustering>
</event>
<event>
 6    0  0.2433432E+002  0.1815423E+03  0.7546771E-02  0.1166319E+00
         21   -1    0    0  505  502  0.00000000000E+00  0.00000000000E+00  0.35961425372E+02  0.35961425372E+02  0.00000000000E+00 0.  1.
          1   -1    0    0  503    0 -0.00000000000E+00 -0.00000000000E+00 -0.29370404456E+04  0.29370404456E+04  0.00000000000E+00 0.  1.
         21    1    1    2  503  504  0.11788540871E+03  0.13811530475E+03 -0.53567849907E+03  0.56561847686E+03  0.00000000000E+00 0.  1.
         21    1    1    2  504  502  0.12343320964E+02  0.68135790721E+02 -0.13815301114E+03  0.15453510292E+03  0.00000000000E+00 0.  1.
         21    1    1    2  505  501 -0.32756481161E+02 -0.83081018784E+02 -0.19428936466E+03  0.21383124178E+03  0.00000000000E+00 0.  1.
          1    1    1    2  501    0 -0.97472248517E+02 -0.12317007668E+03 -0.20329581453E+04  0.20390170494E+04  0.00000000000E+00 0.  1.
<scales pt_clust_3="43.98426" pt_clust_4="43.98426" pt_clust_5="89.30533" pt_clust_6="166.98614"></scales>
<clustering>
<clus scale="   43.984">  3  4 -1 -1</clus>
<clus scale="   89.305">  1  5  2 -1</clus>
<clus scale="  166.986">  2  6  1 -1</clus>
<clus scale="   89.305">  1  3  2 -1</clus>
</clustering>
</event>
<event>
 6    0  0.2433432E+002  0.2355076E+03  0.7546771E-02  0.1122822E+00
         21   -1    0    0  505  502  0.00000000000E+00  0.00000000000E+00  0.14077925423E+04  0.14077925423E+04  0.00000000000E+00 0.  1.
          1   -1    0    0  504    0 -0.00000000000E+00 -0.00000000000E+00 -0.67633781505E+03  0.67633781505E+03  0.00000000000E+00 0. -1.
         21    1    1    2  503  502  0.10130303997E+03 -0.14927140945E+03  0.45604842947E+03  0.49043290021E+03  0.00000000000E+00 0.  1.
         21    1    1    2  504  503  0.58182682751E+02 -0.27202437568E+01  0.90719185551E+01  0.58948486024E+02  0.00000000000E+00 0.  1.
         21    1    1    2  505  501 -0.18098696945E+03  0.28582332056E+03  0.86086934350E+03  0.92495798838E+03  0.00000000000E+00 0.  1.
          1    1    1    2  501    0  0.21501246722E+02 -0.13383166735E+03 -0.59453496431E+03  0.60979098270E+03  0.00000000000E+00 0. -1.
<scales pt_clust_3="235.50764" pt_clust_4="58.24624" pt_clust_5="14000.00000" pt_clust_6="155.75082"></scales>
<clustering>
<clus scale="   58.246">  2  4  1 -1</clus>
<clus scale="  155.751">  2  6  1 -1</clus>
<clus scale="  235.508">  1  3  2 -1</clus>
<clus scale="  235.508">  1  3  2 -1</clus>
</clustering>
</event>
<event>
 6    0  0.2433432E+002  0.1370600E+03  0.7546771E-02  0.1217341E+00
          4   -1    0    0  505    0 -0.00000000000E+00  0.00000000000E+00  0.27160806895E+03  0.27160806895E+03  0.00000000000E+00 0.  1.
         21   -1    0    0  504  502  0.00000000000E+00 -0.00000000000E+00 -0.13632467545E+03  0.13632467545E+03  0.00000000000E+00 0.  1.
         21    1    1    2  503  502 -0.45440585983E+01  0.30966078788E+02 -0.14236990913E+02  0.34383694018E+02  0.00000000000E+00 0.  1.
         21    1    1    2  504  501  0.34925177111E+01 -0.59048431114E+02  0.58184867192E+01  0.59437106968E+02  0.00000000000E+00 0.  1.
         21    1    1    2  505  503 -0.13388157353E+03  0.42746491407E+02  0.49948219695E+02  0.14915214685E+03  0.00000000000E+00 0.  1.
          4    1    1    2  501    0  0.13493311442E+03 -0.14664139081E+02  0.93753678004E+02  0.16495979656E+03  0.00000000000E+00 0.  1.
<scales pt_clust_3="31.29771" pt_clust_4="51.69304" pt_clust_5="14000.00000" pt_clust_6="137.05998"></scales>
<clustering>
<clus scale="   31.298">  2  3  1 -1</clus>
<clus scale="   51.693">  2  4  1 -1</clus>
<clus scale="  137.060">  1  6  2 -1</clus>
<clus scale="   31.298">  2  3  1 -1</clus>
</clustering>
</event>
<event>
 6    0  0.2433432E+002  0.8772455E+02  0.7546771E-02  0.1308457E+00
         21   -1    0    0  504  502  0.00000000000E+00  0.00000000000E+00  0.30428071751E+03  0.30428071751E+03  0.00000000000E+00 0. -1.
          2   -1    0    0  503    0 -0.00000000000E+00 -0.00000000000E+00 -0.17074558796E+04  0.17074558796E+04  0.00000000000E+00 0. -1.
         21    1    1    2  503  502  0.40749282937E+02 -0.27243596625E+02 -0.46053118183E+02  0.67257767666E+02  0.00000000000E+00 0.  1.
         21    1    1    2  504  505 -0.40885348708E+02  0.59304268157E+02  0.27507351210E+03  0.28434845704E+03  0.00000000000E+00 0. -1.
         21    1    1    2  505  501 -0.86033452888E+01  0.58220994226E+02 -0.55714110025E+02  0.81041740941E+02  0.00000000000E+00 0. -1.
          2    1    1    2  501    0  0.87394110593E+01 -0.90281665758E+02 -0.15764814460E+04  0.15790886315E+04  0.00000000000E+00 0. -1.
<scales pt_clust_3="49.01752" pt_clust_4="33.42081" pt_clust_5="87.72455" pt_clust_6="14000.00000"></scales>
<clustering>
<clus scale="   49.018">  1  3  2 -1</clus>
<clus scale="   33.421">  1  4  2 -1</clus>
<clus scale="   87.725">  1  5  2 -1</clus>
<clus scale="   49.018">  1  3  2 -1</clus>
</clustering>
</event>
<event>
 6    0  0.2433432E+002  0.7933403E+02  0.7546771E-02  0.1330952E+00
         21   -1    0    0  505  502  0.00000000000E+00  0.00000000000E+00  0.96012320248E+02  0.96012320248E+02  0.00000000000E+00 0. -1.
          2   -1    0    0  504    0 -0.00000000000E+00 -0.00000000000E+00 -0.25455428379E+04  0.25455428379E+04  0.00000000000E+00 0. -1.
         21    1    1    2  503  501  0.62255689107E+02  0.56884064155E+01 -0.26843448517E+01  0.62572633803E+02  0.00000000000E+00 0. -1.
         21    1    1    2  504  502 -0.10586384946E+03  0.60377201598E+01 -0.35076835665E+02  0.11168703187E+03  0.00000000000E+00 0. -1.
         21    1    1    2  505  503  0.53272223768E+01 -0.41942265361E+02  0.11277860204E+02  0.43757548522E+02  0.00000000000E+00 0. -1.
          2    1    1    2  501    0  0.38280937977E+02  0.30216138786E+02 -0.24230471973E+04  0.24235379439E+04  0.00000000000E+00 0. -1.
<scales pt_clust_3="14000.00000" pt_clust_4="79.33403" pt_clust_5="42.27923" pt_clust_6="48.69137"></scales>
<clustering>
<clus scale="   42.279">  1  5  2 -1</clus>
<clus scale="   48.691">  2  6  1 -1</clus>
<clus scale="   79.334">  2  4  1 -1</clus>
<clus scale="   42.279">  1  3  2 -1</clus>
</clustering>
</event>
<event>
 6    0  0.2433432E+002  0.1290837E+03  0.7546771E-02  0.1228822E+00
          2   -1    0    0  505    0 -0.00000000000E+00  0.00000000000E+00  0.26680892512E+04  0.26680892512E+04  0.00000000000E+00 0.  1.
         21   -1    0    0  504  502  0.00000000000E+00 -0.00000000000E+00 -0.72998000081E+02  0.72998000081E+02  0.00000000000E+00 0.  1.
         21    1    1    2  503  502 -0.30617989566E+02 -0.95625515411E+00  0.58523892716E+02  0.66056201281E+02  0.00000000000E+00 0.  1.
         21    1    1    2  504  501 -0.84188803396E+02 -0.65469835593E+02 -0.22816728852E+02  0.10906262928E+03  0.00000000000E+00 0.  1.
         21    1    1    2  505  503  0.35487006509E+02  0.28678211428E+02  0.20806214812E+03  0.21300616170E+03  0.00000000000E+00 0.  1.
          2    1    1    2  501    0  0.79319786454E+02  0.37747879319E+02  0.23513219392E+04  0.23529622591E+04  0.00000000000E+00 0.  1.
<scales pt_clust_3="30.63292" pt_clust_4="129.08367" pt_clust_5="44.75950" pt_clust_6="14000.00000"></scales>
<clustering>
<clus scale="   30.633">  2  3  1 -1</clus>
<clus scale="   44.760">  1  5  2 -1</clus>
<clus scale="  129.084">  2  4  1 -1</clus>
<clus scale="   30.633">  2  3  1 -1</clus>
</clustering>
</event>
<event>
 6    0  0.2433432E+002  0.9231030E+02  0.7546771E-02  0.1297351E+00
         21   -1    0    0  503  502  0.00000000000E+00  0.00000000000E+00  0.38222877713E+02  0.38222877713E+02  0.00000000000E+00 0.  1.
          1   -1    0    0  505    0 -0.00000000000E+00 -0.00000000000E+00 -0.64934320881E+03  0.64934320881E+03  0.00000000000E+00 0.  1.
         21    1    1    2  503  501 -0.63056534906E+02  0.45133737946E+02 -0.12190024602E+03  0.14447439522E+03  0.00000000000E+00 0.  1.
         21    1    1    2  504  502  0.64367485182E+02 -0.89025159340E+02 -0.11445538156E+03  0.15864641979E+03  0.00000000000E+00 0.  1.
         21    1    1    2  505  504  0.28201491951E+02  0.19688079033E+02 -0.78132810458E+02  0.85367913612E+02  0.00000000000E+00 0.  1.
          1    1    1    2  501    0 -0.29512442227E+02  0.24203342360E+02 -0.29663189306E+03  0.29907735790E+03  0.00000000000E+00 0.  1.
<scales pt_clust_3="92.31030" pt_clust_4="14000.00000" pt_clust_5="34.39396" pt_clust_6="37.53859"></scales>
<clustering>
<clus scale="   34.394">  2  5  1 -1</clus>
<clus scale="   37.539">  2  6  1 -1</clus>
<clus scale="   92.310">  1  3  2 -1</clus>
<clus scale="   92.310">  1  3  2 -1</clus>
</clustering>
</event>
<event>
 6    0  0.2433432E+002  0.1176624E+03  0.7546771E-02  0.1247004E+00
          2   -1    0    0  503    0 -0.00000000000E+00  0.00000000000E+00  0.10547721800E+04  0.10547721800E+04  0.00000000000E+00 0. -1.
         21   -1    0    0  505  502  0.00000000000E+00 -0.00000000000E+00 -0.63212467533E+02  0.63212467533E+02  0.00000000000E+00 0. -1.
         21    1    1    2  503  502 -0.11652175847E+02  0.29813690045E+02  0.67878490921E+02  0.75047443966E+02  0.00000000000E+00 0.  1.
         21    1    1    2  504  501 -0.65246443567E+02 -0.15515750299E+01  0.22439304966E+02  0.69014695468E+02  0.00000000000E+00 0. -1.
         21    1    1    2  505  504 -0.42062032440E+02 -0.17364018019E+02 -0.16525688668E+02  0.48413036268E+02  0.00000000000E+00 0. -1.
          2    1    1    2  501    0  0.11896065185E+03 -0.10898096997E+02  0.91776760527E+03  0.92550947185E+03  0.00000000000E+00 0. -1.
<scales pt_clust_3="32.00983" pt_clust_4="36.07136" pt_clust_5="36.07136" pt_clust_6="109.37569"></scales>
<clustering>
<clus scale="   32.010">  1  3  2 -1</clus>
<clus scale="   36.071">  4  5 -1 -1</clus>
<clus scale="  109.376">  1  6  2 -1</clus>
<clus scale="  117.662">  2  3  1 -1</clus>
</clustering>
</event>
<event>
 6    0  0.2433432E+002  0.5555441E+02  0.7546771E-02  0.1417495E+00
         21   -1    0    0  503  502  0.00000000000E+00  0.00000000000E+00  0.35563279502E+03  0.35563279502E+03  0.00000000000E+00 0. -1.
          1   -1    0    0  505    0 -0.00000000000E+00 -0.00000000000E+00 -0.18475588159E+03  0.18475588159E+03  0.00000000000E+00 0.  1.
         21    1    1    2  503  504 -0.80763595546E+02 -0.37633067183E+02  0.21870676992E+03  0.23616023653E+03  0.00000000000E+00 0. -1.
         21    1    1    2  504  501  0.30339168168E+02 -0.56102349255E+02  0.48719522320E+02  0.80259146346E+02  0.00000000000E+00 0.  1.
         21    1    1    2  505  502  0.35712236549E+02  0.39477142165E+02  0.46239828690E+02  0.70511916370E+02  0.00000000000E+00 0. -1.
          1    1    1    2  501    0  0.14712190829E+02  0.54258274273E+02 -0.14278920751E+03  0.15345737736E+03  0.00000000000E+00 0.  1.
<scales pt_clust_3="53.95377" pt_clust_4="14000.00000" pt_clust_5="53.23353" pt_clust_6="55.55441"></scales>
<clustering>
<clus scale="   53.234">  1  5  2 -1</clus>
<clus scale="   53.954">  1  3  2 -1</clus>
<clus scale="   55.554">  2  6  1 -1</clus>
<clus scale="   53.234">  1  3  2 -1</clus>
</clustering>
</event>
<event>
 6    0  0.2433432E+002  0.1851738E+03  0.7546771E-02  0.1162888E+00
          1   -1    0    0  504    0 -0.00000000000E+00  0.00000000000E+00  0.36490605563E+03  0.36490605563E+03  0.00000000000E+00 0. -1.
         21   -1    0    0  505  502  0.00000000000E+00 -0.00000000000E+00 -0.31532922551E+03  0.31532922551E+03  0.00000000000E+00 0. -1.
         21    1    1    2  503  502 -0.16145320875E+02 -0.50258909527E+02 -0.62903328164E+02  0.82118561039E+02  0.00000000000E+00 0. -1.
         21    1    1    2  504  503 -0.10693122446E+03 -0.93748592834E+02 -0.10891887187E+03  0.17912678770E+03  0.00000000000E+00 0. -1.
         21    1    1    2  505  501  0.84933655436E+02  0.13625987934E+03 -0.31067308402E+02  0.16354099852E+03  0.00000000000E+00 0. -1.
          1    1    1    2  501    0  0.38142889897E+02  0.77476230168E+01  0.25246633856E+03  0.25544893388E+03  0.00000000000E+00 0. -1.
<scales pt_clust_3="32.47039" pt_clust_4="32.47039" pt_clust_5="177.33883" pt_clust_6="38.92179"></scales>
<clustering>
<clus scale="   32.470">  3  4 -1 -1</clus>
<clus scale="   38.922">  1  6  2 -1</clus>
<clus scale="  177.339">  1  5  2 -1</clus>
<clus scale="  185.174">  2  3  1 -1</clus>
</clustering>
</event>
<event>
 6    0  0.2433432E+002  0.2653800E+03  0.7546771E-02  0.1103953E+00
         21   -1    0    0  504  502  0.00000000000E+00  0.00000000000E+00  0.16363524402E+04  0.16363524402E+04  0.00000000000E+00 0. -1.
          3   -1    0    0  503    0 -0.00000000000E+00 -0.00000000000E+00 -0.12642811015E+04  0.12642811015E+04  0.00000000000E+00 0.  1.
         21    1    1    2  503  505  0.51005641219E+02 -0.12889258244E+03  0.10382808946E+04  0.10474932407E+04  0.00000000000E+00 0. -1.
         21    1    1    2  504  501  0.43435431467E+02  0.39801801659E+02  0.19074053972E+03  0.19963159473E+03  0.00000000000E+00 0. -1.
         21    1    1    2  505  502  0.83670014801E+02 -0.71748971406E+02  0.37888320725E+03  0.39458975026E+03  0.00000000000E+00 0. -1.
          3    1    1    2  501    0 -0.17811108749E+03  0.16083975219E+03 -0.12358333029E+04  0.12589189560E+04  0.00000000000E+00 0.  1.
<scales pt_clust_3="105.93861" pt_clust_4="58.91367" pt_clust_5="105.93861" pt_clust_6="239.94130"></scales>
<clustering>
<clus scale="   58.914">  1  4  2 -1</clus>
<clus scale="  105.939">  3  5 -1 -1</clus>
<clus scale="  239.941">  2  6  1 -1</clus>
<clus scale="   58.914">  1  3  2 -1</clus>
</clustering>
</event>
<event>
 6    0  0.2433432E+002  0.1186810E+03  0.7546771E-02  0.1245289E+00
          2   -1    0    0  503    0 -0.00000000000E+00  0.00000000000E+00  0.20937207340E+04  0.20937207340E+04  0.00000000000E+00 0.  1.
         21   -1    0    0  505  502  0.00000000000E+00 -0.00000000000E+00 -0.35429715268E+02  0.35429715268E+02  0.00000000000E+00 0. -1.
         21    1    1    2  503  502 -0.76555047933E+02  0.17892130007E+02  0.21660812976E+03  0.23043412412E+03  0.00000000000E+00 0.  1.
         21    1    1    2  504  501  0.72058162260E+02  0.31799901087E+02  0.14625539407E+03  0.16611517918E+03  0.00000000000E+00 0. -1.
         21    1    1    2  505  504  0.95969050121E+02  0.74941176242E+01  0.12164108607E+03  0.15512180440E+03  0.00000000000E+00 0. -1.
          2    1    1    2  501    0 -0.91472164448E+02 -0.57186148718E+02  0.15737864088E+04  0.15774793415E+04  0.00000000000E+00 0.  1.
<scales pt_clust_3="78.61809" pt_clust_4="36.71552" pt_clust_5="36.71552" pt_clust_6="111.52431"></scales>
<clustering>
<clus scale="   36.716">  4  5 -1 -1</clus>
<clus scale="   78.618">  2  3  1 -1</clus>
<clus scale="  111.524">  1  6  2 -1</clus>
<clus scale="   78.618">  2  3  1 -1</clus>
</clustering>
</event>
<event>
 6    0  0.2433432E+002  0.2961417E+03  0.7546771E-02  0.1087185E+00
          2   -1    0    0  504    0 -0.00000000000E+00  0.00000000000E+00  0.24513240933E+04  0.24513240933E+04  0.00000000000E+00 0. -1.
         21   -1    0    0  505  502  0.00000000000E+00 -0.00000000000E+00 -0.10049535228E+03  0.10049535228E+03  0.00000000000E+00 0.  1.
         21    1    1    2  503  502  0.23365513109E+02  0.50994126897E+02  0.12015989238E+03  0.13260749570E+03  0.00000000000E+00 0.  1.
         21    1    1    2  504  503 -0.20943982812E+02 -0.73614983397E+02  0.17294442204E+03  0.18912321198E+03  0.00000000000E+00 0.  1.
         21    1    1    2  505  501  0.76063751528E+02 -0.26613779435E+03  0.18342702980E+03  0.33205495801E+03  0.00000000000E+00 0.  1.
          2    1    1    2  501    0 -0.78485281826E+02  0.28875865085E+03  0.18742973968E+04  0.18980337799E+04  0.00000000000E+00 0. -1.
<scales pt_clust_3="56.09232" pt_clust_4="71.78268" pt_clust_5="296.14173" pt_clust_6="14000.00000"></scales>
<clustering>
<clus scale="   56.092">  2  3  1 -1</clus>
<clus scale="   71.783">  2  4  1 -1</clus>
<clus scale="  296.142">  2  5  1 -1</clus>
<clus scale="   56.092">  2  3  1 -1</clus>
</clustering>
</event>
<event>
 6    0  0.2433432E+002  0.1413367E+03  0.7546771E-02  0.1211542E+00
          1   -1    0    0  504    0 -0.00000000000E+00  0.00000000000E+00  0.27620527768E+04  0.27620527768E+04  0.00000000000E+00 0.  1.
         21   -1    0    0  503  502  0.00000000000E+00 -0.00000000000E+00 -0.29204761962E+03  0.29204761962E+03  0.00000000000E+00 0.  1.
         21    1    1    2  503  505  0.81651258855E+02  0.27008395086E+02 -0.19061279793E+01  0.86023338703E+02  0.00000000000E+00 0.  1.
         21    1    1    2  504  502 -0.17985386909E+02  0.34842250475E+02 -0.20680936722E+03  0.21049363632E+03  0.00000000000E+00 0.  1.
         21    1    1    2  505  501  0.62331786665E+02 -0.85236624553E+01 -0.11441926867E+02  0.63943898387E+02  0.00000000000E+00 0.  1.
          1    1    1    2  501    0 -0.12599765861E+03 -0.53326983106E+02  0.26901625793E+04  0.26936395230E+04  0.00000000000E+00 0.  1.
<scales pt_clust_3="30.10801" pt_clust_4="39.21041" pt_clust_5="30.10801" pt_clust_6="136.88265"></scales>
<clustering>
<clus scale="   30.108">  3  5 -1 -1</clus>
<clus scale="   39.210">  2  4  1 -1</clus>
<clus scale="  136.883">  1  6  2 -1</clus>
<clus scale="   39.210">  2  3  1 -1</clus>
</clustering>
</event>
<event>
 6    0  0.2433432E+002  0.1656443E+03  0.7546771E-02  0.1182468E+00
          2   -1    0    0  505    0 -0.00000000000E+00  0.00000000000E+00  0.27617109120E+04  0.27617109120E+04  0.00000000000E+00 0.  1.
         21   -1    0    0  504  502  0.00000000000E+00 -0.00000000000E+00 -0.81459685420E+02  0.81459685420E+02  0.00000000000E+00 0.  1.
         21    1    1    2  503  502 -0.51555620689E+02 -0.42148998080E+01  0.58751023704E+02  0.78277903595E+02  0.00000000000E+00 0. -1.
         21    1    1    2  504  501  0.15895101709E+03 -0.87980012483E+02  0.11887133124E+03  0.21710896301E+03  0.00000000000E+00 0.  1.
         21    1    1    2  505  503 -0.84129927414E+02  0.42992409994E+02  0.77922932205E+02  0.12246703788E+03  0.00000000000E+00 0.  1.
          2    1    1    2  501    0 -0.23265468987E+02  0.49202502296E+02  0.24247059395E+04  0.24253166930E+04  0.00000000000E+00 0.  1.
<scales pt_clust_3="30.54872" pt_clust_4="160.41674" pt_clust_5="30.54872" pt_clust_6="54.42581"></scales>
<clustering>
<clus scale="   30.549">  3  5 -1 -1</clus>
<clus scale="   54.426">  1  6  2 -1</clus>
<clus scale="  160.417">  1  4  2 -1</clus>
<clus scale="  165.644">  2  3  1 -1</clus>
</clustering>
</event>
<event>
 6    0  0.2433432E+002  0.1498393E+03  0.7546771E-02  0.1200671E+00
         -1   -1    0    0    0  501 -0.00000000000E+00  0.00000000000E+00  0.24507612148E+04  0.24507612148E+04  0.00000000000E+00 0.  1.
         21   -1    0    0  504  502  0.00000000000E+00 -0.00000000000E+00 -0.27463349710E+02  0.27463349710E+02  0.00000000000E+00 0. -1.
         21    1    1    2  503  501  0.11660378976E+03 -0.21348885253E+02  0.39683496767E+03  0.41416205796E+03  0.00000000000E+00 0. -1.
         21    1    1    2  504  503  0.34770574927E+02 -0.76368335004E+02  0.29287186885E+03  0.30465562039E+03  0.00000000000E+00 0. -1.
         21    1    1    2  505  502 -0.10242123876E+03 -0.31301901864E+01  0.23181031987E+03  0.25344808667E+03  0.00000000000E+00 0. -1.
         -1    1    1    2    0  505 -0.48953125936E+02  0.10084741044E+03  0.15017807087E+04  0.15059587995E+04  0.00000000000E+00 0.  1.
<scales pt_clust_3="77.75267" pt_clust_4="77.75267" pt_clust_5="102.46906" pt_clust_6="117.94636"></scales>
<clustering>
<clus scale="   77.753">  3  4 -1 -1</clus>
<clus scale="  102.469">  2  5  1 -1</clus>
<clus scale="  117.946">  1  6  2 -1</clus>
<clus scale="  102.469">  2  3  1 -1</clus>
</clustering>
</event>
<event>
 6    0  0.1014602E+003  0.7757934E+02  0.7546771E-02  0.1336065E+00
          2   -1    0    0  503    0 -0.00000000000E+00  0.00000000000E+00  0.64442304246E+03  0.64442304246E+03  0.00000000000E+00 0.  1.
         21   -1    0    0  504  502  0.00000000000E+00 -0.00000000000E+00 -0.12298676926E+04  0.12298676926E+04  0.00000000000E+00 0.  1.
         21    1    1    2  503  502 -0.20318960092E+02 -0.11443151593E+03 -0.11041881432E+04  0.11102877499E+04  0.00000000000E+00 0.  1.
         21    1    1    2  504  505 -0.32638419352E+02 -0.10053858581E+02 -0.72877476067E+02  0.80482749754E+02  0.00000000000E+00 0.  1.
         21    1    1    2  505  501  0.13826347284E+02  0.57578052260E+02 -0.23373186162E+02  0.63660865629E+02  0.00000000000E+00 0.  1.
          2    1    1    2  501    0  0.39131032160E+02  0.66907322248E+02  0.61499415521E+03  0.61985936985E+03  0.00000000000E+00 0.  1.
<scales pt_clust_3="77.57934" pt_clust_4="34.15182" pt_clust_5="58.56887" pt_clust_6="14000.00000"></scales>
<clustering>
<clus scale="   34.152">  2  4  1 -1</clus>
<clus scale="   58.569">  2  5  1 -1</clus>
<clus scale="   77.579">  2  3  1 -1</clus>
<clus scale="   34.152">  2  3  1 -1</clus>
</clustering>
</event>
<event>
 6    0  0.2433432E+002  0.4769650E+03  0.7546771E-02  0.1019973E+00
         21   -1    0    0  503  502  0.00000000000E+00  0.00000000000E+00  0.69109883196E+03  0.69109883196E+03  0.00000000000E+00 0. -1.
         -2   -1    0    0    0  501 -0.00000000000E+00 -0.00000000000E+00 -0.13596744613E+04  0.13596744613E+04  0.00000000000E+00 0.  1.
         21    1    1    2  503  504  0.29918322144E+03  0.92066825964E+02  0.22628401769E+03  0.38625297034E+03  0.00000000000E+00 0. -1.
         21    1    1    2  504  501 -0.48619645475E+02  0.43744960929E+03 -0.20486800556E+02  0.44061972220E+03  0.00000000000E+00 0. -1.
         21    1    1    2  505  502 -0.65968071139E+02 -0.65311910693E+02  0.95343130798E+02  0.13307045006E+03  0.00000000000E+00 0. -1.
         -2    1    1    2    0  505 -0.18459550483E+03 -0.46420452456E+03 -0.96971597725E+03  0.10908301506E+04  0.00000000000E+00 0.  1.
<scales pt_clust_3="270.32406" pt_clust_4="476.96498" pt_clust_5="92.83012" pt_clust_6="14000.00000"></scales>
<clustering>
<clus scale="   92.830">  1  5  2 -1</clus>
<clus scale="  270.324">  1  3  2 -1</clus>
<clus scale="  476.965">  1  4  2 -1</clus>
<clus scale="   92.830">  1  3  2 -1</clus>
</clustering>
</event>
<event>
 6    0  0.2433432E+002  0.1677910E+03  0.7546771E-02  0.1180171E+00
          2   -1    0    0  503    0 -0.00000000000E+00  0.00000000000E+00  0.12684330318E+04  0.12684330318E+04  0.00000000000E+00 0.  1.
         21   -1    0    0  505  502  0.00000000000E+00 -0.00000000000E+00 -0.58316495275E+02  0.58316495275E+02  0.00000000000E+00 0.  1.
         21    1    1    2  503  504 -0.69808872565E+02  0.62867726583E+02  0.12070901507E+03  0.15295847820E+03  0.00000000000E+00 0.  1.
         21    1    1    2  504  502 -0.48359061358E+02 -0.74578481858E+01  0.40483054075E+02  0.63506660928E+02  0.00000000000E+00 0.  1.
         21    1    1    2  505  501  0.17333003251E+03 -0.12127377580E+03  0.37210117364E+03  0.42803027029E+03  0.00000000000E+00 0.  1.
          2    1    1    2  501    0 -0.55162098587E+02  0.65863897399E+02  0.67682329372E+03  0.68225411763E+03  0.00000000000E+00 0.  1.
<scales pt_clust_3="44.72397" pt_clust_4="44.72397" pt_clust_5="155.92772" pt_clust_6="85.91222"></scales>
<clustering>
<clus scale="   44.724">  3  4 -1 -1</clus>
<clus scale="   85.912">  1  6  2 -1</clus>
<clus scale="  155.928">  1  5  2 -1</clus>
<clus scale="  167.791">  2  3  1 -1</clus>
</clustering>
</event>
<event>
 6    0  0.2433432E+002  0.1286201E+03  0.7546771E-02  0.1229518E+00
          1   -1    0    0  505    0 -0.00000000000E+00  0.00000000000E+00  0.66662454350E+03  0.66662454350E+03  0.00000000000E+00 0. -1.
         21   -1    0    0  503  502  0.00000000000E+00 -0.00000000000E+00 -0.26443419756E+03  0.26443419756E+03  0.00000000000E+00 0.  1.
         21    1    1    2  503  504 -0.31088019697E+02 -0.44218437159E+02  0.18283328600E+01  0.54083989817E+02  0.00000000000E+00 0.  1.
         21    1    1    2  504  501 -0.55739739527E+02  0.11290553805E+01 -0.45939834088E+01  0.55940128818E+02  0.00000000000E+00 0.  1.
         21    1    1    2  505  502  0.89636353689E+01 -0.49030445883E+02 -0.19900237805E+03  0.20514940373E+03  0.00000000000E+00 0.  1.
          1    1    1    2  501    0  0.77864123856E+02  0.92119827661E+02  0.60395837454E+03  0.61588521870E+03  0.00000000000E+00 0. -1.
<scales pt_clust_3="46.46411" pt_clust_4="46.46411" pt_clust_5="49.84307" pt_clust_6="117.64872"></scales>
<clustering>
<clus scale="   49.843">  2  5  1 -1</clus>
<clus scale="   46.464">  3  4 -1 -1</clus>
<clus scale="  117.649">  1  6  2 -1</clus>
<clus scale="   49.843">  2  3  1 -1</clus>
</clustering>
</event>
<event>
 6    0  0.2433432E+002  0.1498752E+03  0.7546771E-02  0.1200626E+00
         21   -1    0    0  504  502  0.00000000000E+00  0.00000000000E+00  0.68127304247E+03  0.68127304247E+03  0.00000000000E+00 0. -1.
          2   -1    0    0  505    0 -0.00000000000E+00 -0.00000000000E+00 -0.11643910919E+04  0.11643910919E+04  0.00000000000E+00 0. -1.
         21    1    1    2  503  502  0.22001024335E+02  0.15062481355E+03  0.61476703547E+03  0.63333276201E+03  0.00000000000E+00 0. -1.
         21    1    1    2  504  501 -0.39535049616E+02 -0.11035216225E+03 -0.11287314957E+03  0.16272973839E+03  0.00000000000E+00 0.  1.
         21    1    1    2  505  503 -0.21801194802E+02 -0.48314326850E+02  0.98644778590E+01  0.53915435611E+02  0.00000000000E+00 0.  1.
          2    1    1    2  501    0  0.39335220083E+02  0.80416755478E+01 -0.99487641315E+03  0.99568619833E+03  0.00000000000E+00 0. -1.
<scales pt_clust_3="14000.00000" pt_clust_4="149.87518" pt_clust_5="50.12306" pt_clust_6="40.14882"></scales>
<clustering>
<clus scale="   40.149">  2  6  1 -1</clus>
<clus scale="   50.123">  2  5  1 -1</clus>
<clus scale="  149.875">  2  4  1 -1</clus>
<clus scale="  149.875">  1  3  2 -1</clus>
</clustering>
</event>
<event>
 6    0  0.2433432E+002  0.1660443E+03  0.7546771E-02  0.1182037E+00
         21   -1    0    0  503  502  0.00000000000E+00  0.00000000000E+00  0.60115397350E+03  0.60115397350E+03  0.00000000000E+00 0.  1.
          3   -1    0    0  505    0 -0.00000000000E+00 -0.00000000000E+00 -0.41696154225E+03  0.41696154225E+03  0.00000000000E+00 0.  1.
         21    1    1    2  503  504  0.32710340960E+02 -0.13579096804E+03  0.18999310870E+03  0.23581037883E+03  0.00000000000E+00 0.  1.
         21    1    1    2  504  501  0.64059952187E+02 -0.64429120455E+02  0.25813980355E+02  0.94451842854E+02  0.00000000000E+00 0.  1.
         21    1    1    2  505  502 -0.12323812691E+03  0.17480968953E+03  0.29211783784E+03  0.36204819384E+03  0.00000000000E+00 0.  1.
          3    1    1    2  501    0  0.26467833761E+02  0.25410398968E+02 -0.32373249565E+03  0.32580510023E+03  0.00000000000E+00 0.  1.
<scales pt_clust_3="14000.00000" pt_clust_4="92.11290" pt_clust_5="166.04430" pt_clust_6="36.69107"></scales>
<clustering>
<clus scale="   36.691">  2  6  1 -1</clus>
<clus scale="   92.113">  2  4  1 -1</clus>
<clus scale="  166.044">  2  5  1 -1</clus>
<clus scale="  166.044">  1  3  2 -1</clus>
</clustering>
</event>
<event>
 6    0  0.2433432E+002  0.1318646E+03  0.7546771E-02  0.1224715E+00
          1   -1    0    0  504    0 -0.00000000000E+00  0.00000000000E+00  0.31640310213E+03  0.31640310213E+03  0.00000000000E+00 0.  1.
         21   -1    0    0  503  502  0.00000000000E+00 -0.00000000000E+00 -0.33602621035E+03  0.33602621035E+03  0.00000000000E+00 0. -1.
         21    1    1    2  503  501 -0.13669310069E+03 -0.33414783089E+02 -0.24001413895E+03  0.27822354034E+03  0.00000000000E+00 0. -1.
         21    1    1    2  504  505  0.32402609273E+02 -0.57447558212E+01 -0.17446733291E+02  0.37246742269E+02  0.00000000000E+00 0.  1.
         21    1    1    2  505  502 -0.25736386158E+02  0.20395739126E+02 -0.26222640473E+02  0.42023500810E+02  0.00000000000E+00 0. -1.
          1    1    1    2  501    0  0.13002687758E+03  0.18763799785E+02  0.26406040449E+03  0.29493552905E+03  0.00000000000E+00 0.  1.
<scales pt_clust_3="131.86462" pt_clust_4="30.32287" pt_clust_5="32.83821" pt_clust_6="14000.00000"></scales>
<clustering>
<clus scale="   32.838">  2  5  1 -1</clus>
<clus scale="   30.323">  2  4  1 -1</clus>
<clus scale="  131.865">  2  3  1 -1</clus>
<clus scale="   32.838">  2  3  1 -1</clus>
</clustering>
</event>
<event>
 6    0  0.2433432E+002  0.1713175E+03  0.7546771E-02  0.1176481E+00
          2   -1    0    0  503    0 -0.00000000000E+00  0.00000000000E+00  0.18418358028E+04  0.18418358028E+04  0.00000000000E+00 0.  1.
         21   -1    0    0  504  502  0.00000000000E+00 -0.00000000000E+00 -0.64750404557E+02  0.64750404557E+02  0.00000000000E+00 0.  1.
         21    1    1    2  503  505 -0.29759477968E+02 -0.31403737630E+02  0.67642817863E+02  0.80295529605E+02  0.00000000000E+00 0.  1.
         21    1    1    2  504  501 -0.24239151279E+01  0.74732014848E+02  0.16492085516E+02  0.76568520245E+02  0.00000000000E+00 0.  1.
         21    1    1    2  505  502  0.19860091925E+02 -0.18782830917E+03  0.33932090344E+03  0.38834594434E+03  0.00000000000E+00 0.  1.
          2    1    1    2  501    0  0.12323301171E+02  0.14450003195E+03  0.13536295914E+04  0.13613762131E+04  0.00000000000E+00 0.  1.
<scales pt_clust_3="36.58967" pt_clust_4="74.77131" pt_clust_5="36.58967" pt_clust_6="153.31340"></scales>
<clustering>
<clus scale="   36.590">  3  5 -1 -1</clus>
<clus scale="   74.771">  2  4  1 -1</clus>
<clus scale="  153.313">  1  6  2 -1</clus>
<clus scale="   74.771">  2  3  1 -1</clus>
</clustering>
</event>
<event>
 6    0  0.2433432E+002  0.1416721E+03  0.7546771E-02  0.1211097E+00
          2   -1    0    0  505    0 -0.00000000000E+00  0.00000000000E+00  0.25373443698E+04  0.25373443698E+04  0.00000000000E+00 0. -1.
         21   -1    0    0  503  502  0.00000000000E+00 -0.00000000000E+00 -0.59319017915E+03  0.59319017915E+03  0.00000000000E+00 0.  1.
         21    1    1    2  503  504  0.71061656356E+02 -0.98582459522E+02 -0.53347803255E+03  0.54714447044E+03  0.00000000000E+00 0.  1.
         21    1    1    2  504  501 -0.38302909054E+02  0.11815487649E+03  0.52476401013E+02  0.13483864558E+03  0.00000000000E+00 0.  1.
         21    1    1    2  505  502  0.15869282216E+01 -0.34798246595E+02  0.14710189357E+02  0.37813039790E+02  0.00000000000E+00 0. -1.
          2    1    1    2  501    0 -0.34345675523E+02  0.15225829628E+02  0.24104456328E+04  0.24107383932E+04  0.00000000000E+00 0. -1.
<scales pt_clust_3="141.67213" pt_clust_4="14000.00000" pt_clust_5="34.83441" pt_clust_6="37.56537"></scales>
<clustering>
<clus scale="   34.834">  2  5  1 -1</clus>
<clus scale="   37.565">  1  6  2 -1</clus>
<clus scale="  141.672">  2  3  1 -1</clus>
<clus scale="   34.834">  2  3  1 -1</clus>
</clustering>
</event>
<event>
 6    0  0.2433432E+002  0.8457527E+02  0.7546771E-02  0.1316547E+00
         21   -1    0    0  503  502  0.00000000000E+00  0.00000000000E+00  0.62695531260E+02  0.62695531260E+02  0.00000000000E+00 0. -1.
         -1   -1    0    0    0  501 -0.00000000000E+00 -0.00000000000E+00 -0.99262330758E+03  0.99262330758E+03  0.00000000000E+00 0.  1.
         21    1    1    2  503  505 -0.48275323432E+02 -0.66317393576E+02  0.20374315566E+01  0.82052755411E+02  0.00000000000E+00 0. -1.
         21    1    1    2  504  501  0.31787176716E+02  0.67904378823E+02 -0.14507662013E+03  0.16330540400E+03  0.00000000000E+00 0.  1.
         21    1    1    2  505  504 -0.60780976043E+02  0.50671651651E+02 -0.18989438233E+03  0.20572267685E+03  0.00000000000E+00 0.  1.
         -1    1    1    2    0  502  0.77269122759E+02 -0.52258636898E+02 -0.59699420541E+03  0.60423800258E+03  0.00000000000E+00 0.  1.
<scales pt_clust_3="78.51809" pt_clust_4="74.97619" pt_clust_5="14000.00000" pt_clust_6="84.57527"></scales>
<clustering>
<clus scale="   74.976">  2  4  1 -1</clus>
<clus scale="   78.518">  1  3  2 -1</clus>
<clus scale="   84.575">  2  6  1 -1</clus>
<clus scale="   78.518">  1  3  2 -1</clus>
</clustering>
</event>
<event>
 6    0  0.2433432E+002  0.9321670E+02  0.7546771E-02  0.1295244E+00
         21   -1    0    0  504  502  0.00000000000E+00  0.00000000000E+00  0.12913331732E+04  0.12913331732E+04  0.00000000000E+00 0. -1.
         -2   -1    0    0    0  501 -0.00000000000E+00 -0.00000000000E+00 -0.53338904421E+03  0.53338904421E+03  0.00000000000E+00 0.  1.
         21    1    1    2  503  502 -0.63104701985E+02 -0.64943450541E+02  0.93209826737E+03  0.93648653766E+03  0.00000000000E+00 0. -1.
         21    1    1    2  504  501  0.71736544115E+02  0.80704389819E+02  0.22905412757E+03  0.25322938940E+03  0.00000000000E+00 0. -1.
         21    1    1    2  505  503 -0.13295507329E+02 -0.51687333478E+02  0.10908119006E+03  0.12143746120E+03  0.00000000000E+00 0. -1.
         -2    1    1    2    0  505  0.46636651987E+01  0.35926394199E+02 -0.51228945599E+03  0.51356882917E+03  0.00000000000E+00 0.  1.
<scales pt_clust_3="93.21670" pt_clust_4="14000.00000" pt_clust_5="42.53377" pt_clust_6="36.22783"></scales>
<clustering>
<clus scale="   36.228">  2  6  1 -1</clus>
<clus scale="   42.534">  2  5  1 -1</clus>
<clus scale="   93.217">  1  3  2 -1</clus>
<clus scale="   93.217">  1  3  2 -1</clus>
</clustering>
</event>
<event>
 6    0  0.2433432E+002  0.8288901E+02  0.7546771E-02  0.1321047E+00
         21   -1    0    0  504  502  0.00000000000E+00  0.00000000000E+00  0.46306681787E+03  0.46306681787E+03  0.00000000000E+00 0. -1.
          1   -1    0    0  503    0 -0.00000000000E+00 -0.00000000000E+00 -0.88125301754E+03  0.88125301754E+03  0.00000000000E+00 0. -1.
         21    1    1    2  503  505 -0.79062861393E+02 -0.10966594959E+02 -0.89794822153E+02  0.12014288303E+03  0.00000000000E+00 0. -1.
         21    1    1    2  504  501  0.35328110869E+02 -0.75722159721E+02  0.19486987877E+03  0.21202874933E+03  0.00000000000E+00 0. -1.
         21    1    1    2  505  502  0.49924752541E+02  0.55179944387E+02  0.23843416841E+03  0.24977621953E+03  0.00000000000E+00 0. -1.
          1    1    1    2  501    0 -0.61900020166E+01  0.31508810293E+02 -0.76169542470E+03  0.76237198352E+03  0.00000000000E+00 0. -1.
<scales pt_clust_3="82.88901" pt_clust_4="14000.00000" pt_clust_5="75.33690" pt_clust_6="32.11108"></scales>
<clustering>
<clus scale="   32.111">  2  6  1 -1</clus>
<clus scale="   75.337">  1  5  2 -1</clus>
<clus scale="   82.889">  2  3  1 -1</clus>
<clus scale="   75.337">  1  3  2 -1</clus>
</clustering>
</event>
<event>
 6    0  0.2433432E+002  0.1181594E+03  0.7546771E-02  0.1246165E+00
         -4   -1    0    0    0  501 -0.00000000000E+00  0.00000000000E+00  0.18370882200E+03  0.18370882200E+03  0.00000000000E+00 0. -1.
         21   -1    0    0  504  502  0.00000000000E+00 -0.00000000000E+00 -0.63112714403E+03  0.63112714403E+03  0.00000000000E+00 0. -1.
         21    1    1    2  503  501  0.35458157965E+02  0.93995734584E+01  0.36316116547E+02  0.51618729823E+02  0.00000000000E+00 0.  1.
         21    1    1    2  504  503  0.70719503708E+02 -0.46577643391E+02  0.98041378360E+01  0.85245798649E+02  0.00000000000E+00 0. -1.
         21    1    1    2  505  502 -0.96440854040E+02  0.75963159023E+02 -0.57460796850E+03  0.58757600132E+03  0.00000000000E+00 0. -1.
         -4    1    1    2    0  505 -0.97368076330E+01 -0.38785089090E+02  0.81069392092E+02  0.90395436239E+02  0.00000000000E+00 0. -1.
<scales pt_clust_3="36.68287" pt_clust_4="118.15936" pt_clust_5="14000.00000" pt_clust_6="35.13720"></scales>
<clustering>
<clus scale="   36.683">  1  3  2 -1</clus>
<clus scale="   35.137">  1  6  2 -1</clus>
<clus scale="  118.159">  1  4  2 -1</clus>
<clus scale="  118.159">  2  3  1 -1</clus>
</clustering>
</event>
<event>
 6    0  0.2433432E+002  0.1076451E+03  0.7546771E-02  0.1264994E+00
          2   -1    0    0  503    0 -0.00000000000E+00  0.00000000000E+00  0.13522192656E+04  0.13522192656E+04  0.00000000000E+00 0.  1.
         21   -1    0    0  505  502  0.00000000000E+00 -0.00000000000E+00 -0.63099430201E+02  0.63099430201E+02  0.00000000000E+00 0. -1.
         21    1    1    2  503  504  0.22725318470E+02 -0.77231393851E+02  0.27343280059E+02  0.85022251558E+02  0.00000000000E+00 0. -1.
         21    1    1    2  504  502  0.42588340743E+02 -0.40528688876E+02  0.99867103701E+01  0.59632841399E+02  0.00000000000E+00 0. -1.
         21    1    1    2  505  501  0.46247110198E+01  0.46559313087E+02  0.67241170499E+02  0.81917840531E+02  0.00000000000E+00 0.  1.
          2    1    1    2  501    0 -0.69938370233E+02  0.71200769639E+02  0.11845486744E+04  0.11887457623E+04  0.00000000000E+00 0.  1.
<scales pt_clust_3="31.95471" pt_clust_4="31.95471" pt_clust_5="46.78843" pt_clust_6="100.94158"></scales>
<clustering>
<clus scale="   31.955">  3  4 -1 -1</clus>
<clus scale="   46.788">  2  5  1 -1</clus>
<clus scale="  100.942">  1  6  2 -1</clus>
<clus scale="   46.788">  2  3  1 -1</clus>
</clustering>
</event>
<event>
 6    0  0.2433432E+002  0.2872978E+03  0.7546771E-02  0.1091768E+00
         21   -1    0    0  505  502  0.00000000000E+00  0.00000000000E+00  0.98567089933E+02  0.98567089933E+02  0.00000000000E+00 0.  1.
          2   -1    0    0  504    0 -0.00000000000E+00 -0.00000000000E+00 -0.53293072908E+04  0.53293072908E+04  0.00000000000E+00 0.  1.
         21    1    1    2  503  502  0.42782540356E+02 -0.19636399492E+01 -0.13725047738E+03  0.14377724153E+03  0.00000000000E+00 0.  1.
         21    1    1    2  504  503  0.23868291980E+03 -0.15997403458E+03 -0.44892155326E+04  0.44984016413E+04  0.00000000000E+00 0.  1.
         21    1    1    2  505  501 -0.25544166544E+02  0.28600963264E+02  0.54413483147E+02  0.66568361046E+02  0.00000000000E+00 0.  1.
          2    1    1    2  501    0 -0.25592129361E+03  0.13333671127E+03 -0.65868767402E+03  0.71912713688E+03  0.00000000000E+00 0.  1.
<scales pt_clust_3="40.59616" pt_clust_4="14000.00000" pt_clust_5="38.34735" pt_clust_6="287.29779"></scales>
<clustering>
<clus scale="   38.347">  1  5  2 -1</clus>
<clus scale="   40.596">  1  3  2 -1</clus>
<clus scale="  287.298">  1  6  2 -1</clus>
<clus scale="   38.347">  1  3  2 -1</clus>
</clustering>
</event>
<event>
 6    0  0.2433432E+002  0.1228461E+03  0.7546771E-02  0.1238474E+00
         21   -1    0    0  505  502  0.00000000000E+00  0.00000000000E+00  0.24882349312E+04  0.24882349312E+04  0.00000000000E+00 0.  1.
         -2   -1    0    0    0  501 -0.00000000000E+00 -0.00000000000E+00 -0.17581629398E+03  0.17581629398E+03  0.00000000000E+00 0. -1.
         21    1    1    2  503  502  0.24143116190E+02  0.43994864548E+02  0.10342957159E+04  0.10355124654E+04  0.00000000000E+00 0.  1.
         21    1    1    2  504  503 -0.27995875538E+02  0.71437425922E+02  0.11942418885E+04  0.11967041251E+04  0.00000000000E+00 0.  1.
         21    1    1    2  505  501 -0.33168488603E+02 -0.12241338403E+02  0.23915733876E+03  0.24175655458E+03  0.00000000000E+00 0.  1.
         -2    1    1    2    0  504  0.37021247951E+02 -0.10319095207E+03 -0.15527630583E+03  0.19007808012E+03  0.00000000000E+00 0. -1.
<scales pt_clust_3="39.03631" pt_clust_4="39.03631" pt_clust_5="35.35532" pt_clust_6="109.63378"></scales>
<clustering>
<clus scale="   35.355">  1  5  2 -1</clus>
<clus scale="   39.036">  3  4 -1 -1</clus>
<clus scale="  109.634">  2  6  1 -1</clus>
<clus scale="   35.355">  1  3  2 -1</clus>
</clustering>
</event>
<event>
 6    0  0.2433432E+002  0.1299967E+03  0.7546771E-02  0.1227461E+00
         21   -1    0    0  505  502  0.00000000000E+00  0.00000000000E+00  0.92711762337E+02  0.92711762337E+02  0.00000000000E+00 0.  1.
          2   -1    0    0  503    0 -0.00000000000E+00 -0.00000000000E+00 -0.22590091551E+04  0.22590091551E+04  0.00000000000E+00 0.  1.
         21    1    1    2  503  504 -0.33748988834E+02 -0.18366379932E+02 -0.10739675384E+03  0.11406305666E+03  0.00000000000E+00 0. -1.
         21    1    1    2  504  502 -0.69496305959E+02  0.16929683798E+02 -0.17174917182E+04  0.17189805563E+04  0.00000000000E+00 0.  1.
         21    1    1    2  505  501  0.11866197911E+03 -0.57260795895E+02  0.35868128187E+02  0.13655030814E+03  0.00000000000E+00 0.  1.
          2    1    1    2  501    0 -0.15416684314E+02  0.58697492029E+02 -0.37727704893E+03  0.38212699639E+03  0.00000000000E+00 0.  1.
<scales pt_clust_3="38.42289" pt_clust_4="129.99671" pt_clust_5="14000.00000" pt_clust_6="59.43083"></scales>
<clustering>
<clus scale="   38.423">  2  3  1 -1</clus>
<clus scale="   59.431">  2  6  1 -1</clus>
<clus scale="  129.997">  2  4  1 -1</clus>
<clus scale="  129.997">  1  3  2 -1</clus>
</clustering>
</event>
<event>
 6    0  0.2433432E+002  0.1552446E+03  0.7546771E-02  0.1194173E+00
          2   -1    0    0  504    0 -0.00000000000E+00  0.00000000000E+00  0.26715991591E+04  0.26715991591E+04  0.00000000000E+00 0. -1.
         21   -1    0    0  505  502  0.00000000000E+00 -0.00000000000E+00 -0.31018851169E+02  0.31018851169E+02  0.00000000000E+00 0. -1.
         21    1    1    2  503  502  0.96908410091E+02 -0.15243980315E+03  0.40338521029E+03  0.44198276144E+03  0.00000000000E+00 0. -1.
         21    1    1    2  504  503  0.43565208452E+02 -0.88431924513E+00  0.20495294795E+03  0.20953381655E+03  0.00000000000E+00 0.  1.
         21    1    1    2  505  501 -0.45419553930E+01  0.12664353365E+03  0.67369745778E+03  0.68551256633E+03  0.00000000000E+00 0. -1.
          2    1    1    2  501    0 -0.13593166315E+03  0.26680588752E+02  0.13585446919E+04  0.13655888659E+04  0.00000000000E+00 0. -1.
<scales pt_clust_3="14000.00000" pt_clust_4="43.57418" pt_clust_5="155.24460" pt_clust_6="114.87852"></scales>
<clustering>
<clus scale="   43.574">  1  4  2 -1</clus>
<clus scale="  114.879">  1  6  2 -1</clus>
<clus scale="  155.245">  1  5  2 -1</clus>
<clus scale="  155.245">  2  3  1 -1</clus>
</clustering>
</event>
<event>
 6    0  0.2433432E+002  0.1179097E+03  0.7546771E-02  0.1246586E+00
         21   -1    0    0  505  502  0.00000000000E+00  0.00000000000E+00  0.29059427793E+03  0.29059427793E+03  0.00000000000E+00 0. -1.
          2   -1    0    0  503    0 -0.00000000000E+00 -0.00000000000E+00 -0.26751461252E+04  0.26751461252E+04  0.00000000000E+00 0. -1.
         21    1    1    2  503  502  0.21315415791E+02  0.32536474302E+02 -0.10399267333E+02  0.40263058396E+02  0.00000000000E+00 0. -1.
         21    1    1    2  504  501  0.71082770686E+02 -0.40125431483E+01  0.16932123464E+03  0.18368054141E+03  0.00000000000E+00 0. -1.
         21    1    1    2  505  504 -0.26836895734E+01  0.48758286748E+02  0.91738443910E+02  0.10392552529E+03  0.00000000000E+00 0. -1.
          2    1    1    2  501    0 -0.89714496904E+02 -0.77282217902E+02 -0.26352122585E+04  0.26378712780E+04  0.00000000000E+00 0. -1.
<scales pt_clust_3="38.89690" pt_clust_4="117.90965" pt_clust_5="60.50263" pt_clust_6="14000.00000"></scales>
<clustering>
<clus scale="   38.897">  1  3  2 -1</clus>
<clus scale="   60.503">  1  5  2 -1</clus>
<clus scale="  117.910">  1  4  2 -1</clus>
<clus scale="   38.897">  1  3  2 -1</clus>
</clustering>
</event>
<event>
 6    0  0.2433432E+002  0.8907411E+02  0.7546771E-02  0.1305109E+00
          1   -1    0    0  505    0 -0.00000000000E+00  0.00000000000E+00  0.55905207711E+03  0.55905207711E+03  0.00000000000E+00 0. -1.
         21   -1    0    0  504  502  0.00000000000E+00 -0.00000000000E+00 -0.91645985380E+02  0.91645985380E+02  0.00000000000E+00 0. -1.
         21    1    1    2  503  501  0.48308972280E+02 -0.68074456418E+02  0.12520923443E+03  0.15048335724E+03  0.00000000000E+00 0.  1.
         21    1    1    2  504  503  0.56682788603E+01  0.94715414291E+02 -0.19090216423E+02  0.96786235863E+02  0.00000000000E+00 0. -1.
         21    1    1    2  505  502 -0.89085234193E+02 -0.39075354903E+02  0.10003608948E+03  0.13953595060E+03  0.00000000000E+00 0. -1.
          1    1    1    2  501    0  0.35107983053E+02  0.12434397031E+02  0.26125098424E+03  0.26389251879E+03  0.00000000000E+00 0. -1.
<scales pt_clust_3="89.07411" pt_clust_4="14000.00000" pt_clust_5="82.27768" pt_clust_6="37.24493"></scales>
<clustering>
<clus scale="   37.245">  1  6  2 -1</clus>
<clus scale="   82.278">  1  5  2 -1</clus>
<clus scale="   89.074">  1  3  2 -1</clus>
<clus scale="   89.074">  2  3  1 -1</clus>
</clustering>
</event>
<event>
 6    0  0.2433432E+002  0.1000861E+03  0.7546771E-02  0.1280115E+00
         21   -1    0    0  504  502  0.00000000000E+00  0.00000000000E+00  0.79193979284E+02  0.79193979284E+02  0.00000000000E+00 0.  1.
          2   -1    0    0  505    0 -0.00000000000E+00 -0.00000000000E+00 -0.91614384235E+03  0.91614384235E+03  0.00000000000E+00 0. -1.
         21    1    1    2  503  501  0.55376854585E+02  0.78233589396E+02 -0.13148266947E+03  0.16271073383E+03  0.00000000000E+00 0.  1.
         21    1    1    2  504  503 -0.33199185038E+02 -0.91066909780E+01 -0.50539479195E+02  0.61150279353E+02  0.00000000000E+00 0.  1.
         21    1    1    2  505  502  0.42225448564E+02 -0.10852779588E+03 -0.43512671092E+01  0.11653413453E+03  0.00000000000E+00 0.  1.
          2    1    1    2  501    0 -0.64403118112E+02  0.39400897466E+02 -0.65057644730E+03  0.65494267392E+03  0.00000000000E+00 0. -1.
<scales pt_clust_3="100.08611" pt_clust_4="34.42554" pt_clust_5="14000.00000" pt_clust_6="76.19954"></scales>
<clustering>
<clus scale="   34.426">  1  4  2 -1</clus>
<clus scale="   76.200">  2  6  1 -1</clus>
<clus scale="  100.086">  2  3  1 -1</clus>
<clus scale="   34.426">  1  3  2 -1</clus>
</clustering>
</event>
<event>
 6    0  0.2433432E+002  0.3329662E+03  0.7546771E-02  0.1069832E+00
          2   -1    0    0  504    0 -0.00000000000E+00  0.00000000000E+00  0.23569115242E+04  0.23569115242E+04  0.00000000000E+00 0.  1.
         21   -1    0    0  501  502  0.00000000000E+00 -0.00000000000E+00 -0.19577176754E+03  0.19577176754E+03  0.00000000000E+00 0.  1.
         21    1    1    2  503  505 -0.28133708979E+02  0.31038692951E+02  0.19508277479E+02  0.46211242476E+02  0.00000000000E+00 0.  1.
         21    1    1    2  504  503  0.63819212478E+02 -0.58942220954E+02  0.14257805493E+03  0.16695981265E+03  0.00000000000E+00 0.  1.
         21    1    1    2  505  502 -0.14363160616E+02  0.28958025774E+03 -0.31875993242E+02  0.29168322715E+03  0.00000000000E+00 0.  1.
          2    1    1    2  501    0 -0.21322342884E+02 -0.26167672974E+03  0.20309294175E+04  0.20478290095E+04  0.00000000000E+00 0.  1.
<scales pt_clust_3="36.88701" pt_clust_4="86.87392" pt_clust_5="36.88701" pt_clust_6="318.51100"></scales>
<clustering>
<clus scale="   36.887">  3  5 -1 -1</clus>
<clus scale="   86.874">  1  4  2 -1</clus>
<clus scale="  318.511">  1  6  2 -1</clus>
<clus scale="  332.966">  2  3  1 -1</clus>
</clustering>
</event>
<event>
 6    0  0.2433432E+002  0.1159762E+03  0.7546771E-02  0.1249887E+00
          2   -1    0    0  504    0 -0.00000000000E+00  0.00000000000E+00  0.19142741496E+04  0.19142741496E+04  0.00000000000E+00 0.  1.
         21   -1    0    0  503  502  0.00000000000E+00 -0.00000000000E+00 -0.28623940839E+02  0.28623940839E+02  0.00000000000E+00 0.  1.
         21    1    1    2  503  501  0.95059590903E+02 -0.45820835794E+02  0.18046829692E+03  0.20905664546E+03  0.00000000000E+00 0.  1.
         21    1    1    2  504  505 -0.30119016040E+01  0.36266945037E+02  0.19345925680E+03  0.19685234796E+03  0.00000000000E+00 0.  1.
         21    1    1    2  505  502  0.27164184620E+02  0.65466492788E+02  0.12240062058E+03  0.14144138900E+03  0.00000000000E+00 0.  1.
          2    1    1    2  501    0 -0.11921187392E+03 -0.55912602032E+02  0.13893220344E+04  0.13955477080E+04  0.00000000000E+00 0.  1.
<scales pt_clust_3="115.97618" pt_clust_4="36.39180" pt_clust_5="73.37158" pt_clust_6="14000.00000"></scales>
<clustering>
<clus scale="   36.392">  1  4  2 -1</clus>
<clus scale="   73.372">  2  5  1 -1</clus>
<clus scale="  115.976">  2  3  1 -1</clus>
<clus scale="   73.372">  2  3  1 -1</clus>
</clustering>
</event>
<event>
 6    0  0.2433432E+002  0.1532791E+03  0.7546771E-02  0.1196501E+00
          2   -1    0    0  504    0 -0.00000000000E+00  0.00000000000E+00  0.40230574856E+03  0.40230574856E+03  0.00000000000E+00 0.  1.
         21   -1    0    0  503  502  0.00000000000E+00 -0.00000000000E+00 -0.25739467051E+03  0.25739467051E+03  0.00000000000E+00 0. -1.
         21    1    1    2  503  501 -0.85478613089E+02 -0.12638238497E+03 -0.38654643201E+02  0.15739530478E+03  0.00000000000E+00 0. -1.
         21    1    1    2  504  505 -0.81996904438E+02  0.10284864209E+03  0.66986747396E+02  0.14760948426E+03  0.00000000000E+00 0. -1.
         21    1    1    2  505  502 -0.21808367620E+02  0.68402587403E+02 -0.58784762385E+02  0.92790986363E+02  0.00000000000E+00 0. -1.
          2    1    1    2  501    0  0.18928388515E+03 -0.44868844526E+02  0.17536373624E+03  0.26190464366E+03  0.00000000000E+00 0.  1.
<scales pt_clust_3="132.13950" pt_clust_4="14000.00000" pt_clust_5="71.79498" pt_clust_6="153.27913"></scales>
<clustering>
<clus scale="   71.795">  2  5  1 -1</clus>
<clus scale="  132.139">  2  3  1 -1</clus>
<clus scale="  153.279">  2  6  1 -1</clus>
<clus scale="   71.795">  2  3  1 -1</clus>
</clustering>
</event>
<event>
 6    0  0.2433432E+002  0.9612985E+02  0.7546771E-02  0.1288651E+00
          2   -1    0    0  504    0 -0.00000000000E+00  0.00000000000E+00  0.53377405534E+03  0.53377405534E+03  0.00000000000E+00 0.  1.
         21   -1    0    0  505  502  0.00000000000E+00 -0.00000000000E+00 -0.45073418589E+03  0.45073418589E+03  0.00000000000E+00 0.  1.
         21    1    1    2  503  501  0.68269210222E+02  0.33901132487E+02  0.70428651028E+02  0.10377941382E+03  0.00000000000E+00 0.  1.
         21    1    1    2  504  502 -0.26991233784E+02  0.14706979927E+02  0.10322534679E+02  0.32424939198E+02  0.00000000000E+00 0. -1.
         21    1    1    2  505  503  0.38797823879E+02  0.17470154493E+02 -0.41556920171E+03  0.41774183277E+03  0.00000000000E+00 0.  1.
          2    1    1    2  501    0 -0.80075800316E+02 -0.66078266907E+02  0.41785788545E+03  0.43056205544E+03  0.00000000000E+00 0.  1.
<scales pt_clust_3="96.12985" pt_clust_4="30.73796" pt_clust_5="42.51036" pt_clust_6="14000.00000"></scales>
<clustering>
<clus scale="   30.738">  1  4  2 -1</clus>
<clus scale="   42.510">  2  5  1 -1</clus>
<clus scale="   96.130">  2  3  1 -1</clus>
<clus scale="   42.510">  2  3  1 -1</clus>
</clustering>
</event>
<event>
 6    0  0.2433432E+002  0.7252996E+02  0.7546771E-02  0.1351695E+00
          2   -1    0    0  505    0 -0.00000000000E+00  0.00000000000E+00  0.81772268810E+03  0.81772268810E+03  0.00000000000E+00 0.  1.
         21   -1    0    0  504  502  0.00000000000E+00 -0.00000000000E+00 -0.87686288063E+02  0.87686288063E+02  0.00000000000E+00 0.  1.
         21    1    1    2  503  502  0.30220647734E+02  0.27509884933E+02  0.34373679376E+02  0.53400666217E+02  0.00000000000E+00 0. -1.
         21    1    1    2  504  501 -0.40460370879E+02 -0.80708266511E+02 -0.21537488597E+01  0.90307832047E+02  0.00000000000E+00 0.  1.
         21    1    1    2  505  503 -0.27997123660E+02  0.71413020514E+02  0.15731216464E+02  0.78301530021E+02  0.00000000000E+00 0.  1.
          2    1    1    2  501    0  0.38236846805E+02 -0.18214638937E+02  0.68208525306E+03  0.68339894788E+03  0.00000000000E+00 0.  1.
<scales pt_clust_3="40.86663" pt_clust_4="72.52996" pt_clust_5="14000.00000" pt_clust_6="42.48465"></scales>
<clustering>
<clus scale="   40.867">  2  3  1 -1</clus>
<clus scale="   42.485">  1  6  2 -1</clus>
<clus scale="   72.530">  2  4  1 -1</clus>
<clus scale="   40.867">  2  3  1 -1</clus>
</clustering>
</event>
<event>
 6    0  0.2433432E+002  0.1384935E+03  0.7546771E-02  0.1215371E+00
         21   -1    0    0  503  502  0.00000000000E+00  0.00000000000E+00  0.85909175382E+01  0.85909175382E+01  0.00000000000E+00 0. -1.
          2   -1    0    0  505    0 -0.00000000000E+00 -0.00000000000E+00 -0.26838248745E+04  0.26838248745E+04  0.00000000000E+00 0. -1.
         21    1    1    2  503  504  0.48559680210E+02  0.62791612246E+02 -0.68117594409E+03  0.68578531328E+03  0.00000000000E+00 0. -1.
         21    1    1    2  504  501  0.51144396409E+02  0.31573707598E+01 -0.25521945550E+03  0.26031267495E+03  0.00000000000E+00 0. -1.
         21    1    1    2  505  502  0.20686674016E+02 -0.25686744365E+02 -0.27083986485E+03  0.27284057563E+03  0.00000000000E+00 0. -1.
          2    1    1    2  501    0 -0.12039075063E+03 -0.40262238640E+02 -0.14679986925E+04  0.14734772281E+04  0.00000000000E+00 0. -1.
<scales pt_clust_3="54.64359" pt_clust_4="54.64359" pt_clust_5="32.98101" pt_clust_6="123.31084"></scales>
<clustering>
<clus scale="   32.981">  1  5  2 -1</clus>
<clus scale="   54.644">  3  4 -1 -1</clus>
<clus scale="  123.311">  2  6  1 -1</clus>
<clus scale="   32.981">  1  3  2 -1</clus>
</clustering>
</event>
<event>
 6    0  0.2433432E+002  0.1033725E+03  0.7546771E-02  0.1273360E+00
          1   -1    0    0  505    0 -0.00000000000E+00  0.00000000000E+00  0.12441211938E+03  0.12441211938E+03  0.00000000000E+00 0. -1.
         21   -1    0    0  501  502  0.00000000000E+00 -0.00000000000E+00 -0.16186141776E+04  0.16186141776E+04  0.00000000000E+00 0.  1.
         21    1    1    2  503  504  0.37665489485E+02 -0.60876271989E+02 -0.54773999708E+02  0.90137675993E+02  0.00000000000E+00 0.  1.
         21    1    1    2  504  502  0.59079902825E+02 -0.12070249509E+02 -0.14663035596E+04  0.14675429311E+04  0.00000000000E+00 0.  1.
         21    1    1    2  505  503  0.33213899221E+02  0.41094768287E+01  0.18031357771E+02  0.38015533198E+02  0.00000000000E+00 0.  1.
          1    1    1    2  501    0 -0.12995929153E+03  0.68837044669E+02  0.88441433646E+01  0.14733015661E+03  0.00000000000E+00 0. -1.
<scales pt_clust_3="14000.00000" pt_clust_4="60.50426" pt_clust_5="33.46716" pt_clust_6="103.37254"></scales>
<clustering>
<clus scale="   33.467">  1  5  2 -1</clus>
<clus scale="   60.504">  2  4  1 -1</clus>
<clus scale="  103.373">  1  6  2 -1</clus>
<clus scale="   60.504">  2  3  1 -1</clus>
</clustering>
</event>
<event>
 6    0  0.2433432E+002  0.6482633E+02  0.7546771E-02  0.1378626E+00
         21   -1    0    0  504  502  0.00000000000E+00  0.00000000000E+00  0.11477204707E+03  0.11477204707E+03  0.00000000000E+00 0. -1.
          1   -1    0    0  505    0 -0.00000000000E+00 -0.00000000000E+00 -0.14615407930E+04  0.14615407930E+04  0.00000000000E+00 0.  1.
         21    1    1    2  503  501  0.35174287875E+02  0.64651792665E+02 -0.56158373820E+02  0.92578873251E+02  0.00000000000E+00 0. -1.
         21    1    1    2  504  503  0.64034799786E+02 -0.40082246725E+02  0.26169083933E+02  0.79949127826E+02  0.00000000000E+00 0. -1.
         21    1    1    2  505  502 -0.57889386209E+02  0.10591724375E+02  0.22795938948E+02  0.63111175662E+02  0.00000000000E+00 0. -1.
          1    1    1    2  501    0 -0.41319701452E+02 -0.35161270315E+02 -0.13395753950E+04  0.13406736633E+04  0.00000000000E+00 0.  1.
<scales pt_clust_3="44.22949" pt_clust_4="64.82633" pt_clust_5="14000.00000" pt_clust_6="54.25525"></scales>
<clustering>
<clus scale="   54.255">  2  6  1 -1</clus>
<clus scale="   44.229">  2  3  1 -1</clus>
<clus scale="   64.826">  2  4  1 -1</clus>
<clus scale="   64.826">  1  3  2 -1</clus>
</clustering>
</event>
<event>
 6    0  0.2433432E+002  0.1398951E+03  0.7546771E-02  0.1213470E+00
          2   -1    0    0  503    0 -0.00000000000E+00  0.00000000000E+00  0.24392265232E+03  0.24392265232E+03  0.00000000000E+00 0.  1.
         21   -1    0    0  505  502  0.00000000000E+00 -0.00000000000E+00 -0.31732959262E+03  0.31732959262E+03  0.00000000000E+00 0. -1.
         21    1    1    2  503  504 -0.74989301464E+01 -0.48007236389E+02 -0.24781742145E+02  0.54544142149E+02  0.00000000000E+00 0.  1.
         21    1    1    2  504  502  0.13879660302E+03 -0.25652128806E+02 -0.62234865390E+00  0.14114856018E+03  0.00000000000E+00 0.  1.
         21    1    1    2  505  501 -0.13397633983E+03  0.39442142223E+02 -0.18076518940E+03  0.22843247562E+03  0.00000000000E+00 0. -1.
          2    1    1    2  501    0  0.26786669573E+01  0.34217222973E+02  0.13276233990E+03  0.13712706699E+03  0.00000000000E+00 0.  1.
<scales pt_clust_3="43.91795" pt_clust_4="14000.00000" pt_clust_5="139.89514" pt_clust_6="34.32191"></scales>
<clustering>
<clus scale="   34.322">  1  6  2 -1</clus>
<clus scale="   43.918">  1  3  2 -1</clus>
<clus scale="  139.895">  2  5  1 -1</clus>
<clus scale="  139.895">  2  3  1 -1</clus>
</clustering>
</event>
<event>
 6    0  0.2433432E+002  0.9882693E+02  0.7546771E-02  0.1282782E+00
          1   -1    0    0  504    0 -0.00000000000E+00  0.00000000000E+00  0.56855468404E+03  0.56855468404E+03  0.00000000000E+00 0. -1.
         21   -1    0    0  505  502  0.00000000000E+00 -0.00000000000E+00 -0.13309858567E+03  0.13309858567E+03  0.00000000000E+00 0. -1.
         21    1    1    2  503  502  0.28506251219E+02 -0.15940016001E+02 -0.97102977798E+02  0.10244842003E+03  0.00000000000E+00 0. -1.
         21    1    1    2  504  503 -0.12862027220E+02 -0.45124928048E+02  0.85579187740E+02  0.97598607827E+02  0.00000000000E+00 0. -1.
         21    1    1    2  505  501  0.92661067695E+01 -0.53080465031E+02  0.17705943071E+02  0.56717694969E+02  0.00000000000E+00 0. -1.
          1    1    1    2  501    0 -0.24910330769E+02  0.11414540908E+03  0.42927394536E+03  0.44488854689E+03  0.00000000000E+00 0. -1.
<scales pt_clust_3="32.66023" pt_clust_4="48.61669" pt_clust_5="14000.00000" pt_clust_6="98.82693"></scales>
<clustering>
<clus scale="   32.660">  2  3  1 -1</clus>
<clus scale="   48.617">  2  4  1 -1</clus>
<clus scale="   98.827">  1  6  2 -1</clus>
<clus scale="   32.660">  2  3  1 -1</clus>
</clustering>
</event>
<event>
 6    0  0.2433432E+002  0.1459222E+03  0.7546771E-02  0.1205575E+00
         21   -1    0    0  504  502  0.00000000000E+00  0.00000000000E+00  0.40641817634E+03  0.40641817634E+03  0.00000000000E+00 0. -1.
          2   -1    0    0  505    0 -0.00000000000E+00 -0.00000000000E+00 -0.98963999013E+03  0.98963999013E+03  0.00000000000E+00 0.  1.
         21    1    1    2  503  502 -0.64464227149E+02  0.39370333295E+02  0.21925456994E+03  0.23190132851E+03  0.00000000000E+00 0. -1.
         21    1    1    2  504  501  0.18237832487E+02  0.31937912123E+02  0.24853361680E+02  0.44388493457E+02  0.00000000000E+00 0.  1.
         21    1    1    2  505  503 -0.93435285106E+01  0.53028876266E+02  0.13630613303E+03  0.14655621838E+03  0.00000000000E+00 0. -1.
          2    1    1    2  501    0  0.55569923172E+02 -0.12433712168E+03 -0.96363587845E+03  0.97321212612E+03  0.00000000000E+00 0.  1.
<scales pt_clust_3="48.14555" pt_clust_4="36.77837" pt_clust_5="48.14555" pt_clust_6="135.91094"></scales>
<clustering>
<clus scale="   36.778">  1  4  2 -1</clus>
<clus scale="   48.146">  3  5 -1 -1</clus>
<clus scale="  135.911">  2  6  1 -1</clus>
<clus scale="   36.778">  1  3  2 -1</clus>
</clustering>
</event>
<event>
 6    0  0.2433432E+002  0.1561894E+03  0.7546771E-02  0.1193067E+00
          1   -1    0    0  505    0 -0.00000000000E+00  0.00000000000E+00  0.13834866108E+04  0.13834866108E+04  0.00000000000E+00 0.  1.
         21   -1    0    0  503  502  0.00000000000E+00 -0.00000000000E+00 -0.19435960880E+03  0.19435960880E+03  0.00000000000E+00 0. -1.
         21    1    1    2  503  501  0.73252833312E+02 -0.12247581198E+03 -0.10316857797E+03  0.17609672794E+03  0.00000000000E+00 0. -1.
         21    1    1    2  504  502 -0.24439215905E+02  0.66652255323E+02  0.20115324792E+02  0.73786344978E+02  0.00000000000E+00 0.  1.
         21    1    1    2  505  504 -0.97745341628E+01  0.11327438373E+03  0.93405006123E+02  0.14714320473E+03  0.00000000000E+00 0.  1.
          1    1    1    2  501    0 -0.39039083245E+02 -0.57450827074E+02  0.11787752490E+04  0.11808199419E+04  0.00000000000E+00 0.  1.
<scales pt_clust_3="148.37891" pt_clust_4="38.54013" pt_clust_5="38.54013" pt_clust_6="69.45968"></scales>
<clustering>
<clus scale="   38.540">  4  5 -1 -1</clus>
<clus scale="   69.460">  1  6  2 -1</clus>
<clus scale="  148.379">  2  3  1 -1</clus>
<clus scale="  148.379">  2  3  1 -1</clus>
</clustering>
</event>
<event>
 6    0  0.2433432E+002  0.2439206E+03  0.7546771E-02  0.1117208E+00
         21   -1    0    0  504  502  0.00000000000E+00  0.00000000000E+00  0.52759682258E+03  0.52759682258E+03  0.00000000000E+00 0. -1.
          1   -1    0    0  505    0 -0.00000000000E+00 -0.00000000000E+00 -0.77587653103E+03  0.77587653103E+03  0.00000000000E+00 0. -1.
         21    1    1    2  503  501  0.18597662314E+02  0.52428907601E+02  0.56134393762E+02  0.79029953555E+02  0.00000000000E+00 0. -1.
         21    1    1    2  504  503 -0.58107340466E+02  0.16617597828E+03  0.28686908998E+03  0.33657806459E+03  0.00000000000E+00 0. -1.
         21    1    1    2  505  502  0.12852044076E+02 -0.26538523045E+03  0.27161768029E+02  0.26708099375E+03  0.00000000000E+00 0. -1.
          1    1    1    2  501    0  0.26657634077E+02  0.46780344568E+02 -0.61844496022E+03  0.62078434171E+03  0.00000000000E+00 0. -1.
<scales pt_clust_3="42.55044" pt_clust_4="42.55044" pt_clust_5="231.87872" pt_clust_6="53.84264"></scales>
<clustering>
<clus scale="   42.550">  3  4 -1 -1</clus>
<clus scale="   53.843">  2  6  1 -1</clus>
<clus scale="  231.879">  2  5  1 -1</clus>
<clus scale="  243.921">  1  3  2 -1</clus>
</clustering>
</event>
<event>
 6    0  0.2433432E+002  0.7571938E+02  0.7546771E-02  0.1341658E+00
         21   -1    0    0  503  502  0.00000000000E+00  0.00000000000E+00  0.73406195840E+03  0.73406195840E+03  0.00000000000E+00 0. -1.
          2   -1    0    0  504    0 -0.00000000000E+00 -0.00000000000E+00 -0.11288011861E+04  0.11288011861E+04  0.00000000000E+00 0.  1.
         21    1    1    2  503  501 -0.58341592518E+02 -0.27768161693E+02  0.11753034146E+03  0.13412007078E+03  0.00000000000E+00 0. -1.
         21    1    1    2  504  505  0.51151663719E+01  0.81678409395E+02  0.49566419597E+03  0.50237488259E+03  0.00000000000E+00 0. -1.
         21    1    1    2  505  502  0.37360767507E+02  0.20120157690E+02  0.10375874569E+03  0.11210051294E+03  0.00000000000E+00 0. -1.
          2    1    1    2  501    0  0.15865658639E+02 -0.74030405392E+02 -0.11116925108E+04  0.11142676782E+04  0.00000000000E+00 0.  1.
<scales pt_clust_3="56.09756" pt_clust_4="75.71938" pt_clust_5="42.43404" pt_clust_6="14000.00000"></scales>
<clustering>
<clus scale="   42.434">  1  5  2 -1</clus>
<clus scale="   56.098">  1  3  2 -1</clus>
<clus scale="   75.719">  1  4  2 -1</clus>
<clus scale="   42.434">  1  3  2 -1</clus>
</clustering>
</event>
<event>
 6    0  0.2433432E+002  0.1544932E+03  0.7546771E-02  0.1195058E+00
         21   -1    0    0  504  502  0.00000000000E+00  0.00000000000E+00  0.20644639121E+03  0.20644639121E+03  0.00000000000E+00 0. -1.
         -1   -1    0    0    0  501 -0.00000000000E+00 -0.00000000000E+00 -0.47574840501E+03  0.47574840501E+03  0.00000000000E+00 0. -1.
         21    1    1    2  503  502  0.12701138076E+03 -0.99862417108E+01  0.10908655524E+03  0.16772445379E+03  0.00000000000E+00 0. -1.
         21    1    1    2  504  501 -0.46835372559E+02  0.46083392513E+02 -0.21225948457E+02  0.69049055578E+02  0.00000000000E+00 0.  1.
         21    1    1    2  505  503  0.54583006763E+02  0.54034125378E+01  0.66385336117E+01  0.55250082559E+02  0.00000000000E+00 0. -1.
         -1    1    1    2    0  505 -0.13475901496E+03 -0.41500563340E+02 -0.36380115419E+03  0.39017120429E+03  0.00000000000E+00 0. -1.
<scales pt_clust_3="37.85099" pt_clust_4="65.70564" pt_clust_5="37.85099" pt_clust_6="143.31894"></scales>
<clustering>
<clus scale="   37.851">  3  5 -1 -1</clus>
<clus scale="   65.706">  1  4  2 -1</clus>
<clus scale="  143.319">  2  6  1 -1</clus>
<clus scale="   65.706">  1  3  2 -1</clus>
</clustering>
</event>
<event>
 6    0  0.2433432E+002  0.1511432E+03  0.7546771E-02  0.1199075E+00
         21   -1    0    0  505  502  0.00000000000E+00  0.00000000000E+00  0.21758573338E+03  0.21758573338E+03  0.00000000000E+00 0. -1.
          1   -1    0    0  503    0 -0.00000000000E+00 -0.00000000000E+00 -0.71499235133E+03  0.71499235133E+03  0.00000000000E+00 0. -1.
         21    1    1    2  503  504  0.59220249329E+01 -0.12082934889E+03  0.10422799014E+03  0.15968179564E+03  0.00000000000E+00 0. -1.
         21    1    1    2  504  502  0.39712972989E+02 -0.32187832074E+02  0.28869136203E+02  0.58707782980E+02  0.00000000000E+00 0. -1.
         21    1    1    2  505  501  0.19189772785E+02  0.34945958912E+02  0.23620519096E+02  0.46340008051E+02  0.00000000000E+00 0. -1.
          1    1    1    2  501    0 -0.64824770707E+02  0.11807122205E+03 -0.65412426339E+03  0.66784849803E+03  0.00000000000E+00 0. -1.
<scales pt_clust_3="48.06464" pt_clust_4="48.06464" pt_clust_5="39.86813" pt_clust_6="135.50618"></scales>
<clustering>
<clus scale="   39.868">  1  5  2 -1</clus>
<clus scale="   48.065">  3  4 -1 -1</clus>
<clus scale="  135.506">  2  6  1 -1</clus>
<clus scale="   39.868">  1  3  2 -1</clus>
</clustering>
</event>
<event>
 6    0  0.2433432E+002  0.1148627E+03  0.7546771E-02  0.1251821E+00
         21   -1    0    0  505  502  0.00000000000E+00  0.00000000000E+00  0.61288670243E+03  0.61288670243E+03  0.00000000000E+00 0.  1.
          1   -1    0    0  503    0 -0.00000000000E+00 -0.00000000000E+00 -0.23860132037E+04  0.23860132037E+04  0.00000000000E+00 0.  1.
         21    1    1    2  503  502 -0.33799002876E+02 -0.27305000814E+02  0.16040211449E+02  0.46316563433E+02  0.00000000000E+00 0.  1.
         21    1    1    2  504  501 -0.11641204617E+03  0.10509958860E+03  0.21196985717E+03  0.26368334867E+03  0.00000000000E+00 0.  1.
         21    1    1    2  505  504  0.88131027346E+02 -0.41638278367E+02  0.33641170691E+03  0.35024799893E+03  0.00000000000E+00 0.  1.
          1    1    1    2  501    0  0.62080021697E+02 -0.36156309422E+02 -0.23375482768E+04  0.23386519951E+04  0.00000000000E+00 0.  1.
<scales pt_clust_3="43.45038" pt_clust_4="14000.00000" pt_clust_5="114.86272" pt_clust_6="71.82689"></scales>
<clustering>
<clus scale="   43.450">  1  3  2 -1</clus>
<clus scale="   71.827">  2  6  1 -1</clus>
<clus scale="  114.863">  1  5  2 -1</clus>
<clus scale="   43.450">  1  3  2 -1</clus>
</clustering>
</event>
<event>
 6    0  0.2433432E+002  0.1615119E+03  0.7546771E-02  0.1187000E+00
          1   -1    0    0  504    0 -0.00000000000E+00  0.00000000000E+00  0.68164328995E+03  0.68164328995E+03  0.00000000000E+00 0.  1.
         21   -1    0    0  501  502  0.00000000000E+00 -0.00000000000E+00 -0.30564876821E+03  0.30564876821E+03  0.00000000000E+00 0. -1.
         21    1    1    2  503  502  0.43171755495E+02  0.18881372443E+02 -0.75851646825E+02  0.89296019082E+02  0.00000000000E+00 0. -1.
         21    1    1    2  504  505 -0.56584997418E+02 -0.12740965654E+03  0.67883119451E+02  0.15505869991E+03  0.00000000000E+00 0. -1.
         21    1    1    2  505  503  0.56990646719E+02  0.10353607795E+03 -0.15905155330E+03  0.19815410634E+03  0.00000000000E+00 0.  1.
          1    1    1    2  501    0 -0.43577404795E+02  0.49922061417E+01  0.54301460242E+03  0.54478323283E+03  0.00000000000E+00 0.  1.
<scales pt_clust_3="31.12310" pt_clust_4="153.80694" pt_clust_5="31.12310" pt_clust_6="43.86243"></scales>
<clustering>
<clus scale="   31.123">  3  5 -1 -1</clus>
<clus scale="   43.862">  1  6  2 -1</clus>
<clus scale="  153.807">  1  4  2 -1</clus>
<clus scale="  161.512">  2  3  1 -1</clus>
</clustering>
</event>
<event>
 6    0  0.2433432E+002  0.7296518E+02  0.7546771E-02  0.1350291E+00
         -2   -1    0    0    0  501 -0.00000000000E+00  0.00000000000E+00  0.12777401233E+04  0.12777401233E+04  0.00000000000E+00 0. -1.
         21   -1    0    0  505  502  0.00000000000E+00 -0.00000000000E+00 -0.10295415681E+03  0.10295415681E+03  0.00000000000E+00 0. -1.
         21    1    1    2  503  501  0.34339726632E+02  0.94097478120E+02  0.25001122926E+01  0.10019881624E+03  0.00000000000E+00 0. -1.
         21    1    1    2  504  502 -0.29764546518E+02 -0.33250346088E+02  0.79942246840E+02  0.91554773629E+02  0.00000000000E+00 0.  1.
         21    1    1    2  505  503  0.42014271648E+02 -0.53536392928E+01 -0.37624330609E+02  0.56652014347E+02  0.00000000000E+00 0. -1.
         -2    1    1    2    0  504 -0.46589451761E+02 -0.55493492739E+02  0.11299679380E+04  0.11322886759E+04  0.00000000000E+00 0. -1.
<scales pt_clust_3="14000.00000" pt_clust_4="42.28222" pt_clust_5="42.35399" pt_clust_6="72.96518"></scales>
<clustering>
<clus scale="   42.354">  2  5  1 -1</clus>
<clus scale="   42.282">  2  4  1 -1</clus>
<clus scale="   72.965">  1  6  2 -1</clus>
<clus scale="   42.354">  2  3  1 -1</clus>
</clustering>
</event>
<event>
 6    0  0.2433432E+002  0.1013253E+03  0.7546771E-02  0.1277533E+00
          2   -1    0    0  503    0 -0.00000000000E+00  0.00000000000E+00  0.21907725013E+04  0.21907725013E+04  0.00000000000E+00 0.  1.
         21   -1    0    0  505  502  0.00000000000E+00 -0.00000000000E+00 -0.15662490716E+02  0.15662490716E+02  0.00000000000E+00 0.  1.
         21    1    1    2  503  504 -0.95207117783E+02 -0.15424377393E+02  0.15879487243E+04  0.15908750603E+04  0.00000000000E+00 0.  1.
         21    1    1    2  504  502  0.66662762121E+02  0.44356252033E+02  0.13164692051E+03  0.15408540693E+03  0.00000000000E+00 0.  1.
         21    1    1    2  505  501  0.29476763645E+02  0.12760103609E+02  0.18603947451E+03  0.18879191168E+03  0.00000000000E+00 0.  1.
          2    1    1    2  501    0 -0.93240798290E+00 -0.41691978248E+02  0.26947489130E+03  0.27268261308E+03  0.00000000000E+00 0.  1.
<scales pt_clust_3="14000.00000" pt_clust_4="101.32529" pt_clust_5="32.12008" pt_clust_6="40.32955"></scales>
<clustering>
<clus scale="   32.120">  2  5  1 -1</clus>
<clus scale="   40.330">  1  6  2 -1</clus>
<clus scale="  101.325">  2  4  1 -1</clus>
<clus scale="   32.120">  2  3  1 -1</clus>
</clustering>
</event>
<event>
 6    0  0.2433432E+002  0.1451765E+03  0.7546771E-02  0.1206529E+00
         21   -1    0    0  505  502  0.00000000000E+00  0.00000000000E+00  0.10054983386E+04  0.10054983386E+04  0.00000000000E+00 0.  1.
          2   -1    0    0  503    0 -0.00000000000E+00 -0.00000000000E+00 -0.50796370786E+04  0.50796370786E+04  0.00000000000E+00 0.  1.
         21    1    1    2  503  502 -0.96652293202E+02 -0.62051392607E+02  0.48976555010E+02  0.12486290100E+03  0.00000000000E+00 0.  1.
         21    1    1    2  504  501  0.10745970282E+03  0.11396458227E+03  0.25190826559E+03  0.29663662622E+03  0.00000000000E+00 0.  1.
         21    1    1    2  505  504  0.41041074114E+02  0.21632451174E+02  0.64306713631E+03  0.64473845434E+03  0.00000000000E+00 0.  1.
          2    1    1    2  501    0 -0.51848483735E+02 -0.73545640837E+02 -0.50180906969E+04  0.50188974356E+04  0.00000000000E+00 0.  1.
<scales pt_clust_3="145.17645" pt_clust_4="14000.00000" pt_clust_5="46.39324" pt_clust_6="89.93849"></scales>
<clustering>
<clus scale="   46.393">  1  5  2 -1</clus>
<clus scale="   89.938">  2  6  1 -1</clus>
<clus scale="  145.176">  1  3  2 -1</clus>
<clus scale="   46.393">  1  3  2 -1</clus>
</clustering>
</event>
<event>
 6    0  0.2433432E+002  0.1049894E+03  0.7546771E-02  0.1270140E+00
         -1   -1    0    0    0  501 -0.00000000000E+00  0.00000000000E+00  0.78244535687E+03  0.78244535687E+03  0.00000000000E+00 0.  1.
         21   -1    0    0  504  502  0.00000000000E+00 -0.00000000000E+00 -0.22337429188E+03  0.22337429188E+03  0.00000000000E+00 0. -1.
         21    1    1    2  503  505 -0.58077171102E+02 -0.44674979036E+02  0.58579136659E+02  0.93810057066E+02  0.00000000000E+00 0. -1.
         21    1    1    2  504  501 -0.21059860924E+02  0.13381064816E+03 -0.11192569847E+03  0.17571616112E+03  0.00000000000E+00 0. -1.
         21    1    1    2  505  502  0.51318346701E+02 -0.66338323969E+02 -0.32812885540E+02  0.90061264662E+02  0.00000000000E+00 0. -1.
         -1    1    1    2    0  503  0.27818685326E+02 -0.22797345156E+02  0.64523051233E+03  0.64623216590E+03  0.00000000000E+00 0.  1.
<scales pt_clust_3="71.44924" pt_clust_4="14000.00000" pt_clust_5="104.98942" pt_clust_6="35.96663"></scales>
<clustering>
<clus scale="   35.967">  1  6  2 -1</clus>
<clus scale="   71.449">  1  3  2 -1</clus>
<clus scale="  104.989">  2  5  1 -1</clus>
<clus scale="  104.989">  2  3  1 -1</clus>
</clustering>
</event>
<event>
 6    0  0.2433432E+002  0.1804551E+03  0.7546771E-02  0.1167363E+00
         21   -1    0    0  505  502  0.00000000000E+00  0.00000000000E+00  0.70180638678E+03  0.70180638678E+03  0.00000000000E+00 0.  1.
          2   -1    0    0  504    0 -0.00000000000E+00 -0.00000000000E+00 -0.22114929866E+03  0.22114929866E+03  0.00000000000E+00 0.  1.
         21    1    1    2  503  501  0.52519909853E+02  0.15490490245E+03  0.15694590375E+03  0.22668455271E+03  0.00000000000E+00 0.  1.
         21    1    1    2  504  502  0.29261520024E+02 -0.29149987029E+02  0.24594218060E+03  0.24938627567E+03  0.00000000000E+00 0.  1.
         21    1    1    2  505  503  0.38999543187E+02  0.17033665811E+02  0.21228775115E+03  0.21651143025E+03  0.00000000000E+00 0.  1.
          2    1    1    2  501    0 -0.12078097306E+03 -0.14278858123E+03 -0.13451874738E+03  0.23037342681E+03  0.00000000000E+00 0.  1.
<scales pt_clust_3="180.45507" pt_clust_4="41.30325" pt_clust_5="52.91511" pt_clust_6="14000.00000"></scales>
<clustering>
<clus scale="   41.303">  1  4  2 -1</clus>
<clus scale="   52.915">  1  5  2 -1</clus>
<clus scale="  180.455">  1  3  2 -1</clus>
<clus scale="   41.303">  1  3  2 -1</clus>
</clustering>
</event>
<event>
 6    0  0.2433432E+002  0.8134138E+02  0.7546771E-02  0.1325287E+00
          1   -1    0    0  504    0 -0.00000000000E+00  0.00000000000E+00  0.22759550703E+04  0.22759550703E+04  0.00000000000E+00 0. -1.
         21   -1    0    0  505  502  0.00000000000E+00 -0.00000000000E+00 -0.11983052905E+02  0.11983052905E+02  0.00000000000E+00 0. -1.
         21    1    1    2  503  502  0.76587173780E+02 -0.39842589759E+00  0.56637733180E+03  0.57153218274E+03  0.00000000000E+00 0. -1.
         21    1    1    2  504  503  0.29855191095E+02  0.59404574842E+02  0.70417163032E+03  0.70730327363E+03  0.00000000000E+00 0.  1.
         21    1    1    2  505  501 -0.82746645411E+02  0.18765903343E+02  0.33070087997E+03  0.34141212407E+03  0.00000000000E+00 0. -1.
          1    1    1    2  501    0 -0.23695719464E+02 -0.77772052287E+02  0.66272217531E+03  0.66769054276E+03  0.00000000000E+00 0. -1.
<scales pt_clust_3="14000.00000" pt_clust_4="66.48486" pt_clust_5="81.34138" pt_clust_6="53.75350"></scales>
<clustering>
<clus scale="   66.485">  1  4  2 -1</clus>
<clus scale="   53.753">  1  6  2 -1</clus>
<clus scale="   81.341">  2  5  1 -1</clus>
<clus scale="   81.341">  2  3  1 -1</clus>
</clustering>
</event>
<event>
 6    0  0.2433432E+002  0.8620054E+02  0.7546771E-02  0.1312323E+00
         21   -1    0    0  503  502  0.00000000000E+00  0.00000000000E+00  0.59633569246E+02  0.59633569246E+02  0.00000000000E+00 0. -1.
          2   -1    0    0  505    0 -0.00000000000E+00 -0.00000000000E+00 -0.16926939934E+04  0.16926939934E+04  0.00000000000E+00 0.  1.
         21    1    1    2  503  501  0.31439133997E+02  0.63947904202E+02 -0.22095826875E+03  0.23216440323E+03  0.00000000000E+00 0. -1.
         21    1    1    2  504  502 -0.29501211160E+02 -0.48433574529E+02  0.16835696251E+02  0.59157191193E+02  0.00000000000E+00 0. -1.
         21    1    1    2  505  504 -0.78958729771E+02  0.24219860623E+02 -0.10201558107E+03  0.13125647198E+03  0.00000000000E+00 0. -1.
          2    1    1    2  501    0  0.77020806935E+02 -0.39734190296E+02 -0.13269222706E+04  0.13297494962E+04  0.00000000000E+00 0.  1.
<scales pt_clust_3="56.64778" pt_clust_4="56.71096" pt_clust_5="14000.00000" pt_clust_6="86.20054"></scales>
<clustering>
<clus scale="   56.711">  1  4  2 -1</clus>
<clus scale="   56.648">  1  3  2 -1</clus>
<clus scale="   86.201">  2  6  1 -1</clus>
<clus scale="   56.711">  1  3  2 -1</clus>
</clustering>
</event>
<event>
 6    0  0.2433432E+002  0.8941747E+02  0.7546771E-02  0.1304269E+00
          2   -1    0    0  504    0 -0.00000000000E+00  0.00000000000E+00  0.10756334175E+04  0.10756334175E+04  0.00000000000E+00 0.  1.
         21   -1    0    0  503  502  0.00000000000E+00 -0.00000000000E+00 -0.40072896786E+02  0.40072896786E+02  0.00000000000E+00 0.  1.
         21    1    1    2  503  501 -0.25513083916E+02  0.11008461212E+03  0.20189807339E+03  0.23137063624E+03  0.00000000000E+00 0.  1.
         21    1    1    2  504  505 -0.42251966901E+02 -0.68113683220E+02  0.20807197161E+03  0.22297678784E+03  0.00000000000E+00 0.  1.
         21    1    1    2  505  502  0.91190039553E+02 -0.25407412291E+01  0.10642952601E+03  0.14017604177E+03  0.00000000000E+00 0.  1.
          2    1    1    2  501    0 -0.23424988736E+02 -0.39430187668E+02  0.51916094972E+03  0.52118284844E+03  0.00000000000E+00 0.  1.
<scales pt_clust_3="14000.00000" pt_clust_4="89.41747" pt_clust_5="86.72855" pt_clust_6="45.86360"></scales>
<clustering>
<clus scale="   45.864">  1  6  2 -1</clus>
<clus scale="   86.729">  2  5  1 -1</clus>
<clus scale="   89.417">  1  4  2 -1</clus>
<clus scale="   86.729">  2  3  1 -1</clus>
</clustering>
</event>
<event>
 6    0  0.2433432E+002  0.1123567E+03  0.7546771E-02  0.1256267E+00
         21   -1    0    0  504  502  0.00000000000E+00  0.00000000000E+00  0.97511882936E+02  0.97511882936E+02  0.00000000000E+00 0. -1.
          1   -1    0    0  503    0 -0.00000000000E+00 -0.00000000000E+00 -0.30254640997E+04  0.30254640997E+04  0.00000000000E+00 0. -1.
         21    1    1    2  503  505 -0.12263352105E+03  0.70645520102E+02 -0.34859448689E+03  0.37622850276E+03  0.00000000000E+00 0. -1.
         21    1    1    2  504  501  0.87317482368E+02 -0.23430765675E+02 -0.35096201399E+03  0.36241920309E+03  0.00000000000E+00 0. -1.
         21    1    1    2  505  502 -0.35884610481E+02 -0.13383659145E+02  0.72546834537E+02  0.82035789768E+02  0.00000000000E+00 0. -1.
          1    1    1    2  501    0  0.71200649162E+02 -0.33831095282E+02 -0.23009425504E+04  0.23022924870E+04  0.00000000000E+00 0. -1.
<scales pt_clust_3="14000.00000" pt_clust_4="112.35674" pt_clust_5="38.29919" pt_clust_6="77.94462"></scales>
<clustering>
<clus scale="   38.299">  1  5  2 -1</clus>
<clus scale="   77.945">  2  6  1 -1</clus>
<clus scale="  112.357">  1  4  2 -1</clus>
<clus scale="   38.299">  1  3  2 -1</clus>
</clustering>
</event>
<event>
 6    0  0.2433432E+002  0.2059231E+03  0.7546771E-02  0.1144836E+00
          1   -1    0    0  505    0 -0.00000000000E+00  0.00000000000E+00  0.60840641723E+03  0.60840641723E+03  0.00000000000E+00 0. -1.
         21   -1    0    0  504  502  0.00000000000E+00 -0.00000000000E+00 -0.73812569357E+03  0.73812569357E+03  0.00000000000E+00 0. -1.
         21    1    1    2  503  502 -0.10366791793E+03 -0.20129594451E+03 -0.48812025811E+03  0.53807850808E+03  0.00000000000E+00 0. -1.
         21    1    1    2  504  501  0.36245732266E+02  0.17557934961E+03 -0.17506696636E+03  0.25057993501E+03  0.00000000000E+00 0. -1.
         21    1    1    2  505  503  0.38363985517E+02  0.17750000543E+01  0.20515230803E+02  0.43541023241E+02  0.00000000000E+00 0. -1.
          1    1    1    2  501    0  0.29058200143E+02  0.23941594840E+02  0.51295271732E+03  0.51433264447E+03  0.00000000000E+00 0. -1.
<scales pt_clust_3="205.92310" pt_clust_4="14000.00000" pt_clust_5="49.18486" pt_clust_6="37.65075"></scales>
<clustering>
<clus scale="   37.651">  1  6  2 -1</clus>
<clus scale="   49.185">  1  5  2 -1</clus>
<clus scale="  205.923">  2  3  1 -1</clus>
<clus scale="  205.923">  2  3  1 -1</clus>
</clustering>
</event>
<event>
 6    0  0.2433432E+002  0.1321565E+03  0.7546771E-02  0.1224290E+00
          2   -1    0    0  505    0 -0.00000000000E+00  0.00000000000E+00  0.49084419187E+03  0.49084419187E+03  0.00000000000E+00 0.  1.
         21   -1    0    0  504  502  0.00000000000E+00 -0.00000000000E+00 -0.57948144405E+03  0.57948144405E+03  0.00000000000E+00 0.  1.
         21    1    1    2  503  501  0.65292288186E+02 -0.14197340898E+03 -0.16557085289E+03  0.22766914390E+03  0.00000000000E+00 0.  1.
         21    1    1    2  504  503 -0.39547337158E+02  0.26650566720E+01 -0.23704041237E+03  0.24033154495E+03  0.00000000000E+00 0.  1.
         21    1    1    2  505  502 -0.48322113146E+02  0.10085662061E+03 -0.12117615969E+03  0.16489616799E+03  0.00000000000E+00 0.  1.
          2    1    1    2  501    0  0.22577162118E+02  0.38451731700E+02  0.43515017277E+03  0.43742877909E+03  0.00000000000E+00 0.  1.
<scales pt_clust_3="14000.00000" pt_clust_4="39.63703" pt_clust_5="132.15655" pt_clust_6="44.53085"></scales>
<clustering>
<clus scale="   39.637">  2  4  1 -1</clus>
<clus scale="   44.531">  1  6  2 -1</clus>
<clus scale="  132.157">  2  5  1 -1</clus>
<clus scale="   39.637">  2  3  1 -1</clus>
</clustering>
</event>
<event>
 6    0  0.2433432E+002  0.1233003E+03  0.7546771E-02  0.1237750E+00
          2   -1    0    0  502    0 -0.00000000000E+00  0.00000000000E+00  0.19496444163E+04  0.19496444163E+04  0.00000000000E+00 0. -1.
         21   -1    0    0  505  502  0.00000000000E+00 -0.00000000000E+00 -0.62014729285E+03  0.62014729285E+03  0.00000000000E+00 0. -1.
         21    1    1    2  503  504 -0.51234275399E+02  0.39066163299E+02 -0.32605296753E+03  0.33235771953E+03  0.00000000000E+00 0. -1.
         21    1    1    2  504  501 -0.69613981793E+02 -0.61992615137E+02 -0.13550523237E+03  0.16447145282E+03  0.00000000000E+00 0. -1.
         21    1    1    2  505  503  0.13587853646E+02 -0.38740690327E+02 -0.13593761797E+03  0.14200178462E+03  0.00000000000E+00 0.  1.
          2    1    1    2  501    0  0.10726040355E+03  0.61667142165E+02  0.19269929413E+04  0.19309607522E+04  0.00000000000E+00 0. -1.
<scales pt_clust_3="43.77866" pt_clust_4="123.30032" pt_clust_5="41.05449" pt_clust_6="14000.00000"></scales>
<clustering>
<clus scale="   41.054">  2  5  1 -1</clus>
<clus scale="   43.779">  2  3  1 -1</clus>
<clus scale="  123.300">  2  4  1 -1</clus>
<clus scale="   41.054">  2  3  1 -1</clus>
</clustering>
</event>
<event>
 6    0  0.2433432E+002  0.7838612E+02  0.7546771E-02  0.1333695E+00
         21   -1    0    0  504  502  0.00000000000E+00  0.00000000000E+00  0.68592057890E+02  0.68592057890E+02  0.00000000000E+00 0. -1.
          1   -1    0    0  503    0 -0.00000000000E+00 -0.00000000000E+00 -0.72799605913E+03  0.72799605913E+03  0.00000000000E+00 0. -1.
         21    1    1    2  503  502 -0.25858231990E+02  0.24291169175E+02 -0.35116451273E+02  0.49918675980E+02  0.00000000000E+00 0.  1.
         21    1    1    2  504  505 -0.92827864716E+01 -0.53123980531E+02 -0.99750631808E+01  0.54843680745E+02  0.00000000000E+00 0. -1.
         21    1    1    2  505  501  0.45422230658E+02  0.10428423157E+03 -0.53205981120E+02  0.12557569995E+03  0.00000000000E+00 0. -1.
          1    1    1    2  501    0 -0.10281212197E+02 -0.75451420214E+02 -0.56110650566E+03  0.56625006034E+03  0.00000000000E+00 0. -1.
<scales pt_clust_3="35.47829" pt_clust_4="48.03437" pt_clust_5="78.38612" pt_clust_6="14000.00000"></scales>
<clustering>
<clus scale="   35.478">  1  3  2 -1</clus>
<clus scale="   48.034">  1  4  2 -1</clus>
<clus scale="   78.386">  1  5  2 -1</clus>
<clus scale="   35.478">  1  3  2 -1</clus>
</clustering>
</event>
<event>
 6    0  0.2433432E+002  0.1063084E+03  0.7546771E-02  0.1267563E+00
         21   -1    0    0  504  502  0.00000000000E+00  0.00000000000E+00  0.51796640879E+02  0.51796640879E+02  0.00000000000E+00 0. -1.
          2   -1    0    0  503    0 -0.00000000000E+00 -0.00000000000E+00 -0.12521009887E+04  0.12521009887E+04  0.00000000000E+00 0.  1.
         21    1    1    2  503  505  0.71496352791E+02  0.22699915751E+02 -0.10543009918E+03  0.12939289181E+03  0.00000000000E+00 0. -1.
         21    1    1    2  504  501 -0.15286790482E+02 -0.64165191099E+02 -0.29094513449E+02  0.72092637799E+02  0.00000000000E+00 0. -1.
         21    1    1    2  505  502  0.33916074074E+02  0.36802680232E+02 -0.21884154109E+02  0.54622829970E+02  0.00000000000E+00 0. -1.
          2    1    1    2  501    0 -0.90125636382E+02  0.46625951156E+01 -0.10438955810E+04  0.10477892700E+04  0.00000000000E+00 0.  1.
<scales pt_clust_3="44.74246" pt_clust_4="65.96103" pt_clust_5="44.74246" pt_clust_6="91.10952"></scales>
<clustering>
<clus scale="   44.742">  3  5 -1 -1</clus>
<clus scale="   65.961">  1  4  2 -1</clus>
<clus scale="   91.110">  2  6  1 -1</clus>
<clus scale="   65.961">  1  3  2 -1</clus>
</clustering>
</event>
<event>
 6    0  0.2433432E+002  0.1147560E+03  0.7546771E-02  0.1252008E+00
         21   -1    0    0  504  502  0.00000000000E+00  0.00000000000E+00  0.84428163050E+02  0.84428163050E+02  0.00000000000E+00 0.  1.
          2   -1    0    0  503    0 -0.00000000000E+00 -0.00000000000E+00 -0.21012804367E+04  0.21012804367E+04  0.00000000000E+00 0.  1.
         21    1    1    2  503  505 -0.52305855204E+01  0.35940841150E+02 -0.91627226174E+02  0.98562932504E+02  0.00000000000E+00 0.  1.
         21    1    1    2  504  501  0.10899911331E+03  0.54953795634E+02 -0.22253869724E+02  0.12408046210E+03  0.00000000000E+00 0.  1.
         21    1    1    2  505  502 -0.97953889946E+02  0.57140116573E+02 -0.91953309065E+02  0.14599783740E+03  0.00000000000E+00 0.  1.
          2    1    1    2  501    0 -0.58146378461E+01 -0.14803475336E+03 -0.18110178686E+04  0.18170673677E+04  0.00000000000E+00 0.  1.
<scales pt_clust_3="36.31946" pt_clust_4="111.91156" pt_clust_5="114.75604" pt_clust_6="14000.00000"></scales>
<clustering>
<clus scale="   36.319">  2  3  1 -1</clus>
<clus scale="  114.756">  1  5  2 -1</clus>
<clus scale="  111.912">  1  4  2 -1</clus>
<clus scale="  114.756">  1  3  2 -1</clus>
</clustering>
</event>
<event>
 6    0  0.2433432E+002  0.1115624E+03  0.7546771E-02  0.1257704E+00
          2   -1    0    0  504    0 -0.00000000000E+00  0.00000000000E+00  0.18776318284E+03  0.18776318284E+03  0.00000000000E+00 0.  1.
         21   -1    0    0  503  502  0.00000000000E+00 -0.00000000000E+00 -0.40277990079E+03  0.40277990079E+03  0.00000000000E+00 0. -1.
         21    1    1    2  503  501  0.59931826555E+02 -0.11865265240E+02 -0.18582334677E+03  0.19560911165E+03  0.00000000000E+00 0. -1.
         21    1    1    2  504  505  0.46480324791E+02  0.10689686182E+03 -0.52242944376E+02  0.12773677973E+03  0.00000000000E+00 0. -1.
         21    1    1    2  505  502 -0.14307434868E+02 -0.28532400304E+02 -0.96881303170E+02  0.10200386004E+03  0.00000000000E+00 0. -1.
          2    1    1    2  501    0 -0.92104716479E+02 -0.66499196273E+02  0.11993087637E+03  0.16519333222E+03  0.00000000000E+00 0.  1.
<scales pt_clust_3="59.01535" pt_clust_4="14000.00000" pt_clust_5="31.91866" pt_clust_6="111.56242"></scales>
<clustering>
<clus scale="   31.919">  2  5  1 -1</clus>
<clus scale="   59.015">  2  3  1 -1</clus>
<clus scale="  111.562">  1  6  2 -1</clus>
<clus scale="   31.919">  2  3  1 -1</clus>
</clustering>
</event>
<event>
 6    0  0.2433432E+002  0.1027311E+03  0.7546771E-02  0.1274655E+00
         21   -1    0    0  505  502  0.00000000000E+00  0.00000000000E+00  0.13244436213E+03  0.13244436213E+03  0.00000000000E+00 0.  1.
          2   -1    0    0  503    0 -0.00000000000E+00 -0.00000000000E+00 -0.11979014607E+04  0.11979014607E+04  0.00000000000E+00 0.  1.
         21    1    1    2  503  502  0.81668465912E+02 -0.77867492276E+02  0.81143874369E+02  0.13898709662E+03  0.00000000000E+00 0.  1.
         21    1    1    2  504  501 -0.13434321837E+02  0.43647149771E+02 -0.77237907011E+02  0.89728752169E+02  0.00000000000E+00 0.  1.
         21    1    1    2  505  504 -0.84071638713E+02 -0.11832283248E+01 -0.96487206208E+02  0.12798133234E+03  0.00000000000E+00 0.  1.
          2    1    1    2  501    0  0.15837494638E+02  0.35403570830E+02 -0.97287585974E+03  0.97364864172E+03  0.00000000000E+00 0.  1.
<scales pt_clust_3="102.73110" pt_clust_4="57.30364" pt_clust_5="14000.00000" pt_clust_6="38.78452"></scales>
<clustering>
<clus scale="   38.785">  2  6  1 -1</clus>
<clus scale="   57.304">  2  4  1 -1</clus>
<clus scale="  102.731">  1  3  2 -1</clus>
<clus scale="  102.731">  1  3  2 -1</clus>
</clustering>
</event>
<event>
 6    0  0.2433432E+002  0.1235909E+03  0.7546771E-02  0.1237288E+00
          2   -1    0    0  502    0 -0.00000000000E+00  0.00000000000E+00  0.10944184151E+04  0.10944184151E+04  0.00000000000E+00 0.  1.
         21   -1    0    0  505  502  0.00000000000E+00 -0.00000000000E+00 -0.53777017664E+03  0.53777017664E+03  0.00000000000E+00 0. -1.
         21    1    1    2  503  501 -0.31732328529E+02 -0.70603437673E+02  0.46211203137E+03  0.46855022742E+03  0.00000000000E+00 0. -1.
         21    1    1    2  504  503  0.21711651673E+02  0.14860839754E+03  0.20270489012E+03  0.25227985278E+03  0.00000000000E+00 0.  1.
         21    1    1    2  505  504 -0.33681227031E+00 -0.43492512966E+02 -0.50802423729E+03  0.50988267062E+03  0.00000000000E+00 0. -1.
          2    1    1    2  501    0  0.10357489127E+02 -0.34512446905E+02  0.39985555426E+03  0.40147584092E+03  0.00000000000E+00 0.  1.
<scales pt_clust_3="33.77803" pt_clust_4="113.24179" pt_clust_5="43.49382" pt_clust_6="33.77803"></scales>
<clustering>
<clus scale="   33.778">  3  6 -1 -1</clus>
<clus scale="   43.494">  2  5  1 -1</clus>
<clus scale="  113.242">  2  4  1 -1</clus>
<clus scale="   43.494">  2  3  1 -1</clus>
</clustering>
</event>
<event>
 6    0  0.2433432E+002  0.9233325E+02  0.7546771E-02  0.1297298E+00
         21   -1    0    0  503  502  0.00000000000E+00  0.00000000000E+00  0.15254149213E+02  0.15254149213E+02  0.00000000000E+00 0. -1.
          2   -1    0    0  505    0 -0.00000000000E+00 -0.00000000000E+00 -0.20362887615E+04  0.20362887615E+04  0.00000000000E+00 0. -1.
         21    1    1    2  503  501  0.36282412727E+02  0.76092849783E+01 -0.80477116887E+02  0.88605197554E+02  0.00000000000E+00 0. -1.
         21    1    1    2  504  502 -0.10282953700E+03  0.25187511130E+02 -0.37807041001E+03  0.39261375335E+03  0.00000000000E+00 0. -1.
         21    1    1    2  505  504 -0.23229524948E+02  0.19968797681E+02 -0.81977116157E+03  0.82034329464E+03  0.00000000000E+00 0.  1.
          2    1    1    2  501    0  0.89776649226E+02 -0.52765593789E+02 -0.74271592379E+03  0.74998066514E+03  0.00000000000E+00 0. -1.
<scales pt_clust_3="35.81623" pt_clust_4="92.33325" pt_clust_5="30.63272" pt_clust_6="14000.00000"></scales>
<clustering>
<clus scale="   30.633">  2  5  1 -1</clus>
<clus scale="   35.816">  1  3  2 -1</clus>
<clus scale="   92.333">  1  4  2 -1</clus>
<clus scale="   35.816">  1  3  2 -1</clus>
</clustering>
</event>
<event>
 6    0  0.2433432E+002  0.1166482E+03  0.7546771E-02  0.1248731E+00
         21   -1    0    0  505  502  0.00000000000E+00  0.00000000000E+00  0.43554575648E+03  0.43554575648E+03  0.00000000000E+00 0.  1.
          1   -1    0    0  503    0 -0.00000000000E+00 -0.00000000000E+00 -0.16216761805E+04  0.16216761805E+04  0.00000000000E+00 0. -1.
         21    1    1    2  503  502 -0.98131444742E+02 -0.24257460228E+02  0.11958889941E+03  0.15658770605E+03  0.00000000000E+00 0.  1.
         21    1    1    2  504  501  0.11956855029E+03 -0.48589851559E+02  0.25551896671E+03  0.28626483235E+03  0.00000000000E+00 0.  1.
         21    1    1    2  505  504  0.32551366101E+02 -0.30718556378E+02  0.38562145999E+01  0.44923173664E+02  0.00000000000E+00 0.  1.
          1    1    1    2  501    0 -0.53988471646E+02  0.10356586816E+03 -0.15650945047E+04  0.15694462249E+04  0.00000000000E+00 0. -1.
<scales pt_clust_3="93.80323" pt_clust_4="14000.00000" pt_clust_5="44.75736" pt_clust_6="116.64818"></scales>
<clustering>
<clus scale="   44.757">  1  5  2 -1</clus>
<clus scale="   93.803">  1  3  2 -1</clus>
<clus scale="  116.648">  2  6  1 -1</clus>
<clus scale="   44.757">  1  3  2 -1</clus>
</clustering>
</event>
<event>
 6    0  0.2433432E+002  0.2328475E+03  0.7546771E-02  0.1124651E+00
         21   -1    0    0  501  502  0.00000000000E+00  0.00000000000E+00  0.12109645833E+03  0.12109645833E+03  0.00000000000E+00 0.  1.
          2   -1    0    0  503    0 -0.00000000000E+00 -0.00000000000E+00 -0.22821356052E+04  0.22821356052E+04  0.00000000000E+00 0.  1.
         21    1    1    2  503  505  0.26702373009E+02  0.33853599586E+02 -0.42579553760E+03  0.42797303977E+03  0.00000000000E+00 0.  1.
         21    1    1    2  504  502  0.34068202035E+02 -0.37007222102E+02  0.56117907871E+02  0.75361770557E+02  0.00000000000E+00 0.  1.
         21    1    1    2  505  504 -0.14046875250E+03  0.18159606132E+03 -0.16310427445E+04  0.16471214389E+04  0.00000000000E+00 0.  1.
          2    1    1    2  501    0  0.79698177457E+02 -0.17844243881E+03 -0.16031877258E+03  0.25277581431E+03  0.00000000000E+00 0.  1.
<scales pt_clust_3="43.11708" pt_clust_4="50.26597" pt_clust_5="14000.00000" pt_clust_6="232.84749"></scales>
<clustering>
<clus scale="   43.117">  2  3  1 -1</clus>
<clus scale="   50.266">  1  4  2 -1</clus>
<clus scale="  232.847">  1  6  2 -1</clus>
<clus scale="   50.266">  1  3  2 -1</clus>
</clustering>
</event>
<event>
 6    0  0.2433432E+002  0.1298932E+03  0.7546771E-02  0.1227614E+00
          2   -1    0    0  504    0 -0.00000000000E+00  0.00000000000E+00  0.46834642708E+03  0.46834642708E+03  0.00000000000E+00 0.  1.
         21   -1    0    0  503  502  0.00000000000E+00 -0.00000000000E+00 -0.19506614192E+03  0.19506614192E+03  0.00000000000E+00 0. -1.
         21    1    1    2  503  501  0.11804840444E+03  0.10675814560E+02 -0.14701638745E+03  0.18884707302E+03  0.00000000000E+00 0. -1.
         21    1    1    2  504  505 -0.57948469538E+02 -0.41113629505E+02  0.11591693097E+03  0.13595988577E+03  0.00000000000E+00 0. -1.
         21    1    1    2  505  502 -0.55108827726E+02 -0.81264848809E+01  0.33612095972E+02  0.65059938868E+02  0.00000000000E+00 0. -1.
          2    1    1    2  501    0 -0.49911071809E+01  0.38564299826E+02  0.27076764567E+03  0.27354567135E+03  0.00000000000E+00 0.  1.
<scales pt_clust_3="118.44299" pt_clust_4="50.32700" pt_clust_5="50.32700" pt_clust_6="38.88594"></scales>
<clustering>
<clus scale="   38.886">  1  6  2 -1</clus>
<clus scale="   50.327">  4  5 -1 -1</clus>
<clus scale="  118.443">  2  3  1 -1</clus>
<clus scale="  118.443">  2  3  1 -1</clus>
</clustering>
</event>
<event>
 6    0  0.2433432E+002  0.1357148E+03  0.7546771E-02  0.1219214E+00
         21   -1    0    0  504  502  0.00000000000E+00  0.00000000000E+00  0.78176735537E+03  0.78176735537E+03  0.00000000000E+00 0.  1.
          1   -1    0    0  503    0 -0.00000000000E+00 -0.00000000000E+00 -0.33210273358E+03  0.33210273358E+03  0.00000000000E+00 0. -1.
         21    1    1    2  503  502  0.33808948508E+02 -0.37440532788E+02  0.17372554712E+03  0.18090164238E+03  0.00000000000E+00 0. -1.
         21    1    1    2  504  505  0.84306747794E+02  0.96915231586E+02  0.46705981525E+03  0.48440175563E+03  0.00000000000E+00 0.  1.
         21    1    1    2  505  501 -0.18670419577E+03 -0.11539447172E+02  0.49759694686E+02  0.19356560329E+03  0.00000000000E+00 0.  1.
          1    1    1    2  501    0  0.68588499472E+02 -0.47935251626E+02 -0.24088043526E+03  0.25500108765E+03  0.00000000000E+00 0. -1.
<scales pt_clust_3="50.44639" pt_clust_4="14000.00000" pt_clust_5="135.71476" pt_clust_6="84.25329"></scales>
<clustering>
<clus scale="   50.446">  1  3  2 -1</clus>
<clus scale="   84.253">  2  6  1 -1</clus>
<clus scale="  135.715">  2  5  1 -1</clus>
<clus scale="   50.446">  1  3  2 -1</clus>
</clustering>
</event>
<event>
 6    0  0.2433432E+002  0.1024494E+03  0.7546771E-02  0.1275228E+00
         21   -1    0    0  504  502  0.00000000000E+00  0.00000000000E+00  0.16560488041E+03  0.16560488041E+03  0.00000000000E+00 0.  1.
          1   -1    0    0  505    0 -0.00000000000E+00 -0.00000000000E+00 -0.17635493879E+04  0.17635493879E+04  0.00000000000E+00 0. -1.
         21    1    1    2  503  501 -0.90283112073E+02  0.50945852262E+02 -0.45774038221E+03  0.46933226790E+03  0.00000000000E+00 0. -1.
         21    1    1    2  504  503  0.33859154001E+02  0.18673459038E+02  0.15052366979E+03  0.15541079612E+03  0.00000000000E+00 0.  1.
         21    1    1    2  505  502  0.88211508407E+02 -0.51488018730E+02 -0.39680094132E+03  0.40973561392E+03  0.00000000000E+00 0. -1.
          1    1    1    2  501    0 -0.31787550334E+02 -0.18131292570E+02 -0.89392685374E+03  0.89467559035E+03  0.00000000000E+00 0. -1.
<scales pt_clust_3="14000.00000" pt_clust_4="38.56418" pt_clust_5="102.44942" pt_clust_6="36.59497"></scales>
<clustering>
<clus scale="   36.595">  2  6  1 -1</clus>
<clus scale="   38.564">  1  4  2 -1</clus>
<clus scale="  102.449">  2  5  1 -1</clus>
<clus scale="   38.564">  1  3  2 -1</clus>
</clustering>
</event>
<event>
 6    0  0.2433432E+002  0.1578514E+03  0.7546771E-02  0.1191144E+00
          2   -1    0    0  503    0 -0.00000000000E+00  0.00000000000E+00  0.77958543719E+03  0.77958543719E+03  0.00000000000E+00 0. -1.
         21   -1    0    0  504  502  0.00000000000E+00 -0.00000000000E+00 -0.18765731173E+03  0.18765731173E+03  0.00000000000E+00 0.  1.
         21    1    1    2  503  505  0.35025261117E+02 -0.35331802113E+02  0.51464454276E+02  0.71579991693E+02  0.00000000000E+00 0.  1.
         21    1    1    2  504  501  0.72766756234E+02 -0.49098668687E+02  0.33165356456E+03  0.34307399634E+03  0.00000000000E+00 0. -1.
         21    1    1    2  505  502 -0.13611256767E+03  0.95430412365E+02 -0.13086117818E+03  0.21156143939E+03  0.00000000000E+00 0.  1.
          2    1    1    2  501    0  0.28320550322E+02 -0.10999941564E+02  0.33967128481E+03  0.34102732150E+03  0.00000000000E+00 0. -1.
<scales pt_clust_3="53.66526" pt_clust_4="157.85138" pt_clust_5="14000.00000" pt_clust_6="30.38178"></scales>
<clustering>
<clus scale="   30.382">  1  6  2 -1</clus>
<clus scale="   53.665">  1  3  2 -1</clus>
<clus scale="  157.851">  1  4  2 -1</clus>
<clus scale="  157.851">  2  3  1 -1</clus>
</clustering>
</event>
<event>
 6    0  0.2433432E+002  0.8268726E+02  0.7546771E-02  0.1321594E+00
         -1   -1    0    0    0  501 -0.00000000000E+00  0.00000000000E+00  0.33765753257E+03  0.33765753257E+03  0.00000000000E+00 0.  1.
         21   -1    0    0  504  502  0.00000000000E+00 -0.00000000000E+00 -0.17715093313E+03  0.17715093313E+03  0.00000000000E+00 0.  1.
         21    1    1    2  503  502 -0.18428992629E+02 -0.30620152753E+02 -0.19235516611E+02  0.40586039759E+02  0.00000000000E+00 0.  1.
         21    1    1    2  504  505 -0.54141753073E+02  0.62690772512E+02 -0.71282958257E+02  0.10928276407E+03  0.00000000000E+00 0.  1.
         21    1    1    2  505  501  0.10636882458E+03  0.86326663350E+01 -0.17041222971E+01  0.10673215918E+03  0.00000000000E+00 0.  1.
         -1    1    1    2    0  503 -0.33798078877E+02 -0.40703286094E+02  0.25272919661E+03  0.25820750270E+03  0.00000000000E+00 0.  1.
<scales pt_clust_3="35.73824" pt_clust_4="14000.00000" pt_clust_5="82.68726" pt_clust_6="53.56357"></scales>
<clustering>
<clus scale="   35.738">  2  3  1 -1</clus>
<clus scale="   53.564">  1  6  2 -1</clus>
<clus scale="   82.687">  1  5  2 -1</clus>
<clus scale="   35.738">  2  3  1 -1</clus>
</clustering>
</event>
<event>
 6    0  0.2433432E+002  0.7217484E+02  0.7546771E-02  0.1352850E+00
         21   -1    0    0  504  502  0.00000000000E+00  0.00000000000E+00  0.13847339993E+03  0.13847339993E+03  0.00000000000E+00 0.  1.
          2   -1    0    0  502    0 -0.00000000000E+00 -0.00000000000E+00 -0.21056837315E+03  0.21056837315E+03  0.00000000000E+00 0.  1.
         21    1    1    2  503  505 -0.20792444513E+02 -0.56259330708E+02 -0.27097646517E+02  0.65815807275E+02  0.00000000000E+00 0.  1.
         21    1    1    2  504  503 -0.27114325623E+02  0.34677084834E+02  0.60138588769E+02  0.74527422642E+02  0.00000000000E+00 0.  1.
         21    1    1    2  505  501  0.64318796564E+02 -0.50133666198E+02 -0.14482709762E+01  0.81562182209E+02  0.00000000000E+00 0.  1.
          2    1    1    2  501    0 -0.16412026427E+02  0.71715912072E+02 -0.10368764449E+03  0.12713636095E+03  0.00000000000E+00 0.  1.
<scales pt_clust_3="54.64411" pt_clust_4="44.01916" pt_clust_5="72.17484" pt_clust_6="14000.00000"></scales>
<clustering>
<clus scale="   44.019">  1  4  2 -1</clus>
<clus scale="   54.644">  1  3  2 -1</clus>
<clus scale="   72.175">  1  5  2 -1</clus>
<clus scale="   44.019">  1  3  2 -1</clus>
</clustering>
</event>
<event>
 6    0  0.2433432E+002  0.9856893E+02  0.7546771E-02  0.1283334E+00
         21   -1    0    0  503  502  0.00000000000E+00  0.00000000000E+00  0.58263205814E+02  0.58263205814E+02  0.00000000000E+00 0. -1.
         -2   -1    0    0    0  501 -0.00000000000E+00 -0.00000000000E+00 -0.19859968680E+04  0.19859968680E+04  0.00000000000E+00 0. -1.
         21    1    1    2  503  504  0.73483326560E+02  0.10326099347E+03 -0.89501278735E+03  0.90394165828E+03  0.00000000000E+00 0. -1.
         21    1    1    2  504  501 -0.66113277032E+02  0.98589024785E+01 -0.50761487453E+03  0.51199709394E+03  0.00000000000E+00 0. -1.
         21    1    1    2  505  502 -0.38385931280E+01 -0.29806123223E+02  0.43920056929E+02  0.53217583368E+02  0.00000000000E+00 0. -1.
         -2    1    1    2    0  505 -0.35314563996E+01 -0.83313772726E+02 -0.56902605720E+03  0.57510373819E+03  0.00000000000E+00 0. -1.
<scales pt_clust_3="98.56893" pt_clust_4="67.05360" pt_clust_5="30.05228" pt_clust_6="14000.00000"></scales>
<clustering>
<clus scale="   30.052">  1  5  2 -1</clus>
<clus scale="   67.054">  2  4  1 -1</clus>
<clus scale="   98.569">  2  3  1 -1</clus>
<clus scale="   30.052">  1  3  2 -1</clus>
</clustering>
</event>
<event>
 6    0  0.2433432E+002  0.2501394E+03  0.7546771E-02  0.1113217E+00
         21   -1    0    0  505  502  0.00000000000E+00  0.00000000000E+00  0.35817074851E+03  0.35817074851E+03  0.00000000000E+00 0.  1.
          2   -1    0    0  503    0 -0.00000000000E+00 -0.00000000000E+00 -0.18207451801E+04  0.18207451801E+04  0.00000000000E+00 0. -1.
         21    1    1    2  503  504 -0.15212673440E+03 -0.12634381866E+03 -0.21525767003E+03  0.29230321302E+03  0.00000000000E+00 0. -1.
         21    1    1    2  504  502  0.83187921185E+01 -0.15305011229E+03 -0.20600989389E+03  0.25677541852E+03  0.00000000000E+00 0.  1.
         21    1    1    2  505  501  0.13565367046E+03  0.12814788735E+03  0.25983826563E+03  0.31990580430E+03  0.00000000000E+00 0.  1.
          2    1    1    2  501    0  0.81542718226E+01  0.15124604360E+03 -0.13011451333E+04  0.13099314927E+04  0.00000000000E+00 0. -1.
<scales pt_clust_3="139.97827" pt_clust_4="139.97827" pt_clust_5="193.10733" pt_clust_6="151.46570"></scales>
<clustering>
<clus scale="  139.978">  3  4 -1 -1</clus>
<clus scale="  151.466">  2  6  1 -1</clus>
<clus scale="  193.107">  1  5  2 -1</clus>
<clus scale="  193.107">  1  3  2 -1</clus>
</clustering>
</event>
<event>
 6    0  0.2433432E+002  0.1028281E+03  0.7546771E-02  0.1274459E+00
          2   -1    0    0  504    0 -0.00000000000E+00  0.00000000000E+00  0.15036486031E+04  0.15036486031E+04  0.00000000000E+00 0. -1.
         21   -1    0    0  505  502  0.00000000000E+00 -0.00000000000E+00 -0.52115743033E+02  0.52115743033E+02  0.00000000000E+00 0.  1.
         21    1    1    2  503  502 -0.11360817124E+02 -0.55892721030E+02  0.13400422437E+03  0.14563720878E+03  0.00000000000E+00 0.  1.
         21    1    1    2  504  503 -0.46979089104E+02 -0.42538939991E+02  0.13820655316E+03  0.15204488668E+03  0.00000000000E+00 0.  1.
         21    1    1    2  505  501  0.10715318126E+02  0.92929111528E+02  0.17372805624E+02  0.95144375489E+02  0.00000000000E+00 0.  1.
          2    1    1    2  501    0  0.47624588102E+02  0.55025494926E+01  0.11619492769E+04  0.11629378752E+04  0.00000000000E+00 0. -1.
<scales pt_clust_3="35.79320" pt_clust_4="35.79320" pt_clust_5="95.65578" pt_clust_6="47.94142"></scales>
<clustering>
<clus scale="   35.793">  3  4 -1 -1</clus>
<clus scale="   47.941">  1  6  2 -1</clus>
<clus scale="   95.656">  2  5  1 -1</clus>
<clus scale="   95.656">  2  3  1 -1</clus>
</clustering>
</event>
<event>
 6    0  0.2433432E+002  0.1960108E+03  0.7546771E-02  0.1153149E+00
          2   -1    0    0  503    0 -0.00000000000E+00  0.00000000000E+00  0.25131910912E+04  0.25131910912E+04  0.00000000000E+00 0.  1.
         21   -1    0    0  504  502  0.00000000000E+00 -0.00000000000E+00 -0.28512391129E+02  0.28512391129E+02  0.00000000000E+00 0.  1.
         21    1    1    2  503  502 -0.48697705250E+02  0.79690309296E+01  0.44044971999E+02  0.66143265031E+02  0.00000000000E+00 0.  1.
         21    1    1    2  504  505  0.33830136321E+02 -0.17286012944E+02  0.10016676433E+03  0.10712919790E+03  0.00000000000E+00 0.  1.
         21    1    1    2  505  501  0.18210595676E+03  0.25770123505E+02  0.93195171855E+03  0.94992667320E+03  0.00000000000E+00 0.  1.
          2    1    1    2  501    0 -0.16723838783E+03 -0.16453141491E+02  0.14085152452E+04  0.14185043462E+04  0.00000000000E+00 0.  1.
<scales pt_clust_3="49.34543" pt_clust_4="33.39232" pt_clust_5="33.39232" pt_clust_6="181.71973"></scales>
<clustering>
<clus scale="   33.392">  4  5 -1 -1</clus>
<clus scale="   49.345">  2  3  1 -1</clus>
<clus scale="  181.720">  1  6  2 -1</clus>
<clus scale="   49.345">  2  3  1 -1</clus>
</clustering>
</event>
<event>
 6    0  0.2433432E+002  0.1092630E+03  0.7546771E-02  0.1261941E+00
         21   -1    0    0  505  502  0.00000000000E+00  0.00000000000E+00  0.31061505207E+03  0.31061505207E+03  0.00000000000E+00 0. -1.
          1   -1    0    0  503    0 -0.00000000000E+00 -0.00000000000E+00 -0.14236369171E+04  0.14236369171E+04  0.00000000000E+00 0.  1.
         21    1    1    2  503  504 -0.14857469941E+02 -0.32320710750E+02 -0.45066186932E+02  0.57413708824E+02  0.00000000000E+00 0. -1.
         21    1    1    2  504  502  0.10656101995E+03 -0.43265579169E+02  0.18073591346E+01  0.11502359698E+03  0.00000000000E+00 0. -1.
         21    1    1    2  505  501  0.36078891763E+01  0.43907265327E+02  0.24211849874E+03  0.24609395004E+03  0.00000000000E+00 0. -1.
          1    1    1    2  501    0 -0.95311439189E+02  0.31679024591E+02 -0.13118815360E+04  0.13157207133E+04  0.00000000000E+00 0.  1.
<scales pt_clust_3="35.57208" pt_clust_4="14000.00000" pt_clust_5="44.00683" pt_clust_6="109.26300"></scales>
<clustering>
<clus scale="   35.572">  2  3  1 -1</clus>
<clus scale="   44.007">  1  5  2 -1</clus>
<clus scale="  109.263">  2  6  1 -1</clus>
<clus scale="   44.007">  1  3  2 -1</clus>
</clustering>
</event>
<event>
 6    0  0.2433432E+002  0.1056025E+03  0.7546771E-02  0.1268937E+00
          2   -1    0    0  503    0 -0.00000000000E+00  0.00000000000E+00  0.77323688975E+03  0.77323688975E+03  0.00000000000E+00 0.  1.
         21   -1    0    0  505  502  0.00000000000E+00 -0.00000000000E+00 -0.86263506888E+02  0.86263506888E+02  0.00000000000E+00 0.  1.
         21    1    1    2  503  502  0.73569908371E+02 -0.49712759255E+02  0.13282683855E+03  0.15977127054E+03  0.00000000000E+00 0.  1.
         21    1    1    2  504  501 -0.73019079931E+02 -0.72210651860E+02  0.80525993104E+02  0.13050134038E+03  0.00000000000E+00 0.  1.
         21    1    1    2  505  504 -0.25724740071E+02  0.15585761094E+02 -0.36635893591E+02  0.47401127622E+02  0.00000000000E+00 0. -1.
          2    1    1    2  501    0  0.25173911632E+02  0.10633765002E+03  0.51025644480E+03  0.52182665810E+03  0.00000000000E+00 0.  1.
<scales pt_clust_3="79.64534" pt_clust_4="105.60250" pt_clust_5="30.07787" pt_clust_6="14000.00000"></scales>
<clustering>
<clus scale="   30.078">  2  5  1 -1</clus>
<clus scale="   79.645">  2  3  1 -1</clus>
<clus scale="  105.603">  2  4  1 -1</clus>
<clus scale="   30.078">  2  3  1 -1</clus>
</clustering>
</event>
<event>
 6    0  0.2433432E+002  0.1040832E+03  0.7546771E-02  0.1271937E+00
          4   -1    0    0  504    0 -0.00000000000E+00  0.00000000000E+00  0.16312026807E+04  0.16312026807E+04  0.00000000000E+00 0.  1.
         21   -1    0    0  503  502  0.00000000000E+00 -0.00000000000E+00 -0.99163069494E+02  0.99163069494E+02  0.00000000000E+00 0.  1.
         21    1    1    2  503  501  0.61792708123E+02  0.12090273460E+03  0.59539574020E+02  0.14825913424E+03  0.00000000000E+00 0. -1.
         21    1    1    2  504  505 -0.19382204366E+02 -0.35334911000E+02 -0.29254856574E+01  0.40407725100E+02  0.00000000000E+00 0.  1.
         21    1    1    2  505  502 -0.51360842347E+02 -0.14175384691E+02 -0.10270202274E+02  0.54261908485E+02  0.00000000000E+00 0.  1.
          4    1    1    2  501    0  0.89503385899E+01 -0.71392438905E+02  0.14856957251E+04  0.14874369824E+04  0.00000000000E+00 0.  1.
<scales pt_clust_3="97.47276" pt_clust_4="31.74582" pt_clust_5="31.74582" pt_clust_6="71.95130"></scales>
<clustering>
<clus scale="   31.746">  4  5 -1 -1</clus>
<clus scale="   71.951">  1  6  2 -1</clus>
<clus scale="   97.473">  1  3  2 -1</clus>
<clus scale="  104.083">  2  3  1 -1</clus>
</clustering>
</event>
<event>
 6    0  0.2433432E+002  0.1850155E+03  0.7546771E-02  0.1163035E+00
         21   -1    0    0  501  502  0.00000000000E+00  0.00000000000E+00  0.99665851967E+03  0.99665851967E+03  0.00000000000E+00 0. -1.
          1   -1    0    0  504    0 -0.00000000000E+00 -0.00000000000E+00 -0.98362649018E+03  0.98362649018E+03  0.00000000000E+00 0.  1.
         21    1    1    2  503  502 -0.94617029260E+02  0.15293064247E+03  0.96806606330E+03  0.98462788227E+03  0.00000000000E+00 0. -1.
         21    1    1    2  504  505  0.57265839322E+02 -0.10672118351E+03 -0.37084445970E+03  0.39012100771E+03  0.00000000000E+00 0.  1.
         21    1    1    2  505  503  0.34558973729E+02 -0.77180573702E+02 -0.16700934946E+03  0.18719852144E+03  0.00000000000E+00 0.  1.
          1    1    1    2  501    0  0.27922162077E+01  0.30971114738E+02 -0.41718022466E+03  0.41833759843E+03  0.00000000000E+00 0.  1.
<scales pt_clust_3="180.19785" pt_clust_4="35.86049" pt_clust_5="35.86049" pt_clust_6="31.09673"></scales>
<clustering>
<clus scale="   31.097">  2  6  1 -1</clus>
<clus scale="   35.860">  4  5 -1 -1</clus>
<clus scale="  180.198">  1  3  2 -1</clus>
<clus scale="  180.198">  1  3  2 -1</clus>
</clustering>
</event>
<event>
 6    0  0.2433432E+002  0.7509324E+02  0.7546771E-02  0.1343583E+00
          2   -1    0    0  504    0 -0.00000000000E+00  0.00000000000E+00  0.74926513503E+03  0.74926513503E+03  0.00000000000E+00 0.  1.
         21   -1    0    0  503  502  0.00000000000E+00 -0.00000000000E+00 -0.31260620824E+03  0.31260620824E+03  0.00000000000E+00 0.  1.
         21    1    1    2  503  501 -0.90370042783E+02 -0.25041995732E+02 -0.49520853467E+02  0.10604791894E+03  0.00000000000E+00 0.  1.
         21    1    1    2  504  505  0.61441483672E+02  0.16058131519E+02  0.43277588535E+01  0.63652564759E+02  0.00000000000E+00 0. -1.
         21    1    1    2  505  502 -0.42176650344E+02 -0.13603892475E+02 -0.20070964030E+03  0.20554390148E+03  0.00000000000E+00 0.  1.
          2    1    1    2  501    0  0.71105209454E+02  0.22587756689E+02  0.68256166170E+03  0.68662695810E+03  0.00000000000E+00 0.  1.
<scales pt_clust_3="14000.00000" pt_clust_4="51.52171" pt_clust_5="44.31631" pt_clust_6="75.09324"></scales>
<clustering>
<clus scale="   44.316">  2  5  1 -1</clus>
<clus scale="   51.522">  2  4  1 -1</clus>
<clus scale="   75.093">  1  6  2 -1</clus>
<clus scale="   44.316">  2  3  1 -1</clus>
</clustering>
</event>
<event>
 6    0  0.2433432E+002  0.1785915E+03  0.7546771E-02  0.1169173E+00
         21   -1    0    0  503  502  0.00000000000E+00  0.00000000000E+00  0.52836532054E+03  0.52836532054E+03  0.00000000000E+00 0. -1.
          2   -1    0    0  505    0 -0.00000000000E+00 -0.00000000000E+00 -0.72671411064E+03  0.72671411064E+03  0.00000000000E+00 0.  1.
         21    1    1    2  503  501  0.38319857370E+02 -0.12955691457E+03 -0.53801062188E+02  0.14542338146E+03  0.00000000000E+00 0.  1.
         21    1    1    2  504  502  0.33268167518E+02  0.18698365993E+03  0.42758186782E+03  0.46786313569E+03  0.00000000000E+00 0. -1.
         21    1    1    2  505  504 -0.78828716010E+02  0.76193022039E+01 -0.14717828810E+02  0.80552062164E+02  0.00000000000E+00 0.  1.
          2    1    1    2  501    0  0.72406911229E+01 -0.65046047566E+02 -0.55741176692E+03  0.56124085187E+03  0.00000000000E+00 0.  1.
<scales pt_clust_3="14000.00000" pt_clust_4="178.59146" pt_clust_5="77.53692" pt_clust_6="65.44781"></scales>
<clustering>
<clus scale="   65.448">  2  6  1 -1</clus>
<clus scale="   77.537">  2  5  1 -1</clus>
<clus scale="  178.591">  1  4  2 -1</clus>
<clus scale="  178.591">  1  3  2 -1</clus>
</clustering>
</event>
<event>
 6    0  0.2433432E+002  0.1251622E+03  0.7546771E-02  0.1234816E+00
         -4   -1    0    0    0  501 -0.00000000000E+00  0.00000000000E+00  0.16796357275E+03  0.16796357275E+03  0.00000000000E+00 0.  1.
         21   -1    0    0  501  502  0.00000000000E+00 -0.00000000000E+00 -0.26479818890E+04  0.26479818890E+04  0.00000000000E+00 0.  1.
         21    1    1    2  503  505  0.65923151922E+02  0.75010107849E+01 -0.70410659746E+03  0.70722572613E+03  0.00000000000E+00 0. -1.
         21    1    1    2  504  503 -0.13840876437E+03 -0.47200558161E+02 -0.88650831500E+03  0.89848865953E+03  0.00000000000E+00 0.  1.
         21    1    1    2  505  502  0.40674276610E+02 -0.78816515687E+01 -0.10442879265E+04  0.10451094635E+04  0.00000000000E+00 0.  1.
         -4    1    1    2    0  504  0.31811335838E+02  0.47581198944E+02  0.15488452270E+03  0.16512161262E+03  0.00000000000E+00 0.  1.
<scales pt_clust_3="38.97019" pt_clust_4="115.03706" pt_clust_5="38.97019" pt_clust_6="57.23575"></scales>
<clustering>
<clus scale="   38.970">  3  5 -1 -1</clus>
<clus scale="   57.236">  1  6  2 -1</clus>
<clus scale="  115.037">  1  4  2 -1</clus>
<clus scale="  125.162">  2  3  1 -1</clus>
</clustering>
</event>
<event>
 6    0  0.2433432E+002  0.1698311E+03  0.7546771E-02  0.1178024E+00
         21   -1    0    0  503  502  0.00000000000E+00  0.00000000000E+00  0.17168281923E+03  0.17168281923E+03  0.00000000000E+00 0. -1.
          2   -1    0    0  504    0 -0.00000000000E+00 -0.00000000000E+00 -0.12950778836E+04  0.12950778836E+04  0.00000000000E+00 0. -1.
         21    1    1    2  503  505 -0.58398363487E+01 -0.47788331216E+02  0.54588712412E+02  0.72785684113E+02  0.00000000000E+00 0.  1.
         21    1    1    2  504  502  0.25146669017E+02  0.12565523864E+03 -0.11409463206E+03  0.17157849232E+03  0.00000000000E+00 0. -1.
         21    1    1    2  505  501 -0.60024896480E+02 -0.10824545275E+03  0.29975973053E+02  0.12735236629E+03  0.00000000000E+00 0. -1.
          2    1    1    2  501    0  0.40718063812E+02  0.30378545322E+02 -0.10938651177E+04  0.10950441601E+04  0.00000000000E+00 0. -1.
<scales pt_clust_3="40.51146" pt_clust_4="156.91794" pt_clust_5="40.51146" pt_clust_6="50.80174"></scales>
<clustering>
<clus scale="   40.511">  3  5 -1 -1</clus>
<clus scale="   50.802">  2  6  1 -1</clus>
<clus scale="  156.918">  2  4  1 -1</clus>
<clus scale="  169.831">  1  3  2 -1</clus>
</clustering>
</event>
<event>
 6    0  0.2433432E+002  0.2392201E+03  0.7546771E-02  0.1120313E+00
          2   -1    0    0  502    0 -0.00000000000E+00  0.00000000000E+00  0.16011874281E+04  0.16011874281E+04  0.00000000000E+00 0.  1.
         21   -1    0    0  505  502  0.00000000000E+00 -0.00000000000E+00 -0.20133276167E+03  0.20133276167E+03  0.00000000000E+00 0.  1.
         21    1    1    2  503  504 -0.23535690822E+02  0.96596634494E+02 -0.12281539273E+02  0.10017821492E+03  0.00000000000E+00 0.  1.
         21    1    1    2  504  501  0.20392335133E+02  0.12842863803E+03  0.28734715228E+01  0.13006928629E+03  0.00000000000E+00 0.  1.
         21    1    1    2  505  503 -0.30241219772E+02  0.78627340715E+01 -0.68820866570E+02  0.75582178031E+02  0.00000000000E+00 0.  1.
          2    1    1    2  501    0  0.33384575461E+02 -0.23288800659E+03  0.14780836007E+04  0.14966905105E+04  0.00000000000E+00 0.  1.
<scales pt_clust_3="42.82312" pt_clust_4="42.82312" pt_clust_5="31.24666" pt_clust_6="234.40796"></scales>
<clustering>
<clus scale="   31.247">  2  5  1 -1</clus>
<clus scale="   42.823">  3  4 -1 -1</clus>
<clus scale="  234.408">  1  6  2 -1</clus>
<clus scale="   31.247">  2  3  1 -1</clus>
</clustering>
</event>
<event>
 6    0  0.2433432E+002  0.1712195E+03  0.7546771E-02  0.1176582E+00
         21   -1    0    0  504  502  0.00000000000E+00  0.00000000000E+00  0.17170914698E+02  0.17170914698E+02  0.00000000000E+00 0. -1.
         -1   -1    0    0    0  501 -0.00000000000E+00 -0.00000000000E+00 -0.27300729987E+04  0.27300729987E+04  0.00000000000E+00 0. -1.
         21    1    1    2  503  505 -0.10213265815E+03  0.26832725020E+02 -0.45356846577E+03  0.46569885993E+03  0.00000000000E+00 0. -1.
         21    1    1    2  504  503 -0.49459023475E+02  0.69573526689E+02 -0.32054677037E+03  0.33171810716E+03  0.00000000000E+00 0. -1.
         21    1    1    2  505  501  0.75090272504E+02 -0.99852844512E+02 -0.14099135119E+04  0.14154381832E+04  0.00000000000E+00 0.  1.
         -1    1    1    2    0  502  0.76501409122E+02  0.34465928030E+01 -0.52887333600E+03  0.53438876310E+03  0.00000000000E+00 0. -1.
<scales pt_clust_3="59.26644" pt_clust_4="59.26644" pt_clust_5="158.02188" pt_clust_6="76.57901"></scales>
<clustering>
<clus scale="   59.266">  3  4 -1 -1</clus>
<clus scale="   76.579">  2  6  1 -1</clus>
<clus scale="  158.022">  2  5  1 -1</clus>
<clus scale="  171.220">  1  3  2 -1</clus>
</clustering>
</event>
<event>
 6    0  0.2433432E+002  0.2050613E+03  0.7546771E-02  0.1145538E+00
          1   -1    0    0  503    0 -0.00000000000E+00  0.00000000000E+00  0.53657801167E+03  0.53657801167E+03  0.00000000000E+00 0.  1.
         21   -1    0    0  501  502  0.00000000000E+00 -0.00000000000E+00 -0.72152194379E+03  0.72152194379E+03  0.00000000000E+00 0. -1.
         21    1    1    2  503  504  0.18502224582E+03 -0.83552505424E+02 -0.41550023837E+03  0.46244426767E+03  0.00000000000E+00 0. -1.
         21    1    1    2  504  505  0.64346981928E+02 -0.10095887215E+03 -0.81726492946E+02  0.14495670939E+03  0.00000000000E+00 0. -1.
         21    1    1    2  505  502 -0.84783313906E+02  0.61621135771E+02 -0.12765650603E+03  0.16517129963E+03  0.00000000000E+00 0.  1.
          1    1    1    2  501    0 -0.16458591384E+03  0.12289024180E+03  0.43993930523E+03  0.48552767877E+03  0.00000000000E+00 0.  1.
<scales pt_clust_3="14000.00000" pt_clust_4="100.78403" pt_clust_5="104.81114" pt_clust_6="205.06128"></scales>
<clustering>
<clus scale="  104.811">  2  5  1 -1</clus>
<clus scale="  100.784">  2  4  1 -1</clus>
<clus scale="  205.061">  1  6  2 -1</clus>
<clus scale="  104.811">  2  3  1 -1</clus>
</clustering>
</event>
<event>
 6    0  0.2433432E+002  0.1007872E+03  0.7546771E-02  0.1278649E+00
         -3   -1    0    0    0  501 -0.00000000000E+00  0.00000000000E+00  0.12549603259E+04  0.12549603259E+04  0.00000000000E+00 0. -1.
         21   -1    0    0  501  502  0.00000000000E+00 -0.00000000000E+00 -0.13322984784E+03  0.13322984784E+03  0.00000000000E+00 0. -1.
         21    1    1    2  503  504  0.48472995757E+02 -0.34182304414E+00  0.93804708983E+02  0.10558916416E+03  0.00000000000E+00 0. -1.
         21    1    1    2  504  502 -0.20545724607E+02 -0.55492228921E+02 -0.10996337515E+03  0.12487376884E+03  0.00000000000E+00 0. -1.
         21    1    1    2  505  503  0.51870890482E+02  0.64549976641E+02  0.20078027135E+03  0.21718656986E+03  0.00000000000E+00 0.  1.
         -3    1    1    2    0  505 -0.79798161632E+02 -0.87159246761E+01  0.93710887288E+03  0.94054067087E+03  0.00000000000E+00 0. -1.
<scales pt_clust_3="43.36347" pt_clust_4="59.17359" pt_clust_5="43.36347" pt_clust_6="83.34136"></scales>
<clustering>
<clus scale="   43.363">  3  5 -1 -1</clus>
<clus scale="   59.174">  2  4  1 -1</clus>
<clus scale="   83.341">  1  6  2 -1</clus>
<clus scale="   59.174">  2  3  1 -1</clus>
</clustering>
</event>
<event>
 6    0  0.2433432E+002  0.1973836E+03  0.7546771E-02  0.1151965E+00
          1   -1    0    0  503    0 -0.00000000000E+00  0.00000000000E+00  0.18370870813E+03  0.18370870813E+03  0.00000000000E+00 0.  1.
         21   -1    0    0  505  502  0.00000000000E+00 -0.00000000000E+00 -0.51178244964E+03  0.51178244964E+03  0.00000000000E+00 0.  1.
         21    1    1    2  503  504 -0.16409776614E+03 -0.46776998783E+02 -0.87632993996E+02  0.19182206887E+03  0.00000000000E+00 0. -1.
         21    1    1    2  504  502 -0.60715839557E+01  0.45415788500E+02 -0.11715467024E+03  0.12579616343E+03  0.00000000000E+00 0.  1.
         21    1    1    2  505  501 -0.22184361333E+02 -0.11681927895E+03 -0.91182987701E+02  0.14984400911E+03  0.00000000000E+00 0.  1.
          1    1    1    2  501    0  0.19235371143E+03  0.11818048923E+03 -0.32103089570E+02  0.22802891636E+03  0.00000000000E+00 0.  1.
<scales pt_clust_3="197.38361" pt_clust_4="45.81984" pt_clust_5="105.57436" pt_clust_6="14000.00000"></scales>
<clustering>
<clus scale="   45.820">  2  4  1 -1</clus>
<clus scale="  105.574">  2  5  1 -1</clus>
<clus scale="  197.384">  2  3  1 -1</clus>
<clus scale="   45.820">  2  3  1 -1</clus>
</clustering>
</event>
<event>
 6    0  0.2433432E+002  0.1092799E+03  0.7546771E-02  0.1261909E+00
          2   -1    0    0  504    0 -0.00000000000E+00  0.00000000000E+00  0.19486111687E+04  0.19486111687E+04  0.00000000000E+00 0. -1.
         21   -1    0    0  505  502  0.00000000000E+00 -0.00000000000E+00 -0.71015415210E+02  0.71015415210E+02  0.00000000000E+00 0.  1.
         21    1    1    2  503  502  0.21571352815E+02  0.23538075468E+02 -0.12538987456E+02  0.34301464480E+02  0.00000000000E+00 0.  1.
         21    1    1    2  504  503 -0.14687412945E+03  0.57517790967E+02  0.13270099434E+03  0.20613068689E+03  0.00000000000E+00 0.  1.
         21    1    1    2  505  501  0.20057234126E+02 -0.61140600734E+02  0.10401241471E+03  0.12230718749E+03  0.00000000000E+00 0. -1.
          2    1    1    2  501    0  0.10524554251E+03 -0.19915265701E+02  0.16534213319E+04  0.16568872451E+04  0.00000000000E+00 0. -1.
<scales pt_clust_3="31.92748" pt_clust_4="14000.00000" pt_clust_5="61.57312" pt_clust_6="109.27988"></scales>
<clustering>
<clus scale="   31.927">  2  3  1 -1</clus>
<clus scale="   61.573">  2  5  1 -1</clus>
<clus scale="  109.280">  1  6  2 -1</clus>
<clus scale="   31.927">  2  3  1 -1</clus>
</clustering>
</event>
<event>
 6    0  0.2433432E+002  0.1540173E+03  0.7546771E-02  0.1195622E+00
         21   -1    0    0  503  502  0.00000000000E+00  0.00000000000E+00  0.84421083473E+02  0.84421083473E+02  0.00000000000E+00 0. -1.
          2   -1    0    0  505    0 -0.00000000000E+00 -0.00000000000E+00 -0.58544900728E+03  0.58544900728E+03  0.00000000000E+00 0.  1.
         21    1    1    2  503  501  0.14562990931E+02  0.32343391862E+02 -0.52382292959E+01  0.35855470269E+02  0.00000000000E+00 0.  1.
         21    1    1    2  504  502  0.35369756346E+02 -0.14859246342E+02  0.89433355062E+01  0.39392894230E+02  0.00000000000E+00 0.  1.
         21    1    1    2  505  504  0.10116168158E+03  0.84352277760E+02 -0.19652343837E+03  0.23658075664E+03  0.00000000000E+00 0. -1.
          2    1    1    2  501    0 -0.15109442886E+03 -0.10183642328E+03 -0.30820959164E+03  0.35804096961E+03  0.00000000000E+00 0.  1.
<scales pt_clust_3="35.47077" pt_clust_4="40.61767" pt_clust_5="14000.00000" pt_clust_6="154.01729"></scales>
<clustering>
<clus scale="   35.471">  1  3  2 -1</clus>
<clus scale="   40.618">  1  4  2 -1</clus>
<clus scale="  154.017">  1  6  2 -1</clus>
<clus scale="   35.471">  1  3  2 -1</clus>
</clustering>
</event>
<event>
 6    0  0.2433432E+002  0.7987421E+02  0.7546771E-02  0.1329409E+00
         21   -1    0    0  503  502  0.00000000000E+00  0.00000000000E+00  0.23211337969E+03  0.23211337969E+03  0.00000000000E+00 0. -1.
         -1   -1    0    0    0  501 -0.00000000000E+00 -0.00000000000E+00 -0.96460677716E+03  0.96460677716E+03  0.00000000000E+00 0.  1.
         21    1    1    2  503  504  0.73725086177E+02 -0.34801140508E+02  0.19692368905E+03  0.21313246356E+03  0.00000000000E+00 0. -1.
         21    1    1    2  504  505 -0.23152606320E+02  0.83890554317E+02 -0.85519262088E+02  0.12201316515E+03  0.00000000000E+00 0.  1.
         21    1    1    2  505  501 -0.98398442884E+02  0.17513904953E+01 -0.59460064583E+03  0.60269001066E+03  0.00000000000E+00 0.  1.
         -1    1    1    2    0  502  0.47825963027E+02 -0.50840804304E+02 -0.24929717861E+03  0.25888451747E+03  0.00000000000E+00 0.  1.
<scales pt_clust_3="14000.00000" pt_clust_4="79.87421" pt_clust_5="71.16080" pt_clust_6="69.80050"></scales>
<clustering>
<clus scale="   69.801">  2  6  1 -1</clus>
<clus scale="   71.161">  2  5  1 -1</clus>
<clus scale="   79.874">  2  4  1 -1</clus>
<clus scale="   79.874">  1  3  2 -1</clus>
</clustering>
</event>
<event>
 6    0  0.2433432E+002  0.9644195E+02  0.7546771E-02  0.1287961E+00
          2   -1    0    0  503    0 -0.00000000000E+00  0.00000000000E+00  0.77005171807E+03  0.77005171807E+03  0.00000000000E+00 0.  1.
         21   -1    0    0  505  502  0.00000000000E+00 -0.00000000000E+00 -0.14439204180E+03  0.14439204180E+03  0.00000000000E+00 0.  1.
         21    1    1    2  503  502  0.38776569357E+01  0.87440435623E+02 -0.60623088193E+02  0.10647076983E+03  0.00000000000E+00 0.  1.
         21    1    1    2  504  501 -0.36116332149E+02  0.37126103448E+02  0.15601272765E+02  0.54093777064E+02  0.00000000000E+00 0.  1.
         21    1    1    2  505  504  0.20359907686E+02 -0.15395165252E+03  0.10533788853E+03  0.18764782950E+03  0.00000000000E+00 0.  1.
          2    1    1    2  501    0  0.11878767528E+02  0.29385113448E+02  0.56534360316E+03  0.56623138349E+03  0.00000000000E+00 0.  1.
<scales pt_clust_3="14000.00000" pt_clust_4="54.20174" pt_clust_5="96.44195" pt_clust_6="31.69527"></scales>
<clustering>
<clus scale="   31.695">  1  6  2 -1</clus>
<clus scale="   54.202">  1  4  2 -1</clus>
<clus scale="   96.442">  1  5  2 -1</clus>
<clus scale="   96.442">  2  3  1 -1</clus>
</clustering>
</event>
<event>
 6    0  0.2433432E+002  0.9169329E+02  0.7546771E-02  0.1298802E+00
          2   -1    0    0  505    0 -0.00000000000E+00  0.00000000000E+00  0.35119751843E+03  0.35119751843E+03  0.00000000000E+00 0. -1.
         21   -1    0    0  504  502  0.00000000000E+00 -0.00000000000E+00 -0.35184796106E+03  0.35184796106E+03  0.00000000000E+00 0.  1.
         21    1    1    2  503  502  0.33035489021E+02 -0.77692587713E+01 -0.83421190705E+02  0.90059979877E+02  0.00000000000E+00 0.  1.
         21    1    1    2  504  501 -0.56717617684E+02  0.45227579969E+02 -0.16657441145E+03  0.18168504808E+03  0.00000000000E+00 0.  1.
         21    1    1    2  505  503  0.61352810519E+02  0.48113361676E+02 -0.66146196434E+02  0.10224667346E+03  0.00000000000E+00 0. -1.
          2    1    1    2  501    0 -0.37670681857E+02 -0.85571682873E+02  0.31549135596E+03  0.32905377808E+03  0.00000000000E+00 0. -1.
<scales pt_clust_3="33.93678" pt_clust_4="53.25700" pt_clust_5="91.69329" pt_clust_6="14000.00000"></scales>
<clustering>
<clus scale="   33.937">  2  3  1 -1</clus>
<clus scale="   53.257">  2  4  1 -1</clus>
<clus scale="   91.693">  2  5  1 -1</clus>
<clus scale="   33.937">  2  3  1 -1</clus>
</clustering>
</event>
<event>
 6    0  0.2433432E+002  0.1389213E+03  0.7546771E-02  0.1214788E+00
         21   -1    0    0  504  502  0.00000000000E+00  0.00000000000E+00  0.24753541691E+04  0.24753541691E+04  0.00000000000E+00 0. -1.
          4   -1    0    0  503    0 -0.00000000000E+00 -0.00000000000E+00 -0.42829362862E+02  0.42829362862E+02  0.00000000000E+00 0. -1.
         21    1    1    2  503  505 -0.11579566682E+03  0.11243372037E+03  0.10318211590E+04  0.10443681737E+04  0.00000000000E+00 0. -1.
         21    1    1    2  504  501  0.67683497085E+01  0.41088240014E+02  0.15804183026E+03  0.16343584104E+03  0.00000000000E+00 0. -1.
         21    1    1    2  505  502 -0.68724250283E+00 -0.73094169097E+02  0.11337827589E+04  0.11361366882E+04  0.00000000000E+00 0. -1.
          4    1    1    2  501    0  0.10971455962E+03 -0.80427791283E+02  0.10887905804E+03  0.17424282907E+03  0.00000000000E+00 0. -1.
<scales pt_clust_3="14000.00000" pt_clust_4="41.64197" pt_clust_5="53.01212" pt_clust_6="138.92133"></scales>
<clustering>
<clus scale="   41.642">  1  4  2 -1</clus>
<clus scale="   53.012">  1  5  2 -1</clus>
<clus scale="  138.921">  2  6  1 -1</clus>
<clus scale="   41.642">  1  3  2 -1</clus>
</clustering>
</event>
<event>
 6    0  0.2433432E+002  0.1029116E+03  0.7546771E-02  0.1274290E+00
         21   -1    0    0  504  502  0.00000000000E+00  0.00000000000E+00  0.15469127006E+03  0.15469127006E+03  0.00000000000E+00 0.  1.
          1   -1    0    0  503    0 -0.00000000000E+00 -0.00000000000E+00 -0.29996129317E+04  0.29996129317E+04  0.00000000000E+00 0.  1.
         21    1    1    2  503  505  0.95539066181E+02 -0.20442039174E+02 -0.97936245134E+01  0.98191166677E+02  0.00000000000E+00 0.  1.
         21    1    1    2  504  501  0.87504714537E+01 -0.41809279617E+02 -0.28472611757E+02  0.51334941639E+02  0.00000000000E+00 0.  1.
         21    1    1    2  505  502 -0.58829621368E+02  0.13284909566E+03  0.44834271628E+02  0.15205235441E+03  0.00000000000E+00 0.  1.
          1    1    1    2  501    0 -0.45459916266E+02 -0.70597776872E+02 -0.28514896970E+04  0.28527257390E+04  0.00000000000E+00 0.  1.
<scales pt_clust_3="102.91158" pt_clust_4="42.71518" pt_clust_5="14000.00000" pt_clust_6="84.09946"></scales>
<clustering>
<clus scale="   42.715">  1  4  2 -1</clus>
<clus scale="   84.099">  2  6  1 -1</clus>
<clus scale="  102.912">  2  3  1 -1</clus>
<clus scale="   42.715">  1  3  2 -1</clus>
</clustering>
</event>
<event>
 6    0  0.2433432E+002  0.1019957E+03  0.7546771E-02  0.1276154E+00
         -2   -1    0    0    0  501 -0.00000000000E+00  0.00000000000E+00  0.69824466478E+03  0.69824466478E+03  0.00000000000E+00 0. -1.
         21   -1    0    0  503  502  0.00000000000E+00 -0.00000000000E+00 -0.15390049619E+03  0.15390049619E+03  0.00000000000E+00 0. -1.
         21    1    1    2  503  501  0.28816158651E+02 -0.33103043692E+02  0.60644562951E+02  0.74859505185E+02  0.00000000000E+00 0. -1.
         21    1    1    2  504  502  0.29080851334E+02  0.69566990753E+02 -0.68031501501E+02  0.10155563654E+03  0.00000000000E+00 0. -1.
         21    1    1    2  505  504 -0.73464962989E+02  0.34890613356E+02 -0.32036546149E+02  0.87411646687E+02  0.00000000000E+00 0. -1.
         -2    1    1    2    0  505  0.15567953004E+02 -0.71354560417E+02  0.58376765329E+03  0.58831837255E+03  0.00000000000E+00 0. -1.
<scales pt_clust_3="43.88830" pt_clust_4="74.89148" pt_clust_5="101.99566" pt_clust_6="14000.00000"></scales>
<clustering>
<clus scale="   43.888">  1  3  2 -1</clus>
<clus scale="   74.891">  2  4  1 -1</clus>
<clus scale="  101.996">  2  5  1 -1</clus>
<clus scale="   74.891">  2  3  1 -1</clus>
</clustering>
</event>
<event>
 6    0  0.2433432E+002  0.1136819E+03  0.7546771E-02  0.1253900E+00
         21   -1    0    0  504  502  0.00000000000E+00  0.00000000000E+00  0.52304639847E+02  0.52304639847E+02  0.00000000000E+00 0. -1.
          1   -1    0    0  502    0 -0.00000000000E+00 -0.00000000000E+00 -0.74674352103E+03  0.74674352103E+03  0.00000000000E+00 0. -1.
         21    1    1    2  503  505  0.97676829819E+01 -0.35011962566E+02 -0.43910539329E+02  0.57003338654E+02  0.00000000000E+00 0. -1.
         21    1    1    2  504  503  0.31667768459E+02 -0.18798228257E+01  0.77671418260E+01  0.32660523345E+02  0.00000000000E+00 0.  1.
         21    1    1    2  505  501 -0.84860087907E+02 -0.72663415580E+02 -0.14673124642E+03  0.18442143357E+03  0.00000000000E+00 0. -1.
          1    1    1    2  501    0  0.43424636466E+02  0.10955520097E+03 -0.51156423725E+03  0.52496286530E+03  0.00000000000E+00 0. -1.
<scales pt_clust_3="38.93813" pt_clust_4="31.72351" pt_clust_5="113.68188" pt_clust_6="14000.00000"></scales>
<clustering>
<clus scale="   31.724">  1  4  2 -1</clus>
<clus scale="   38.938">  1  3  2 -1</clus>
<clus scale="  113.682">  1  5  2 -1</clus>
<clus scale="   31.724">  1  3  2 -1</clus>
</clustering>
</event>
<event>
 6    0  0.2433432E+002  0.8182211E+02  0.7546771E-02  0.1323959E+00
         21   -1    0    0  504  502  0.00000000000E+00  0.00000000000E+00  0.13781939310E+03  0.13781939310E+03  0.00000000000E+00 0.  1.
          1   -1    0    0  503    0 -0.00000000000E+00 -0.00000000000E+00 -0.31827551281E+03  0.31827551281E+03  0.00000000000E+00 0.  1.
         21    1    1    2  503  505 -0.48242175273E+02  0.79265021664E+02 -0.73163165461E+02  0.11816556146E+03  0.00000000000E+00 0.  1.
         21    1    1    2  504  501  0.86282347685E+02 -0.66245778359E+02  0.47939209831E+02  0.11887520562E+03  0.00000000000E+00 0.  1.
         21    1    1    2  505  502 -0.37597072394E+02  0.18615791816E+02  0.16017009338E+02  0.44906927591E+02  0.00000000000E+00 0. -1.
          1    1    1    2  501    0 -0.44310001874E+00 -0.31635035121E+02 -0.17124917342E+03  0.17414721124E+03  0.00000000000E+00 0.  1.
<scales pt_clust_3="81.82211" pt_clust_4="14000.00000" pt_clust_5="40.69864" pt_clust_6="31.63814"></scales>
<clustering>
<clus scale="   31.638">  2  6  1 -1</clus>
<clus scale="   40.699">  1  5  2 -1</clus>
<clus scale="   81.822">  2  3  1 -1</clus>
<clus scale="   40.699">  1  3  2 -1</clus>
</clustering>
</event>
<event>
 6    0  0.2433432E+002  0.1245845E+03  0.7546771E-02  0.1235720E+00
          2   -1    0    0  504    0 -0.00000000000E+00  0.00000000000E+00  0.24150029980E+03  0.24150029980E+03  0.00000000000E+00 0.  1.
         21   -1    0    0  505  502  0.00000000000E+00 -0.00000000000E+00 -0.60035572125E+03  0.60035572125E+03  0.00000000000E+00 0. -1.
         21    1    1    2  503  501 -0.70984608834E+02  0.64996864996E+02  0.61400345160E+02  0.11416395901E+03  0.00000000000E+00 0.  1.
         21    1    1    2  504  502  0.44628861887E+01 -0.86387952452E+02 -0.47874527300E+03  0.48649751500E+03  0.00000000000E+00 0. -1.
         21    1    1    2  505  503  0.54610627010E+02 -0.39427412112E+02 -0.70859993424E+02  0.97764922525E+02  0.00000000000E+00 0.  1.
          2    1    1    2  501    0  0.11911095635E+02  0.60818499568E+02  0.12934949981E+03  0.14342962452E+03  0.00000000000E+00 0.  1.
<scales pt_clust_3="124.58447" pt_clust_4="14000.00000" pt_clust_5="64.43961" pt_clust_6="61.97390"></scales>
<clustering>
<clus scale="   61.974">  1  6  2 -1</clus>
<clus scale="   64.440">  2  5  1 -1</clus>
<clus scale="  124.584">  1  3  2 -1</clus>
<clus scale="   64.440">  2  3  1 -1</clus>
</clustering>
</event>
<event>
 6    0  0.2433432E+002  0.1119733E+03  0.7546771E-02  0.1256959E+00
         21   -1    0    0  505  502  0.00000000000E+00  0.00000000000E+00  0.10563055537E+03  0.10563055537E+03  0.00000000000E+00 0.  1.
          2   -1    0    0  504    0 -0.00000000000E+00 -0.00000000000E+00 -0.21579544054E+04  0.21579544054E+04  0.00000000000E+00 0.  1.
         21    1    1    2  503  502  0.43895620756E+02  0.68397244420E+02  0.16491127756E+02  0.82927473496E+02  0.00000000000E+00 0.  1.
         21    1    1    2  504  503  0.22206591481E+02 -0.18800206707E+03 -0.14364912728E+03  0.23764044626E+03  0.00000000000E+00 0.  1.
         21    1    1    2  505  501 -0.61091656879E+02  0.10455937870E+02 -0.12484554647E+03  0.13938410114E+03  0.00000000000E+00 0.  1.
          2    1    1    2  501    0 -0.50105553582E+01  0.10914888478E+03 -0.18003203040E+04  0.18036329398E+04  0.00000000000E+00 0.  1.
<scales pt_clust_3="74.82318" pt_clust_4="111.97330" pt_clust_5="61.97997" pt_clust_6="14000.00000"></scales>
<clustering>
<clus scale="   61.980">  1  5  2 -1</clus>
<clus scale="   74.823">  1  3  2 -1</clus>
<clus scale="  111.973">  1  4  2 -1</clus>
<clus scale="   61.980">  1  3  2 -1</clus>
</clustering>
</event>
<event>
 6    0  0.2433432E+002  0.1762751E+03  0.7546771E-02  0.1171457E+00
         21   -1    0    0  503  502  0.00000000000E+00  0.00000000000E+00  0.22563730968E+03  0.22563730968E+03  0.00000000000E+00 0. -1.
         -1   -1    0    0    0  501 -0.00000000000E+00 -0.00000000000E+00 -0.36268557353E+03  0.36268557353E+03  0.00000000000E+00 0.  1.
         21    1    1    2  503  504 -0.34935029244E+02 -0.23628736086E+02  0.70418376394E+02  0.82082404761E+02  0.00000000000E+00 0. -1.
         21    1    1    2  504  505  0.32175634880E+02 -0.14834245755E+03 -0.89885856316E+01  0.15205772214E+03  0.00000000000E+00 0. -1.
         21    1    1    2  505  501 -0.48369086574E+02 -0.47612266849E+02 -0.44299661140E+02  0.81049099116E+02  0.00000000000E+00 0. -1.
         -1    1    1    2    0  502  0.51128480937E+02  0.21958346048E+03 -0.15417839347E+03  0.27313365719E+03  0.00000000000E+00 0.  1.
<scales pt_clust_3="42.17551" pt_clust_4="176.27511" pt_clust_5="72.97843" pt_clust_6="14000.00000"></scales>
<clustering>
<clus scale="   42.176">  1  3  2 -1</clus>
<clus scale="   72.978">  2  5  1 -1</clus>
<clus scale="  176.275">  1  4  2 -1</clus>
<clus scale="   42.176">  1  3  2 -1</clus>
</clustering>
</event>
<event>
 6    0  0.2433432E+002  0.1571293E+03  0.7546771E-02  0.1191976E+00
          2   -1    0    0  504    0 -0.00000000000E+00  0.00000000000E+00  0.16105659956E+03  0.16105659956E+03  0.00000000000E+00 0. -1.
         21   -1    0    0  503  502  0.00000000000E+00 -0.00000000000E+00 -0.45752513593E+03  0.45752513593E+03  0.00000000000E+00 0. -1.
         21    1    1    2  503  505  0.34558039317E+02  0.12260286765E+02 -0.20839394756E+03  0.21159539242E+03  0.00000000000E+00 0. -1.
         21    1    1    2  504  502 -0.48532131369E+02  0.23842738203E+02  0.17006731085E+02  0.56683973418E+02  0.00000000000E+00 0.  1.
         21    1    1    2  505  501  0.12875054038E+03  0.61902889294E+02 -0.13486892176E+03  0.19646448892E+03  0.00000000000E+00 0. -1.
          2    1    1    2  501    0 -0.11477644833E+03 -0.98005914262E+02  0.29787601866E+02  0.15383788073E+03  0.00000000000E+00 0. -1.
<scales pt_clust_3="36.66842" pt_clust_4="52.06245" pt_clust_5="157.12931" pt_clust_6="14000.00000"></scales>
<clustering>
<clus scale="   36.668">  2  3  1 -1</clus>
<clus scale="   52.062">  1  4  2 -1</clus>
<clus scale="  157.129">  2  5  1 -1</clus>
<clus scale="   36.668">  2  3  1 -1</clus>
</clustering>
</event>
<event>
 6    0  0.2433432E+002  0.1474247E+03  0.7546771E-02  0.1203674E+00
         21   -1    0    0  505  502  0.00000000000E+00  0.00000000000E+00  0.23734608910E+03  0.23734608910E+03  0.00000000000E+00 0. -1.
          2   -1    0    0  503    0 -0.00000000000E+00 -0.00000000000E+00 -0.36505384788E+04  0.36505384788E+04  0.00000000000E+00 0. -1.
         21    1    1    2  503  502  0.36263945108E+02 -0.10337348106E+03 -0.58818155246E+02  0.12434116650E+03  0.00000000000E+00 0. -1.
         21    1    1    2  504  501  0.68305683743E+02  0.47203748118E+02 -0.31039616259E+03  0.32130925605E+03  0.00000000000E+00 0.  1.
         21    1    1    2  505  504 -0.12369077603E+03  0.11055043390E+03  0.16427249493E+03  0.23346575573E+03  0.00000000000E+00 0. -1.
          2    1    1    2  501    0  0.19121147178E+02 -0.54380700961E+02 -0.32082505668E+04  0.32087683896E+04  0.00000000000E+00 0. -1.
<scales pt_clust_3="14000.00000" pt_clust_4="82.39253" pt_clust_5="147.42471" pt_clust_6="57.64442"></scales>
<clustering>
<clus scale="   57.644">  2  6  1 -1</clus>
<clus scale="   82.393">  2  4  1 -1</clus>
<clus scale="  147.425">  1  5  2 -1</clus>
<clus scale="  147.425">  1  3  2 -1</clus>
</clustering>
</event>
<event>
 6    0  0.2433432E+002  0.8519878E+02  0.7546771E-02  0.1314914E+00
         21   -1    0    0  505  502  0.00000000000E+00  0.00000000000E+00  0.74730171533E+02  0.74730171533E+02  0.00000000000E+00 0.  1.
          2   -1    0    0  504    0 -0.00000000000E+00 -0.00000000000E+00 -0.18813934261E+04  0.18813934261E+04  0.00000000000E+00 0.  1.
         21    1    1    2  503  502  0.69806169352E+02 -0.39329250698E+02  0.38984585156E+02  0.89103810917E+02  0.00000000000E+00 0.  1.
         21    1    1    2  504  503 -0.72477049147E+02 -0.94130425395E+02 -0.72699109025E+03  0.73663390157E+03  0.00000000000E+00 0.  1.
         21    1    1    2  505  501 -0.36958857702E+02  0.87238884424E+02 -0.51292491089E+03  0.52160190215E+03  0.00000000000E+00 0.  1.
          2    1    1    2  501    0  0.39629737496E+02  0.46220791669E+02 -0.60573183855E+03  0.60878398296E+03  0.00000000000E+00 0.  1.
<scales pt_clust_3="80.36441" pt_clust_4="14000.00000" pt_clust_5="85.19878" pt_clust_6="60.88413"></scales>
<clustering>
<clus scale="   60.884">  2  6  1 -1</clus>
<clus scale="   80.364">  1  3  2 -1</clus>
<clus scale="   85.199">  1  5  2 -1</clus>
<clus scale="   80.364">  1  3  2 -1</clus>
</clustering>
</event>
<event>
 6    0  0.2433432E+002  0.9164263E+02  0.7546771E-02  0.1298922E+00
         21   -1    0    0  504  502  0.00000000000E+00  0.00000000000E+00  0.30083561248E+02  0.30083561248E+02  0.00000000000E+00 0. -1.
          2   -1    0    0  505    0 -0.00000000000E+00 -0.00000000000E+00 -0.16168398432E+04  0.16168398432E+04  0.00000000000E+00 0. -1.
         21    1    1    2  503  501  0.21146486151E+02 -0.67077924892E+02 -0.12637636661E+03  0.14462920840E+03  0.00000000000E+00 0. -1.
         21    1    1    2  504  503  0.40774130509E+02  0.21453459644E+02 -0.28915301239E+02  0.54395544810E+02  0.00000000000E+00 0. -1.
         21    1    1    2  505  502 -0.32245688510E+02 -0.45349930529E+02 -0.11291936992E+03  0.12588560176E+03  0.00000000000E+00 0. -1.
          2    1    1    2  501    0 -0.29674928150E+02  0.90974395777E+02 -0.13185452441E+04  0.13220130494E+04  0.00000000000E+00 0. -1.
<scales pt_clust_3="14000.00000" pt_clust_4="46.07364" pt_clust_5="41.02071" pt_clust_6="91.64263"></scales>
<clustering>
<clus scale="   46.074">  1  4  2 -1</clus>
<clus scale="   41.021">  1  5  2 -1</clus>
<clus scale="   91.643">  2  6  1 -1</clus>
<clus scale="   46.074">  1  3  2 -1</clus>
</clustering>
</event>
<event>
 6    0  0.2433432E+002  0.1266688E+03  0.7546771E-02  0.1232484E+00
          1   -1    0    0  503    0 -0.00000000000E+00  0.00000000000E+00  0.34431134631E+04  0.34431134631E+04  0.00000000000E+00 0.  1.
         21   -1    0    0  504  502  0.00000000000E+00 -0.00000000000E+00 -0.11224229225E+03  0.11224229225E+03  0.00000000000E+00 0.  1.
         21    1    1    2  503  505  0.70098306076E+02  0.71526293517E+02  0.39340877757E+02  0.10759873532E+03  0.00000000000E+00 0.  1.
         21    1    1    2  504  501 -0.49442322361E+02 -0.16190214618E+03  0.93244433992E+02  0.19326503214E+03  0.00000000000E+00 0.  1.
         21    1    1    2  505  502 -0.45649594228E+01  0.42503538467E+02 -0.11532545674E+02  0.44276283115E+02  0.00000000000E+00 0.  1.
          1    1    1    2  501    0 -0.16091024292E+02  0.47872314199E+02  0.32098184047E+04  0.32102157047E+04  0.00000000000E+00 0.  1.
<scales pt_clust_3="14000.00000" pt_clust_4="126.66877" pt_clust_5="42.74798" pt_clust_6="50.60258"></scales>
<clustering>
<clus scale="   42.748">  2  5  1 -1</clus>
<clus scale="   50.603">  1  6  2 -1</clus>
<clus scale="  126.669">  1  4  2 -1</clus>
<clus scale="   42.748">  2  3  1 -1</clus>
</clustering>
</event>
<event>
 6    0  0.2433432E+002  0.1255071E+03  0.7546771E-02  0.1234279E+00
         21   -1    0    0  501  502  0.00000000000E+00  0.00000000000E+00  0.50039932978E+02  0.50039932978E+02  0.00000000000E+00 0. -1.
          2   -1    0    0  503    0 -0.00000000000E+00 -0.00000000000E+00 -0.14038064961E+04  0.14038064961E+04  0.00000000000E+00 0. -1.
         21    1    1    2  503  505  0.57442638002E+02  0.51112811372E+02 -0.29850886755E+03  0.30825268880E+03  0.00000000000E+00 0. -1.
         21    1    1    2  504  502 -0.59264004939E+02 -0.73115233790E+02 -0.18094794862E+02  0.95840916600E+02  0.00000000000E+00 0. -1.
         21    1    1    2  505  504 -0.27578413724E+02 -0.18507422900E+02 -0.43012080975E+02  0.54342733790E+02  0.00000000000E+00 0. -1.
          2    1    1    2  501    0  0.29399780661E+02  0.40509845318E+02 -0.99415081971E+03  0.99541008986E+03  0.00000000000E+00 0. -1.
<scales pt_clust_3="113.43396" pt_clust_4="31.90608" pt_clust_5="31.90608" pt_clust_6="50.05392"></scales>
<clustering>
<clus scale="   31.906">  4  5 -1 -1</clus>
<clus scale="   50.054">  2  6  1 -1</clus>
<clus scale="  113.434">  2  3  1 -1</clus>
<clus scale="  125.507">  1  3  2 -1</clus>
</clustering>
</event>
<event>
 6    0  0.2433432E+002  0.1546687E+03  0.7546771E-02  0.1194851E+00
         21   -1    0    0  503  502  0.00000000000E+00  0.00000000000E+00  0.34705410296E+03  0.34705410296E+03  0.00000000000E+00 0.  1.
          2   -1    0    0  504    0 -0.00000000000E+00 -0.00000000000E+00 -0.19015314636E+04  0.19015314636E+04  0.00000000000E+00 0. -1.
         21    1    1    2  503  501  0.13349069136E+03 -0.43234194122E+01  0.15605924521E+03  0.20540921267E+03  0.00000000000E+00 0.  1.
         21    1    1    2  504  505  0.39797320408E+02  0.15064252356E+01 -0.42795194041E+02  0.58459598542E+02  0.00000000000E+00 0.  1.
         21    1    1    2  505  502 -0.60791371053E+01 -0.86750343388E+02  0.14121402384E+03  0.16584323476E+03  0.00000000000E+00 0.  1.
          2    1    1    2  501    0 -0.16720887466E+03  0.89567337565E+02 -0.18089554357E+04  0.18188735206E+04  0.00000000000E+00 0. -1.
<scales pt_clust_3="154.66871" pt_clust_4="39.82582" pt_clust_5="86.93498" pt_clust_6="14000.00000"></scales>
<clustering>
<clus scale="   39.826">  2  4  1 -1</clus>
<clus scale="   86.935">  1  5  2 -1</clus>
<clus scale="  154.669">  1  3  2 -1</clus>
<clus scale="   86.935">  1  3  2 -1</clus>
</clustering>
</event>
<event>
 6    0  0.2433432E+002  0.2014580E+03  0.7546771E-02  0.1148515E+00
         21   -1    0    0  503  502  0.00000000000E+00  0.00000000000E+00  0.31858924524E+03  0.31858924524E+03  0.00000000000E+00 0.  1.
         -3   -1    0    0    0  501 -0.00000000000E+00 -0.00000000000E+00 -0.53427635598E+03  0.53427635598E+03  0.00000000000E+00 0.  1.
         21    1    1    2  503  505  0.13440005664E+03 -0.25338185515E+02  0.17875318435E+03  0.22507354306E+03  0.00000000000E+00 0.  1.
         21    1    1    2  504  502 -0.17538302568E+03  0.11341866067E+03 -0.96423576656E+02  0.23004457050E+03  0.00000000000E+00 0.  1.
         21    1    1    2  505  501  0.45676225010E+02 -0.32303846512E+02  0.31029702920E+02  0.63974201785E+02  0.00000000000E+00 0.  1.
         -3    1    1    2    0  504 -0.46932559671E+01 -0.55776628638E+02 -0.32904642136E+03  0.33377328588E+03  0.00000000000E+00 0.  1.
<scales pt_clust_3="39.37222" pt_clust_4="191.82189" pt_clust_5="39.37222" pt_clust_6="55.97373"></scales>
<clustering>
<clus scale="   39.372">  3  5 -1 -1</clus>
<clus scale="   55.974">  2  6  1 -1</clus>
<clus scale="  191.822">  2  4  1 -1</clus>
<clus scale="  201.458">  1  3  2 -1</clus>
</clustering>
</event>
<event>
 6    0  0.2433432E+002  0.1169344E+03  0.7546771E-02  0.1248242E+00
          1   -1    0    0  504    0 -0.00000000000E+00  0.00000000000E+00  0.55109023558E+03  0.55109023558E+03  0.00000000000E+00 0. -1.
         21   -1    0    0  505  502  0.00000000000E+00 -0.00000000000E+00 -0.55339388402E+03  0.55339388402E+03  0.00000000000E+00 0.  1.
         21    1    1    2  503  502 -0.12774383438E+03 -0.13978361433E+02 -0.43062562478E+03  0.44939104411E+03  0.00000000000E+00 0.  1.
         21    1    1    2  504  503  0.53956124947E+02 -0.30175560343E+02  0.39952528537E+02  0.73607284951E+02  0.00000000000E+00 0. -1.
         21    1    1    2  505  501  0.52539329894E+02  0.10457497250E+03 -0.57950883192E+02  0.13059330351E+03  0.00000000000E+00 0. -1.
          1    1    1    2  501    0  0.21248379535E+02 -0.60421050721E+02  0.44632033100E+03  0.45089248703E+03  0.00000000000E+00 0. -1.
<scales pt_clust_3="14000.00000" pt_clust_4="61.82093" pt_clust_5="116.93441" pt_clust_6="112.42884"></scales>
<clustering>
<clus scale="   61.821">  1  4  2 -1</clus>
<clus scale="  112.429">  1  6  2 -1</clus>
<clus scale="  116.934">  1  5  2 -1</clus>
<clus scale="  116.934">  2  3  1 -1</clus>
</clustering>
</event>
<event>
 6    0  0.2433432E+002  0.1128613E+03  0.7546771E-02  0.1255361E+00
         21   -1    0    0  504  502  0.00000000000E+00  0.00000000000E+00  0.29851914711E+03  0.29851914711E+03  0.00000000000E+00 0.  1.
          3   -1    0    0  503    0 -0.00000000000E+00 -0.00000000000E+00 -0.11649787028E+04  0.11649787028E+04  0.00000000000E+00 0. -1.
         21    1    1    2  503  505 -0.23676468790E+02  0.50916697930E+02 -0.15429196774E+03  0.16419225503E+03  0.00000000000E+00 0. -1.
         21    1    1    2  504  501 -0.10981788612E+03 -0.14030379248E+02 -0.39543449650E+02  0.11756063995E+03  0.00000000000E+00 0. -1.
         21    1    1    2  505  502  0.14362917826E+02 -0.51768117841E+02  0.24778325996E+03  0.25354048069E+03  0.00000000000E+00 0.  1.
          3    1    1    2  501    0  0.11913143709E+03  0.14881799158E+02 -0.92040739824E+03  0.92820447423E+03  0.00000000000E+00 0. -1.
<scales pt_clust_3="50.67871" pt_clust_4="14000.00000" pt_clust_5="53.72366" pt_clust_6="112.86134"></scales>
<clustering>
<clus scale="   53.724">  1  5  2 -1</clus>
<clus scale="   50.679">  2  3  1 -1</clus>
<clus scale="  112.861">  2  6  1 -1</clus>
<clus scale="   53.724">  1  3  2 -1</clus>
</clustering>
</event>
<event>
 6    0  0.2433432E+002  0.1818962E+03  0.7546771E-02  0.1165980E+00
         21   -1    0    0  505  502  0.00000000000E+00  0.00000000000E+00  0.64913733368E+03  0.64913733368E+03  0.00000000000E+00 0. -1.
          2   -1    0    0  504    0 -0.00000000000E+00 -0.00000000000E+00 -0.13745713960E+04  0.13745713960E+04  0.00000000000E+00 0. -1.
         21    1    1    2  503  502 -0.16246195249E+03  0.46129988122E+02  0.22588087597E+03  0.28203551539E+03  0.00000000000E+00 0. -1.
         21    1    1    2  504  503 -0.67752657121E+02 -0.20798780108E+02  0.69378615568E+02  0.99178647395E+02  0.00000000000E+00 0. -1.
         21    1    1    2  505  501  0.14443540401E+03 -0.66679121295E+01  0.29254458780E+03  0.32632557797E+03  0.00000000000E+00 0. -1.
          2    1    1    2  501    0  0.85779205600E+02 -0.18663295884E+02 -0.13132381417E+04  0.13161689890E+04  0.00000000000E+00 0. -1.
<scales pt_clust_3="43.48350" pt_clust_4="43.48350" pt_clust_5="169.05797" pt_clust_6="87.78605"></scales>
<clustering>
<clus scale="   43.484">  3  4 -1 -1</clus>
<clus scale="   87.786">  2  6  1 -1</clus>
<clus scale="  169.058">  1  5  2 -1</clus>
<clus scale="  169.058">  1  3  2 -1</clus>
</clustering>
</event>
<event>
 6    0  0.2433432E+002  0.1120978E+03  0.7546771E-02  0.1256734E+00
         -1   -1    0    0    0  501 -0.00000000000E+00  0.00000000000E+00  0.39726176187E+03  0.39726176187E+03  0.00000000000E+00 0. -1.
         21   -1    0    0  503  502  0.00000000000E+00 -0.00000000000E+00 -0.16447667210E+04  0.16447667210E+04  0.00000000000E+00 0.  1.
         21    1    1    2  503  505  0.11703927612E+03 -0.15846968842E+02 -0.85361986040E+03  0.86175181151E+03  0.00000000000E+00 0.  1.
         21    1    1    2  504  502 -0.99730889525E+02 -0.75594612531E+02 -0.74010561857E+03  0.75061116592E+03  0.00000000000E+00 0.  1.
         21    1    1    2  505  501  0.21723935033E+02  0.42957556045E+02 -0.24320547238E+02  0.53933013940E+02  0.00000000000E+00 0. -1.
         -1    1    1    2    0  504 -0.39032321630E+02  0.48484025328E+02  0.37054106703E+03  0.37573249154E+03  0.00000000000E+00 0. -1.
<scales pt_clust_3="112.09776" pt_clust_4="14000.00000" pt_clust_5="48.13814" pt_clust_6="92.13805"></scales>
<clustering>
<clus scale="   48.138">  1  5  2 -1</clus>
<clus scale="   92.138">  1  6  2 -1</clus>
<clus scale="  112.098">  2  3  1 -1</clus>
<clus scale="  112.098">  2  3  1 -1</clus>
</clustering>
</event>
<event>
 6    0  0.2433432E+002  0.1621041E+03  0.7546771E-02  0.1186342E+00
         21   -1    0    0  504  502  0.00000000000E+00  0.00000000000E+00  0.18034902233E+03  0.18034902233E+03  0.00000000000E+00 0.  1.
          3   -1    0    0  502    0 -0.00000000000E+00 -0.00000000000E+00 -0.41803878187E+03  0.41803878187E+03  0.00000000000E+00 0.  1.
         21    1    1    2  503  505 -0.83856152631E+02 -0.37424324368E+02  0.13034737673E+02  0.92748793925E+02  0.00000000000E+00 0. -1.
         21    1    1    2  504  503  0.37464809858E+02 -0.29940039924E+02  0.58290410601E+02  0.75483706429E+02  0.00000000000E+00 0. -1.
         21    1    1    2  505  501 -0.50677191258E+02 -0.57317399273E+02  0.70104603271E+01  0.76828435668E+02  0.00000000000E+00 0.  1.
          3    1    1    2  501    0  0.97068534031E+02  0.12468176356E+03 -0.31602536814E+03  0.35332686817E+03  0.00000000000E+00 0.  1.
<scales pt_clust_3="32.64902" pt_clust_4="47.95850" pt_clust_5="32.64902" pt_clust_6="158.10858"></scales>
<clustering>
<clus scale="   32.649">  3  5 -1 -1</clus>
<clus scale="   47.959">  1  4  2 -1</clus>
<clus scale="  158.109">  2  6  1 -1</clus>
<clus scale="   47.959">  1  3  2 -1</clus>
</clustering>
</event>
<event>
 6    0  0.2433432E+002  0.2190772E+03  0.7546771E-02  0.1134573E+00
          2   -1    0    0  505    0 -0.00000000000E+00  0.00000000000E+00  0.43893040160E+03  0.43893040160E+03  0.00000000000E+00 0. -1.
         21   -1    0    0  504  502  0.00000000000E+00 -0.00000000000E+00 -0.69464285452E+03  0.69464285452E+03  0.00000000000E+00 0. -1.
         21    1    1    2  503  501 -0.73490971818E+02  0.66622704827E+02 -0.67588543253E+02  0.12003215784E+03  0.00000000000E+00 0. -1.
         21    1    1    2  504  503 -0.94578945350E+02  0.10399035929E+03 -0.29531570305E+02  0.14363594736E+03  0.00000000000E+00 0. -1.
         21    1    1    2  505  502  0.15612302081E+03 -0.13477059941E+03 -0.49246092626E+03  0.53390568079E+03  0.00000000000E+00 0. -1.
          2    1    1    2  501    0  0.11946896356E+02 -0.35842464708E+02  0.33386858689E+03  0.33599947012E+03  0.00000000000E+00 0. -1.
<scales pt_clust_3="45.16578" pt_clust_4="45.16578" pt_clust_5="212.75000" pt_clust_6="37.78109"></scales>
<clustering>
<clus scale="   37.781">  1  6  2 -1</clus>
<clus scale="   45.166">  3  4 -1 -1</clus>
<clus scale="  212.750">  2  5  1 -1</clus>
<clus scale="  212.750">  2  3  1 -1</clus>
</clustering>
</event>
<event>
 6    0  0.2433432E+002  0.9329424E+02  0.7546771E-02  0.1295065E+00
         21   -1    0    0  504  502  0.00000000000E+00  0.00000000000E+00  0.34724643013E+03  0.34724643013E+03  0.00000000000E+00 0. -1.
          1   -1    0    0  503    0 -0.00000000000E+00 -0.00000000000E+00 -0.85563732214E+03  0.85563732214E+03  0.00000000000E+00 0.  1.
         21    1    1    2  503  505  0.20615378276E+02 -0.13446833856E+03 -0.14355448188E+03  0.19777415697E+03  0.00000000000E+00 0. -1.
         21    1    1    2  504  501 -0.79420169377E+02  0.44692092788E+02 -0.16337795032E+03  0.18707565612E+03  0.00000000000E+00 0. -1.
         21    1    1    2  505  502  0.23771527995E+02  0.70224584529E+02  0.30302245861E+03  0.31196023503E+03  0.00000000000E+00 0. -1.
          1    1    1    2  501    0  0.35033263105E+02  0.19551661245E+02 -0.50448091842E+03  0.50607370415E+03  0.00000000000E+00 0.  1.
<scales pt_clust_3="93.29424" pt_clust_4="14000.00000" pt_clust_5="74.51919" pt_clust_6="40.11978"></scales>
<clustering>
<clus scale="   40.120">  2  6  1 -1</clus>
<clus scale="   74.519">  1  5  2 -1</clus>
<clus scale="   93.294">  1  3  2 -1</clus>
<clus scale="   74.519">  1  3  2 -1</clus>
</clustering>
</event>
<event>
 6    0  0.2433432E+002  0.8866301E+02  0.7546771E-02  0.1306122E+00
         21   -1    0    0  505  502  0.00000000000E+00  0.00000000000E+00  0.22335286409E+03  0.22335286409E+03  0.00000000000E+00 0.  1.
          1   -1    0    0  504    0 -0.00000000000E+00 -0.00000000000E+00 -0.68628295823E+03  0.68628295823E+03  0.00000000000E+00 0. -1.
         21    1    1    2  503  501 -0.39851673333E+02 -0.64353943141E+02 -0.57582037705E+02  0.95106660816E+02  0.00000000000E+00 0.  1.
         21    1    1    2  504  502  0.31029057634E+02 -0.41279217012E+02 -0.70544229253E+02  0.87425765400E+02  0.00000000000E+00 0.  1.
         21    1    1    2  505  503  0.44690558722E+02  0.78637820349E+02  0.18470290604E+03  0.20566068250E+03  0.00000000000E+00 0.  1.
          1    1    1    2  501    0 -0.35867943023E+02  0.26995339804E+02 -0.51950673322E+03  0.52144271360E+03  0.00000000000E+00 0. -1.
<scales pt_clust_3="88.66301" pt_clust_4="31.65563" pt_clust_5="14000.00000" pt_clust_6="44.89162"></scales>
<clustering>
<clus scale="   44.892">  2  6  1 -1</clus>
<clus scale="   31.656">  2  4  1 -1</clus>
<clus scale="   88.663">  2  3  1 -1</clus>
<clus scale="   88.663">  1  3  2 -1</clus>
</clustering>
</event>
<event>
 6    0  0.2433432E+002  0.1081399E+03  0.7546771E-02  0.1264054E+00
          2   -1    0    0  504    0 -0.00000000000E+00  0.00000000000E+00  0.18953829572E+04  0.18953829572E+04  0.00000000000E+00 0. -1.
         21   -1    0    0  501  502  0.00000000000E+00 -0.00000000000E+00 -0.11302332634E+03  0.11302332634E+03  0.00000000000E+00 0. -1.
         21    1    1    2  503  502 -0.99912755617E+02  0.15609983911E+02 -0.72634969237E+02  0.12450730536E+03  0.00000000000E+00 0. -1.
         21    1    1    2  504  505  0.61693655395E+02  0.11631389064E+02  0.16605487303E+03  0.17752638447E+03  0.00000000000E+00 0.  1.
         21    1    1    2  505  503  0.54900599929E+02  0.48001308040E+02  0.16395968398E+03  0.17944631347E+03  0.00000000000E+00 0. -1.
          2    1    1    2  501    0 -0.16681499707E+02 -0.75242681015E+02  0.15249800431E+04  0.15269262802E+04  0.00000000000E+00 0. -1.
<scales pt_clust_3="101.61009" pt_clust_4="34.33772" pt_clust_5="34.33772" pt_clust_6="77.06967"></scales>
<clustering>
<clus scale="   34.338">  4  5 -1 -1</clus>
<clus scale="   77.070">  1  6  2 -1</clus>
<clus scale="  101.610">  2  3  1 -1</clus>
<clus scale="  101.610">  2  3  1 -1</clus>
</clustering>
</event>
<event>
 6    0  0.2433432E+002  0.1058873E+03  0.7546771E-02  0.1268381E+00
         21   -1    0    0  504  502  0.00000000000E+00  0.00000000000E+00  0.57686940923E+03  0.57686940923E+03  0.00000000000E+00 0.  1.
          2   -1    0    0  505    0 -0.00000000000E+00 -0.00000000000E+00 -0.13460778910E+04  0.13460778910E+04  0.00000000000E+00 0.  1.
         21    1    1    2  503  501  0.39516148469E+02  0.11095485647E+02  0.36706576719E+02  0.55063677374E+02  0.00000000000E+00 0.  1.
         21    1    1    2  504  503 -0.35622614352E+02 -0.11892952296E+02  0.33036425106E+02  0.50018180209E+02  0.00000000000E+00 0.  1.
         21    1    1    2  505  502 -0.43149496071E+02 -0.97540992515E+02  0.48150187041E+03  0.49317357537E+03  0.00000000000E+00 0.  1.
          2    1    1    2  501    0  0.39255961954E+02  0.98338459164E+02 -0.13204533540E+04  0.13246918672E+04  0.00000000000E+00 0.  1.
<scales pt_clust_3="37.82947" pt_clust_4="37.55547" pt_clust_5="105.88734" pt_clust_6="14000.00000"></scales>
<clustering>
<clus scale="   37.555">  1  4  2 -1</clus>
<clus scale="   37.829">  1  3  2 -1</clus>
<clus scale="  105.887">  1  5  2 -1</clus>
<clus scale="   37.555">  1  3  2 -1</clus>
</clustering>
</event>
<event>
 6    0  0.2433432E+002  0.9488312E+02  0.7546771E-02  0.1291440E+00
         21   -1    0    0  505  502  0.00000000000E+00  0.00000000000E+00  0.79587442134E+03  0.79587442134E+03  0.00000000000E+00 0.  1.
          1   -1    0    0  504    0 -0.00000000000E+00 -0.00000000000E+00 -0.29873589236E+04  0.29873589236E+04  0.00000000000E+00 0. -1.
         21    1    1    2  503  501  0.36541138212E+02 -0.21051953814E+02  0.13080717825E+02  0.44153649000E+02  0.00000000000E+00 0.  1.
         21    1    1    2  504  502 -0.70580483134E+02 -0.10141166674E+03  0.52332389620E+03  0.53771166166E+03  0.00000000000E+00 0.  1.
         21    1    1    2  505  503  0.29748990320E+02  0.27691373367E+02  0.23423009515E+03  0.23772999822E+03  0.00000000000E+00 0.  1.
          1    1    1    2  501    0  0.42903546019E+01  0.94772247187E+02 -0.29621192115E+04  0.29636380361E+04  0.00000000000E+00 0. -1.
<scales pt_clust_3="42.82857" pt_clust_4="14000.00000" pt_clust_5="40.64252" pt_clust_6="94.88312"></scales>
<clustering>
<clus scale="   40.643">  1  5  2 -1</clus>
<clus scale="   42.829">  1  3  2 -1</clus>
<clus scale="   94.883">  2  6  1 -1</clus>
<clus scale="   40.643">  1  3  2 -1</clus>
</clustering>
</event>
<event>
 6    0  0.2433432E+002  0.8781913E+02  0.7546771E-02  0.1308221E+00
          2   -1    0    0  504    0 -0.00000000000E+00  0.00000000000E+00  0.23227309981E+03  0.23227309981E+03  0.00000000000E+00 0. -1.
         21   -1    0    0  505  502  0.00000000000E+00 -0.00000000000E+00 -0.34160458684E+03  0.34160458684E+03  0.00000000000E+00 0. -1.
         21    1    1    2  503  501 -0.85890183936E+02 -0.85136321432E+02  0.19337677154E+02  0.12247147701E+03  0.00000000000E+00 0. -1.
         21    1    1    2  504  502 -0.23707098388E+02 -0.61246321313E+02 -0.15486378606E+03  0.16821394301E+03  0.00000000000E+00 0. -1.
         21    1    1    2  505  503  0.83697985451E+02  0.76194679749E+02 -0.90265924317E+02  0.14477195545E+03  0.00000000000E+00 0. -1.
          2    1    1    2  501    0  0.25899296872E+02  0.70187962996E+02  0.11646054620E+03  0.13842031118E+03  0.00000000000E+00 0. -1.
<scales pt_clust_3="14000.00000" pt_clust_4="65.67449" pt_clust_5="87.81913" pt_clust_6="70.80982"></scales>
<clustering>
<clus scale="   65.674">  2  4  1 -1</clus>
<clus scale="   70.810">  1  6  2 -1</clus>
<clus scale="   87.819">  2  5  1 -1</clus>
<clus scale="   65.674">  2  3  1 -1</clus>
</clustering>
</event>
<event>
 6    0  0.2433432E+002  0.1109234E+03  0.7546771E-02  0.1258869E+00
          2   -1    0    0  504    0 -0.00000000000E+00  0.00000000000E+00  0.14394599352E+04  0.14394599352E+04  0.00000000000E+00 0. -1.
         21   -1    0    0  503  502  0.00000000000E+00 -0.00000000000E+00 -0.12551667576E+03  0.12551667576E+03  0.00000000000E+00 0.  1.
         21    1    1    2  503  505  0.44518955616E+00  0.55831576350E+02 -0.39511626972E+02  0.68399793694E+02  0.00000000000E+00 0.  1.
         21    1    1    2  504  502 -0.20595936460E+02 -0.10544199059E+03  0.23972891576E+03  0.26270165404E+03  0.00000000000E+00 0.  1.
         21    1    1    2  505  501  0.47019469483E+02  0.27138883503E+02 -0.47490986913E+02  0.72130044685E+02  0.00000000000E+00 0.  1.
          2    1    1    2  501    0 -0.26868722579E+02  0.22471530741E+02  0.11612169576E+04  0.11617451186E+04  0.00000000000E+00 0. -1.
<scales pt_clust_3="53.57002" pt_clust_4="96.23831" pt_clust_5="53.57002" pt_clust_6="35.02710"></scales>
<clustering>
<clus scale="   35.027">  1  6  2 -1</clus>
<clus scale="   53.570">  3  5 -1 -1</clus>
<clus scale="   96.238">  1  4  2 -1</clus>
<clus scale="  110.923">  2  3  1 -1</clus>
</clustering>
</event>
<event>
 6    0  0.2433432E+002  0.1844630E+03  0.7546771E-02  0.1163552E+00
         -4   -1    0    0    0  501 -0.00000000000E+00  0.00000000000E+00  0.17603709325E+04  0.17603709325E+04  0.00000000000E+00 0.  1.
         21   -1    0    0  504  502  0.00000000000E+00 -0.00000000000E+00 -0.72238164487E+02  0.72238164487E+02  0.00000000000E+00 0. -1.
         21    1    1    2  503  501 -0.32114509305E+02 -0.16878885116E+03  0.11629757491E+03  0.20747564655E+03  0.00000000000E+00 0. -1.
         21    1    1    2  504  503  0.17792499161E+02 -0.27166899009E+02  0.61585901725E+02  0.69623535671E+02  0.00000000000E+00 0. -1.
         21    1    1    2  505  502 -0.41616984384E+02  0.18360327434E+02  0.13818661314E+02  0.47539777168E+02  0.00000000000E+00 0. -1.
         -4    1    1    2    0  505  0.55938994529E+02  0.17759542273E+03  0.14964306300E+04  0.15079701376E+04  0.00000000000E+00 0.  1.
<scales pt_clust_3="14000.00000" pt_clust_4="32.47481" pt_clust_5="38.99900" pt_clust_6="184.46300"></scales>
<clustering>
<clus scale="   32.475">  2  4  1 -1</clus>
<clus scale="   38.999">  2  5  1 -1</clus>
<clus scale="  184.463">  1  6  2 -1</clus>
<clus scale="   32.475">  2  3  1 -1</clus>
</clustering>
</event>
<event>
 6    0  0.2433432E+002  0.2364663E+03  0.7546771E-02  0.1122170E+00
          2   -1    0    0  504    0 -0.00000000000E+00  0.00000000000E+00  0.10013229684E+04  0.10013229684E+04  0.00000000000E+00 0.  1.
         21   -1    0    0  503  502  0.00000000000E+00 -0.00000000000E+00 -0.42711681289E+03  0.42711681289E+03  0.00000000000E+00 0. -1.
         21    1    1    2  503  505  0.81567787606E+02  0.22652811543E+03 -0.40689720761E+02  0.24418014749E+03  0.00000000000E+00 0. -1.
         21    1    1    2  504  502  0.12431228083E+03 -0.24159160806E+03 -0.12458081049E+03  0.29889868952E+03  0.00000000000E+00 0. -1.
         21    1    1    2  505  501 -0.17510821316E+03  0.95297535779E+02  0.71369585608E+02  0.21175014615E+03  0.00000000000E+00 0.  1.
          2    1    1    2  501    0 -0.30771855274E+02 -0.80234043146E+02  0.66810710113E+03  0.67361079811E+03  0.00000000000E+00 0.  1.
<scales pt_clust_3="236.46629" pt_clust_4="14000.00000" pt_clust_5="197.90221" pt_clust_6="85.93258"></scales>
<clustering>
<clus scale="   85.933">  1  6  2 -1</clus>
<clus scale="  197.902">  1  5  2 -1</clus>
<clus scale="  236.466">  1  3  2 -1</clus>
<clus scale="  236.466">  2  3  1 -1</clus>
</clustering>
</event>
<event>
 6    0  0.2433432E+002  0.1416324E+03  0.7546771E-02  0.1211149E+00
          2   -1    0    0  503    0 -0.00000000000E+00  0.00000000000E+00  0.40750740416E+03  0.40750740416E+03  0.00000000000E+00 0. -1.
         21   -1    0    0  501  502  0.00000000000E+00 -0.00000000000E+00 -0.15369064315E+03  0.15369064315E+03  0.00000000000E+00 0. -1.
         21    1    1    2  503  504  0.38151276513E+02  0.19474507375E+02  0.43125336207E+02  0.60782982487E+02  0.00000000000E+00 0.  1.
         21    1    1    2  504  505  0.75723100655E+01  0.74821688483E+02  0.40578759512E+02  0.85453266003E+02  0.00000000000E+00 0. -1.
         21    1    1    2  505  502  0.12800419371E+03  0.20107525499E+02 -0.22446272473E+02  0.13150369325E+03  0.00000000000E+00 0. -1.
          2    1    1    2  501    0 -0.17372778029E+03 -0.11440372136E+03  0.19255893777E+03  0.28345810558E+03  0.00000000000E+00 0. -1.
<scales pt_clust_3="42.83429" pt_clust_4="79.57488" pt_clust_5="141.63239" pt_clust_6="14000.00000"></scales>
<clustering>
<clus scale="   42.834">  1  3  2 -1</clus>
<clus scale="   79.575">  1  4  2 -1</clus>
<clus scale="  141.632">  2  5  1 -1</clus>
<clus scale="  141.632">  2  3  1 -1</clus>
</clustering>
</event>
<event>
 6    0  0.2433432E+002  0.1032373E+03  0.7546771E-02  0.1273632E+00
          3   -1    0    0  505    0 -0.00000000000E+00  0.00000000000E+00  0.15913715844E+04  0.15913715844E+04  0.00000000000E+00 0. -1.
         21   -1    0    0  503  502  0.00000000000E+00 -0.00000000000E+00 -0.22008797874E+03  0.22008797874E+03  0.00000000000E+00 0. -1.
         21    1    1    2  503  501 -0.29464054379E+02 -0.91399411464E+01  0.26140650686E+02  0.40435165919E+02  0.00000000000E+00 0. -1.
         21    1    1    2  504  502 -0.45972740181E+02  0.63443620310E+02 -0.15471323832E+03  0.17342079434E+03  0.00000000000E+00 0. -1.
         21    1    1    2  505  504  0.11253366594E+03 -0.89757678103E+02  0.58571237946E+02  0.15540545892E+03  0.00000000000E+00 0. -1.
          3    1    1    2  501    0 -0.37096871379E+02  0.35453998940E+02  0.14412849554E+04  0.14421981440E+04  0.00000000000E+00 0. -1.
<scales pt_clust_3="30.84913" pt_clust_4="103.23732" pt_clust_5="14000.00000" pt_clust_6="51.34653"></scales>
<clustering>
<clus scale="   30.849">  2  3  1 -1</clus>
<clus scale="   51.347">  1  6  2 -1</clus>
<clus scale="  103.237">  2  4  1 -1</clus>
<clus scale="   30.849">  2  3  1 -1</clus>
</clustering>
</event>
<event>
 6    0  0.2433432E+002  0.1221486E+03  0.7546771E-02  0.1239594E+00
          2   -1    0    0  504    0 -0.00000000000E+00  0.00000000000E+00  0.34639745074E+04  0.34639745074E+04  0.00000000000E+00 0.  1.
         21   -1    0    0  503  502  0.00000000000E+00 -0.00000000000E+00 -0.11519009497E+02  0.11519009497E+02  0.00000000000E+00 0. -1.
         21    1    1    2  503  501 -0.44225277994E+02  0.46265428683E+02  0.28661968442E+03  0.29367875068E+03  0.00000000000E+00 0. -1.
         21    1    1    2  504  505 -0.14650355533E+02 -0.28252419980E+02  0.97547068632E+02  0.10260732308E+03  0.00000000000E+00 0. -1.
         21    1    1    2  505  502 -0.61985625422E+02 -0.41378865556E+01  0.22792485318E+03  0.23623945174E+03  0.00000000000E+00 0. -1.
          2    1    1    2  501    0  0.12086125895E+03 -0.13875122148E+02  0.28403638917E+04  0.28429679914E+04  0.00000000000E+00 0.  1.
<scales pt_clust_3="64.00285" pt_clust_4="31.71113" pt_clust_5="31.71113" pt_clust_6="113.83027"></scales>
<clustering>
<clus scale="   31.711">  4  5 -1 -1</clus>
<clus scale="   64.003">  2  3  1 -1</clus>
<clus scale="  113.830">  1  6  2 -1</clus>
<clus scale="   64.003">  2  3  1 -1</clus>
</clustering>
</event>
<event>
 6    0  0.2433432E+002  0.1269948E+03  0.7546771E-02  0.1231984E+00
         21   -1    0    0  505  502  0.00000000000E+00  0.00000000000E+00  0.40559337680E+02  0.40559337680E+02  0.00000000000E+00 0.  1.
          2   -1    0    0  504    0 -0.00000000000E+00 -0.00000000000E+00 -0.11518821898E+04  0.11518821898E+04  0.00000000000E+00 0.  1.
         21    1    1    2  503  502 -0.54322005018E+02  0.90878675201E+02 -0.25709092153E+03  0.27803876667E+03  0.00000000000E+00 0.  1.
         21    1    1    2  504  503  0.98402525394E+02  0.78479179460E+02 -0.34410097957E+03  0.36639803869E+03  0.00000000000E+00 0.  1.
         21    1    1    2  505  501 -0.39588276613E+02 -0.11376269861E+02 -0.85203835063E+02  0.94637966327E+02  0.00000000000E+00 0.  1.
          2    1    1    2  501    0 -0.44922437625E+01 -0.15798158480E+03 -0.42492711596E+03  0.45336675580E+03  0.00000000000E+00 0.  1.
<scales pt_clust_3="109.57792" pt_clust_4="126.99479" pt_clust_5="41.19043" pt_clust_6="14000.00000"></scales>
<clustering>
<clus scale="   41.190">  1  5  2 -1</clus>
<clus scale="  109.578">  1  3  2 -1</clus>
<clus scale="  126.995">  2  4  1 -1</clus>
<clus scale="   41.190">  1  3  2 -1</clus>
</clustering>
</event>
<event>
 6    0  0.2433432E+002  0.1520406E+03  0.7546771E-02  0.1197988E+00
         21   -1    0    0  504  502  0.00000000000E+00  0.00000000000E+00  0.47942937453E+02  0.47942937453E+02  0.00000000000E+00 0.  1.
          2   -1    0    0  505    0 -0.00000000000E+00 -0.00000000000E+00 -0.72077872819E+03  0.72077872819E+03  0.00000000000E+00 0.  1.
         21    1    1    2  503  502  0.17901533737E+02  0.96345386226E+02 -0.20060911515E+03  0.22326422785E+03  0.00000000000E+00 0.  1.
         21    1    1    2  504  501  0.19584658919E+02 -0.13422530658E+03 -0.14789698053E+03  0.20068260673E+03  0.00000000000E+00 0.  1.
         21    1    1    2  505  503 -0.20719970208E+02  0.73987518323E+02 -0.20133034225E+03  0.21549333341E+03  0.00000000000E+00 0.  1.
          2    1    1    2  501    0 -0.16766222448E+02 -0.36107597969E+02 -0.12299935280E+03  0.12928149765E+03  0.00000000000E+00 0.  1.
<scales pt_clust_3="38.91688" pt_clust_4="145.54975" pt_clust_5="38.91688" pt_clust_6="39.81036"></scales>
<clustering>
<clus scale="   38.917">  3  5 -1 -1</clus>
<clus scale="   39.810">  2  6  1 -1</clus>
<clus scale="  145.550">  1  4  2 -1</clus>
<clus scale="  145.550">  1  3  2 -1</clus>
</clustering>
</event>
<event>
 6    0  0.2433432E+002  0.1332820E+03  0.7546771E-02  0.1222665E+00
          1   -1    0    0  505    0 -0.00000000000E+00  0.00000000000E+00  0.17856004813E+04  0.17856004813E+04  0.00000000000E+00 0.  1.
         21   -1    0    0  503  502  0.00000000000E+00 -0.00000000000E+00 -0.11714935315E+04  0.11714935315E+04  0.00000000000E+00 0.  1.
         21    1    1    2  503  501  0.10901401746E+03  0.58533517094E+02 -0.85424026086E+03  0.86315505670E+03  0.00000000000E+00 0.  1.
         21    1    1    2  504  502 -0.77363881466E+01  0.40227050772E+02 -0.27600205573E+03  0.27902545060E+03  0.00000000000E+00 0. -1.
         21    1    1    2  505  504 -0.61525372825E+02 -0.58357343564E+02  0.16816102838E+02  0.86450751088E+02  0.00000000000E+00 0.  1.
          1    1    1    2  501    0 -0.39752256492E+02 -0.40403224301E+02  0.17275331635E+04  0.17284627544E+04  0.00000000000E+00 0.  1.
<scales pt_clust_3="133.28204" pt_clust_4="40.96422" pt_clust_5="14000.00000" pt_clust_6="56.66827"></scales>
<clustering>
<clus scale="   40.964">  2  4  1 -1</clus>
<clus scale="   56.668">  1  6  2 -1</clus>
<clus scale="  133.282">  2  3  1 -1</clus>
<clus scale="   40.964">  2  3  1 -1</clus>
</clustering>
</event>
<event>
 6    0  0.2433432E+002  0.1827227E+03  0.7546771E-02  0.1165194E+00
         21   -1    0    0  501  502  0.00000000000E+00  0.00000000000E+00  0.12302242768E+03  0.12302242768E+03  0.00000000000E+00 0.  1.
          2   -1    0    0  503    0 -0.00000000000E+00 -0.00000000000E+00 -0.75933554509E+03  0.75933554509E+03  0.00000000000E+00 0. -1.
         21    1    1    2  503  504  0.43441723462E+02  0.14748918243E+02 -0.38755358059E+02  0.60055738318E+02  0.00000000000E+00 0. -1.
         21    1    1    2  504  505  0.94773514204E+02  0.46913472871E+02 -0.95223825491E+01  0.10617706297E+03  0.00000000000E+00 0.  1.
         21    1    1    2  505  502  0.25259525937E+02  0.16894350532E+02  0.46849411009E+02  0.55842009655E+02  0.00000000000E+00 0. -1.
          2    1    1    2  501    0 -0.16347476360E+03 -0.78556741646E+02 -0.63488478782E+03  0.66028316183E+03  0.00000000000E+00 0. -1.
<scales pt_clust_3="30.90680" pt_clust_4="30.90680" pt_clust_5="30.38853" pt_clust_6="176.04168"></scales>
<clustering>
<clus scale="   30.389">  1  5  2 -1</clus>
<clus scale="   30.907">  3  4 -1 -1</clus>
<clus scale="  176.042">  2  6  1 -1</clus>
<clus scale="   30.389">  1  3  2 -1</clus>
</clustering>
</event>
<event>
 6    0  0.2433432E+002  0.1088658E+03  0.7546771E-02  0.1262685E+00
         -4   -1    0    0    0  501 -0.00000000000E+00  0.00000000000E+00  0.98129254282E+02  0.98129254282E+02  0.00000000000E+00 0.  1.
         21   -1    0    0  504  502  0.00000000000E+00 -0.00000000000E+00 -0.23660547695E+03  0.23660547695E+03  0.00000000000E+00 0.  1.
         21    1    1    2  503  501 -0.62327463472E+02 -0.25554993763E+02 -0.95802252499E+01  0.68040804852E+02  0.00000000000E+00 0.  1.
         21    1    1    2  504  503 -0.56023096834E+02 -0.22263194711E+02 -0.10464238794E+03  0.12076533680E+03  0.00000000000E+00 0.  1.
         21    1    1    2  505  502  0.29362811103E+02  0.44621756392E+02 -0.19122437424E+02  0.56735733294E+02  0.00000000000E+00 0. -1.
         -4    1    1    2    0  505  0.88987749203E+02  0.31964320816E+01 -0.51311720523E+01  0.89192856289E+02  0.00000000000E+00 0.  1.
<scales pt_clust_3="86.24546" pt_clust_4="60.28464" pt_clust_5="51.45428" pt_clust_6="51.45428"></scales>
<clustering>
<clus scale="   51.454">  5  6 -1 -1</clus>
<clus scale="   60.285">  2  4  1 -1</clus>
<clus scale="   86.245">  1  3  2 -1</clus>
<clus scale="   60.285">  2  3  1 -1</clus>
</clustering>
</event>
<event>
 6    0  0.2433432E+002  0.2174894E+03  0.7546771E-02  0.1135769E+00
         21   -1    0    0  504  502  0.00000000000E+00  0.00000000000E+00  0.23121342605E+03  0.23121342605E+03  0.00000000000E+00 0.  1.
          2   -1    0    0  505    0 -0.00000000000E+00 -0.00000000000E+00 -0.12609725089E+04  0.12609725089E+04  0.00000000000E+00 0.  1.
         21    1    1    2  503  502  0.82255920426E+02 -0.15881598954E+03 -0.40092641990E+02  0.18329204816E+03  0.00000000000E+00 0.  1.
         21    1    1    2  504  501 -0.20101195433E+02 -0.55883483655E+02  0.13199627397E+03  0.14474128003E+03  0.00000000000E+00 0.  1.
         21    1    1    2  505  503  0.33038980719E+02 -0.21184889597E+02 -0.54924923986E+02  0.67506452055E+02  0.00000000000E+00 0.  1.
          2    1    1    2  501    0 -0.95193705712E+02  0.23588436279E+03 -0.10667377908E+04  0.10966461547E+04  0.00000000000E+00 0.  1.
<scales pt_clust_3="217.48944" pt_clust_4="59.43557" pt_clust_5="39.24760" pt_clust_6="14000.00000"></scales>
<clustering>
<clus scale="   39.248">  2  5  1 -1</clus>
<clus scale="   59.436">  1  4  2 -1</clus>
<clus scale="  217.489">  1  3  2 -1</clus>
<clus scale="   59.436">  1  3  2 -1</clus>
</clustering>
</event>
<event>
 6    0  0.2433432E+002  0.9433542E+02  0.7546771E-02  0.1292680E+00
          2   -1    0    0  504    0 -0.00000000000E+00  0.00000000000E+00  0.13261164658E+04  0.13261164658E+04  0.00000000000E+00 0. -1.
         21   -1    0    0  505  502  0.00000000000E+00 -0.00000000000E+00 -0.47415425713E+03  0.47415425713E+03  0.00000000000E+00 0.  1.
         21    1    1    2  503  502 -0.47847529986E+02  0.54119611356E+01 -0.17308984771E+03  0.17966293671E+03  0.00000000000E+00 0.  1.
         21    1    1    2  504  503 -0.12918428664E+02  0.74533015283E+02 -0.20373166481E+03  0.21732153003E+03  0.00000000000E+00 0.  1.
         21    1    1    2  505  501 -0.18704316071E+02 -0.28473392878E+02 -0.82152078698E+02  0.88935648511E+02  0.00000000000E+00 0.  1.
          2    1    1    2  501    0  0.79470274720E+02 -0.51471583540E+02  0.13109357999E+04  0.13143506077E+04  0.00000000000E+00 0. -1.
<scales pt_clust_3="56.83525" pt_clust_4="94.33542" pt_clust_5="34.06737" pt_clust_6="14000.00000"></scales>
<clustering>
<clus scale="   34.067">  2  5  1 -1</clus>
<clus scale="   56.835">  2  3  1 -1</clus>
<clus scale="   94.335">  2  4  1 -1</clus>
<clus scale="   34.067">  2  3  1 -1</clus>
</clustering>
</event>
<event>
 6    0  0.2433432E+002  0.1094832E+03  0.7546771E-02  0.1261530E+00
         21   -1    0    0  505  502  0.00000000000E+00  0.00000000000E+00  0.63712315448E+02  0.63712315448E+02  0.00000000000E+00 0. -1.
          1   -1    0    0  504    0 -0.00000000000E+00 -0.00000000000E+00 -0.19327829939E+04  0.19327829939E+04  0.00000000000E+00 0. -1.
         21    1    1    2  503  501  0.83442841656E+02 -0.14441987208E+02 -0.30769561281E+03  0.31913612920E+03  0.00000000000E+00 0. -1.
         21    1    1    2  504  502 -0.64349762683E+02  0.72693913545E+02  0.10426859656E+02  0.97642288104E+02  0.00000000000E+00 0. -1.
         21    1    1    2  505  503  0.20701081420E+02 -0.31905194694E+02 -0.97685741776E+02  0.10482833761E+03  0.00000000000E+00 0. -1.
          1    1    1    2  501    0 -0.39794160394E+02 -0.26346731642E+02 -0.14741161835E+04  0.14748885545E+04  0.00000000000E+00 0. -1.
<scales pt_clust_3="32.95260" pt_clust_4="97.82007" pt_clust_5="32.95260" pt_clust_6="47.72552"></scales>
<clustering>
<clus scale="   32.953">  3  5 -1 -1</clus>
<clus scale="   47.726">  2  6  1 -1</clus>
<clus scale="   97.820">  1  4  2 -1</clus>
<clus scale="   97.820">  1  3  2 -1</clus>
</clustering>
</event>
<event>
 6    0  0.2433432E+002  0.1127894E+03  0.7546771E-02  0.1255490E+00
          2   -1    0    0  503    0 -0.00000000000E+00  0.00000000000E+00  0.15274907580E+04  0.15274907580E+04  0.00000000000E+00 0.  1.
         21   -1    0    0  504  502  0.00000000000E+00 -0.00000000000E+00 -0.29682877932E+02  0.29682877932E+02  0.00000000000E+00 0.  1.
         21    1    1    2  503  505  0.73462116896E+02 -0.46313316312E+02  0.18697856979E+03  0.20616156637E+03  0.00000000000E+00 0.  1.
         21    1    1    2  504  501 -0.71552862740E+02  0.26746775767E+02  0.16307818875E+03  0.18008247507E+03  0.00000000000E+00 0. -1.
         21    1    1    2  505  502  0.20800835223E+02 -0.70076319912E+02  0.13126764617E+03  0.15024832874E+03  0.00000000000E+00 0.  1.
          2    1    1    2  501    0 -0.22710089379E+02  0.89642860457E+02  0.10164834754E+04  0.10206812658E+04  0.00000000000E+00 0.  1.
<scales pt_clust_3="52.82624" pt_clust_4="76.38850" pt_clust_5="52.82624" pt_clust_6="96.98521"></scales>
<clustering>
<clus scale="   52.826">  3  5 -1 -1</clus>
<clus scale="   76.388">  2  4  1 -1</clus>
<clus scale="   96.985">  1  6  2 -1</clus>
<clus scale="   76.388">  2  3  1 -1</clus>
</clustering>
</event>
<event>
 6    0  0.2433432E+002  0.1786356E+03  0.7546771E-02  0.1169130E+00
         21   -1    0    0  501  502  0.00000000000E+00  0.00000000000E+00  0.16630862598E+03  0.16630862598E+03  0.00000000000E+00 0.  1.
          2   -1    0    0  504    0 -0.00000000000E+00 -0.00000000000E+00 -0.49240107567E+03  0.49240107567E+03  0.00000000000E+00 0.  1.
         21    1    1    2  503  502  0.29932978762E+02  0.24281840605E+02  0.35912473356E+02  0.52681085252E+02  0.00000000000E+00 0.  1.
         21    1    1    2  504  505 -0.44476416354E+01 -0.59644426770E+02 -0.23805777308E+02  0.64373551977E+02  0.00000000000E+00 0.  1.
         21    1    1    2  505  503  0.17894962351E+02 -0.12337923691E+03  0.38582532187E+02  0.13050393699E+03  0.00000000000E+00 0.  1.
          2    1    1    2  501    0 -0.43380299478E+02  0.15874182308E+03 -0.37678167792E+03  0.41115112744E+03  0.00000000000E+00 0.  1.
<scales pt_clust_3="38.54337" pt_clust_4="44.74370" pt_clust_5="44.74370" pt_clust_6="166.82415"></scales>
<clustering>
<clus scale="   38.543">  1  3  2 -1</clus>
<clus scale="   44.744">  4  5 -1 -1</clus>
<clus scale="  166.824">  2  6  1 -1</clus>
<clus scale="   38.543">  1  3  2 -1</clus>
</clustering>
</event>
<event>
 6    0  0.2667341E+002  0.5730206E+02  0.7546771E-02  0.1409516E+00
         21   -1    0    0  505  502  0.00000000000E+00  0.00000000000E+00  0.34412759334E+03  0.34412759334E+03  0.00000000000E+00 0. -1.
          2   -1    0    0  503    0 -0.00000000000E+00 -0.00000000000E+00 -0.78858518332E+03  0.78858518332E+03  0.00000000000E+00 0. -1.
         21    1    1    2  503  504 -0.47008819525E+01  0.43464339756E+02  0.15852512294E+02  0.46503217820E+02  0.00000000000E+00 0.  1.
         21    1    1    2  504  502  0.39946441527E+02 -0.44707117339E+01  0.41083920004E+01  0.40405251378E+02  0.00000000000E+00 0.  1.
         21    1    1    2  505  501 -0.75563097786E+02 -0.79433767484E+02  0.27922223647E+03  0.29997426973E+03  0.00000000000E+00 0. -1.
          2    1    1    2  501    0  0.40317538211E+02  0.40440139462E+02 -0.74364073074E+03  0.74583003774E+03  0.00000000000E+00 0. -1.
<scales pt_clust_3="43.03932" pt_clust_4="40.19584" pt_clust_5="57.30206" pt_clust_6="14000.00000"></scales>
<clustering>
<clus scale="   40.196">  1  4  2 -1</clus>
<clus scale="   43.039">  1  3  2 -1</clus>
<clus scale="   57.302">  1  5  2 -1</clus>
<clus scale="   40.196">  1  3  2 -1</clus>
</clustering>
</event>
<event>
 6    0  0.2433432E+002  0.9043722E+02  0.7546771E-02  0.1301796E+00
          2   -1    0    0  504    0 -0.00000000000E+00  0.00000000000E+00  0.13821048338E+04  0.13821048338E+04  0.00000000000E+00 0.  1.
         21   -1    0    0  505  502  0.00000000000E+00 -0.00000000000E+00 -0.12267470118E+03  0.12267470118E+03  0.00000000000E+00 0. -1.
         21    1    1    2  503  501  0.93543391207E+02  0.88616943501E+01  0.45157077433E+02  0.10424997510E+03  0.00000000000E+00 0. -1.
         21    1    1    2  504  502  0.13902271464E+02 -0.42449088866E+02  0.86179382271E+02  0.97067421033E+02  0.00000000000E+00 0. -1.
         21    1    1    2  505  503 -0.80352732765E+02  0.48881417898E+02 -0.62201316575E+02  0.11276062461E+03  0.00000000000E+00 0. -1.
          2    1    1    2  501    0 -0.27092929906E+02 -0.15294023382E+02  0.11902949895E+04  0.11907015142E+04  0.00000000000E+00 0.  1.
<scales pt_clust_3="14000.00000" pt_clust_4="49.77147" pt_clust_5="90.43722" pt_clust_6="31.11164"></scales>
<clustering>
<clus scale="   31.112">  1  6  2 -1</clus>
<clus scale="   49.771">  1  4  2 -1</clus>
<clus scale="   90.437">  2  5  1 -1</clus>
<clus scale="   90.437">  2  3  1 -1</clus>
</clustering>
</event>
<event>
 6    0  0.2433432E+002  0.1581237E+03  0.7546771E-02  0.1190832E+00
          1   -1    0    0  504    0 -0.00000000000E+00  0.00000000000E+00  0.12746054044E+04  0.12746054044E+04  0.00000000000E+00 0.  1.
         21   -1    0    0  503  502  0.00000000000E+00 -0.00000000000E+00 -0.24348907891E+03  0.24348907891E+03  0.00000000000E+00 0. -1.
         21    1    1    2  503  501  0.58886312988E+02 -0.77968805630E+02  0.30123258632E+02  0.10224550464E+03  0.00000000000E+00 0.  1.
         21    1    1    2  504  505 -0.23408931689E+02 -0.44602860338E+02 -0.52605836909E+02  0.72833833553E+02  0.00000000000E+00 0. -1.
         21    1    1    2  505  502 -0.94798484394E+02 -0.88134307054E+01 -0.12416306280E+03  0.15646371902E+03  0.00000000000E+00 0. -1.
          1    1    1    2  501    0  0.59321103095E+02  0.13138509667E+03  0.11777619666E+04  0.11865514261E+04  0.00000000000E+00 0.  1.
<scales pt_clust_3="97.70738" pt_clust_4="48.81495" pt_clust_5="48.81495" pt_clust_6="143.17566"></scales>
<clustering>
<clus scale="   48.815">  4  5 -1 -1</clus>
<clus scale="   97.707">  2  3  1 -1</clus>
<clus scale="  143.176">  1  6  2 -1</clus>
<clus scale="   97.707">  2  3  1 -1</clus>
</clustering>
</event>
<event>
 6    0  0.2433432E+002  0.8318856E+02  0.7546771E-02  0.1320239E+00
         21   -1    0    0  503  502  0.00000000000E+00  0.00000000000E+00  0.50487346351E+02  0.50487346351E+02  0.00000000000E+00 0. -1.
         -3   -1    0    0    0  501 -0.00000000000E+00 -0.00000000000E+00 -0.21733919566E+04  0.21733919566E+04  0.00000000000E+00 0.  1.
         21    1    1    2  503  505  0.29942494778E+02 -0.20090389288E+01  0.31888743731E+02  0.43789053514E+02  0.00000000000E+00 0. -1.
         21    1    1    2  504  501 -0.15741969122E+02  0.65119463479E+02 -0.37943981657E+03  0.38530887417E+03  0.00000000000E+00 0. -1.
         21    1    1    2  505  504 -0.60386952301E+02 -0.93068969677E+02 -0.32558608017E+03  0.34396905780E+03  0.00000000000E+00 0. -1.
         -3    1    1    2    0  502  0.46186426644E+02  0.29958545127E+02 -0.14497674572E+04  0.14508123174E+04  0.00000000000E+00 0.  1.
<scales pt_clust_3="30.00982" pt_clust_4="83.18856" pt_clust_5="14000.00000" pt_clust_6="56.04914"></scales>
<clustering>
<clus scale="   30.010">  1  3  2 -1</clus>
<clus scale="   56.049">  2  6  1 -1</clus>
<clus scale="   83.189">  2  4  1 -1</clus>
<clus scale="   30.010">  1  3  2 -1</clus>
</clustering>
</event>
<event>
 6    0  0.2433432E+002  0.1169013E+03  0.7546771E-02  0.1248298E+00
          2   -1    0    0  503    0 -0.00000000000E+00  0.00000000000E+00  0.40476078288E+04  0.40476078288E+04  0.00000000000E+00 0. -1.
         21   -1    0    0  505  502  0.00000000000E+00 -0.00000000000E+00 -0.10444656298E+02  0.10444656298E+02  0.00000000000E+00 0.  1.
         21    1    1    2  503  504  0.65762685682E+02 -0.73381819340E+02  0.47723249556E+03  0.48729916587E+03  0.00000000000E+00 0.  1.
         21    1    1    2  504  502  0.44846223553E+02 -0.56691403506E+01  0.27820275182E+03  0.28185119131E+03  0.00000000000E+00 0.  1.
         21    1    1    2  505  501 -0.10873266615E+02  0.52754031087E+02  0.26536881079E+03  0.27078002412E+03  0.00000000000E+00 0.  1.
          2    1    1    2  501    0 -0.99735642620E+02  0.26296928604E+02  0.30163591143E+04  0.30181221038E+04  0.00000000000E+00 0. -1.
<scales pt_clust_3="33.36349" pt_clust_4="33.36349" pt_clust_5="53.86293" pt_clust_6="106.01620"></scales>
<clustering>
<clus scale="   33.363">  3  4 -1 -1</clus>
<clus scale="   53.863">  2  5  1 -1</clus>
<clus scale="  106.016">  1  6  2 -1</clus>
<clus scale="   53.863">  2  3  1 -1</clus>
</clustering>
</event>
<event>
 6    0  0.2433432E+002  0.1327164E+03  0.7546771E-02  0.1223480E+00
         21   -1    0    0  504  502  0.00000000000E+00  0.00000000000E+00  0.44813363164E+03  0.44813363164E+03  0.00000000000E+00 0. -1.
          2   -1    0    0  503    0 -0.00000000000E+00 -0.00000000000E+00 -0.64068264150E+03  0.64068264150E+03  0.00000000000E+00 0.  1.
         21    1    1    2  503  502  0.36202182383E+02  0.10593076830E+03  0.40731602914E+03  0.42241954651E+03  0.00000000000E+00 0. -1.
         21    1    1    2  504  505 -0.72526808576E+02 -0.12917008192E+03 -0.36665968932E+03  0.39545464443E+03  0.00000000000E+00 0.  1.
         21    1    1    2  505  501 -0.46113095545E+02 -0.12908288374E+02 -0.83703660570E+02  0.96433107812E+02  0.00000000000E+00 0.  1.
          2    1    1    2  501    0  0.82437721738E+02  0.36147601992E+02 -0.14950168911E+03  0.17450897439E+03  0.00000000000E+00 0.  1.
<scales pt_clust_3="112.91115" pt_clust_4="39.65500" pt_clust_5="39.65500" pt_clust_6="90.01459"></scales>
<clustering>
<clus scale="   39.655">  4  5 -1 -1</clus>
<clus scale="   90.015">  2  6  1 -1</clus>
<clus scale="  112.911">  1  3  2 -1</clus>
<clus scale="  112.911">  1  3  2 -1</clus>
</clustering>
</event>
<event>
 6    0  0.2433432E+002  0.9667647E+02  0.7546771E-02  0.1287444E+00
          2   -1    0    0  505    0 -0.00000000000E+00  0.00000000000E+00  0.20856680011E+04  0.20856680011E+04  0.00000000000E+00 0.  1.
         21   -1    0    0  504  502  0.00000000000E+00 -0.00000000000E+00 -0.20699081226E+02  0.20699081226E+02  0.00000000000E+00 0.  1.
         21    1    1    2  503  501  0.78031565920E+02 -0.49240518778E+02  0.19372986779E+03  0.21458055747E+03  0.00000000000E+00 0.  1.
         21    1    1    2  504  503  0.92232863685E+01  0.34434142033E+02  0.61031045788E+02  0.70679330068E+02  0.00000000000E+00 0.  1.
         21    1    1    2  505  502  0.51884372662E+02 -0.18869316700E+02  0.44394846712E+03  0.44736817131E+03  0.00000000000E+00 0. -1.
          2    1    1    2  501    0 -0.13913922495E+03  0.33675693445E+02  0.13662595392E+04  0.13737390235E+04  0.00000000000E+00 0.  1.
<scales pt_clust_3="96.67647" pt_clust_4="35.64799" pt_clust_5="55.00819" pt_clust_6="14000.00000"></scales>
<clustering>
<clus scale="   35.648">  2  4  1 -1</clus>
<clus scale="   55.008">  1  5  2 -1</clus>
<clus scale="   96.676">  2  3  1 -1</clus>
<clus scale="   35.648">  2  3  1 -1</clus>
</clustering>
</event>
<event>
 6    0  0.2433432E+002  0.1083087E+03  0.7546771E-02  0.1263734E+00
         21   -1    0    0  505  502  0.00000000000E+00  0.00000000000E+00  0.11687185028E+04  0.11687185028E+04  0.00000000000E+00 0.  1.
         -2   -1    0    0    0  501 -0.00000000000E+00 -0.00000000000E+00 -0.61947685017E+02  0.61947685017E+02  0.00000000000E+00 0.  1.
         21    1    1    2  503  504 -0.19480657909E+02 -0.42240969059E+02  0.59277641986E+02  0.75350078560E+02  0.00000000000E+00 0.  1.
         21    1    1    2  504  502 -0.11002806711E+03  0.42971512015E+02  0.16150630025E+03  0.20009250715E+03  0.00000000000E+00 0.  1.
         21    1    1    2  505  501  0.10740033053E+03  0.19760175486E+02  0.91009607263E+03  0.91662432706E+03  0.00000000000E+00 0.  1.
         -2    1    1    2    0  503  0.22108394489E+02 -0.20490718442E+02 -0.24109197093E+02  0.38599275041E+02  0.00000000000E+00 0.  1.
<scales pt_clust_3="49.54744" pt_clust_4="14000.00000" pt_clust_5="108.30868" pt_clust_6="30.14383"></scales>
<clustering>
<clus scale="   30.144">  2  6  1 -1</clus>
<clus scale="   49.547">  2  3  1 -1</clus>
<clus scale="  108.309">  1  5  2 -1</clus>
<clus scale="  108.309">  1  3  2 -1</clus>
</clustering>
</event>
<event>
 6    0  0.2433432E+002  0.1055927E+03  0.7546771E-02  0.1268956E+00
          1   -1    0    0  505    0 -0.00000000000E+00  0.00000000000E+00  0.16682103561E+04  0.16682103561E+04  0.00000000000E+00 0.  1.
         21   -1    0    0  503  502  0.00000000000E+00 -0.00000000000E+00 -0.14994591489E+03  0.14994591489E+03  0.00000000000E+00 0. -1.
         21    1    1    2  503  504 -0.16986003273E+02  0.39978437201E+02 -0.77304285105E+02  0.88672161606E+02  0.00000000000E+00 0. -1.
         21    1    1    2  504  501  0.41709752028E+02 -0.31740823518E+02  0.32664552897E+02  0.61758856108E+02  0.00000000000E+00 0. -1.
         21    1    1    2  505  502  0.18262685615E+02  0.88862508571E+02 -0.99741630421E+01  0.91266396027E+02  0.00000000000E+00 0. -1.
          1    1    1    2  501    0 -0.42986434370E+02 -0.97100122254E+02  0.15728783365E+04  0.15764588573E+04  0.00000000000E+00 0.  1.
<scales pt_clust_3="43.43731" pt_clust_4="44.46363" pt_clust_5="105.59265" pt_clust_6="14000.00000"></scales>
<clustering>
<clus scale="   43.437">  2  3  1 -1</clus>
<clus scale="   44.464">  2  4  1 -1</clus>
<clus scale="  105.593">  2  5  1 -1</clus>
<clus scale="   43.437">  2  3  1 -1</clus>
</clustering>
</event>
<event>
 6    0  0.2433432E+002  0.8648647E+02  0.7546771E-02  0.1311590E+00
         21   -1    0    0  503  502  0.00000000000E+00  0.00000000000E+00  0.10200856786E+03  0.10200856786E+03  0.00000000000E+00 0.  1.
          4   -1    0    0  504    0 -0.00000000000E+00 -0.00000000000E+00 -0.94292290875E+03  0.94292290875E+03  0.00000000000E+00 0.  1.
         21    1    1    2  503  505  0.49279228625E+02 -0.55622832379E+02 -0.11199652810E+03  0.13440819976E+03  0.00000000000E+00 0.  1.
         21    1    1    2  504  502 -0.30260686260E+02  0.58296285759E+02  0.63882230053E+02  0.91624807682E+02  0.00000000000E+00 0.  1.
         21    1    1    2  505  501  0.54436041984E+02 -0.21835620919E+02 -0.66613650624E+02  0.88755030602E+02  0.00000000000E+00 0.  1.
          4    1    1    2  501    0 -0.73454584348E+02  0.19162167539E+02 -0.72618639223E+03  0.73014343857E+03  0.00000000000E+00 0.  1.
<scales pt_clust_3="30.04285" pt_clust_4="65.68231" pt_clust_5="30.04285" pt_clust_6="79.60118"></scales>
<clustering>
<clus scale="   30.043">  3  5 -1 -1</clus>
<clus scale="   65.682">  1  4  2 -1</clus>
<clus scale="   79.601">  2  6  1 -1</clus>
<clus scale="   65.682">  1  3  2 -1</clus>
</clustering>
</event>
<event>
 6    0  0.2433432E+002  0.1049276E+03  0.7546771E-02  0.1270262E+00
         21   -1    0    0  505  502  0.00000000000E+00  0.00000000000E+00  0.44264237920E+02  0.44264237920E+02  0.00000000000E+00 0. -1.
          1   -1    0    0  503    0 -0.00000000000E+00 -0.00000000000E+00 -0.80027286938E+03  0.80027286938E+03  0.00000000000E+00 0. -1.
         21    1    1    2  503  502 -0.65628241768E+02  0.69983801069E+02 -0.23012570934E+03  0.24932436830E+03  0.00000000000E+00 0. -1.
         21    1    1    2  504  501  0.36492288374E+02 -0.10754360786E+03 -0.15503524229E+03  0.19218023066E+03  0.00000000000E+00 0. -1.
         21    1    1    2  505  504  0.49405315430E+02  0.14522066578E+02 -0.27618135944E+02  0.58434040109E+02  0.00000000000E+00 0. -1.
          1    1    1    2  501    0 -0.20269362036E+02  0.23037740218E+02 -0.34322954389E+03  0.34459846824E+03  0.00000000000E+00 0. -1.
<scales pt_clust_3="14000.00000" pt_clust_4="104.92763" pt_clust_5="50.34283" pt_clust_6="30.68525"></scales>
<clustering>
<clus scale="   30.685">  2  6  1 -1</clus>
<clus scale="   50.343">  1  5  2 -1</clus>
<clus scale="  104.928">  1  4  2 -1</clus>
<clus scale="   50.343">  1  3  2 -1</clus>
</clustering>
</event>
<event>
 6    0  0.2433432E+002  0.1459698E+03  0.7546771E-02  0.1205515E+00
         21   -1    0    0  501  502  0.00000000000E+00  0.00000000000E+00  0.15988597623E+04  0.15988597623E+04  0.00000000000E+00 0. -1.
          2   -1    0    0  505    0 -0.00000000000E+00 -0.00000000000E+00 -0.27089437696E+03  0.27089437696E+03  0.00000000000E+00 0.  1.
         21    1    1    2  503  502  0.23927229583E+02  0.57974137838E+02  0.10021353650E+04  0.10040960127E+04  0.00000000000E+00 0. -1.
         21    1    1    2  504  503  0.37551856675E+02  0.58317449213E+02  0.45567376260E+03  0.46092260168E+03  0.00000000000E+00 0.  1.
         21    1    1    2  505  504  0.78155665590E+02  0.29166504328E+02  0.78678909783E+02  0.11467067578E+03  0.00000000000E+00 0.  1.
          2    1    1    2  501    0 -0.13963475185E+03 -0.14545809138E+03 -0.20852265203E+03  0.29006484909E+03  0.00000000000E+00 0.  1.
<scales pt_clust_3="58.37532" pt_clust_4="58.37532" pt_clust_5="83.42058" pt_clust_6="132.43298"></scales>
<clustering>
<clus scale="   58.375">  3  4 -1 -1</clus>
<clus scale="   83.421">  2  5  1 -1</clus>
<clus scale="  132.433">  2  6  1 -1</clus>
<clus scale="  145.970">  1  3  2 -1</clus>
</clustering>
</event>
<event>
 6    0  0.2433432E+002  0.2164256E+03  0.7546771E-02  0.1136576E+00
          2   -1    0    0  505    0 -0.00000000000E+00  0.00000000000E+00  0.16439742032E+04  0.16439742032E+04  0.00000000000E+00 0.  1.
         21   -1    0    0  503  502  0.00000000000E+00 -0.00000000000E+00 -0.22341209199E+03  0.22341209199E+03  0.00000000000E+00 0. -1.
         21    1    1    2  503  504 -0.51019217289E+02  0.17193849975E+02 -0.73743609390E+02  0.91305579981E+02  0.00000000000E+00 0. -1.
         21    1    1    2  504  501 -0.18112233237E+03  0.75169846775E+02  0.10159015564E+02  0.19636448443E+03  0.00000000000E+00 0.  1.
         21    1    1    2  505  502  0.21792245413E+03 -0.15231089714E+02  0.20955465920E+03  0.30271329224E+03  0.00000000000E+00 0.  1.
          2    1    1    2  501    0  0.14219095535E+02 -0.77132607037E+02  0.12745920459E+04  0.12770029386E+04  0.00000000000E+00 0.  1.
<scales pt_clust_3="53.83855" pt_clust_4="14000.00000" pt_clust_5="216.42562" pt_clust_6="78.20950"></scales>
<clustering>
<clus scale="   53.839">  2  3  1 -1</clus>
<clus scale="   78.209">  1  6  2 -1</clus>
<clus scale="  216.426">  1  5  2 -1</clus>
<clus scale="   53.839">  2  3  1 -1</clus>
</clustering>
</event>
<event>
 6    0  0.2433432E+002  0.8598468E+02  0.7546771E-02  0.1312877E+00
          2   -1    0    0  504    0 -0.00000000000E+00  0.00000000000E+00  0.59176715773E+03  0.59176715773E+03  0.00000000000E+00 0. -1.
         21   -1    0    0  505  502  0.00000000000E+00 -0.00000000000E+00 -0.59717058166E+03  0.59717058166E+03  0.00000000000E+00 0. -1.
         21    1    1    2  503  501 -0.80462863664E+02 -0.34062008392E+01  0.81398980162E+02  0.11450619461E+03  0.00000000000E+00 0. -1.
         21    1    1    2  504  502  0.98457850356E+02 -0.85920510382E+01  0.13516920489E+03  0.16744696351E+03  0.00000000000E+00 0. -1.
         21    1    1    2  505  503  0.81035853682E+01 -0.33075951778E+02 -0.56197956738E+03  0.56301040917E+03  0.00000000000E+00 0. -1.
          2    1    1    2  501    0 -0.26098572060E+02  0.45074203656E+02  0.34000795840E+03  0.34397417210E+03  0.00000000000E+00 0. -1.
<scales pt_clust_3="14000.00000" pt_clust_4="85.98468" pt_clust_5="34.05417" pt_clust_6="50.21847"></scales>
<clustering>
<clus scale="   34.054">  2  5  1 -1</clus>
<clus scale="   50.218">  1  6  2 -1</clus>
<clus scale="   85.985">  1  4  2 -1</clus>
<clus scale="   34.054">  2  3  1 -1</clus>
</clustering>
</event>
<event>
 6    0  0.2433432E+002  0.9503103E+02  0.7546771E-02  0.1291106E+00
         21   -1    0    0  503  502  0.00000000000E+00  0.00000000000E+00  0.50210387958E+03  0.50210387958E+03  0.00000000000E+00 0. -1.
          4   -1    0    0  502    0 -0.00000000000E+00 -0.00000000000E+00 -0.87837592234E+03  0.87837592234E+03  0.00000000000E+00 0.  1.
         21    1    1    2  503  504 -0.24097916559E+02 -0.81345145256E+02  0.41011072650E+03  0.41879416212E+03  0.00000000000E+00 0. -1.
         21    1    1    2  504  505  0.61506686247E+02  0.26885445883E+02  0.56856777277E+02  0.87969271770E+02  0.00000000000E+00 0. -1.
         21    1    1    2  505  501  0.22461677294E+02  0.21821906372E+02 -0.38392234251E+01  0.31550945803E+02  0.00000000000E+00 0. -1.
          4    1    1    2  501    0 -0.59870446981E+02  0.32637793001E+02 -0.83940032311E+03  0.84216542223E+03  0.00000000000E+00 0.  1.
<scales pt_clust_3="83.54501" pt_clust_4="30.93411" pt_clust_5="30.93411" pt_clust_6="68.18868"></scales>
<clustering>
<clus scale="   30.934">  4  5 -1 -1</clus>
<clus scale="   68.189">  2  6  1 -1</clus>
<clus scale="   83.545">  1  3  2 -1</clus>
<clus scale="   83.545">  1  3  2 -1</clus>
</clustering>
</event>
<event>
 6    0  0.3064079E+002  0.7071513E+02  0.7546771E-02  0.1357678E+00
         21   -1    0    0  504  502  0.00000000000E+00  0.00000000000E+00  0.21336300935E+04  0.21336300935E+04  0.00000000000E+00 0.  1.
          1   -1    0    0  503    0 -0.00000000000E+00 -0.00000000000E+00 -0.36089054300E+03  0.36089054300E+03  0.00000000000E+00 0.  1.
         21    1    1    2  503  502  0.54397678432E+02  0.82974148092E+02  0.10896547209E+04  0.10941623406E+04  0.00000000000E+00 0. -1.
         21    1    1    2  504  505 -0.25732643473E+02  0.20057366266E+02  0.93257663269E+03  0.93314717099E+03  0.00000000000E+00 0.  1.
         21    1    1    2  505  501  0.22616590309E+02 -0.54462965834E+02  0.97040338147E+02  0.11355418104E+03  0.00000000000E+00 0. -1.
          1    1    1    2  501    0 -0.51281625268E+02 -0.48568548523E+02 -0.34653214129E+03  0.35365694387E+03  0.00000000000E+00 0.  1.
<scales pt_clust_3="70.71513" pt_clust_4="32.62617" pt_clust_5="56.50004" pt_clust_6="14000.00000"></scales>
<clustering>
<clus scale="   32.626">  1  4  2 -1</clus>
<clus scale="   56.500">  1  5  2 -1</clus>
<clus scale="   70.715">  1  3  2 -1</clus>
<clus scale="   32.626">  1  3  2 -1</clus>
</clustering>
</event>
<event>
 6    0  0.2433432E+002  0.7857119E+02  0.7546771E-02  0.1333156E+00
          1   -1    0    0  504    0 -0.00000000000E+00  0.00000000000E+00  0.42669564980E+03  0.42669564980E+03  0.00000000000E+00 0.  1.
         21   -1    0    0  503  502  0.00000000000E+00 -0.00000000000E+00 -0.17021300280E+03  0.17021300280E+03  0.00000000000E+00 0.  1.
         21    1    1    2  503  501  0.38217064755E+02  0.47586088187E+02 -0.29196659095E+02  0.67656668036E+02  0.00000000000E+00 0.  1.
         21    1    1    2  504  505 -0.28289757338E+02  0.14044140676E+02  0.24000767165E+02  0.39668439370E+02  0.00000000000E+00 0.  1.
         21    1    1    2  505  502 -0.73749711207E+02 -0.66599812660E+02 -0.88824272546E+02  0.13328280588E+03  0.00000000000E+00 0.  1.
          1    1    1    2  501    0  0.63822403789E+02  0.49695837972E+01  0.35050281147E+03  0.35630073932E+03  0.00000000000E+00 0.  1.
<scales pt_clust_3="78.57119" pt_clust_4="31.58399" pt_clust_5="14000.00000" pt_clust_6="42.30959"></scales>
<clustering>
<clus scale="   31.584">  1  4  2 -1</clus>
<clus scale="   42.310">  1  6  2 -1</clus>
<clus scale="   78.571">  2  3  1 -1</clus>
<clus scale="   78.571">  2  3  1 -1</clus>
</clustering>
</event>
<event>
 6    0  0.2433432E+002  0.1202274E+03  0.7546771E-02  0.1242722E+00
          2   -1    0    0  505    0 -0.00000000000E+00  0.00000000000E+00  0.18094099040E+04  0.18094099040E+04  0.00000000000E+00 0.  1.
         21   -1    0    0  503  502  0.00000000000E+00 -0.00000000000E+00 -0.67058387904E+02  0.67058387904E+02  0.00000000000E+00 0.  1.
         21    1    1    2  503  504  0.12192575717E+02  0.57990969470E+02  0.10090938580E+02  0.60111883052E+02  0.00000000000E+00 0.  1.
         21    1    1    2  504  501  0.85229545833E+02  0.69612134025E+02  0.11312609736E+03  0.15782090670E+03  0.00000000000E+00 0. -1.
         21    1    1    2  505  502 -0.64472975969E+02 -0.11810889352E+03  0.21274358696E+03  0.25172665563E+03  0.00000000000E+00 0.  1.
          2    1    1    2  501    0 -0.32949145581E+02 -0.94942099706E+01  0.14063908932E+04  0.14068088465E+04  0.00000000000E+00 0.  1.
<scales pt_clust_3="57.91863" pt_clust_4="120.22744" pt_clust_5="14000.00000" pt_clust_6="34.28974"></scales>
<clustering>
<clus scale="   34.290">  1  6  2 -1</clus>
<clus scale="   57.919">  2  3  1 -1</clus>
<clus scale="  120.227">  1  4  2 -1</clus>
<clus scale="   57.919">  2  3  1 -1</clus>
</clustering>
</event>
<event>
 6    0  0.2433432E+002  0.1150043E+03  0.7546771E-02  0.1251574E+00
          2   -1    0    0  503    0 -0.00000000000E+00  0.00000000000E+00  0.28317353116E+04  0.28317353116E+04  0.00000000000E+00 0. -1.
         21   -1    0    0  504  502  0.00000000000E+00 -0.00000000000E+00 -0.89951138655E+02  0.89951138655E+02  0.00000000000E+00 0. -1.
         21    1    1    2  503  505  0.72592255588E+02  0.88089064578E+02  0.18502027650E+02  0.11563582445E+03  0.00000000000E+00 0. -1.
         21    1    1    2  504  501 -0.61593895813E+02 -0.48085396823E+02  0.28779878758E+03  0.29821830179E+03  0.00000000000E+00 0. -1.
         21    1    1    2  505  502 -0.12884138824E+02  0.29066931927E+02 -0.28609200475E+02  0.42771180913E+02  0.00000000000E+00 0. -1.
          2    1    1    2  501    0  0.18857790493E+01 -0.69070599682E+02  0.24640925582E+04  0.24650611431E+04  0.00000000000E+00 0. -1.
<scales pt_clust_3="14000.00000" pt_clust_4="115.00425" pt_clust_5="31.79446" pt_clust_6="68.83395"></scales>
<clustering>
<clus scale="   31.794">  2  5  1 -1</clus>
<clus scale="   68.834">  1  6  2 -1</clus>
<clus scale="  115.004">  1  4  2 -1</clus>
<clus scale="   31.794">  2  3  1 -1</clus>
</clustering>
</event>
<event>
 6    0  0.2433432E+002  0.2188200E+03  0.7546771E-02  0.1134766E+00
          2   -1    0    0  503    0 -0.00000000000E+00  0.00000000000E+00  0.14847670964E+04  0.14847670964E+04  0.00000000000E+00 0. -1.
         21   -1    0    0  505  502  0.00000000000E+00 -0.00000000000E+00 -0.63093516041E+03  0.63093516041E+03  0.00000000000E+00 0.  1.
         21    1    1    2  503  504  0.34111920520E+02  0.24053357235E+01  0.25874393691E+02  0.42882315824E+02  0.00000000000E+00 0.  1.
         21    1    1    2  504  502  0.20996848785E+03  0.16390058386E+03 -0.49440626993E+03  0.56159391648E+03  0.00000000000E+00 0.  1.
         21    1    1    2  505  501 -0.65829704461E+02 -0.21856428396E+01 -0.71061046015E+02  0.96891688419E+02  0.00000000000E+00 0. -1.
          2    1    1    2  501    0 -0.17825070391E+03 -0.16412027674E+03  0.13934248582E+04  0.14143343361E+04  0.00000000000E+00 0. -1.
<scales pt_clust_3="34.19662" pt_clust_4="14000.00000" pt_clust_5="65.56168" pt_clust_6="218.81999"></scales>
<clustering>
<clus scale="   34.197">  1  3  2 -1</clus>
<clus scale="   65.562">  2  5  1 -1</clus>
<clus scale="  218.820">  1  6  2 -1</clus>
<clus scale="   65.562">  2  3  1 -1</clus>
</clustering>
</event>
<event>
 6    0  0.2433432E+002  0.8086830E+02  0.7546771E-02  0.1326605E+00
          2   -1    0    0  503    0 -0.00000000000E+00  0.00000000000E+00  0.30877311283E+04  0.30877311283E+04  0.00000000000E+00 0. -1.
         21   -1    0    0  504  502  0.00000000000E+00 -0.00000000000E+00 -0.42771769745E+03  0.42771769745E+03  0.00000000000E+00 0.  1.
         21    1    1    2  503  502  0.65278235009E+02  0.42192654736E+01  0.70963632566E+03  0.71264490797E+03  0.00000000000E+00 0. -1.
         21    1    1    2  504  505 -0.23541820599E+02 -0.29731286058E+02 -0.42168088552E+03  0.42338272981E+03  0.00000000000E+00 0.  1.
         21    1    1    2  505  501  0.47872843085E+02  0.57130242241E+02  0.56903004569E+03  0.57389098841E+03  0.00000000000E+00 0. -1.
          2    1    1    2  501    0 -0.89609257495E+02 -0.31618221657E+02  0.18030279450E+04  0.18055301995E+04  0.00000000000E+00 0. -1.
<scales pt_clust_3="14000.00000" pt_clust_4="37.92317" pt_clust_5="56.77191" pt_clust_6="80.86830"></scales>
<clustering>
<clus scale="   37.923">  2  4  1 -1</clus>
<clus scale="   56.772">  2  5  1 -1</clus>
<clus scale="   80.868">  1  6  2 -1</clus>
<clus scale="   37.923">  2  3  1 -1</clus>
</clustering>
</event>
<event>
 6    0  0.2433432E+002  0.7152553E+02  0.7546771E-02  0.1354981E+00
          2   -1    0    0  504    0 -0.00000000000E+00  0.00000000000E+00  0.20696453718E+04  0.20696453718E+04  0.00000000000E+00 0.  1.
         21   -1    0    0  505  502  0.00000000000E+00 -0.00000000000E+00 -0.26286985211E+02  0.26286985211E+02  0.00000000000E+00 0.  1.
         21    1    1    2  503  502  0.11933799497E+03  0.21123696175E+02  0.17697926078E+03  0.21449808001E+03  0.00000000000E+00 0.  1.
         21    1    1    2  504  503  0.10210406592E+02 -0.31098415712E+02  0.16427903650E+03  0.16750810636E+03  0.00000000000E+00 0.  1.
         21    1    1    2  505  501 -0.57373491145E+02  0.22282903957E+00  0.15774743004E+03  0.16785713814E+03  0.00000000000E+00 0.  1.
          2    1    1    2  501    0 -0.72174910419E+02  0.97518904982E+01  0.15443526593E+04  0.15460690325E+04  0.00000000000E+00 0.  1.
<scales pt_clust_3="14000.00000" pt_clust_4="32.73170" pt_clust_5="56.55285" pt_clust_6="71.52553"></scales>
<clustering>
<clus scale="   32.732">  1  4  2 -1</clus>
<clus scale="   56.553">  2  5  1 -1</clus>
<clus scale="   71.526">  1  6  2 -1</clus>
<clus scale="   56.553">  2  3  1 -1</clus>
</clustering>
</event>
<event>
 6    0  0.2433432E+002  0.7409713E+02  0.7546771E-02  0.1346690E+00
          2   -1    0    0  502    0 -0.00000000000E+00  0.00000000000E+00  0.19059010473E+04  0.19059010473E+04  0.00000000000E+00 0. -1.
         21   -1    0    0  504  502  0.00000000000E+00 -0.00000000000E+00 -0.10813133444E+03  0.10813133444E+03  0.00000000000E+00 0.  1.
         21    1    1    2  503  501 -0.75572138727E+02 -0.72678954214E+01  0.45558219242E+02  0.88541074062E+02  0.00000000000E+00 0.  1.
         21    1    1    2  504  505  0.33493291425E+02 -0.40227189057E+02 -0.32664324179E+02  0.61700772961E+02  0.00000000000E+00 0.  1.
         21    1    1    2  505  503  0.40840451504E+02  0.80788882842E+02  0.12827885630E+02  0.91429430271E+02  0.00000000000E+00 0.  1.
          2    1    1    2  501    0  0.12383957973E+01 -0.33293798364E+02  0.17720479321E+04  0.17723611044E+04  0.00000000000E+00 0. -1.
<scales pt_clust_3="74.09713" pt_clust_4="55.25396" pt_clust_5="14000.00000" pt_clust_6="33.31682"></scales>
<clustering>
<clus scale="   33.317">  1  6  2 -1</clus>
<clus scale="   55.254">  2  4  1 -1</clus>
<clus scale="   74.097">  1  3  2 -1</clus>
<clus scale="   55.254">  2  3  1 -1</clus>
</clustering>
</event>
<event>
 6    0  0.2433432E+002  0.1682517E+03  0.7546771E-02  0.1179683E+00
         21   -1    0    0  505  502  0.00000000000E+00  0.00000000000E+00  0.82894205684E+02  0.82894205684E+02  0.00000000000E+00 0. -1.
          2   -1    0    0  503    0 -0.00000000000E+00 -0.00000000000E+00 -0.17236842831E+04  0.17236842831E+04  0.00000000000E+00 0. -1.
         21    1    1    2  503  502 -0.55585195190E+01 -0.60700520747E+02  0.47282792945E+02  0.77143456410E+02  0.00000000000E+00 0. -1.
         21    1    1    2  504  501 -0.77361067533E+02  0.44227312453E+02 -0.30617250974E+03  0.31887677190E+03  0.00000000000E+00 0. -1.
         21    1    1    2  505  504 -0.53950222150E+02  0.86689390707E+02 -0.28126966379E+03  0.29922951175E+03  0.00000000000E+00 0. -1.
          2    1    1    2  501    0  0.13686980920E+03 -0.70216182412E+02 -0.11006306968E+04  0.11113287487E+04  0.00000000000E+00 0. -1.
<scales pt_clust_3="60.95449" pt_clust_4="47.49957" pt_clust_5="47.49957" pt_clust_6="160.38522"></scales>
<clustering>
<clus scale="   47.500">  4  5 -1 -1</clus>
<clus scale="   60.954">  1  3  2 -1</clus>
<clus scale="  160.385">  2  6  1 -1</clus>
<clus scale="   60.954">  1  3  2 -1</clus>
</clustering>
</event>
<event>
 6    0  0.2433432E+002  0.1144424E+03  0.7546771E-02  0.1252558E+00
          1   -1    0    0  505    0 -0.00000000000E+00  0.00000000000E+00  0.56752169969E+03  0.56752169969E+03  0.00000000000E+00 0.  1.
         21   -1    0    0  504  502  0.00000000000E+00 -0.00000000000E+00 -0.13862808352E+03  0.13862808352E+03  0.00000000000E+00 0.  1.
         21    1    1    2  503  502  0.24455869501E+02  0.19772562725E+02  0.10996689054E+02  0.33316226676E+02  0.00000000000E+00 0. -1.
         21    1    1    2  504  501  0.29651249170E+02 -0.29684861392E+02 -0.23830680190E+02  0.48252345969E+02  0.00000000000E+00 0.  1.
         21    1    1    2  505  503  0.57107390817E+02  0.49169105817E+02 -0.67929559267E+02  0.10145580356E+03  0.00000000000E+00 0.  1.
          1    1    1    2  501    0 -0.11121450949E+03 -0.39256807149E+02  0.50965716657E+03  0.52312540702E+03  0.00000000000E+00 0.  1.
<scales pt_clust_3="31.44907" pt_clust_4="43.79054" pt_clust_5="14000.00000" pt_clust_6="114.44236"></scales>
<clustering>
<clus scale="   31.449">  2  3  1 -1</clus>
<clus scale="   43.791">  2  4  1 -1</clus>
<clus scale="  114.442">  1  6  2 -1</clus>
<clus scale="   31.449">  2  3  1 -1</clus>
</clustering>
</event>
<event>
 6    0  0.2433432E+002  0.2128456E+03  0.7546771E-02  0.1139332E+00
         21   -1    0    0  504  502  0.00000000000E+00  0.00000000000E+00  0.26023107559E+02  0.26023107559E+02  0.00000000000E+00 0.  1.
          1   -1    0    0  505    0 -0.00000000000E+00 -0.00000000000E+00 -0.23641665286E+04  0.23641665286E+04  0.00000000000E+00 0.  1.
         21    1    1    2  503  501  0.41121546478E+02  0.70781631006E+02 -0.35528955181E+03  0.36459797928E+03  0.00000000000E+00 0.  1.
         21    1    1    2  504  503  0.10437595569E+03  0.89413887785E+02 -0.46414154150E+03  0.48406255175E+03  0.00000000000E+00 0.  1.
         21    1    1    2  505  502  0.11767331237E+02 -0.28750370005E+02 -0.52059643565E+02  0.60623925541E+02  0.00000000000E+00 0. -1.
          1    1    1    2  501    0 -0.15726483341E+03 -0.13144514879E+03 -0.14666526841E+04  0.14809051796E+04  0.00000000000E+00 0.  1.
<scales pt_clust_3="33.51657" pt_clust_4="33.51657" pt_clust_5="31.06532" pt_clust_6="208.27384"></scales>
<clustering>
<clus scale="   31.065">  1  5  2 -1</clus>
<clus scale="   33.517">  3  4 -1 -1</clus>
<clus scale="  208.274">  2  6  1 -1</clus>
<clus scale="   31.065">  1  3  2 -1</clus>
</clustering>
</event>
<event>
 6    0  0.2433432E+002  0.1003827E+03  0.7546771E-02  0.1279493E+00
          2   -1    0    0  503    0 -0.00000000000E+00  0.00000000000E+00  0.86363361415E+03  0.86363361415E+03  0.00000000000E+00 0. -1.
         21   -1    0    0  504  502  0.00000000000E+00 -0.00000000000E+00 -0.66742866645E+03  0.66742866645E+03  0.00000000000E+00 0.  1.
         21    1    1    2  503  502 -0.68835217019E+02  0.68186168449E+02 -0.14398042795E+03  0.17354539551E+03  0.00000000000E+00 0.  1.
         21    1    1    2  504  505  0.29772633701E+02 -0.44951232136E+01 -0.33841243064E+03  0.33974930326E+03  0.00000000000E+00 0.  1.
         21    1    1    2  505  501  0.84333078132E+02  0.26692063327E+02 -0.15478431909E+03  0.17827708700E+03  0.00000000000E+00 0.  1.
          2    1    1    2  501    0 -0.45270494814E+02 -0.90383108562E+02  0.83338212538E+03  0.83949049484E+03  0.00000000000E+00 0. -1.
<scales pt_clust_3="85.56482" pt_clust_4="30.11006" pt_clust_5="14000.00000" pt_clust_6="100.38267"></scales>
<clustering>
<clus scale="   30.110">  2  4  1 -1</clus>
<clus scale="   85.565">  2  3  1 -1</clus>
<clus scale="  100.383">  1  6  2 -1</clus>
<clus scale="   30.110">  2  3  1 -1</clus>
</clustering>
</event>
<event>
 6    0  0.2433432E+002  0.1725742E+03  0.7546771E-02  0.1175190E+00
         21   -1    0    0  504  502  0.00000000000E+00  0.00000000000E+00  0.33414817485E+03  0.33414817485E+03  0.00000000000E+00 0. -1.
          2   -1    0    0  503    0 -0.00000000000E+00 -0.00000000000E+00 -0.35986092395E+03  0.35986092395E+03  0.00000000000E+00 0.  1.
         21    1    1    2  503  502  0.16895855352E+03 -0.27425054839E+02  0.27480490622E+03  0.32375432495E+03  0.00000000000E+00 0. -1.
         21    1    1    2  504  505 -0.89773538410E+02  0.90574722309E+01 -0.49724450006E+02  0.10302352610E+03  0.00000000000E+00 0.  1.
         21    1    1    2  505  501 -0.42124413434E+02 -0.73912871664E+00 -0.70072747008E+02  0.81763086974E+02  0.00000000000E+00 0.  1.
          2    1    1    2  501    0 -0.37060601680E+02  0.19106711325E+02 -0.18072045830E+03  0.18546816078E+03  0.00000000000E+00 0.  1.
<scales pt_clust_3="165.69064" pt_clust_4="32.97319" pt_clust_5="32.97319" pt_clust_6="41.69598"></scales>
<clustering>
<clus scale="   32.973">  4  5 -1 -1</clus>
<clus scale="   41.696">  2  6  1 -1</clus>
<clus scale="  165.691">  1  3  2 -1</clus>
<clus scale="  165.691">  1  3  2 -1</clus>
</clustering>
</event>
<event>
 6    0  0.2433432E+002  0.1292413E+03  0.7546771E-02  0.1228586E+00
         21   -1    0    0  501  502  0.00000000000E+00  0.00000000000E+00  0.12049719843E+03  0.12049719843E+03  0.00000000000E+00 0. -1.
         -2   -1    0    0    0  501 -0.00000000000E+00 -0.00000000000E+00 -0.34183521847E+03  0.34183521847E+03  0.00000000000E+00 0.  1.
         21    1    1    2  503  505  0.73332117537E+01  0.48086050125E+02 -0.17515163390E+02  0.51699372915E+02  0.00000000000E+00 0. -1.
         21    1    1    2  504  503 -0.43912755437E+02 -0.80832885122E+02 -0.56976557550E+02  0.10820634694E+03  0.00000000000E+00 0. -1.
         21    1    1    2  505  502  0.13815334274E+02  0.80478425980E+02  0.51907822745E+02  0.96757751996E+02  0.00000000000E+00 0. -1.
         -2    1    1    2    0  504  0.22764209409E+02 -0.47731590983E+02 -0.19875412185E+03  0.20566894505E+03  0.00000000000E+00 0.  1.
<scales pt_clust_3="48.07960" pt_clust_4="113.23756" pt_clust_5="48.07960" pt_clust_6="52.88208"></scales>
<clustering>
<clus scale="   48.080">  3  5 -1 -1</clus>
<clus scale="   52.882">  2  6  1 -1</clus>
<clus scale="  113.238">  2  4  1 -1</clus>
<clus scale="  129.241">  1  3  2 -1</clus>
</clustering>
</event>
<event>
 6    0  0.2433432E+002  0.9147032E+02  0.7546771E-02  0.1299330E+00
          1   -1    0    0  503    0 -0.00000000000E+00  0.00000000000E+00  0.59974087150E+03  0.59974087150E+03  0.00000000000E+00 0. -1.
         21   -1    0    0  501  502  0.00000000000E+00 -0.00000000000E+00 -0.25926071472E+03  0.25926071472E+03  0.00000000000E+00 0.  1.
         21    1    1    2  503  504  0.66347490148E+01 -0.57251761316E+02  0.14157389976E+03  0.15285598831E+03  0.00000000000E+00 0. -1.
         21    1    1    2  504  505  0.15605264657E+03 -0.28532204306E+02  0.53283481585E+02  0.16734887091E+03  0.00000000000E+00 0. -1.
         21    1    1    2  505  502 -0.84504529165E+02  0.13330175415E+02 -0.17831343817E+03  0.19777358585E+03  0.00000000000E+00 0.  1.
          1    1    1    2  501    0 -0.78182866420E+02  0.72453790207E+02  0.32393621361E+03  0.34102314115E+03  0.00000000000E+00 0. -1.
<scales pt_clust_3="57.63492" pt_clust_4="91.47032" pt_clust_5="14000.00000" pt_clust_6="79.35761"></scales>
<clustering>
<clus scale="   57.635">  1  3  2 -1</clus>
<clus scale="   79.358">  1  6  2 -1</clus>
<clus scale="   91.470">  1  4  2 -1</clus>
<clus scale="   91.470">  2  3  1 -1</clus>
</clustering>
</event>
<event>
 6    0  0.2433432E+002  0.1628465E+03  0.7546771E-02  0.1185520E+00
          2   -1    0    0  505    0 -0.00000000000E+00  0.00000000000E+00  0.30074392065E+04  0.30074392065E+04  0.00000000000E+00 0.  1.
         21   -1    0    0  504  502  0.00000000000E+00 -0.00000000000E+00 -0.23523618986E+02  0.23523618986E+02  0.00000000000E+00 0.  1.
         21    1    1    2  503  502 -0.18223539864E+02 -0.51557440663E+02  0.13021031854E+03  0.14122674728E+03  0.00000000000E+00 0. -1.
         21    1    1    2  504  501  0.96850218708E+02  0.52529269387E+02  0.49565423191E+03  0.50775230833E+03  0.00000000000E+00 0.  1.
         21    1    1    2  505  503 -0.12800490546E+03 -0.97466110094E+02  0.61929955325E+03  0.63985688641E+03  0.00000000000E+00 0.  1.
          2    1    1    2  501    0  0.49378226615E+02  0.96494281370E+02  0.17387514838E+04  0.17421268835E+04  0.00000000000E+00 0.  1.
<scales pt_clust_3="40.12023" pt_clust_4="147.59120" pt_clust_5="40.12023" pt_clust_6="108.39444"></scales>
<clustering>
<clus scale="   40.120">  3  5 -1 -1</clus>
<clus scale="  108.394">  1  6  2 -1</clus>
<clus scale="  147.591">  2  4  1 -1</clus>
<clus scale="  147.591">  2  3  1 -1</clus>
</clustering>
</event>
<event>
 6    0  0.2433432E+002  0.2536414E+03  0.7546771E-02  0.1111025E+00
         21   -1    0    0  505  502  0.00000000000E+00  0.00000000000E+00  0.73204594694E+03  0.73204594694E+03  0.00000000000E+00 0.  1.
          2   -1    0    0  503    0 -0.00000000000E+00 -0.00000000000E+00 -0.43798166706E+03  0.43798166706E+03  0.00000000000E+00 0. -1.
         21    1    1    2  503  502 -0.74286129478E+02 -0.15884546043E+03 -0.25478136183E+02  0.17719888475E+03  0.00000000000E+00 0.  1.
         21    1    1    2  504  501  0.11206722842E+03 -0.21910576405E+02  0.69954917812E+02  0.13391350779E+03  0.00000000000E+00 0.  1.
         21    1    1    2  505  504 -0.39741335750E+02  0.29051569447E+03  0.50329208422E+03  0.58247889622E+03  0.00000000000E+00 0.  1.
          2    1    1    2  501    0  0.19602368097E+01 -0.10975965763E+03 -0.25370458597E+03  0.27643632524E+03  0.00000000000E+00 0. -1.
<scales pt_clust_3="253.64137" pt_clust_4="120.09228" pt_clust_5="14000.00000" pt_clust_6="109.77716"></scales>
<clustering>
<clus scale="  109.777">  2  6  1 -1</clus>
<clus scale="  120.092">  2  4  1 -1</clus>
<clus scale="  253.641">  2  3  1 -1</clus>
<clus scale="  253.641">  1  3  2 -1</clus>
</clustering>
</event>
<event>
 6    0  0.2433432E+002  0.9261544E+02  0.7546771E-02  0.1296639E+00
         21   -1    0    0  501  502  0.00000000000E+00  0.00000000000E+00  0.65604717741E+03  0.65604717741E+03  0.00000000000E+00 0. -1.
         -3   -1    0    0    0  501 -0.00000000000E+00 -0.00000000000E+00 -0.97367231058E+02  0.97367231058E+02  0.00000000000E+00 0. -1.
         21    1    1    2  503  502  0.84680928603E+01  0.37288145454E+02  0.33573520206E+03  0.33790566774E+03  0.00000000000E+00 0. -1.
         21    1    1    2  504  503  0.59882040444E+01 -0.60430704637E+02  0.15401881877E+03  0.16555822295E+03  0.00000000000E+00 0.  1.
         21    1    1    2  505  504 -0.73909702338E+02 -0.49820927256E+02  0.11472405237E+03  0.14528033963E+03  0.00000000000E+00 0. -1.
         -3    1    1    2    0  505  0.59453405434E+02  0.72963486440E+02 -0.45798126844E+02  0.10467017815E+03  0.00000000000E+00 0. -1.
<scales pt_clust_3="38.23760" pt_clust_4="43.00003" pt_clust_5="92.61544" pt_clust_6="14000.00000"></scales>
<clustering>
<clus scale="   38.238">  1  3  2 -1</clus>
<clus scale="   43.000">  1  4  2 -1</clus>
<clus scale="   92.615">  1  5  2 -1</clus>
<clus scale="   38.238">  1  3  2 -1</clus>
</clustering>
</event>
<event>
 6    0  0.2433432E+002  0.1013709E+03  0.7546771E-02  0.1277439E+00
         21   -1    0    0  505  502  0.00000000000E+00  0.00000000000E+00  0.18996557123E+02  0.18996557123E+02  0.00000000000E+00 0. -1.
          1   -1    0    0  504    0 -0.00000000000E+00 -0.00000000000E+00 -0.25818505053E+04  0.25818505053E+04  0.00000000000E+00 0.  1.
         21    1    1    2  503  502 -0.31121667768E+02 -0.32599288900E+02 -0.28699561166E+03  0.29051291358E+03  0.00000000000E+00 0.  1.
         21    1    1    2  504  503 -0.60580754092E+02 -0.73641993025E+01 -0.25627521840E+03  0.26344116376E+03  0.00000000000E+00 0. -1.
         21    1    1    2  505  501 -0.65137047024E+00  0.57086277641E+02 -0.52472471616E+02  0.77541135250E+02  0.00000000000E+00 0. -1.
          1    1    1    2  501    0  0.92353792330E+02 -0.17122789439E+02 -0.19671106465E+04  0.19693518498E+04  0.00000000000E+00 0.  1.
<scales pt_clust_3="35.59416" pt_clust_4="35.59416" pt_clust_5="57.08999" pt_clust_6="92.52325"></scales>
<clustering>
<clus scale="   35.594">  3  4 -1 -1</clus>
<clus scale="   57.090">  1  5  2 -1</clus>
<clus scale="   92.523">  2  6  1 -1</clus>
<clus scale="   57.090">  1  3  2 -1</clus>
</clustering>
</event>
<event>
 6    0  0.2433432E+002  0.8370946E+02  0.7546771E-02  0.1318842E+00
         21   -1    0    0  505  502  0.00000000000E+00  0.00000000000E+00  0.84291120976E+03  0.84291120976E+03  0.00000000000E+00 0.  1.
         -4   -1    0    0    0  501 -0.00000000000E+00 -0.00000000000E+00 -0.18413119129E+03  0.18413119129E+03  0.00000000000E+00 0. -1.
         21    1    1    2  503  501 -0.10838185976E+02 -0.81418516001E+02  0.11339061036E+02  0.82915712192E+02  0.00000000000E+00 0. -1.
         21    1    1    2  504  502 -0.16724420732E+01  0.49752147639E+02  0.59993015412E+02  0.77956623551E+02  0.00000000000E+00 0. -1.
         21    1    1    2  505  503 -0.80784452085E+02 -0.48937482014E+02  0.69570987320E+03  0.70209203992E+03  0.00000000000E+00 0.  1.
         -4    1    1    2    0  504  0.93295080134E+02  0.80603850376E+02 -0.10826193119E+03  0.16407802539E+03  0.00000000000E+00 0. -1.
<scales pt_clust_3="79.14867" pt_clust_4="49.78025" pt_clust_5="14000.00000" pt_clust_6="83.70946"></scales>
<clustering>
<clus scale="   49.780">  1  4  2 -1</clus>
<clus scale="   79.149">  2  3  1 -1</clus>
<clus scale="   83.709">  2  6  1 -1</clus>
<clus scale="   49.780">  1  3  2 -1</clus>
</clustering>
</event>
<event>
 6    0  0.2433432E+002  0.2490163E+03  0.7546771E-02  0.1113928E+00
          2   -1    0    0  505    0 -0.00000000000E+00  0.00000000000E+00  0.25739594229E+04  0.25739594229E+04  0.00000000000E+00 0. -1.
         21   -1    0    0  501  502  0.00000000000E+00 -0.00000000000E+00 -0.34101604696E+02  0.34101604696E+02  0.00000000000E+00 0. -1.
         21    1    1    2  503  504 -0.51210585540E+02  0.28485828503E+02  0.23048397761E+03  0.23781680015E+03  0.00000000000E+00 0. -1.
         21    1    1    2  504  502 -0.75582855255E+02 -0.23804008912E+02  0.14859092843E+03  0.16840030540E+03  0.00000000000E+00 0. -1.
         21    1    1    2  505  503 -0.83842080548E+02  0.45868441086E+02  0.14014955839E+03  0.16963285965E+03  0.00000000000E+00 0. -1.
          2    1    1    2  501    0  0.21063552134E+03 -0.50550260677E+02  0.20206333538E+04  0.20322110624E+04  0.00000000000E+00 0. -1.
<scales pt_clust_3="54.69175" pt_clust_4="62.69028" pt_clust_5="62.69028" pt_clust_6="216.61637"></scales>
<clustering>
<clus scale="   54.692">  3  5 -1 -1</clus>
<clus scale="   62.690">  3  4 -1 -1</clus>
<clus scale="  216.616">  1  6  2 -1</clus>
<clus scale="  249.016">  2  3  1 -1</clus>
</clustering>
</event>
<event>
 6    0  0.2433432E+002  0.2886027E+03  0.7546771E-02  0.1091081E+00
          2   -1    0    0  505    0 -0.00000000000E+00  0.00000000000E+00  0.10769798227E+04  0.10769798227E+04  0.00000000000E+00 0.  1.
         21   -1    0    0  504  502  0.00000000000E+00 -0.00000000000E+00 -0.12869431494E+03  0.12869431494E+03  0.00000000000E+00 0. -1.
         21    1    1    2  503  501 -0.38339208252E+02 -0.13794135739E+03  0.42684225815E+03  0.45021331201E+03  0.00000000000E+00 0.  1.
         21    1    1    2  504  503 -0.55539242770E+02 -0.55495286966E+02  0.17215730978E+03  0.18921541605E+03  0.00000000000E+00 0.  1.
         21    1    1    2  505  502  0.84970412254E+02  0.24748165330E+03  0.55611529573E+02  0.26750660161E+03  0.00000000000E+00 0. -1.
          2    1    1    2  501    0  0.89080387685E+01 -0.54045008949E+02  0.29367441025E+03  0.29873880796E+03  0.00000000000E+00 0.  1.
<scales pt_clust_3="39.41191" pt_clust_4="62.13619" pt_clust_5="261.66226" pt_clust_6="62.13619"></scales>
<clustering>
<clus scale="   39.412">  3  6 -1 -1</clus>
<clus scale="   62.136">  3  4 -1 -1</clus>
<clus scale="  261.662">  2  5  1 -1</clus>
<clus scale="  261.662">  2  3  1 -1</clus>
</clustering>
</event>
<event>
 6    0  0.2433432E+002  0.1467268E+03  0.7546771E-02  0.1204554E+00
          2   -1    0    0  505    0 -0.00000000000E+00  0.00000000000E+00  0.14006145165E+04  0.14006145165E+04  0.00000000000E+00 0.  1.
         21   -1    0    0  503  502  0.00000000000E+00 -0.00000000000E+00 -0.10295422488E+03  0.10295422488E+03  0.00000000000E+00 0. -1.
         21    1    1    2  503  504  0.14507062512E+02 -0.95472015147E+02  0.26509325986E+02  0.10014042592E+03  0.00000000000E+00 0.  1.
         21    1    1    2  504  501  0.30518755022E+02 -0.16542600175E+02  0.29423204766E+02  0.45505790921E+02  0.00000000000E+00 0.  1.
         21    1    1    2  505  502  0.30125341975E+02 -0.72283252894E+00 -0.50394107455E+02  0.58716477943E+02  0.00000000000E+00 0. -1.
          2    1    1    2  501    0 -0.75151159508E+02  0.11273744785E+03  0.12921218683E+04  0.12992060465E+04  0.00000000000E+00 0.  1.
<scales pt_clust_3="36.55558" pt_clust_4="36.55558" pt_clust_5="30.13401" pt_clust_6="134.23483"></scales>
<clustering>
<clus scale="   30.134">  2  5  1 -1</clus>
<clus scale="   36.556">  3  4 -1 -1</clus>
<clus scale="  134.235">  1  6  2 -1</clus>
<clus scale="   30.134">  2  3  1 -1</clus>
</clustering>
</event>
<event>
 6    0  0.2433432E+002  0.1912236E+03  0.7546771E-02  0.1157362E+00
         21   -1    0    0  503  502  0.00000000000E+00  0.00000000000E+00  0.75942407700E+02  0.75942407700E+02  0.00000000000E+00 0. -1.
          2   -1    0    0  504    0 -0.00000000000E+00 -0.00000000000E+00 -0.77999214973E+03  0.77999214973E+03  0.00000000000E+00 0.  1.
         21    1    1    2  503  505  0.93928144642E+02  0.37470050153E+02 -0.10482443357E+03  0.14565254165E+03  0.00000000000E+00 0. -1.
         21    1    1    2  504  502 -0.23994720267E+02  0.52564909854E+02 -0.84393164431E+02  0.10227914035E+03  0.00000000000E+00 0. -1.
         21    1    1    2  505  501  0.57938851720E+02  0.57271194294E+02 -0.32483895685E+02  0.87704639064E+02  0.00000000000E+00 0. -1.
          2    1    1    2  501    0 -0.12787227609E+03 -0.14730615430E+03 -0.48234824834E+03  0.52029823637E+03  0.00000000000E+00 0.  1.
<scales pt_clust_3="53.57196" pt_clust_4="57.78249" pt_clust_5="53.57196" pt_clust_6="181.66987"></scales>
<clustering>
<clus scale="   53.572">  3  5 -1 -1</clus>
<clus scale="   57.782">  2  4  1 -1</clus>
<clus scale="  181.670">  2  6  1 -1</clus>
<clus scale="  191.224">  1  3  2 -1</clus>
</clustering>
</event>
<event>
 6    0  0.2433432E+002  0.1432681E+03  0.7546771E-02  0.1208998E+00
         21   -1    0    0  504  502  0.00000000000E+00  0.00000000000E+00  0.31660054869E+03  0.31660054869E+03  0.00000000000E+00 0.  1.
         -3   -1    0    0    0  501 -0.00000000000E+00 -0.00000000000E+00 -0.51467799250E+03  0.51467799250E+03  0.00000000000E+00 0. -1.
         21    1    1    2  503  505  0.54830113609E+02  0.36042075806E+02  0.21133187361E+02  0.68934637120E+02  0.00000000000E+00 0. -1.
         21    1    1    2  504  501  0.21162789500E+02  0.72269709134E+02  0.20300972271E+03  0.21652649268E+03  0.00000000000E+00 0.  1.
         21    1    1    2  505  502  0.30004498456E+02 -0.57966993552E+01  0.45831845822E+02  0.55085658229E+02  0.00000000000E+00 0. -1.
         -3    1    1    2    0  503 -0.10599740157E+03 -0.10251508558E+03 -0.46805219971E+03  0.49073175316E+03  0.00000000000E+00 0. -1.
<scales pt_clust_3="69.41296" pt_clust_4="14000.00000" pt_clust_5="30.55931" pt_clust_6="143.26805"></scales>
<clustering>
<clus scale="   30.559">  1  5  2 -1</clus>
<clus scale="   69.413">  1  3  2 -1</clus>
<clus scale="  143.268">  2  6  1 -1</clus>
<clus scale="   30.559">  1  3  2 -1</clus>
</clustering>
</event>
<event>
 6    0  0.2433432E+002  0.9104228E+02  0.7546771E-02  0.1300347E+00
         21   -1    0    0  503  502  0.00000000000E+00  0.00000000000E+00  0.10705727775E+03  0.10705727775E+03  0.00000000000E+00 0.  1.
          1   -1    0    0  504    0 -0.00000000000E+00 -0.00000000000E+00 -0.38928558894E+03  0.38928558894E+03  0.00000000000E+00 0. -1.
         21    1    1    2  503  505  0.37337565995E+02  0.13343262864E+00  0.73894643346E+01  0.38061999709E+02  0.00000000000E+00 0.  1.
         21    1    1    2  504  502 -0.82301321326E+00 -0.78534264906E+02 -0.41653854842E+02  0.88900797174E+02  0.00000000000E+00 0.  1.
         21    1    1    2  505  501  0.11127421699E+02  0.98258718545E+02  0.16213919043E+02  0.10020721758E+03  0.00000000000E+00 0.  1.
          1    1    1    2  501    0 -0.47641974481E+02 -0.19857886268E+02 -0.26417783972E+03  0.26917285223E+03  0.00000000000E+00 0. -1.
<scales pt_clust_3="37.33780" pt_clust_4="91.04228" pt_clust_5="14000.00000" pt_clust_6="50.59444"></scales>
<clustering>
<clus scale="   37.338">  1  3  2 -1</clus>
<clus scale="   50.594">  2  6  1 -1</clus>
<clus scale="   91.042">  2  4  1 -1</clus>
<clus scale="   37.338">  1  3  2 -1</clus>
</clustering>
</event>
<event>
 6    0  0.2433432E+002  0.8377844E+02  0.7546771E-02  0.1318658E+00
         21   -1    0    0  505  502  0.00000000000E+00  0.00000000000E+00  0.20500751296E+03  0.20500751296E+03  0.00000000000E+00 0.  1.
          3   -1    0    0  504    0 -0.00000000000E+00 -0.00000000000E+00 -0.31473872059E+04  0.31473872059E+04  0.00000000000E+00 0.  1.
         21    1    1    2  503  502 -0.71108309764E+02 -0.47007024223E+02  0.10561390938E+03  0.13572158966E+03  0.00000000000E+00 0.  1.
         21    1    1    2  504  503 -0.15967285658E+02  0.10524558732E+03 -0.19457440332E+03  0.22178995984E+03  0.00000000000E+00 0.  1.
         21    1    1    2  505  501  0.53826023585E+02 -0.34929471178E+02  0.56008604102E+02  0.85172017149E+02  0.00000000000E+00 0. -1.
          3    1    1    2  501    0  0.33249571836E+02 -0.23309091918E+02 -0.29094278031E+04  0.29097111522E+04  0.00000000000E+00 0.  1.
<scales pt_clust_3="14000.00000" pt_clust_4="83.77844" pt_clust_5="66.65447" pt_clust_6="40.60601"></scales>
<clustering>
<clus scale="   40.606">  2  6  1 -1</clus>
<clus scale="   66.654">  1  5  2 -1</clus>
<clus scale="   83.778">  2  4  1 -1</clus>
<clus scale="   66.654">  1  3  2 -1</clus>
</clustering>
</event>
<event>
 6    0  0.2433432E+002  0.9837406E+02  0.7546771E-02  0.1283753E+00
         21   -1    0    0  504  502  0.00000000000E+00  0.00000000000E+00  0.70189188599E+02  0.70189188599E+02  0.00000000000E+00 0. -1.
          2   -1    0    0  505    0 -0.00000000000E+00 -0.00000000000E+00 -0.66831675283E+03  0.66831675283E+03  0.00000000000E+00 0.  1.
         21    1    1    2  503  502 -0.29094233205E+01  0.68101382326E+02 -0.98511197087E+01  0.68871674717E+02  0.00000000000E+00 0. -1.
         21    1    1    2  504  501  0.16873359096E+02 -0.68095241972E+02 -0.31851108268E+02  0.77046514031E+02  0.00000000000E+00 0. -1.
         21    1    1    2  505  503 -0.86321929616E+01  0.63338869724E+02 -0.47330194956E+02  0.79539138340E+02  0.00000000000E+00 0. -1.
          2    1    1    2  501    0 -0.53317428142E+01 -0.63345010078E+02 -0.50909514130E+03  0.51304861434E+03  0.00000000000E+00 0.  1.
<scales pt_clust_3="35.53294" pt_clust_4="91.27507" pt_clust_5="35.53294" pt_clust_6="63.56900"></scales>
<clustering>
<clus scale="   35.533">  3  5 -1 -1</clus>
<clus scale="   63.569">  2  6  1 -1</clus>
<clus scale="   91.275">  1  4  2 -1</clus>
<clus scale="   91.275">  1  3  2 -1</clus>
</clustering>
</event>
<event>
 6    0  0.2433432E+002  0.3043281E+03  0.7546771E-02  0.1083097E+00
         21   -1    0    0  505  502  0.00000000000E+00  0.00000000000E+00  0.41416865232E+03  0.41416865232E+03  0.00000000000E+00 0.  1.
          2   -1    0    0  504    0 -0.00000000000E+00 -0.00000000000E+00 -0.14701742814E+04  0.14701742814E+04  0.00000000000E+00 0.  1.
         21    1    1    2  503  502  0.10554066680E+03  0.10061339073E+03  0.38678488671E+02  0.15085725779E+03  0.00000000000E+00 0.  1.
         21    1    1    2  504  503  0.20931658271E+02  0.35292614079E+02 -0.30266339320E+02  0.50987785031E+02  0.00000000000E+00 0.  1.
         21    1    1    2  505  501  0.20019023035E+03 -0.30359825078E+02  0.25130601741E+03  0.32272676011E+03  0.00000000000E+00 0.  1.
          2    1    1    2  501    0 -0.32666255542E+03 -0.10554617973E+03 -0.13157237959E+04  0.13597711308E+04  0.00000000000E+00 0.  1.
<scales pt_clust_3="147.36512" pt_clust_4="41.03295" pt_clust_5="304.32814" pt_clust_6="14000.00000"></scales>
<clustering>
<clus scale="   41.033">  2  4  1 -1</clus>
<clus scale="  147.365">  1  3  2 -1</clus>
<clus scale="  304.328">  1  5  2 -1</clus>
<clus scale="  147.365">  1  3  2 -1</clus>
</clustering>
</event>
<event>
 6    0  0.2433432E+002  0.6112962E+02  0.7546771E-02  0.1393151E+00
         21   -1    0    0  504  502  0.00000000000E+00  0.00000000000E+00  0.18949989684E+04  0.18949989684E+04  0.00000000000E+00 0.  1.
         -2   -1    0    0    0  501 -0.00000000000E+00 -0.00000000000E+00 -0.32747555229E+03  0.32747555229E+03  0.00000000000E+00 0. -1.
         21    1    1    2  503  501  0.34452875893E+02  0.29427957355E+02 -0.81597160534E+02  0.93333284194E+02  0.00000000000E+00 0. -1.
         21    1    1    2  504  503  0.81666844998E+02  0.49036715157E+01 -0.34225035378E+02  0.88684117027E+02  0.00000000000E+00 0. -1.
         21    1    1    2  505  502 -0.41221251478E+02  0.51624030196E+01  0.18516169971E+04  0.18520829749E+04  0.00000000000E+00 0.  1.
         -2    1    1    2    0  505 -0.74898469413E+02 -0.39494031890E+02 -0.16827138512E+03  0.18837414452E+03  0.00000000000E+00 0. -1.
<scales pt_clust_3="41.71290" pt_clust_4="14000.00000" pt_clust_5="41.54325" pt_clust_6="61.12962"></scales>
<clustering>
<clus scale="   41.543">  1  5  2 -1</clus>
<clus scale="   41.713">  2  3  1 -1</clus>
<clus scale="   61.130">  2  6  1 -1</clus>
<clus scale="   41.543">  1  3  2 -1</clus>
</clustering>
</event>
<event>
 6    0  0.2433432E+002  0.7796754E+02  0.7546771E-02  0.1334920E+00
         -4   -1    0    0    0  501 -0.00000000000E+00  0.00000000000E+00  0.29841665157E+03  0.29841665157E+03  0.00000000000E+00 0. -1.
         21   -1    0    0  505  502  0.00000000000E+00 -0.00000000000E+00 -0.10391206958E+03  0.10391206958E+03  0.00000000000E+00 0.  1.
         21    1    1    2  503  501 -0.74448213564E+02  0.72981761181E+01  0.13346212174E+03  0.15299652878E+03  0.00000000000E+00 0.  1.
         21    1    1    2  504  502 -0.17022126405E+02  0.34879833359E+02 -0.31286403270E+02  0.49851726069E+02  0.00000000000E+00 0.  1.
         21    1    1    2  505  503  0.26017118969E+02  0.42155698905E+02 -0.11181248325E+02  0.50783991018E+02  0.00000000000E+00 0.  1.
         -4    1    1    2    0  504  0.65453221001E+02 -0.84333708383E+02  0.10351011184E+03  0.14869647529E+03  0.00000000000E+00 0. -1.
<scales pt_clust_3="14000.00000" pt_clust_4="38.81180" pt_clust_5="61.80247" pt_clust_6="77.96754"></scales>
<clustering>
<clus scale="   38.812">  2  4  1 -1</clus>
<clus scale="   61.802">  2  5  1 -1</clus>
<clus scale="   77.968">  2  6  1 -1</clus>
<clus scale="   38.812">  2  3  1 -1</clus>
</clustering>
</event>
<event>
 6    0  0.2433432E+002  0.6066918E+02  0.7546771E-02  0.1395045E+00
          2   -1    0    0  503    0 -0.00000000000E+00  0.00000000000E+00  0.27900896860E+03  0.27900896860E+03  0.00000000000E+00 0. -1.
         21   -1    0    0  504  502  0.00000000000E+00 -0.00000000000E+00 -0.89534450326E+03  0.89534450326E+03  0.00000000000E+00 0. -1.
         21    1    1    2  503  505  0.81397763636E+02  0.79256679022E+01 -0.23639614016E+03  0.25014305351E+03  0.00000000000E+00 0. -1.
         21    1    1    2  504  501 -0.62396186755E+02  0.46199291205E+02 -0.59904295232E+03  0.60405307494E+03  0.00000000000E+00 0. -1.
         21    1    1    2  505  502  0.32500568633E+02 -0.22412002275E+02 -0.38742016669E+02  0.55313006273E+02  0.00000000000E+00 0. -1.
          2    1    1    2  501    0 -0.51502145513E+02 -0.31712956832E+02  0.25784557449E+03  0.26484433713E+03  0.00000000000E+00 0. -1.
<scales pt_clust_3="14000.00000" pt_clust_4="49.66796" pt_clust_5="39.47892" pt_clust_6="60.66918"></scales>
<clustering>
<clus scale="   39.479">  2  5  1 -1</clus>
<clus scale="   49.668">  2  4  1 -1</clus>
<clus scale="   60.669">  1  6  2 -1</clus>
<clus scale="   39.479">  2  3  1 -1</clus>
</clustering>
</event>
<event>
 6    0  0.2433432E+002  0.1012497E+03  0.7546771E-02  0.1277690E+00
          2   -1    0    0  504    0 -0.00000000000E+00  0.00000000000E+00  0.13791250948E+04  0.13791250948E+04  0.00000000000E+00 0.  1.
         21   -1    0    0  503  502  0.00000000000E+00 -0.00000000000E+00 -0.48422492788E+03  0.48422492788E+03  0.00000000000E+00 0.  1.
         21    1    1    2  503  505  0.95330120923E+02  0.40341482577E+01  0.31365355667E+02  0.10043849782E+03  0.00000000000E+00 0.  1.
         21    1    1    2  504  502 -0.13325620285E+03  0.34710353774E+01 -0.40552204226E+03  0.42686928965E+03  0.00000000000E+00 0.  1.
         21    1    1    2  505  501  0.34481548399E+02  0.94213882830E+02  0.48829279707E+02  0.11157746840E+03  0.00000000000E+00 0.  1.
          2    1    1    2  501    0  0.34445335315E+01 -0.10171906646E+03  0.12202275738E+04  0.12244647668E+04  0.00000000000E+00 0.  1.
<scales pt_clust_3="95.41544" pt_clust_4="45.59902" pt_clust_5="101.24972" pt_clust_6="14000.00000"></scales>
<clustering>
<clus scale="   95.415">  2  3  1 -1</clus>
<clus scale="   45.599">  2  4  1 -1</clus>
<clus scale="  101.250">  2  5  1 -1</clus>
<clus scale="   95.415">  2  3  1 -1</clus>
</clustering>
</event>
<event>
 6    0  0.2433432E+002  0.8459263E+02  0.7546771E-02  0.1316501E+00
         -1   -1    0    0    0  501 -0.00000000000E+00  0.00000000000E+00  0.77385428245E+03  0.77385428245E+03  0.00000000000E+00 0.  1.
         21   -1    0    0  505  502  0.00000000000E+00 -0.00000000000E+00 -0.97679795283E+02  0.97679795283E+02  0.00000000000E+00 0.  1.
         21    1    1    2  503  502 -0.60996667751E+02 -0.32054516168E+02  0.20414948811E+02  0.71866929936E+02  0.00000000000E+00 0.  1.
         21    1    1    2  504  503 -0.36730421870E+02  0.11393991035E+03  0.16361901787E+02  0.12082689639E+03  0.00000000000E+00 0.  1.
         21    1    1    2  505  501  0.38395148504E+02 -0.23272047104E+02  0.12757945441E+02  0.46674840942E+02  0.00000000000E+00 0.  1.
         -1    1    1    2    0  504  0.59331941116E+02 -0.58613347077E+02  0.62663969113E+03  0.63216541047E+03  0.00000000000E+00 0.  1.
<scales pt_clust_3="62.73383" pt_clust_4="14000.00000" pt_clust_5="44.89739" pt_clust_6="84.59263"></scales>
<clustering>
<clus scale="   44.897">  2  5  1 -1</clus>
<clus scale="   62.734">  2  3  1 -1</clus>
<clus scale="   84.593">  1  6  2 -1</clus>
<clus scale="   44.897">  2  3  1 -1</clus>
</clustering>
</event>
<event>
 6    0  0.2894077E+002  0.1218114E+03  0.7546771E-02  0.1240138E+00
         21   -1    0    0  504  502  0.00000000000E+00  0.00000000000E+00  0.63945228687E+03  0.63945228687E+03  0.00000000000E+00 0. -1.
          1   -1    0    0  503    0 -0.00000000000E+00 -0.00000000000E+00 -0.53383257306E+03  0.53383257306E+03  0.00000000000E+00 0.  1.
         21    1    1    2  503  505 -0.85321761236E+01  0.35780225149E+02  0.33760940080E+02  0.49928184588E+02  0.00000000000E+00 0.  1.
         21    1    1    2  504  501 -0.79739663023E+02 -0.48391864343E+02  0.83906376566E+02  0.12546101555E+03  0.00000000000E+00 0.  1.
         21    1    1    2  505  502 -0.33474740486E+02 -0.12336473666E+02  0.48461210411E+03  0.48592349015E+03  0.00000000000E+00 0. -1.
          1    1    1    2  501    0  0.12174657963E+03  0.24948112861E+02 -0.49665970695E+03  0.51197216965E+03  0.00000000000E+00 0.  1.
<scales pt_clust_3="36.90806" pt_clust_4="14000.00000" pt_clust_5="35.67558" pt_clust_6="121.81141"></scales>
<clustering>
<clus scale="   35.676">  1  5  2 -1</clus>
<clus scale="   36.908">  1  3  2 -1</clus>
<clus scale="  121.811">  2  6  1 -1</clus>
<clus scale="   35.676">  1  3  2 -1</clus>
</clustering>
</event>
<event>
 6    0  0.2433432E+002  0.6115294E+02  0.7546771E-02  0.1393056E+00
         -1   -1    0    0    0  501 -0.00000000000E+00  0.00000000000E+00  0.56175105359E+03  0.56175105359E+03  0.00000000000E+00 0. -1.
         21   -1    0    0  505  502  0.00000000000E+00 -0.00000000000E+00 -0.27747305720E+03  0.27747305720E+03  0.00000000000E+00 0. -1.
         21    1    1    2  503  502 -0.16849455943E+02  0.58971875481E+02 -0.14857645016E+03  0.16073751213E+03  0.00000000000E+00 0. -1.
         21    1    1    2  504  503  0.33139823061E+02  0.60347882209E+02 -0.38777922381E+02  0.79017985445E+02  0.00000000000E+00 0. -1.
         21    1    1    2  505  501 -0.21960374383E+02 -0.66132346909E+02 -0.43119382770E+02  0.81945265399E+02  0.00000000000E+00 0. -1.
         -1    1    1    2    0  504  0.56700072648E+01 -0.53187410781E+02  0.51475175170E+03  0.51752334781E+03  0.00000000000E+00 0. -1.
<scales pt_clust_3="14000.00000" pt_clust_4="51.29252" pt_clust_5="61.15294" pt_clust_6="53.48878"></scales>
<clustering>
<clus scale="   53.489">  1  6  2 -1</clus>
<clus scale="   51.293">  1  4  2 -1</clus>
<clus scale="   61.153">  1  5  2 -1</clus>
<clus scale="   61.153">  2  3  1 -1</clus>
</clustering>
</event>
<event>
 6    0  0.2433432E+002  0.9181686E+02  0.7546771E-02  0.1298511E+00
         21   -1    0    0  501  502  0.00000000000E+00  0.00000000000E+00  0.67114147202E+03  0.67114147202E+03  0.00000000000E+00 0.  1.
          2   -1    0    0  504    0 -0.00000000000E+00 -0.00000000000E+00 -0.92724666941E+03  0.92724666941E+03  0.00000000000E+00 0. -1.
         21    1    1    2  503  505  0.10011782020E+03  0.36917276735E+02 -0.29384467065E+02  0.11067931220E+03  0.00000000000E+00 0. -1.
         21    1    1    2  504  503  0.21584519392E+02 -0.51332404793E+02 -0.50142254783E+03  0.50450518207E+03  0.00000000000E+00 0. -1.
         21    1    1    2  505  502 -0.26198295517E+02  0.15657403385E+02  0.62213390634E+03  0.62288209349E+03  0.00000000000E+00 0.  1.
          2    1    1    2  501    0 -0.95504044076E+02 -0.12422753272E+01 -0.34743208884E+03  0.36032155367E+03  0.00000000000E+00 0. -1.
<scales pt_clust_3="91.81686" pt_clust_4="54.90952" pt_clust_5="30.52057" pt_clust_6="14000.00000"></scales>
<clustering>
<clus scale="   30.521">  1  5  2 -1</clus>
<clus scale="   54.910">  2  4  1 -1</clus>
<clus scale="   91.817">  1  3  2 -1</clus>
<clus scale="   30.521">  1  3  2 -1</clus>
</clustering>
</event>
<event>
 6    0  0.2433432E+002  0.1208662E+03  0.7546771E-02  0.1241675E+00
          1   -1    0    0  504    0 -0.00000000000E+00  0.00000000000E+00  0.85633355232E+03  0.85633355232E+03  0.00000000000E+00 0.  1.
         21   -1    0    0  503  502  0.00000000000E+00 -0.00000000000E+00 -0.79710485728E+03  0.79710485728E+03  0.00000000000E+00 0.  1.
         21    1    1    2  503  501  0.29871361547E+02 -0.54685844606E+02 -0.55966404675E+03  0.56312226476E+03  0.00000000000E+00 0.  1.
         21    1    1    2  504  505 -0.67782067035E+02 -0.23230444837E+02 -0.35337355958E+02  0.79892370756E+02  0.00000000000E+00 0.  1.
         21    1    1    2  505  502 -0.24343165373E+02 -0.26507321430E+02 -0.17178282176E+03  0.17551229485E+03  0.00000000000E+00 0.  1.
          1    1    1    2  501    0  0.62253870861E+02  0.10442361087E+03  0.82601291952E+03  0.83491147923E+03  0.00000000000E+00 0.  1.
<scales pt_clust_3="14000.00000" pt_clust_4="74.59154" pt_clust_5="35.98927" pt_clust_6="120.86621"></scales>
<clustering>
<clus scale="   35.989">  2  5  1 -1</clus>
<clus scale="   74.592">  2  4  1 -1</clus>
<clus scale="  120.866">  1  6  2 -1</clus>
<clus scale="   35.989">  2  3  1 -1</clus>
</clustering>
</event>
<event>
 6    0  0.2433432E+002  0.1353944E+03  0.7546771E-02  0.1219664E+00
         21   -1    0    0  505  502  0.00000000000E+00  0.00000000000E+00  0.23959826800E+03  0.23959826800E+03  0.00000000000E+00 0.  1.
          2   -1    0    0  503    0 -0.00000000000E+00 -0.00000000000E+00 -0.19909512842E+04  0.19909512842E+04  0.00000000000E+00 0. -1.
         21    1    1    2  503  504 -0.16816585848E+01 -0.31059673754E+02  0.15494043156E+02  0.34750491832E+02  0.00000000000E+00 0.  1.
         21    1    1    2  504  502  0.44605984634E+02 -0.33643457260E+02  0.88384518200E+01  0.56565840506E+02  0.00000000000E+00 0.  1.
         21    1    1    2  505  501  0.55212000739E+02  0.15772213601E+03  0.14047561822E+03  0.21830720677E+03  0.00000000000E+00 0.  1.
          2    1    1    2  501    0 -0.98136326788E+02 -0.93019004998E+02 -0.19161611294E+04  0.19209260131E+04  0.00000000000E+00 0. -1.
<scales pt_clust_3="30.92324" pt_clust_4="88.01478" pt_clust_5="14000.00000" pt_clust_6="135.39444"></scales>
<clustering>
<clus scale="   30.923">  3  4 -1 -1</clus>
<clus scale="   88.015">  1  3  2 -1</clus>
<clus scale="  135.394">  2  6  1 -1</clus>
<clus scale="   88.015">  1  3  2 -1</clus>
</clustering>
</event>
<event>
 6    0  0.2433432E+002  0.8512551E+02  0.7546771E-02  0.1315105E+00
         -4   -1    0    0    0  501 -0.00000000000E+00  0.00000000000E+00  0.14696666309E+04  0.14696666309E+04  0.00000000000E+00 0. -1.
         21   -1    0    0  505  502  0.00000000000E+00 -0.00000000000E+00 -0.19537027581E+03  0.19537027581E+03  0.00000000000E+00 0. -1.
         21    1    1    2  503  501 -0.44572967549E+02  0.58364847478E+02  0.93681077037E+03  0.93968485373E+03  0.00000000000E+00 0. -1.
         21    1    1    2  504  503  0.51213712978E+02  0.80433432071E+02  0.42958946336E+02  0.10458418839E+03  0.00000000000E+00 0. -1.
         21    1    1    2  505  504  0.30412024076E+02 -0.48775760863E+02 -0.15265210227E+03  0.16311538978E+03  0.00000000000E+00 0. -1.
         -4    1    1    2    0  502 -0.37052769505E+02 -0.90022518686E+02  0.44717874061E+03  0.45765247476E+03  0.00000000000E+00 0. -1.
<scales pt_clust_3="71.24512" pt_clust_4="14000.00000" pt_clust_5="57.48014" pt_clust_6="85.12551"></scales>
<clustering>
<clus scale="   57.480">  2  5  1 -1</clus>
<clus scale="   71.245">  1  3  2 -1</clus>
<clus scale="   85.126">  1  6  2 -1</clus>
<clus scale="   57.480">  2  3  1 -1</clus>
</clustering>
</event>
<event>
 6    0  0.2433432E+002  0.1192709E+03  0.7546771E-02  0.1244305E+00
          2   -1    0    0  505    0 -0.00000000000E+00  0.00000000000E+00  0.32760635487E+03  0.32760635487E+03  0.00000000000E+00 0. -1.
         21   -1    0    0  504  502  0.00000000000E+00 -0.00000000000E+00 -0.80848491121E+03  0.80848491121E+03  0.00000000000E+00 0.  1.
         21    1    1    2  503  501 -0.44312342548E+02  0.61937460709E+02 -0.31434286096E+03  0.32343665065E+03  0.00000000000E+00 0.  1.
         21    1    1    2  504  503 -0.57152337607E+02  0.88475024921E+01 -0.37904304321E+03  0.38342965013E+03  0.00000000000E+00 0.  1.
         21    1    1    2  505  502  0.57643816151E+02 -0.38000676376E+02 -0.94691520152E+02  0.11718935504E+03  0.00000000000E+00 0.  1.
          2    1    1    2  501    0  0.43820864004E+02 -0.32784286825E+02  0.30719886798E+03  0.31203561027E+03  0.00000000000E+00 0. -1.
<scales pt_clust_3="52.07036" pt_clust_4="52.07036" pt_clust_5="103.22396" pt_clust_6="54.72730"></scales>
<clustering>
<clus scale="   52.070">  3  4 -1 -1</clus>
<clus scale="   54.727">  1  6  2 -1</clus>
<clus scale="  103.224">  1  5  2 -1</clus>
<clus scale="  119.271">  2  3  1 -1</clus>
</clustering>
</event>
<event>
 6    0  0.2433432E+002  0.8718143E+02  0.7546771E-02  0.1309824E+00
         21   -1    0    0  503  502  0.00000000000E+00  0.00000000000E+00  0.27977819611E+02  0.27977819611E+02  0.00000000000E+00 0.  1.
          1   -1    0    0  504    0 -0.00000000000E+00 -0.00000000000E+00 -0.13217112153E+04  0.13217112153E+04  0.00000000000E+00 0. -1.
         21    1    1    2  503  501 -0.30110119448E+02  0.58413384695E+02 -0.16595705090E+03  0.17849505749E+03  0.00000000000E+00 0. -1.
         21    1    1    2  504  505  0.34889735623E+01 -0.85476216117E+02 -0.81958852532E+03  0.82404108350E+03  0.00000000000E+00 0. -1.
         21    1    1    2  505  502 -0.16504246156E+02  0.57475272047E+02 -0.35788961624E+02  0.69689646377E+02  0.00000000000E+00 0.  1.
          1    1    1    2  501    0  0.43125392041E+02 -0.30412440625E+02 -0.27239885782E+03  0.27746324752E+03  0.00000000000E+00 0. -1.
<scales pt_clust_3="14000.00000" pt_clust_4="87.18143" pt_clust_5="57.74957" pt_clust_6="52.77041"></scales>
<clustering>
<clus scale="   52.770">  2  6  1 -1</clus>
<clus scale="   57.750">  1  5  2 -1</clus>
<clus scale="   87.181">  2  4  1 -1</clus>
<clus scale="   57.750">  1  3  2 -1</clus>
</clustering>
</event>
<event>
 6    0  0.2433432E+002  0.1356810E+03  0.7546771E-02  0.1219262E+00
          2   -1    0    0  505    0 -0.00000000000E+00  0.00000000000E+00  0.10280761424E+04  0.10280761424E+04  0.00000000000E+00 0.  1.
         21   -1    0    0  503  502  0.00000000000E+00 -0.00000000000E+00 -0.68207634052E+03  0.68207634052E+03  0.00000000000E+00 0.  1.
         21    1    1    2  503  501  0.45396666357E+02  0.58740288558E+02 -0.49474932670E+03  0.50028809209E+03  0.00000000000E+00 0.  1.
         21    1    1    2  504  502  0.64286817353E+02  0.38600162912E+02 -0.12551916784E+03  0.14621158968E+03  0.00000000000E+00 0.  1.
         21    1    1    2  505  504 -0.11341917930E+03 -0.61276532807E+02  0.37611229916E+02  0.13428822853E+03  0.00000000000E+00 0. -1.
          2    1    1    2  501    0  0.37356955913E+01 -0.36063918662E+02  0.92865706653E+03  0.92936457264E+03  0.00000000000E+00 0.  1.
<scales pt_clust_3="135.68099" pt_clust_4="73.46086" pt_clust_5="14000.00000" pt_clust_6="36.25688"></scales>
<clustering>
<clus scale="   36.257">  1  6  2 -1</clus>
<clus scale="   73.461">  2  4  1 -1</clus>
<clus scale="  135.681">  2  3  1 -1</clus>
<clus scale="   73.461">  2  3  1 -1</clus>
</clustering>
</event>
<event>
 6    0  0.2433432E+002  0.1002817E+03  0.7546771E-02  0.1279705E+00
          3   -1    0    0  504    0 -0.00000000000E+00  0.00000000000E+00  0.71731104449E+03  0.71731104449E+03  0.00000000000E+00 0. -1.
         21   -1    0    0  505  502  0.00000000000E+00 -0.00000000000E+00 -0.58667439986E+03  0.58667439986E+03  0.00000000000E+00 0. -1.
         21    1    1    2  503  502 -0.88759930399E+01 -0.62139441339E+02 -0.32211530652E+03  0.32817428924E+03  0.00000000000E+00 0. -1.
         21    1    1    2  504  503 -0.31653781541E+02 -0.31182019286E+02 -0.12669893367E+03  0.13426429162E+03  0.00000000000E+00 0. -1.
         21    1    1    2  505  501 -0.36523362125E+02  0.47897278570E+02 -0.12112972486E+03  0.13527939799E+03  0.00000000000E+00 0.  1.
          3    1    1    2  501    0  0.77053136707E+02  0.45424182055E+02  0.70058060966E+03  0.70626746550E+03  0.00000000000E+00 0. -1.
<scales pt_clust_3="38.22036" pt_clust_4="38.22036" pt_clust_5="60.23376" pt_clust_6="89.40224"></scales>
<clustering>
<clus scale="   38.220">  3  4 -1 -1</clus>
<clus scale="   60.234">  2  5  1 -1</clus>
<clus scale="   89.402">  1  6  2 -1</clus>
<clus scale="   60.234">  2  3  1 -1</clus>
</clustering>
</event>
<event>
 6    0  0.2433432E+002  0.2095421E+03  0.7546771E-02  0.1141929E+00
          2   -1    0    0  503    0 -0.00000000000E+00  0.00000000000E+00  0.58165109408E+03  0.58165109408E+03  0.00000000000E+00 0. -1.
         21   -1    0    0  504  502  0.00000000000E+00 -0.00000000000E+00 -0.57145378312E+03  0.57145378312E+03  0.00000000000E+00 0. -1.
         21    1    1    2  503  502 -0.40283179441E+02 -0.18942244409E+02 -0.28224448161E+03  0.28573325073E+03  0.00000000000E+00 0. -1.
         21    1    1    2  504  505 -0.23179963309E+01 -0.49541630499E+02 -0.11573901631E+02  0.50928395404E+02  0.00000000000E+00 0. -1.
         21    1    1    2  505  501  0.10265140304E+03 -0.13694353747E+03 -0.20334852531E+03  0.26578462286E+03  0.00000000000E+00 0. -1.
          2    1    1    2  501    0 -0.60050227270E+02  0.20542741237E+03  0.50736421952E+03  0.55065860821E+03  0.00000000000E+00 0. -1.
<scales pt_clust_3="44.51453" pt_clust_4="52.03370" pt_clust_5="209.54215" pt_clust_6="14000.00000"></scales>
<clustering>
<clus scale="   44.515">  2  3  1 -1</clus>
<clus scale="   52.034">  2  4  1 -1</clus>
<clus scale="  209.542">  2  5  1 -1</clus>
<clus scale="   44.515">  2  3  1 -1</clus>
</clustering>
</event>
<event>
 6    0  0.2433432E+002  0.7059237E+02  0.7546771E-02  0.1358090E+00
         -1   -1    0    0    0  501 -0.00000000000E+00  0.00000000000E+00  0.24894826361E+03  0.24894826361E+03  0.00000000000E+00 0.  1.
         21   -1    0    0  505  502  0.00000000000E+00 -0.00000000000E+00 -0.49527951312E+03  0.49527951312E+03  0.00000000000E+00 0. -1.
         21    1    1    2  503  502  0.33541104457E+02 -0.77106461801E+01 -0.10611160430E+03  0.11155327122E+03  0.00000000000E+00 0.  1.
         21    1    1    2  504  503  0.47047027514E+02 -0.76546538094E+02 -0.61657526621E+02  0.10896993109E+03  0.00000000000E+00 0. -1.
         21    1    1    2  505  501 -0.12284104219E+02  0.65564182219E+02 -0.29163785998E+03  0.29916918722E+03  0.00000000000E+00 0. -1.
         -1    1    1    2    0  504 -0.68304027753E+02  0.18693002055E+02  0.21307574140E+03  0.22453538720E+03  0.00000000000E+00 0.  1.
<scales pt_clust_3="34.41598" pt_clust_4="14000.00000" pt_clust_5="61.14636" pt_clust_6="70.59237"></scales>
<clustering>
<clus scale="   34.416">  2  3  1 -1</clus>
<clus scale="   61.146">  2  5  1 -1</clus>
<clus scale="   70.592">  1  6  2 -1</clus>
<clus scale="   34.416">  2  3  1 -1</clus>
</clustering>
</event>
<event>
 6    0  0.2433432E+002  0.1446788E+03  0.7546771E-02  0.1207168E+00
         21   -1    0    0  501  502  0.00000000000E+00  0.00000000000E+00  0.32774839752E+04  0.32774839752E+04  0.00000000000E+00 0. -1.
          2   -1    0    0  505    0 -0.00000000000E+00 -0.00000000000E+00 -0.16220093849E+03  0.16220093849E+03  0.00000000000E+00 0.  1.
         21    1    1    2  503  502 -0.33461349026E+02  0.57499389257E+02  0.17732684138E+04  0.17745159083E+04  0.00000000000E+00 0. -1.
         21    1    1    2  504  503 -0.63201696744E+02  0.41927283624E+02  0.13267625598E+04  0.13289286067E+04  0.00000000000E+00 0. -1.
         21    1    1    2  505  504  0.51126087633E+02 -0.12300197632E+03  0.14489818662E+03  0.19682186743E+03  0.00000000000E+00 0. -1.
          2    1    1    2  501    0  0.45536958137E+02  0.23575303439E+02 -0.12964612354E+03  0.13941853118E+03  0.00000000000E+00 0.  1.
<scales pt_clust_3="41.31951" pt_clust_4="41.31951" pt_clust_5="137.78805" pt_clust_6="51.27777"></scales>
<clustering>
<clus scale="   41.320">  3  4 -1 -1</clus>
<clus scale="   51.278">  2  6  1 -1</clus>
<clus scale="  137.788">  2  5  1 -1</clus>
<clus scale="  144.679">  1  3  2 -1</clus>
</clustering>
</event>
<event>
 6    0  0.2433432E+002  0.1067484E+03  0.7546771E-02  0.1266713E+00
         21   -1    0    0  503  502  0.00000000000E+00  0.00000000000E+00  0.29717306385E+03  0.29717306385E+03  0.00000000000E+00 0. -1.
          2   -1    0    0  505    0 -0.00000000000E+00 -0.00000000000E+00 -0.74359082360E+03  0.74359082360E+03  0.00000000000E+00 0. -1.
         21    1    1    2  503  504 -0.53108831473E+02  0.16489196697E+02  0.25503883793E+03  0.26103112925E+03  0.00000000000E+00 0. -1.
         21    1    1    2  504  501 -0.48797946909E+02  0.69103557944E+02 -0.77192591424E+02  0.11452177747E+03  0.00000000000E+00 0. -1.
         21    1    1    2  505  502  0.45609449417E+02  0.15796209473E+02 -0.24108237205E+02  0.53953213166E+02  0.00000000000E+00 0. -1.
          2    1    1    2  501    0  0.56297328965E+02 -0.10138896411E+03 -0.60015576905E+03  0.61125776757E+03  0.00000000000E+00 0. -1.
<scales pt_clust_3="55.44455" pt_clust_4="14000.00000" pt_clust_5="48.26740" pt_clust_6="106.74841"></scales>
<clustering>
<clus scale="   48.267">  2  5  1 -1</clus>
<clus scale="   55.445">  1  3  2 -1</clus>
<clus scale="  106.748">  2  6  1 -1</clus>
<clus scale="   55.445">  1  3  2 -1</clus>
</clustering>
</event>
<event>
 6    0  0.2433432E+002  0.1328607E+03  0.7546771E-02  0.1223272E+00
          1   -1    0    0  505    0 -0.00000000000E+00  0.00000000000E+00  0.75222305065E+03  0.75222305065E+03  0.00000000000E+00 0. -1.
         21   -1    0    0  503  502  0.00000000000E+00 -0.00000000000E+00 -0.90705159554E+02  0.90705159554E+02  0.00000000000E+00 0.  1.
         21    1    1    2  503  504  0.31998323795E+02 -0.18944511684E+02 -0.36714952720E+02  0.52256817755E+02  0.00000000000E+00 0.  1.
         21    1    1    2  504  501 -0.51837890705E+02 -0.30023060177E+02  0.37562565823E+02  0.70707124156E+02  0.00000000000E+00 0.  1.
         21    1    1    2  505  502  0.62631009522E+01 -0.11638669729E+03  0.33055139576E+03  0.35049866616E+03  0.00000000000E+00 0.  1.
          1    1    1    2  501    0  0.13576465957E+02  0.16535426915E+03  0.33011888223E+03  0.36946560213E+03  0.00000000000E+00 0. -1.
<scales pt_clust_3="37.18585" pt_clust_4="54.63245" pt_clust_5="14000.00000" pt_clust_6="132.86066"></scales>
<clustering>
<clus scale="   37.186">  2  3  1 -1</clus>
<clus scale="   54.632">  2  4  1 -1</clus>
<clus scale="  132.861">  2  6  1 -1</clus>
<clus scale="   37.186">  2  3  1 -1</clus>
</clustering>
</event>
<event>
 6    0  0.2433432E+002  0.1377557E+03  0.7546771E-02  0.1216381E+00
         -2   -1    0    0    0  501 -0.00000000000E+00  0.00000000000E+00  0.10753626460E+03  0.10753626460E+03  0.00000000000E+00 0. -1.
         21   -1    0    0  504  502  0.00000000000E+00 -0.00000000000E+00 -0.27705023251E+03  0.27705023251E+03  0.00000000000E+00 0.  1.
         21    1    1    2  503  502  0.12026634649E+02 -0.79308106223E+02 -0.47960739337E+02  0.93459339670E+02  0.00000000000E+00 0.  1.
         21    1    1    2  504  501 -0.70818739085E+02  0.11812200660E+03 -0.77859462692E+02  0.15820934921E+03  0.00000000000E+00 0.  1.
         21    1    1    2  505  503  0.20009299644E+02 -0.47358655270E+02 -0.68835138737E+02  0.85915601762E+02  0.00000000000E+00 0.  1.
         -2    1    1    2    0  505  0.38782804792E+02  0.85447548974E+01  0.25141372858E+02  0.47002206469E+02  0.00000000000E+00 0. -1.
<scales pt_clust_3="30.62499" pt_clust_4="132.33783" pt_clust_5="30.62499" pt_clust_6="39.71295"></scales>
<clustering>
<clus scale="   30.625">  3  5 -1 -1</clus>
<clus scale="   39.713">  1  6  2 -1</clus>
<clus scale="  132.338">  1  4  2 -1</clus>
<clus scale="  137.756">  2  3  1 -1</clus>
</clustering>
</event>
<event>
 6    0  0.2433432E+002  0.1530655E+03  0.7546771E-02  0.1196756E+00
         21   -1    0    0  503  502  0.00000000000E+00  0.00000000000E+00  0.49531038538E+02  0.49531038538E+02  0.00000000000E+00 0.  1.
          2   -1    0    0  504    0 -0.00000000000E+00 -0.00000000000E+00 -0.17171336133E+04  0.17171336133E+04  0.00000000000E+00 0. -1.
         21    1    1    2  503  505  0.30434991385E+02  0.57588524372E+02 -0.74006981413E+02  0.98588843881E+02  0.00000000000E+00 0.  1.
         21    1    1    2  504  502 -0.47494912912E+02 -0.11129678863E+03 -0.14447452097E+03  0.18845590763E+03  0.00000000000E+00 0.  1.
         21    1    1    2  505  501  0.68961309677E+02  0.11189791522E+03 -0.29607146315E+03  0.32393690274E+03  0.00000000000E+00 0.  1.
          2    1    1    2  501    0 -0.51901388150E+02 -0.58189650970E+02 -0.11530496092E+04  0.11556829976E+04  0.00000000000E+00 0. -1.
<scales pt_clust_3="38.32956" pt_clust_4="143.05374" pt_clust_5="38.32956" pt_clust_6="77.97301"></scales>
<clustering>
<clus scale="   38.330">  3  5 -1 -1</clus>
<clus scale="   77.973">  2  6  1 -1</clus>
<clus scale="  143.054">  1  4  2 -1</clus>
<clus scale="  143.054">  1  3  2 -1</clus>
</clustering>
</event>
<event>
 6    0  0.2433432E+002  0.1917466E+03  0.7546771E-02  0.1156895E+00
          1   -1    0    0  504    0 -0.00000000000E+00  0.00000000000E+00  0.18298102172E+04  0.18298102172E+04  0.00000000000E+00 0.  1.
         21   -1    0    0  501  502  0.00000000000E+00 -0.00000000000E+00 -0.26946208997E+03  0.26946208997E+03  0.00000000000E+00 0.  1.
         21    1    1    2  503  505  0.11832307800E+03  0.30400083525E+02 -0.13039500476E+03  0.17868232462E+03  0.00000000000E+00 0.  1.
         21    1    1    2  504  503  0.70002752583E+02 -0.10411990777E+03 -0.27102752047E+01  0.12549376939E+03  0.00000000000E+00 0. -1.
         21    1    1    2  505  502 -0.22374545178E+02 -0.35087075482E+02 -0.35556670121E+02  0.54735728075E+02  0.00000000000E+00 0. -1.
          1    1    1    2  501    0 -0.16595128541E+03  0.10880689973E+03  0.17290100774E+04  0.17403604851E+04  0.00000000000E+00 0.  1.
<scales pt_clust_3="103.09676" pt_clust_4="191.74660" pt_clust_5="41.61398" pt_clust_6="14000.00000"></scales>
<clustering>
<clus scale="   41.614">  2  5  1 -1</clus>
<clus scale="  103.097">  2  3  1 -1</clus>
<clus scale="  191.747">  2  4  1 -1</clus>
<clus scale="   41.614">  2  3  1 -1</clus>
</clustering>
</event>
<event>
 6    0  0.2433432E+002  0.1341280E+03  0.7546771E-02  0.1221456E+00
         21   -1    0    0  503  502  0.00000000000E+00  0.00000000000E+00  0.32393832632E+03  0.32393832632E+03  0.00000000000E+00 0.  1.
          1   -1    0    0  504    0 -0.00000000000E+00 -0.00000000000E+00 -0.19718460685E+04  0.19718460685E+04  0.00000000000E+00 0. -1.
         21    1    1    2  503  505  0.78992266039E+01 -0.33473472615E+02 -0.12618526304E+02  0.36634660581E+02  0.00000000000E+00 0.  1.
         21    1    1    2  504  502  0.35823701901E+02 -0.10824250552E+03  0.15767181240E+03  0.19457692064E+03  0.00000000000E+00 0.  1.
         21    1    1    2  505  501 -0.12166678931E+03  0.10602321999E+03  0.86538498345E+02  0.18311920296E+03  0.00000000000E+00 0.  1.
          1    1    1    2  501    0  0.77943860805E+02  0.35692758148E+02 -0.18794995266E+04  0.18814536107E+04  0.00000000000E+00 0. -1.
<scales pt_clust_3="34.39289" pt_clust_4="14000.00000" pt_clust_5="134.12797" pt_clust_6="85.70649"></scales>
<clustering>
<clus scale="   34.393">  1  3  2 -1</clus>
<clus scale="   85.706">  2  6  1 -1</clus>
<clus scale="  134.128">  2  5  1 -1</clus>
<clus scale="   34.393">  1  3  2 -1</clus>
</clustering>
</event>
<event>
 6    0  0.2433432E+002  0.1459821E+03  0.7546771E-02  0.1205499E+00
         21   -1    0    0  504  502  0.00000000000E+00  0.00000000000E+00  0.74039332967E+02  0.74039332967E+02  0.00000000000E+00 0.  1.
          1   -1    0    0  505    0 -0.00000000000E+00 -0.00000000000E+00 -0.13999843668E+04  0.13999843668E+04  0.00000000000E+00 0.  1.
         21    1    1    2  503  502 -0.61753016204E+01  0.33864755342E+02 -0.53920023010E+02  0.63971281728E+02  0.00000000000E+00 0.  1.
         21    1    1    2  504  501  0.31215205113E+02 -0.69065082229E+02  0.20538224230E+02  0.78525112341E+02  0.00000000000E+00 0.  1.
         21    1    1    2  505  503  0.12215906661E+03  0.67320210545E+02 -0.34612258375E+03  0.37316978882E+03  0.00000000000E+00 0.  1.
          1    1    1    2  501    0 -0.14719897011E+03 -0.32119883658E+02 -0.94644065130E+03  0.95835751688E+03  0.00000000000E+00 0.  1.
<scales pt_clust_3="34.42319" pt_clust_4="52.16131" pt_clust_5="14000.00000" pt_clust_6="145.98214"></scales>
<clustering>
<clus scale="   34.423">  1  3  2 -1</clus>
<clus scale="   52.161">  1  4  2 -1</clus>
<clus scale="  145.982">  2  6  1 -1</clus>
<clus scale="   34.423">  1  3  2 -1</clus>
</clustering>
</event>
<event>
 6    0  0.2433432E+002  0.6953313E+02  0.7546771E-02  0.1361688E+00
         21   -1    0    0  504  502  0.00000000000E+00  0.00000000000E+00  0.19251327950E+03  0.19251327950E+03  0.00000000000E+00 0. -1.
          2   -1    0    0  505    0 -0.00000000000E+00 -0.00000000000E+00 -0.76682458728E+03  0.76682458728E+03  0.00000000000E+00 0.  1.
         21    1    1    2  503  501  0.58214486845E+02 -0.11095137992E+02 -0.81945868545E+02  0.10112939205E+03  0.00000000000E+00 0.  1.
         21    1    1    2  504  503 -0.33435695165E+02 -0.76329541649E+02  0.15886909788E+03  0.17939770038E+03  0.00000000000E+00 0. -1.
         21    1    1    2  505  502  0.23514937269E+02  0.30782668103E+02 -0.20743514207E+02  0.43941077729E+02  0.00000000000E+00 0.  1.
          2    1    1    2  501    0 -0.48293728948E+02  0.56642011538E+02 -0.63049102291E+03  0.63486969663E+03  0.00000000000E+00 0.  1.
<scales pt_clust_3="69.53313" pt_clust_4="48.91102" pt_clust_5="38.73661" pt_clust_6="14000.00000"></scales>
<clustering>
<clus scale="   38.737">  1  5  2 -1</clus>
<clus scale="   48.911">  1  4  2 -1</clus>
<clus scale="   69.533">  1  3  2 -1</clus>
<clus scale="   38.737">  1  3  2 -1</clus>
</clustering>
</event>
<event>
 6    0  0.2433432E+002  0.1693105E+03  0.7546771E-02  0.1178569E+00
         -1   -1    0    0    0  501 -0.00000000000E+00  0.00000000000E+00  0.21790976798E+03  0.21790976798E+03  0.00000000000E+00 0.  1.
         21   -1    0    0  504  502  0.00000000000E+00 -0.00000000000E+00 -0.84810347890E+03  0.84810347890E+03  0.00000000000E+00 0.  1.
         21    1    1    2  503  505 -0.23208701671E+02  0.14460499557E+03 -0.27656196170E+03  0.31294690802E+03  0.00000000000E+00 0. -1.
         21    1    1    2  504  501  0.34825655102E+02 -0.12081166109E+03 -0.27536124578E+03  0.30270794404E+03  0.00000000000E+00 0.  1.
         21    1    1    2  505  502  0.42988218369E+01  0.77690460404E+02 -0.24359439008E+03  0.25571960110E+03  0.00000000000E+00 0.  1.
         -1    1    1    2    0  503 -0.15915775267E+02 -0.10148379489E+03  0.16532388664E+03  0.19463879372E+03  0.00000000000E+00 0.  1.
<scales pt_clust_3="40.22869" pt_clust_4="160.06223" pt_clust_5="40.22869" pt_clust_6="102.72425"></scales>
<clustering>
<clus scale="   40.229">  3  5 -1 -1</clus>
<clus scale="  102.724">  1  6  2 -1</clus>
<clus scale="  160.062">  2  4  1 -1</clus>
<clus scale="  160.062">  2  3  1 -1</clus>
</clustering>
</event>
<event>
 6    0  0.2433432E+002  0.7566835E+02  0.7546771E-02  0.1341814E+00
          2   -1    0    0  503    0 -0.00000000000E+00  0.00000000000E+00  0.25130324615E+04  0.25130324615E+04  0.00000000000E+00 0. -1.
         21   -1    0    0  504  502  0.00000000000E+00 -0.00000000000E+00 -0.51146185974E+03  0.51146185974E+03  0.00000000000E+00 0. -1.
         21    1    1    2  503  502  0.18845580813E+02 -0.10502023456E+03 -0.30706666171E+03  0.32507589932E+03  0.00000000000E+00 0. -1.
         21    1    1    2  504  505  0.34341097771E+02  0.59496386790E+02 -0.14299126481E+03  0.15863679538E+03  0.00000000000E+00 0.  1.
         21    1    1    2  505  501 -0.26633801815E+02  0.90816968132E+02  0.62590574443E+01  0.94848599884E+02  0.00000000000E+00 0.  1.
          2    1    1    2  501    0 -0.26552876770E+02 -0.45293120364E+02  0.24453694708E+04  0.24459330267E+04  0.00000000000E+00 0. -1.
<scales pt_clust_3="14000.00000" pt_clust_4="62.60068" pt_clust_5="75.66835" pt_clust_6="52.50259"></scales>
<clustering>
<clus scale="   52.503">  1  6  2 -1</clus>
<clus scale="   62.601">  2  4  1 -1</clus>
<clus scale="   75.668">  1  5  2 -1</clus>
<clus scale="   62.601">  2  3  1 -1</clus>
</clustering>
</event>
<event>
 6    0  0.2433432E+002  0.9031863E+02  0.7546771E-02  0.1302082E+00
         21   -1    0    0  505  502  0.00000000000E+00  0.00000000000E+00  0.24782127410E+02  0.24782127410E+02  0.00000000000E+00 0.  1.
          1   -1    0    0  503    0 -0.00000000000E+00 -0.00000000000E+00 -0.12838788448E+04  0.12838788448E+04  0.00000000000E+00 0. -1.
         21    1    1    2  503  504 -0.92218417455E+02  0.30234160447E+02 -0.38746029210E+03  0.39942936664E+03  0.00000000000E+00 0.  1.
         21    1    1    2  504  502  0.68138714332E+02 -0.36553336382E+02 -0.12594763046E+03  0.14778983866E+03  0.00000000000E+00 0.  1.
         21    1    1    2  505  501 -0.46211667964E+00 -0.55904888598E+02 -0.12227457008E+03  0.13444939795E+03  0.00000000000E+00 0.  1.
          1    1    1    2  501    0  0.24541819803E+02  0.62224064533E+02 -0.62341422475E+03  0.62699236897E+03  0.00000000000E+00 0. -1.
<scales pt_clust_3="90.31863" pt_clust_4="14000.00000" pt_clust_5="55.90680" pt_clust_6="61.92564"></scales>
<clustering>
<clus scale="   55.907">  1  5  2 -1</clus>
<clus scale="   61.926">  2  6  1 -1</clus>
<clus scale="   90.319">  2  3  1 -1</clus>
<clus scale="   55.907">  1  3  2 -1</clus>
</clustering>
</event>
<event>
 6    0  0.2433432E+002  0.1426488E+03  0.7546771E-02  0.1209809E+00
         -4   -1    0    0    0  501 -0.00000000000E+00  0.00000000000E+00  0.74175885145E+02  0.74175885145E+02  0.00000000000E+00 0.  1.
         21   -1    0    0  503  502  0.00000000000E+00 -0.00000000000E+00 -0.17873503330E+04  0.17873503330E+04  0.00000000000E+00 0. -1.
         21    1    1    2  503  501  0.13303365772E+03  0.56862963729E+02 -0.13853103956E+04  0.13928446585E+04  0.00000000000E+00 0. -1.
         21    1    1    2  504  502 -0.45255320023E+02  0.38804707301E+02 -0.97908520190E+02  0.11462952336E+03  0.00000000000E+00 0. -1.
         21    1    1    2  505  504 -0.40600314357E+02  0.41969098038E+02 -0.19617891318E+03  0.20468501824E+03  0.00000000000E+00 0. -1.
         -4    1    1    2    0  505 -0.47178023339E+02 -0.13763676907E+03 -0.33776618917E+02  0.14936701802E+03  0.00000000000E+00 0.  1.
<scales pt_clust_3="14000.00000" pt_clust_4="124.39597" pt_clust_5="39.32469" pt_clust_6="142.64878"></scales>
<clustering>
<clus scale="   39.325">  4  5 -1 -1</clus>
<clus scale="  124.396">  2  4  1 -1</clus>
<clus scale="  142.649">  1  6  2 -1</clus>
<clus scale="  124.396">  2  3  1 -1</clus>
</clustering>
</event>
<event>
 6    0  0.2433432E+002  0.1072363E+03  0.7546771E-02  0.1265775E+00
          2   -1    0    0  504    0 -0.00000000000E+00  0.00000000000E+00  0.57753991299E+03  0.57753991299E+03  0.00000000000E+00 0. -1.
         21   -1    0    0  505  502  0.00000000000E+00 -0.00000000000E+00 -0.15967206067E+03  0.15967206067E+03  0.00000000000E+00 0. -1.
         21    1    1    2  503  501 -0.81076962336E+02  0.13438438473E+02 -0.27031259165E+02  0.86514475218E+02  0.00000000000E+00 0. -1.
         21    1    1    2  504  502  0.58419097271E+02  0.33056068103E+02  0.10218021081E+02  0.67896262925E+02  0.00000000000E+00 0.  1.
         21    1    1    2  505  503 -0.57696655194E+02  0.12097369105E+02 -0.56499442849E+02  0.81654377728E+02  0.00000000000E+00 0. -1.
          2    1    1    2  501    0  0.80354520259E+02 -0.58591875681E+02  0.49118053325E+03  0.50114685779E+03  0.00000000000E+00 0. -1.
<scales pt_clust_3="31.61262" pt_clust_4="67.12298" pt_clust_5="31.61262" pt_clust_6="100.53080"></scales>
<clustering>
<clus scale="   31.613">  3  5 -1 -1</clus>
<clus scale="   67.123">  2  4  1 -1</clus>
<clus scale="  100.531">  1  6  2 -1</clus>
<clus scale="   67.123">  2  3  1 -1</clus>
</clustering>
</event>
<event>
 6    0  0.2433432E+002  0.9653808E+02  0.7546771E-02  0.1287749E+00
         21   -1    0    0  504  502  0.00000000000E+00  0.00000000000E+00  0.30221357912E+02  0.30221357912E+02  0.00000000000E+00 0. -1.
          1   -1    0    0  503    0 -0.00000000000E+00 -0.00000000000E+00 -0.22123146379E+04  0.22123146379E+04  0.00000000000E+00 0. -1.
         21    1    1    2  503  505 -0.32386763424E+02  0.61353895066E+02 -0.80683269531E+02  0.10640955252E+03  0.00000000000E+00 0. -1.
         21    1    1    2  504  501  0.14107604211E+02 -0.45114587465E+02 -0.65502896152E+02  0.80777347709E+02  0.00000000000E+00 0. -1.
         21    1    1    2  505  502 -0.86774916703E+01  0.67309392777E+02 -0.12342458391E+03  0.14085269302E+03  0.00000000000E+00 0. -1.
          1    1    1    2  501    0  0.26956650883E+02 -0.83548700379E+02 -0.19124825304E+04  0.19144964025E+04  0.00000000000E+00 0. -1.
<scales pt_clust_3="34.80124" pt_clust_4="47.26892" pt_clust_5="34.80124" pt_clust_6="89.89723"></scales>
<clustering>
<clus scale="   34.801">  3  5 -1 -1</clus>
<clus scale="   47.269">  1  4  2 -1</clus>
<clus scale="   89.897">  2  6  1 -1</clus>
<clus scale="   47.269">  1  3  2 -1</clus>
</clustering>
</event>
<event>
 6    0  0.2433432E+002  0.1052249E+03  0.7546771E-02  0.1269677E+00
         21   -1    0    0  505  502  0.00000000000E+00  0.00000000000E+00  0.29623857370E+03  0.29623857370E+03  0.00000000000E+00 0. -1.
          2   -1    0    0  503    0 -0.00000000000E+00 -0.00000000000E+00 -0.85608232546E+03  0.85608232546E+03  0.00000000000E+00 0. -1.
         21    1    1    2  503  502  0.83789998237E+02  0.90274266878E+01 -0.47904123830E+02  0.96938451179E+02  0.00000000000E+00 0. -1.
         21    1    1    2  504  501 -0.98148735660E+02 -0.66290910434E+02 -0.26873536880E+03  0.29367730175E+03  0.00000000000E+00 0. -1.
         21    1    1    2  505  504  0.36965212658E+02  0.12603799134E+02  0.25652212946E+03  0.25947810235E+03  0.00000000000E+00 0. -1.
          2    1    1    2  501    0 -0.22606475235E+02  0.44659684613E+02 -0.49972638859E+03  0.50222704388E+03  0.00000000000E+00 0. -1.
<scales pt_clust_3="14000.00000" pt_clust_4="105.22490" pt_clust_5="39.05487" pt_clust_6="49.89321"></scales>
<clustering>
<clus scale="   39.055">  1  5  2 -1</clus>
<clus scale="   49.893">  2  6  1 -1</clus>
<clus scale="  105.225">  2  4  1 -1</clus>
<clus scale="   39.055">  1  3  2 -1</clus>
</clustering>
</event>
<event>
 6    0  0.2433432E+002  0.6384548E+02  0.7546771E-02  0.1382368E+00
          2   -1    0    0  505    0 -0.00000000000E+00  0.00000000000E+00  0.21274140403E+04  0.21274140403E+04  0.00000000000E+00 0.  1.
         21   -1    0    0  503  502  0.00000000000E+00 -0.00000000000E+00 -0.52483063536E+02  0.52483063536E+02  0.00000000000E+00 0. -1.
         21    1    1    2  503  501 -0.77383108930E+02 -0.11701460176E+00  0.40502183207E+02  0.87341777430E+02  0.00000000000E+00 0. -1.
         21    1    1    2  504  502  0.47380227463E+02 -0.43467837283E+01  0.23544406371E+02  0.53085963819E+02  0.00000000000E+00 0. -1.
         21    1    1    2  505  504  0.17934998280E+02 -0.58597987460E+02  0.54435284761E+02  0.81966996558E+02  0.00000000000E+00 0. -1.
          2    1    1    2  501    0  0.12067883186E+02  0.63061785790E+02  0.19564491024E+04  0.19575023660E+04  0.00000000000E+00 0.  1.
<scales pt_clust_3="48.04203" pt_clust_4="47.57920" pt_clust_5="63.84548" pt_clust_6="14000.00000"></scales>
<clustering>
<clus scale="   47.579">  2  4  1 -1</clus>
<clus scale="   48.042">  2  3  1 -1</clus>
<clus scale="   63.845">  2  5  1 -1</clus>
<clus scale="   47.579">  2  3  1 -1</clus>
</clustering>
</event>
<event>
 6    0  0.2433432E+002  0.1252087E+03  0.7546771E-02  0.1234744E+00
          1   -1    0    0  503    0 -0.00000000000E+00  0.00000000000E+00  0.60681374855E+03  0.60681374855E+03  0.00000000000E+00 0.  1.
         21   -1    0    0  505  502  0.00000000000E+00 -0.00000000000E+00 -0.83036178274E+02  0.83036178274E+02  0.00000000000E+00 0.  1.
         21    1    1    2  503  504 -0.54983925053E+02 -0.93702400746E+01  0.26901815182E+02  0.61925286220E+02  0.00000000000E+00 0.  1.
         21    1    1    2  504  502 -0.47749818216E+02 -0.41034794305E+02 -0.17162348633E+02  0.65256767419E+02  0.00000000000E+00 0.  1.
         21    1    1    2  505  501  0.71883765012E+02  0.92125439519E+02  0.12862588366E+03  0.17377856665E+03  0.00000000000E+00 0.  1.
          1    1    1    2  501    0  0.30849978257E+02 -0.41720405139E+02  0.38541222007E+03  0.38888930654E+03  0.00000000000E+00 0.  1.
<scales pt_clust_3="51.42876" pt_clust_4="51.42876" pt_clust_5="112.65736" pt_clust_6="51.88751"></scales>
<clustering>
<clus scale="   51.429">  3  4 -1 -1</clus>
<clus scale="   51.888">  1  6  2 -1</clus>
<clus scale="  112.657">  1  5  2 -1</clus>
<clus scale="  125.209">  2  3  1 -1</clus>
</clustering>
</event>
<event>
 6    0  0.2433432E+002  0.1281152E+03  0.7546771E-02  0.1230280E+00
          1   -1    0    0  503    0 -0.00000000000E+00  0.00000000000E+00  0.45028758714E+03  0.45028758714E+03  0.00000000000E+00 0.  1.
         21   -1    0    0  505  502  0.00000000000E+00 -0.00000000000E+00 -0.14165748503E+04  0.14165748503E+04  0.00000000000E+00 0.  1.
         21    1    1    2  503  502  0.56323251697E+02  0.21385769535E+02 -0.10057447605E+04  0.10075476084E+04  0.00000000000E+00 0.  1.
         21    1    1    2  504  501 -0.63704889068E+02  0.70679377497E+02 -0.15938611695E+03  0.18562818097E+03  0.00000000000E+00 0.  1.
         21    1    1    2  505  504  0.21973573002E+02  0.38943440416E+02 -0.22521573901E+03  0.22961175615E+03  0.00000000000E+00 0.  1.
          1    1    1    2  501    0 -0.14591935631E+02 -0.13100858745E+03  0.42405935330E+03  0.44407489198E+03  0.00000000000E+00 0.  1.
<scales pt_clust_3="92.56239" pt_clust_4="128.11519" pt_clust_5="44.71498" pt_clust_6="14000.00000"></scales>
<clustering>
<clus scale="   44.715">  2  5  1 -1</clus>
<clus scale="   92.562">  2  3  1 -1</clus>
<clus scale="  128.115">  2  4  1 -1</clus>
<clus scale="   44.715">  2  3  1 -1</clus>
</clustering>
</event>
<event>
 6    0  0.2433432E+002  0.1029391E+03  0.7546771E-02  0.1274234E+00
         21   -1    0    0  505  502  0.00000000000E+00  0.00000000000E+00  0.11917126076E+04  0.11917126076E+04  0.00000000000E+00 0. -1.
          2   -1    0    0  504    0 -0.00000000000E+00 -0.00000000000E+00 -0.55920796482E+03  0.55920796482E+03  0.00000000000E+00 0. -1.
         21    1    1    2  503  501 -0.59883260837E+02 -0.95999962222E+02 -0.11195697250E+03  0.15917399714E+03  0.00000000000E+00 0. -1.
         21    1    1    2  504  502  0.75837818522E+01  0.89332773388E+02  0.11573813348E+04  0.11608485742E+04  0.00000000000E+00 0. -1.
         21    1    1    2  505  503 -0.37334785291E-01 -0.41110410251E+02 -0.74035308479E+02  0.84683493825E+02  0.00000000000E+00 0. -1.
          2    1    1    2  501    0  0.52336813770E+02  0.47777599086E+02 -0.33888441098E+03  0.34621450728E+03  0.00000000000E+00 0. -1.
<scales pt_clust_3="30.03992" pt_clust_4="90.07128" pt_clust_5="30.03992" pt_clust_6="70.86495"></scales>
<clustering>
<clus scale="   30.040">  3  5 -1 -1</clus>
<clus scale="   70.865">  2  6  1 -1</clus>
<clus scale="   90.071">  1  4  2 -1</clus>
<clus scale="   90.071">  1  3  2 -1</clus>
</clustering>
</event>
<event>
 6    0  0.2433432E+002  0.1218826E+03  0.7546771E-02  0.1240023E+00
          1   -1    0    0  505    0 -0.00000000000E+00  0.00000000000E+00  0.12977022415E+04  0.12977022415E+04  0.00000000000E+00 0. -1.
         21   -1    0    0  504  502  0.00000000000E+00 -0.00000000000E+00 -0.17785209022E+03  0.17785209022E+03  0.00000000000E+00 0.  1.
         21    1    1    2  503  502  0.36733086540E+02  0.84260463385E+02  0.61013568904E+02  0.11032588512E+03  0.00000000000E+00 0.  1.
         21    1    1    2  504  501 -0.65892204064E+02 -0.88049510391E+02 -0.10909971714E+03  0.15491044870E+03  0.00000000000E+00 0.  1.
         21    1    1    2  505  503  0.37944559480E+02  0.34773910579E+02  0.10618946699E+02  0.52552606787E+02  0.00000000000E+00 0.  1.
          1    1    1    2  501    0 -0.87854419560E+01 -0.30984863573E+02  0.11573173528E+04  0.11577653911E+04  0.00000000000E+00 0. -1.
<scales pt_clust_3="30.41628" pt_clust_4="114.90476" pt_clust_5="30.41628" pt_clust_6="32.20630"></scales>
<clustering>
<clus scale="   30.416">  3  5 -1 -1</clus>
<clus scale="   32.206">  1  6  2 -1</clus>
<clus scale="  114.905">  2  4  1 -1</clus>
<clus scale="  114.905">  2  3  1 -1</clus>
</clustering>
</event>
<event>
 6    0  0.2433432E+002  0.9550524E+02  0.7546771E-02  0.1290042E+00
          2   -1    0    0  505    0 -0.00000000000E+00  0.00000000000E+00  0.36148291521E+03  0.36148291521E+03  0.00000000000E+00 0.  1.
         21   -1    0    0  503  502  0.00000000000E+00 -0.00000000000E+00 -0.75724017940E+02  0.75724017940E+02  0.00000000000E+00 0.  1.
         21    1    1    2  503  501 -0.20841743665E+02  0.10748164266E+03  0.13631130399E+03  0.17483550378E+03  0.00000000000E+00 0.  1.
         21    1    1    2  504  502  0.22583377796E+02 -0.41045781068E+02 -0.19231004893E+01  0.46887774650E+02  0.00000000000E+00 0.  1.
         21    1    1    2  505  504 -0.40529989549E+02 -0.74514926900E+02  0.33616734860E+02  0.91242749007E+02  0.00000000000E+00 0.  1.
          2    1    1    2  501    0  0.38788355418E+02  0.80790653057E+01  0.11775395891E+03  0.12424090571E+03  0.00000000000E+00 0.  1.
<scales pt_clust_3="95.50524" pt_clust_4="48.06523" pt_clust_5="14000.00000" pt_clust_6="39.62080"></scales>
<clustering>
<clus scale="   39.621">  1  6  2 -1</clus>
<clus scale="   48.065">  2  4  1 -1</clus>
<clus scale="   95.505">  1  3  2 -1</clus>
<clus scale="   48.065">  2  3  1 -1</clus>
</clustering>
</event>
<event>
 6    0  0.2433432E+002  0.1516673E+03  0.7546771E-02  0.1198439E+00
         21   -1    0    0  505  502  0.00000000000E+00  0.00000000000E+00  0.91372433269E+02  0.91372433269E+02  0.00000000000E+00 0.  1.
          2   -1    0    0  503    0 -0.00000000000E+00 -0.00000000000E+00 -0.25779166365E+04  0.25779166365E+04  0.00000000000E+00 0.  1.
         21    1    1    2  503  504  0.30263376013E+02 -0.79613175364E+02 -0.12037631262E+04  0.12067724697E+04  0.00000000000E+00 0.  1.
         21    1    1    2  504  502  0.36071320664E+02 -0.74243416265E+02 -0.54130821909E+03  0.54756535052E+03  0.00000000000E+00 0.  1.
         21    1    1    2  505  501 -0.92316754029E+02  0.36855542506E+02  0.52203904557E+02  0.11227627416E+03  0.00000000000E+00 0.  1.
          2    1    1    2  501    0  0.25982057352E+02  0.11700104912E+03 -0.79367676251E+03  0.80267497541E+03  0.00000000000E+00 0.  1.
<scales pt_clust_3="64.96630" pt_clust_4="64.96630" pt_clust_5="99.40178" pt_clust_6="136.55737"></scales>
<clustering>
<clus scale="   64.966">  3  4 -1 -1</clus>
<clus scale="   99.402">  1  5  2 -1</clus>
<clus scale="  136.557">  1  6  2 -1</clus>
<clus scale="   99.402">  1  3  2 -1</clus>
</clustering>
</event>
<event>
 6    0  0.2433432E+002  0.1909564E+03  0.7546771E-02  0.1157602E+00
         21   -1    0    0  504  502  0.00000000000E+00  0.00000000000E+00  0.22717244883E+03  0.22717244883E+03  0.00000000000E+00 0.  1.
          2   -1    0    0  505    0 -0.00000000000E+00 -0.00000000000E+00 -0.23578645111E+04  0.23578645111E+04  0.00000000000E+00 0. -1.
         21    1    1    2  503  501 -0.15516437444E+03 -0.35185488955E+02  0.51321681517E+02  0.16717630431E+03  0.00000000000E+00 0.  1.
         21    1    1    2  504  503 -0.24437915883E+02 -0.10790286446E+03  0.33987186720E+02  0.11573836336E+03  0.00000000000E+00 0.  1.
         21    1    1    2  505  502  0.33060055988E+02  0.17747607243E+02  0.29887323981E+02  0.47970793192E+02  0.00000000000E+00 0. -1.
          2    1    1    2  501    0  0.14654223434E+03  0.12534074617E+03 -0.22458882545E+04  0.22541514991E+04  0.00000000000E+00 0. -1.
<scales pt_clust_3="14000.00000" pt_clust_4="101.47483" pt_clust_5="37.52259" pt_clust_6="190.95640"></scales>
<clustering>
<clus scale="   37.523">  1  5  2 -1</clus>
<clus scale="  101.475">  1  4  2 -1</clus>
<clus scale="  190.956">  2  6  1 -1</clus>
<clus scale="   37.523">  1  3  2 -1</clus>
</clustering>
</event>
<event>
 6    0  0.2433432E+002  0.7498417E+02  0.7546771E-02  0.1343920E+00
         -4   -1    0    0    0  501 -0.00000000000E+00  0.00000000000E+00  0.13651640584E+03  0.13651640584E+03  0.00000000000E+00 0.  1.
         21   -1    0    0  504  502  0.00000000000E+00 -0.00000000000E+00 -0.70378801306E+03  0.70378801306E+03  0.00000000000E+00 0.  1.
         21    1    1    2  503  502  0.42100054929E+02 -0.22345625871E+02 -0.21375853578E+03  0.21900788396E+03  0.00000000000E+00 0.  1.
         21    1    1    2  504  505 -0.58687681360E+02  0.70786230208E+02 -0.30926606665E+03  0.32264598914E+03  0.00000000000E+00 0.  1.
         21    1    1    2  505  501  0.65169295292E+02 -0.68950649218E+02 -0.15171733326E+03  0.17893959396E+03  0.00000000000E+00 0.  1.
         -4    1    1    2    0  503 -0.48581668861E+02  0.20510044881E+02  0.10747032846E+03  0.11971095183E+03  0.00000000000E+00 0.  1.
<scales pt_clust_3="47.66279" pt_clust_4="14000.00000" pt_clust_5="74.98417" pt_clust_6="52.13754"></scales>
<clustering>
<clus scale="   47.663">  2  3  1 -1</clus>
<clus scale="   52.138">  1  6  2 -1</clus>
<clus scale="   74.984">  1  5  2 -1</clus>
<clus scale="   47.663">  2  3  1 -1</clus>
</clustering>
</event>
<event>
 6    0  0.2433432E+002  0.1114366E+03  0.7546771E-02  0.1257932E+00
         21   -1    0    0  505  502  0.00000000000E+00  0.00000000000E+00  0.91334145771E+02  0.91334145771E+02  0.00000000000E+00 0.  1.
          1   -1    0    0  504    0 -0.00000000000E+00 -0.00000000000E+00 -0.32473761976E+04  0.32473761976E+04  0.00000000000E+00 0.  1.
         21    1    1    2  503  502  0.60553983226E+02  0.13440094904E+02 -0.16979829723E+02  0.64309685530E+02  0.00000000000E+00 0.  1.
         21    1    1    2  504  503  0.11316002829E+03 -0.31895068894E+02 -0.16621557726E+03  0.20359298993E+03  0.00000000000E+00 0.  1.
         21    1    1    2  505  501 -0.62497355839E+02  0.25631414996E+02  0.24152361176E+02  0.71737197268E+02  0.00000000000E+00 0.  1.
          1    1    1    2  501    0 -0.11121665568E+03 -0.71764410056E+01 -0.29969990061E+04  0.29990704707E+04  0.00000000000E+00 0.  1.
<scales pt_clust_3="62.02758" pt_clust_4="14000.00000" pt_clust_5="40.24573" pt_clust_6="111.43661"></scales>
<clustering>
<clus scale="   62.028">  1  3  2 -1</clus>
<clus scale="   40.246">  1  5  2 -1</clus>
<clus scale="  111.437">  2  6  1 -1</clus>
<clus scale="   62.028">  1  3  2 -1</clus>
</clustering>
</event>
<event>
 6    0  0.2433432E+002  0.8854652E+02  0.7546771E-02  0.1306410E+00
         21   -1    0    0  503  502  0.00000000000E+00  0.00000000000E+00  0.17529801864E+04  0.17529801864E+04  0.00000000000E+00 0. -1.
          2   -1    0    0  504    0 -0.00000000000E+00 -0.00000000000E+00 -0.13655897882E+02  0.13655897882E+02  0.00000000000E+00 0. -1.
         21    1    1    2  503  501 -0.43486125659E+02  0.72551438560E+02  0.10054966659E+04  0.10090482147E+04  0.00000000000E+00 0. -1.
         21    1    1    2  504  505  0.32270391825E+02 -0.45395107231E+01  0.88103507290E+02  0.93937284094E+02  0.00000000000E+00 0. -1.
         21    1    1    2  505  502  0.94195761348E+01 -0.10808531771E+03  0.53484672146E+03  0.54574002948E+03  0.00000000000E+00 0. -1.
          2    1    1    2  501    0  0.17961576994E+01  0.40073389869E+02  0.11087739384E+03  0.11791055603E+03  0.00000000000E+00 0. -1.
<scales pt_clust_3="88.54652" pt_clust_4="32.58812" pt_clust_5="14000.00000" pt_clust_6="40.51914"></scales>
<clustering>
<clus scale="   32.588">  2  4  1 -1</clus>
<clus scale="   40.519">  2  6  1 -1</clus>
<clus scale="   88.547">  1  3  2 -1</clus>
<clus scale="   88.547">  1  3  2 -1</clus>
</clustering>
</event>
<event>
 6    0  0.2433432E+002  0.1128262E+03  0.7546771E-02  0.1255424E+00
          1   -1    0    0  504    0 -0.00000000000E+00  0.00000000000E+00  0.26075396371E+03  0.26075396371E+03  0.00000000000E+00 0. -1.
         21   -1    0    0  505  502  0.00000000000E+00 -0.00000000000E+00 -0.17229947524E+03  0.17229947524E+03  0.00000000000E+00 0.  1.
         21    1    1    2  503  501  0.65658100697E+02 -0.13013856742E+02  0.32840955129E+02  0.74557863356E+02  0.00000000000E+00 0.  1.
         21    1    1    2  504  502 -0.35754156161E+02  0.97451217653E+02 -0.33721240886E+02  0.10914312435E+03  0.00000000000E+00 0.  1.
         21    1    1    2  505  503 -0.38164447819E+01 -0.13241289174E+03 -0.13259069779E+02  0.13312979412E+03  0.00000000000E+00 0.  1.
          1    1    1    2  501    0 -0.26087499754E+02  0.47975530830E+02  0.10259384400E+03  0.11622265713E+03  0.00000000000E+00 0. -1.
<scales pt_clust_3="56.54418" pt_clust_4="112.82623" pt_clust_5="14000.00000" pt_clust_6="54.60961"></scales>
<clustering>
<clus scale="   54.610">  1  6  2 -1</clus>
<clus scale="   56.544">  1  3  2 -1</clus>
<clus scale="  112.826">  2  4  1 -1</clus>
<clus scale="  112.826">  2  3  1 -1</clus>
</clustering>
</event>
<event>
 6    0  0.2433432E+002  0.1281245E+03  0.7546771E-02  0.1230265E+00
          2   -1    0    0  503    0 -0.00000000000E+00  0.00000000000E+00  0.11956526311E+04  0.11956526311E+04  0.00000000000E+00 0. -1.
         21   -1    0    0  504  502  0.00000000000E+00 -0.00000000000E+00 -0.11506888222E+03  0.11506888222E+03  0.00000000000E+00 0. -1.
         21    1    1    2  503  505 -0.55078729164E+02 -0.53160526859E+02  0.59636312887E+02  0.97037095160E+02  0.00000000000E+00 0. -1.
         21    1    1    2  504  501 -0.38280338055E+02 -0.42171707006E+02 -0.49533147052E+02  0.75480923486E+02  0.00000000000E+00 0. -1.
         21    1    1    2  505  502 -0.24893522776E+02  0.18685427421E+02 -0.21074603641E+02  0.37589514399E+02  0.00000000000E+00 0. -1.
          2    1    1    2  501    0  0.11825259000E+03  0.76646806444E+02  0.10915551867E+04  0.11006139802E+04  0.00000000000E+00 0. -1.
<scales pt_clust_3="128.12452" pt_clust_4="63.23995" pt_clust_5="31.12608" pt_clust_6="14000.00000"></scales>
<clustering>
<clus scale="   31.126">  2  5  1 -1</clus>
<clus scale="   63.240">  2  4  1 -1</clus>
<clus scale="  128.125">  2  3  1 -1</clus>
<clus scale="   31.126">  2  3  1 -1</clus>
</clustering>
</event>
<event>
 6    0  0.2433432E+002  0.9059283E+02  0.7546771E-02  0.1301422E+00
         21   -1    0    0  504  502  0.00000000000E+00  0.00000000000E+00  0.14883163725E+04  0.14883163725E+04  0.00000000000E+00 0.  1.
          2   -1    0    0  505    0 -0.00000000000E+00 -0.00000000000E+00 -0.54867323638E+03  0.54867323638E+03  0.00000000000E+00 0. -1.
         21    1    1    2  503  502 -0.94418011797E+02  0.15771787873E+02  0.12616615169E+04  0.12652878303E+04  0.00000000000E+00 0.  1.
         21    1    1    2  504  501  0.25744050529E+02 -0.27009653495E+02  0.61219551578E+02  0.71694567542E+02  0.00000000000E+00 0.  1.
         21    1    1    2  505  503  0.25749568766E+02  0.91632402148E+02  0.13977945605E+03  0.16910894048E+03  0.00000000000E+00 0.  1.
          2    1    1    2  501    0  0.42924392501E+02 -0.80394536526E+02 -0.52301738848E+03  0.53089827051E+03  0.00000000000E+00 0. -1.
<scales pt_clust_3="72.01339" pt_clust_4="37.31324" pt_clust_5="14000.00000" pt_clust_6="90.59283"></scales>
<clustering>
<clus scale="   37.313">  1  4  2 -1</clus>
<clus scale="   72.013">  1  3  2 -1</clus>
<clus scale="   90.593">  2  6  1 -1</clus>
<clus scale="   37.313">  1  3  2 -1</clus>
</clustering>
</event>
<event>
 6    0  0.2433432E+002  0.1980149E+03  0.7546771E-02  0.1151425E+00
         21   -1    0    0  501  502  0.00000000000E+00  0.00000000000E+00  0.80154572788E+03  0.80154572788E+03  0.00000000000E+00 0.  1.
          4   -1    0    0  504    0 -0.00000000000E+00 -0.00000000000E+00 -0.75354613783E+02  0.75354613783E+02  0.00000000000E+00 0.  1.
         21    1    1    2  503  505 -0.10244154762E+03 -0.22064481622E+02  0.27378118585E+03  0.29315055817E+03  0.00000000000E+00 0.  1.
         21    1    1    2  504  503 -0.10764249122E+03 -0.18365565839E+02  0.17254621277E+03  0.20419695264E+03  0.00000000000E+00 0.  1.
         21    1    1    2  505  502  0.28898871832E+02  0.96377030625E+01  0.15356140375E+03  0.15655393587E+03  0.00000000000E+00 0.  1.
          4    1    1    2  501    0  0.18118516701E+03  0.30792344398E+02  0.12630231173E+03  0.22299889499E+03  0.00000000000E+00 0.  1.
<scales pt_clust_3="46.53714" pt_clust_4="46.53714" pt_clust_5="30.46359" pt_clust_6="191.92023"></scales>
<clustering>
<clus scale="   30.464">  1  5  2 -1</clus>
<clus scale="   46.537">  3  4 -1 -1</clus>
<clus scale="  191.920">  2  6  1 -1</clus>
<clus scale="   30.464">  1  3  2 -1</clus>
</clustering>
</event>
<event>
 6    0  0.2433432E+002  0.9146434E+02  0.7546771E-02  0.1299344E+00
         21   -1    0    0  501  502  0.00000000000E+00  0.00000000000E+00  0.31352976787E+02  0.31352976787E+02  0.00000000000E+00 0.  1.
          2   -1    0    0  503    0 -0.00000000000E+00 -0.00000000000E+00 -0.30289751173E+04  0.30289751173E+04  0.00000000000E+00 0.  1.
         21    1    1    2  503  504 -0.82428657429E+02  0.80346134328E+02 -0.92793106055E+03  0.93504333483E+03  0.00000000000E+00 0.  1.
         21    1    1    2  504  505  0.93476996539E+01 -0.12328180841E+03 -0.16617355797E+03  0.20712178819E+03  0.00000000000E+00 0.  1.
         21    1    1    2  505  502  0.12014917020E+02  0.43651808291E+02 -0.68383416649E+02  0.82012988427E+02  0.00000000000E+00 0.  1.
          2    1    1    2  501    0  0.61066040756E+02 -0.71613420692E+00 -0.18351341054E+04  0.18361499827E+04  0.00000000000E+00 0.  1.
<scales pt_clust_3="91.46434" pt_clust_4="14000.00000" pt_clust_5="45.27514" pt_clust_6="61.31504"></scales>
<clustering>
<clus scale="   45.275">  1  5  2 -1</clus>
<clus scale="   61.315">  2  6  1 -1</clus>
<clus scale="   91.464">  2  3  1 -1</clus>
<clus scale="   45.275">  1  3  2 -1</clus>
</clustering>
</event>
<event>
 6    0  0.2433432E+002  0.1463734E+03  0.7546771E-02  0.1205002E+00
         -3   -1    0    0    0  501 -0.00000000000E+00  0.00000000000E+00  0.13825303022E+04  0.13825303022E+04  0.00000000000E+00 0.  1.
         21   -1    0    0  503  502  0.00000000000E+00 -0.00000000000E+00 -0.22863310591E+02  0.22863310591E+02  0.00000000000E+00 0.  1.
         21    1    1    2  503  505  0.62729241870E+02  0.34524284852E+02  0.18344293588E+03  0.19692179857E+03  0.00000000000E+00 0.  1.
         21    1    1    2  504  502  0.68599035729E+01 -0.33711513585E+02  0.69526289805E+02  0.77572091626E+02  0.00000000000E+00 0.  1.
         21    1    1    2  505  501  0.72981781369E+02 -0.43991394203E+01  0.19778782766E+03  0.21086895838E+03  0.00000000000E+00 0.  1.
         -3    1    1    2    0  504 -0.14257092681E+03  0.35863681531E+01  0.90890993823E+03  0.92003076417E+03  0.00000000000E+00 0.  1.
<scales pt_clust_3="38.20390" pt_clust_4="34.40239" pt_clust_5="38.20390" pt_clust_6="140.69031"></scales>
<clustering>
<clus scale="   34.402">  2  4  1 -1</clus>
<clus scale="   38.204">  3  5 -1 -1</clus>
<clus scale="  140.690">  1  6  2 -1</clus>
<clus scale="   34.402">  2  3  1 -1</clus>
</clustering>
</event>
<event>
 6    0  0.2433432E+002  0.8541624E+02  0.7546771E-02  0.1314348E+00
          1   -1    0    0  505    0 -0.00000000000E+00  0.00000000000E+00  0.74207162952E+02  0.74207162952E+02  0.00000000000E+00 0.  1.
         21   -1    0    0  504  502  0.00000000000E+00 -0.00000000000E+00 -0.16479637145E+04  0.16479637145E+04  0.00000000000E+00 0. -1.
         21    1    1    2  503  501  0.52873139195E+02 -0.51822733680E+02 -0.46603507950E+03  0.47187907339E+03  0.00000000000E+00 0. -1.
         21    1    1    2  504  503  0.27656811138E+02 -0.36938468347E+02 -0.96587173131E+03  0.96697339725E+03  0.00000000000E+00 0. -1.
         21    1    1    2  505  502  0.52301823654E+01  0.74401864355E+02 -0.17502212764E+03  0.19025177369E+03  0.00000000000E+00 0. -1.
          1    1    1    2  501    0 -0.85760132698E+02  0.14359337672E+02  0.33172386946E+02  0.93066633088E+02  0.00000000000E+00 0.  1.
<scales pt_clust_3="85.41624" pt_clust_4="46.14488" pt_clust_5="65.73032" pt_clust_6="14000.00000"></scales>
<clustering>
<clus scale="   46.145">  2  4  1 -1</clus>
<clus scale="   65.730">  2  5  1 -1</clus>
<clus scale="   85.416">  2  3  1 -1</clus>
<clus scale="   46.145">  2  3  1 -1</clus>
</clustering>
</event>
<event>
 6    0  0.2433432E+002  0.3876580E+03  0.7546771E-02  0.1048139E+00
          2   -1    0    0  503    0 -0.00000000000E+00  0.00000000000E+00  0.99097544072E+03  0.99097544072E+03  0.00000000000E+00 0. -1.
         21   -1    0    0  505  502  0.00000000000E+00 -0.00000000000E+00 -0.33982864820E+03  0.33982864820E+03  0.00000000000E+00 0. -1.
         21    1    1    2  503  502 -0.11608135166E+03  0.10385934524E+03 -0.10614695651E+01  0.15576511328E+03  0.00000000000E+00 0. -1.
         21    1    1    2  504  501  0.12434981725E+03 -0.13489873318E+03  0.19232277789E+02  0.18447337416E+03  0.00000000000E+00 0.  1.
         21    1    1    2  505  504  0.19379494547E+03 -0.26070487683E+03  0.81739916760E+02  0.33497003998E+03  0.00000000000E+00 0. -1.
          2    1    1    2  501    0 -0.20206341106E+03  0.29174426477E+03  0.55123606753E+03  0.65559556151E+03  0.00000000000E+00 0. -1.
<scales pt_clust_3="155.76150" pt_clust_4="32.82510" pt_clust_5="32.82510" pt_clust_6="385.18949"></scales>
<clustering>
<clus scale="   32.825">  4  5 -1 -1</clus>
<clus scale="  155.761">  2  3  1 -1</clus>
<clus scale="  385.189">  1  6  2 -1</clus>
<clus scale="  155.761">  2  3  1 -1</clus>
</clustering>
</event>
<event>
 6    0  0.2433432E+002  0.1262323E+03  0.7546771E-02  0.1233156E+00
         21   -1    0    0  504  502  0.00000000000E+00  0.00000000000E+00  0.13386561427E+03  0.13386561427E+03  0.00000000000E+00 0. -1.
          2   -1    0    0  503    0 -0.00000000000E+00 -0.00000000000E+00 -0.12634335298E+04  0.12634335298E+04  0.00000000000E+00 0. -1.
         21    1    1    2  503  505 -0.55493369596E+02  0.61445081816E+02 -0.11189009456E+03  0.13919197322E+03  0.00000000000E+00 0. -1.
         21    1    1    2  504  501  0.16311862477E+03 -0.71249825007E+02 -0.58627659885E+01  0.17809715140E+03  0.00000000000E+00 0. -1.
         21    1    1    2  505  502 -0.35739259437E+02  0.53304467505E+01  0.22907388874E+02  0.42783837985E+02  0.00000000000E+00 0. -1.
          2    1    1    2  501    0 -0.71885995741E+02  0.44742964413E+01 -0.10347224438E+04  0.10372261814E+04  0.00000000000E+00 0. -1.
<scales pt_clust_3="126.23226" pt_clust_4="14000.00000" pt_clust_5="36.13459" pt_clust_6="72.47125"></scales>
<clustering>
<clus scale="   36.135">  1  5  2 -1</clus>
<clus scale="   72.471">  2  6  1 -1</clus>
<clus scale="  126.232">  2  3  1 -1</clus>
<clus scale="   36.135">  1  3  2 -1</clus>
</clustering>
</event>
<event>
 6    0  0.2433432E+002  0.1041424E+03  0.7546771E-02  0.1271819E+00
          2   -1    0    0  504    0 -0.00000000000E+00  0.00000000000E+00  0.20903530196E+04  0.20903530196E+04  0.00000000000E+00 0.  1.
         21   -1    0    0  503  502  0.00000000000E+00 -0.00000000000E+00 -0.21810412393E+02  0.21810412393E+02  0.00000000000E+00 0.  1.
         21    1    1    2  503  501  0.47210385022E+02  0.16174101127E+02  0.82514916395E+02  0.96432014543E+02  0.00000000000E+00 0.  1.
         21    1    1    2  504  505  0.28000905175E+02  0.37513201606E+02  0.23706493318E+03  0.24164244977E+03  0.00000000000E+00 0.  1.
         21    1    1    2  505  502  0.14576623725E+02  0.28912728538E+02  0.14733987849E+02  0.35574066799E+02  0.00000000000E+00 0.  1.
          2    1    1    2  501    0 -0.89787913922E+02 -0.82600031271E+02  0.17342287698E+04  0.17385149009E+04  0.00000000000E+00 0.  1.
<scales pt_clust_3="104.14237" pt_clust_4="53.23091" pt_clust_5="32.37937" pt_clust_6="14000.00000"></scales>
<clustering>
<clus scale="   32.379">  2  5  1 -1</clus>
<clus scale="   53.231">  2  4  1 -1</clus>
<clus scale="  104.142">  2  3  1 -1</clus>
<clus scale="   32.379">  2  3  1 -1</clus>
</clustering>
</event>
<event>
 6    0  0.2433432E+002  0.1437392E+03  0.7546771E-02  0.1208384E+00
          2   -1    0    0  504    0 -0.00000000000E+00  0.00000000000E+00  0.13994492804E+04  0.13994492804E+04  0.00000000000E+00 0.  1.
         21   -1    0    0  505  502  0.00000000000E+00 -0.00000000000E+00 -0.35566936969E+03  0.35566936969E+03  0.00000000000E+00 0. -1.
         21    1    1    2  503  502  0.17145722934E+01  0.54429097990E+02 -0.95868564631E+02  0.11025537697E+03  0.00000000000E+00 0.  1.
         21    1    1    2  504  503 -0.17943878647E+03 -0.64510159218E+02 -0.12263205892E+03  0.22671228597E+03  0.00000000000E+00 0. -1.
         21    1    1    2  505  501  0.11166243668E+03 -0.32944685683E+02 -0.32579105736E+02  0.12089354908E+03  0.00000000000E+00 0.  1.
          2    1    1    2  501    0  0.66061777503E+02  0.43025746911E+02  0.12948596400E+04  0.12972574381E+04  0.00000000000E+00 0.  1.
<scales pt_clust_3="54.45610" pt_clust_4="143.73924" pt_clust_5="14000.00000" pt_clust_6="78.98572"></scales>
<clustering>
<clus scale="   54.456">  2  3  1 -1</clus>
<clus scale="   78.986">  1  6  2 -1</clus>
<clus scale="  143.739">  1  4  2 -1</clus>
<clus scale="   54.456">  2  3  1 -1</clus>
</clustering>
</event>
<event>
 6    0  0.2433432E+002  0.1280229E+03  0.7546771E-02  0.1230419E+00
         -2   -1    0    0    0  501 -0.00000000000E+00  0.00000000000E+00  0.11606858066E+03  0.11606858066E+03  0.00000000000E+00 0. -1.
         21   -1    0    0  505  502  0.00000000000E+00 -0.00000000000E+00 -0.27944934577E+03  0.27944934577E+03  0.00000000000E+00 0.  1.
         21    1    1    2  503  502  0.34931275637E+02  0.34880819825E+02 -0.40112138495E+01  0.49527320196E+02  0.00000000000E+00 0.  1.
         21    1    1    2  504  503  0.66839983937E+02  0.71088436916E+02 -0.11899368449E+03  0.15388517233E+03  0.00000000000E+00 0.  1.
         21    1    1    2  505  501 -0.43127475820E+02 -0.78796032213E+02 -0.76565558814E+02  0.11802999051E+03  0.00000000000E+00 0. -1.
         -2    1    1    2    0  504 -0.58643783754E+02 -0.27173224528E+02  0.36189692044E+02  0.74075443397E+02  0.00000000000E+00 0. -1.
<scales pt_clust_3="48.55212" pt_clust_4="48.55212" pt_clust_5="108.30655" pt_clust_6="64.63341"></scales>
<clustering>
<clus scale="   48.552">  3  4 -1 -1</clus>
<clus scale="   64.633">  1  6  2 -1</clus>
<clus scale="  108.307">  2  5  1 -1</clus>
<clus scale="  108.307">  2  3  1 -1</clus>
</clustering>
</event>
<event>
 6    0  0.2433432E+002  0.8849251E+02  0.7546771E-02  0.1306544E+00
         21   -1    0    0  504  502  0.00000000000E+00  0.00000000000E+00  0.30224797921E+02  0.30224797921E+02  0.00000000000E+00 0.  1.
          2   -1    0    0  503    0 -0.00000000000E+00 -0.00000000000E+00 -0.15572044569E+04  0.15572044569E+04  0.00000000000E+00 0.  1.
         21    1    1    2  503  505  0.38469290467E+02 -0.91155445799E+01 -0.16768643926E+03  0.17228383956E+03  0.00000000000E+00 0. -1.
         21    1    1    2  504  501  0.49884199006E+02 -0.57222493367E+02 -0.13496387626E+03  0.15484861947E+03  0.00000000000E+00 0.  1.
         21    1    1    2  505  502 -0.11006403900E+03 -0.15693181769E+02 -0.17361420089E+03  0.20616076102E+03  0.00000000000E+00 0.  1.
          2    1    1    2  501    0  0.21710549522E+02  0.82031219717E+02 -0.10507151425E+04  0.10541360347E+04  0.00000000000E+00 0.  1.
<scales pt_clust_3="39.53454" pt_clust_4="79.30818" pt_clust_5="88.49251" pt_clust_6="14000.00000"></scales>
<clustering>
<clus scale="   39.535">  2  3  1 -1</clus>
<clus scale="   79.308">  1  4  2 -1</clus>
<clus scale="   88.493">  1  5  2 -1</clus>
<clus scale="   79.308">  1  3  2 -1</clus>
</clustering>
</event>
<event>
 6    0  0.2433432E+002  0.2058467E+03  0.7546771E-02  0.1144898E+00
         21   -1    0    0  504  502  0.00000000000E+00  0.00000000000E+00  0.13149250825E+04  0.13149250825E+04  0.00000000000E+00 0.  1.
          2   -1    0    0  503    0 -0.00000000000E+00 -0.00000000000E+00 -0.66774088665E+03  0.66774088665E+03  0.00000000000E+00 0. -1.
         21    1    1    2  503  505 -0.29399711331E+02 -0.50707246426E+02  0.20044532793E+03  0.20883940566E+03  0.00000000000E+00 0.  1.
         21    1    1    2  504  501  0.41058157157E+02  0.13136365680E+03  0.95857799983E+02  0.16772268903E+03  0.00000000000E+00 0.  1.
         21    1    1    2  505  502 -0.78066265726E+01 -0.15462773835E+03  0.97014714297E+03  0.98242361530E+03  0.00000000000E+00 0.  1.
          2    1    1    2  501    0 -0.38518192539E+01  0.73971327970E+02 -0.61926607508E+03  0.62368025912E+03  0.00000000000E+00 0. -1.
<scales pt_clust_3="44.68411" pt_clust_4="192.61043" pt_clust_5="44.68411" pt_clust_6="74.07155"></scales>
<clustering>
<clus scale="   44.684">  3  5 -1 -1</clus>
<clus scale="   74.072">  2  6  1 -1</clus>
<clus scale="  192.610">  2  4  1 -1</clus>
<clus scale="  205.847">  1  3  2 -1</clus>
</clustering>
</event>
<event>
 6    0  0.2433432E+002  0.1698430E+03  0.7546771E-02  0.1178012E+00
          4   -1    0    0  505    0 -0.00000000000E+00  0.00000000000E+00  0.11994238012E+03  0.11994238012E+03  0.00000000000E+00 0. -1.
         21   -1    0    0  504  502  0.00000000000E+00 -0.00000000000E+00 -0.70770511475E+03  0.70770511475E+03  0.00000000000E+00 0. -1.
         21    1    1    2  503  502 -0.12219458752E+03  0.14179384106E+03 -0.22481464986E+03  0.29253826651E+03  0.00000000000E+00 0. -1.
         21    1    1    2  504  501 -0.13433614062E+01 -0.30512778213E+02 -0.33851132203E+03  0.33988637719E+03  0.00000000000E+00 0. -1.
         21    1    1    2  505  503  0.28663579877E+02  0.17595529266E+02 -0.31367222961E+01  0.33779320424E+02  0.00000000000E+00 0. -1.
          4    1    1    2  501    0  0.94874369054E+02 -0.12887659211E+03 -0.21300040438E+02  0.16144353075E+03  0.00000000000E+00 0. -1.
<scales pt_clust_3="14000.00000" pt_clust_4="30.54234" pt_clust_5="32.80095" pt_clust_6="169.84299"></scales>
<clustering>
<clus scale="   30.542">  2  4  1 -1</clus>
<clus scale="   32.801">  1  5  2 -1</clus>
<clus scale="  169.843">  1  6  2 -1</clus>
<clus scale="   30.542">  2  3  1 -1</clus>
</clustering>
</event>
<event>
 6    0  0.2433432E+002  0.1385419E+03  0.7546771E-02  0.1215304E+00
         21   -1    0    0  504  502  0.00000000000E+00  0.00000000000E+00  0.28014508214E+03  0.28014508214E+03  0.00000000000E+00 0.  1.
          1   -1    0    0  503    0 -0.00000000000E+00 -0.00000000000E+00 -0.39632919915E+03  0.39632919915E+03  0.00000000000E+00 0.  1.
         21    1    1    2  503  502 -0.10735523657E+03 -0.27550457529E+02 -0.14019284477E+03  0.17871264157E+03  0.00000000000E+00 0. -1.
         21    1    1    2  504  505  0.33204597759E+02  0.11915457361E+02  0.12468748831E+03  0.12958199403E+03  0.00000000000E+00 0.  1.
         21    1    1    2  505  501  0.80535655175E+02  0.10022146842E+03  0.91705133818E+02  0.15792455811E+03  0.00000000000E+00 0.  1.
          1    1    1    2  501    0 -0.63850163603E+01 -0.84586468248E+02 -0.19238389436E+03  0.21025508758E+03  0.00000000000E+00 0.  1.
<scales pt_clust_3="138.54195" pt_clust_4="35.27780" pt_clust_5="14000.00000" pt_clust_6="84.00835"></scales>
<clustering>
<clus scale="   35.278">  1  4  2 -1</clus>
<clus scale="   84.008">  2  6  1 -1</clus>
<clus scale="  138.542">  2  3  1 -1</clus>
<clus scale="   35.278">  1  3  2 -1</clus>
</clustering>
</event>
<event>
 6    0  0.2433432E+002  0.1136158E+03  0.7546771E-02  0.1254017E+00
         21   -1    0    0  505  502  0.00000000000E+00  0.00000000000E+00  0.18578635122E+03  0.18578635122E+03  0.00000000000E+00 0. -1.
          2   -1    0    0  504    0 -0.00000000000E+00 -0.00000000000E+00 -0.11621472249E+04  0.11621472249E+04  0.00000000000E+00 0. -1.
         21    1    1    2  503  502 -0.51740006218E+02 -0.98240408511E+02  0.12356736184E+03  0.16612374611E+03  0.00000000000E+00 0.  1.
         21    1    1    2  504  503  0.37983994806E+02  0.13027680656E+03 -0.13414714971E+03  0.19081480017E+03  0.00000000000E+00 0. -1.
         21    1    1    2  505  501  0.44127425851E+02 -0.16390664586E+02 -0.32764751078E+02  0.57353400169E+02  0.00000000000E+00 0. -1.
          2    1    1    2  501    0 -0.30371414439E+02 -0.15645733466E+02 -0.93301633469E+03  0.93364162963E+03  0.00000000000E+00 0. -1.
<scales pt_clust_3="113.61577" pt_clust_4="14000.00000" pt_clust_5="42.82887" pt_clust_6="34.16448"></scales>
<clustering>
<clus scale="   34.164">  2  6  1 -1</clus>
<clus scale="   42.829">  2  5  1 -1</clus>
<clus scale="  113.616">  1  3  2 -1</clus>
<clus scale="  113.616">  1  3  2 -1</clus>
</clustering>
</event>
<event>
 6    0  0.3439092E+002  0.6145895E+02  0.7546771E-02  0.1391809E+00
         21   -1    0    0  503  502  0.00000000000E+00  0.00000000000E+00  0.75080492131E+03  0.75080492131E+03  0.00000000000E+00 0.  1.
          1   -1    0    0  504    0 -0.00000000000E+00 -0.00000000000E+00 -0.79270804983E+03  0.79270804983E+03  0.00000000000E+00 0. -1.
         21    1    1    2  503  501 -0.11361930636E+03  0.22618835556E+02  0.60805959145E+03  0.61899711247E+03  0.00000000000E+00 0.  1.
         21    1    1    2  504  505  0.30260798956E+02 -0.36785409180E+02  0.24885350972E+02  0.53741631674E+02  0.00000000000E+00 0.  1.
         21    1    1    2  505  502  0.22813140811E+02  0.24074805420E+02  0.93898243271E+02  0.99583712218E+02  0.00000000000E+00 0. -1.
          1    1    1    2  501    0  0.60545366594E+02 -0.99082317963E+01 -0.76874631420E+03  0.77119051477E+03  0.00000000000E+00 0. -1.
<scales pt_clust_3="61.45895" pt_clust_4="47.42767" pt_clust_5="33.16679" pt_clust_6="14000.00000"></scales>
<clustering>
<clus scale="   33.167">  1  5  2 -1</clus>
<clus scale="   47.428">  1  4  2 -1</clus>
<clus scale="   61.459">  1  3  2 -1</clus>
<clus scale="   33.167">  1  3  2 -1</clus>
</clustering>
</event>
<event>
 6    0  0.2433432E+002  0.1235546E+03  0.7546771E-02  0.1237346E+00
          1   -1    0    0  504    0 -0.00000000000E+00  0.00000000000E+00  0.12421958163E+04  0.12421958163E+04  0.00000000000E+00 0.  1.
         21   -1    0    0  501  502  0.00000000000E+00 -0.00000000000E+00 -0.35833252218E+03  0.35833252218E+03  0.00000000000E+00 0. -1.
         21    1    1    2  503  505  0.36041516941E+02 -0.43540803486E+02  0.42327979200E+03  0.42703697127E+03  0.00000000000E+00 0. -1.
         21    1    1    2  504  503 -0.26213505685E+02 -0.32130196290E+02  0.45932373113E+03  0.46119170350E+03  0.00000000000E+00 0.  1.
         21    1    1    2  505  502 -0.12361741164E+03  0.10170978849E+02 -0.33183722251E+03  0.35426071686E+03  0.00000000000E+00 0. -1.
          1    1    1    2  501    0  0.11378940038E+03  0.65500020926E+02  0.33309699347E+03  0.35803894682E+03  0.00000000000E+00 0.  1.
<scales pt_clust_3="64.78469" pt_clust_4="41.46682" pt_clust_5="123.55458" pt_clust_6="14000.00000"></scales>
<clustering>
<clus scale="   41.467">  1  4  2 -1</clus>
<clus scale="   64.785">  1  3  2 -1</clus>
<clus scale="  123.555">  2  5  1 -1</clus>
<clus scale="  123.555">  2  3  1 -1</clus>
</clustering>
</event>
<event>
 6    0  0.2433432E+002  0.1053205E+03  0.7546771E-02  0.1269489E+00
         -2   -1    0    0    0  501 -0.00000000000E+00  0.00000000000E+00  0.10190309982E+03  0.10190309982E+03  0.00000000000E+00 0. -1.
         21   -1    0    0  505  502  0.00000000000E+00 -0.00000000000E+00 -0.21008813678E+04  0.21008813678E+04  0.00000000000E+00 0.  1.
         21    1    1    2  503  502  0.60296497245E+02  0.15197677001E+02 -0.12464200388E+04  0.12479701719E+04  0.00000000000E+00 0.  1.
         21    1    1    2  504  501 -0.43915416368E+02  0.51257975505E+00 -0.90515309863E+02  0.10060739462E+03  0.00000000000E+00 0. -1.
         21    1    1    2  505  504  0.44718038247E+02 -0.58528132945E+02 -0.74153632671E+03  0.74518545955E+03  0.00000000000E+00 0.  1.
         -2    1    1    2    0  503 -0.61099119125E+02  0.42817876189E+02  0.79493407410E+02  0.10902144147E+03  0.00000000000E+00 0. -1.
<scales pt_clust_3="61.84259" pt_clust_4="43.91841" pt_clust_5="14000.00000" pt_clust_6="105.32049"></scales>
<clustering>
<clus scale="   43.918">  1  4  2 -1</clus>
<clus scale="   61.843">  2  3  1 -1</clus>
<clus scale="  105.320">  1  6  2 -1</clus>
<clus scale="   61.843">  2  3  1 -1</clus>
</clustering>
</event>
<event>
 6    0  0.2433432E+002  0.1749542E+03  0.7546771E-02  0.1172778E+00
          1   -1    0    0  504    0 -0.00000000000E+00  0.00000000000E+00  0.40875171515E+03  0.40875171515E+03  0.00000000000E+00 0. -1.
         21   -1    0    0  503  502  0.00000000000E+00 -0.00000000000E+00 -0.10182514182E+04  0.10182514182E+04  0.00000000000E+00 0. -1.
         21    1    1    2  503  505  0.14100498237E+02  0.73602624446E+02 -0.12816626223E+03  0.14846804757E+03  0.00000000000E+00 0. -1.
         21    1    1    2  504  502  0.67399619766E+02 -0.13821591467E+03 -0.69469433845E+03  0.71151006437E+03  0.00000000000E+00 0. -1.
         21    1    1    2  505  501 -0.55818108408E+02  0.11574491289E+03 -0.15095554984E+03  0.19824258905E+03  0.00000000000E+00 0. -1.
          1    1    1    2  501    0 -0.25682009595E+02 -0.51131622664E+02  0.36431644752E+03  0.36878243231E+03  0.00000000000E+00 0. -1.
<scales pt_clust_3="52.39048" pt_clust_4="160.94271" pt_clust_5="52.39048" pt_clust_6="57.21895"></scales>
<clustering>
<clus scale="   52.390">  3  5 -1 -1</clus>
<clus scale="   57.219">  1  6  2 -1</clus>
<clus scale="  160.943">  2  4  1 -1</clus>
<clus scale="  160.943">  2  3  1 -1</clus>
</clustering>
</event>
<event>
 6    0  0.2433432E+002  0.1251349E+03  0.7546771E-02  0.1234859E+00
          1   -1    0    0  505    0 -0.00000000000E+00  0.00000000000E+00  0.46085568808E+03  0.46085568808E+03  0.00000000000E+00 0.  1.
         21   -1    0    0  504  502  0.00000000000E+00 -0.00000000000E+00 -0.74169211459E+03  0.74169211459E+03  0.00000000000E+00 0.  1.
         21    1    1    2  503  502 -0.10417654738E+01  0.47786986797E+02 -0.61471745401E+03  0.61657297187E+03  0.00000000000E+00 0.  1.
         21    1    1    2  504  501  0.29285627803E+02 -0.11537967994E+03  0.32009154775E+02  0.12326680222E+03  0.00000000000E+00 0. -1.
         21    1    1    2  505  503 -0.10041316161E+02 -0.57803827912E+02 -0.57197640863E+02  0.81937053107E+02  0.00000000000E+00 0. -1.
          1    1    1    2  501    0 -0.18202546168E+02  0.12539652106E+03  0.35906951358E+03  0.38077097548E+03  0.00000000000E+00 0.  1.
<scales pt_clust_3="47.79834" pt_clust_4="125.13490" pt_clust_5="33.17398" pt_clust_6="14000.00000"></scales>
<clustering>
<clus scale="   47.798">  2  3  1 -1</clus>
<clus scale="   33.174">  2  5  1 -1</clus>
<clus scale="  125.135">  2  4  1 -1</clus>
<clus scale="   47.798">  2  3  1 -1</clus>
</clustering>
</event>
<event>
 6    0  0.2433432E+002  0.1565168E+03  0.7546771E-02  0.1192686E+00
         21   -1    0    0  504  502  0.00000000000E+00  0.00000000000E+00  0.46594476456E+02  0.46594476456E+02  0.00000000000E+00 0.  1.
         -1   -1    0    0    0  501 -0.00000000000E+00 -0.00000000000E+00 -0.95000863410E+03  0.95000863410E+03  0.00000000000E+00 0. -1.
         21    1    1    2  503  501  0.66202033781E+02  0.57707951081E+02 -0.87568509233E+02  0.12402080754E+03  0.00000000000E+00 0.  1.
         21    1    1    2  504  503  0.33847940634E+02  0.62692741618E+02 -0.12749983958E+03  0.14605571550E+03  0.00000000000E+00 0.  1.
         21    1    1    2  505  502  0.29302874242E+02 -0.45589993280E+02 -0.60854541813E+02  0.81488534073E+02  0.00000000000E+00 0. -1.
         -1    1    1    2    0  505 -0.12935284866E+03 -0.74810699419E+02 -0.62749126702E+03  0.64503805345E+03  0.00000000000E+00 0. -1.
<scales pt_clust_3="42.05969" pt_clust_4="42.05969" pt_clust_5="54.19507" pt_clust_6="149.38837"></scales>
<clustering>
<clus scale="   42.060">  3  4 -1 -1</clus>
<clus scale="   54.195">  1  5  2 -1</clus>
<clus scale="  149.388">  2  6  1 -1</clus>
<clus scale="   54.195">  1  3  2 -1</clus>
</clustering>
</event>
<event>
 6    0  0.2433432E+002  0.2883090E+03  0.7546771E-02  0.1091235E+00
          2   -1    0    0  504    0 -0.00000000000E+00  0.00000000000E+00  0.38553858830E+04  0.38553858830E+04  0.00000000000E+00 0.  1.
         21   -1    0    0  505  502  0.00000000000E+00 -0.00000000000E+00 -0.10101130868E+03  0.10101130868E+03  0.00000000000E+00 0.  1.
         21    1    1    2  503  502 -0.81662178976E+02 -0.17522732682E+03  0.20925187420E+03  0.28488537062E+03  0.00000000000E+00 0.  1.
         21    1    1    2  504  503  0.48665018790E+02 -0.10227560718E+03  0.16617271641E+03  0.20110185369E+03  0.00000000000E+00 0. -1.
         21    1    1    2  505  501  0.23437920364E+03  0.10301931819E+03  0.37147565414E+03  0.45115490980E+03  0.00000000000E+00 0.  1.
          2    1    1    2  501    0 -0.20138204345E+03  0.17448361581E+03  0.30074743296E+04  0.30192550576E+04  0.00000000000E+00 0.  1.
<scales pt_clust_3="100.21923" pt_clust_4="100.21923" pt_clust_5="256.02068" pt_clust_6="256.86342"></scales>
<clustering>
<clus scale="  100.219">  3  4 -1 -1</clus>
<clus scale="  256.021">  2  5  1 -1</clus>
<clus scale="  256.863">  1  6  2 -1</clus>
<clus scale="  256.021">  2  3  1 -1</clus>
</clustering>
</event>
<event>
 6    0  0.2433432E+002  0.1614984E+03  0.7546771E-02  0.1187015E+00
         21   -1    0    0  501  502  0.00000000000E+00  0.00000000000E+00  0.23418788678E+04  0.23418788678E+04  0.00000000000E+00 0. -1.
         -1   -1    0    0    0  501 -0.00000000000E+00 -0.00000000000E+00 -0.14837926555E+03  0.14837926555E+03  0.00000000000E+00 0.  1.
         21    1    1    2  503  504 -0.36144722844E+02  0.10052693889E+03  0.48608055866E+03  0.49768103836E+03  0.00000000000E+00 0. -1.
         21    1    1    2  504  505 -0.28145991827E+02  0.75668755121E+02  0.55899256248E+03  0.56479256570E+03  0.00000000000E+00 0. -1.
         21    1    1    2  505  502  0.18696584846E+02 -0.27479390617E+02  0.12445094454E+04  0.12449531874E+04  0.00000000000E+00 0. -1.
         -1    1    1    2    0  503  0.45594129826E+02 -0.14871630339E+03 -0.96082964243E+02  0.18283134192E+03  0.00000000000E+00 0.  1.
<scales pt_clust_3="32.24071" pt_clust_4="32.24071" pt_clust_5="33.23671" pt_clust_6="156.80437"></scales>
<clustering>
<clus scale="   33.237">  1  5  2 -1</clus>
<clus scale="   32.241">  3  4 -1 -1</clus>
<clus scale="  156.804">  2  6  1 -1</clus>
<clus scale="   33.237">  1  3  2 -1</clus>
</clustering>
</event>
<event>
 6    0  0.2433432E+002  0.3839283E+03  0.7546771E-02  0.1049491E+00
         21   -1    0    0  503  502  0.00000000000E+00  0.00000000000E+00  0.68621980664E+03  0.68621980664E+03  0.00000000000E+00 0.  1.
          2   -1    0    0  505    0 -0.00000000000E+00 -0.00000000000E+00 -0.24400722246E+04  0.24400722246E+04  0.00000000000E+00 0.  1.
         21    1    1    2  503  501  0.16216863472E+02 -0.26692690784E+02 -0.12992096808E+02  0.33827222493E+02  0.00000000000E+00 0.  1.
         21    1    1    2  504  502  0.78169664620E+02  0.48795390336E+02  0.17013966248E+03  0.19349157949E+03  0.00000000000E+00 0.  1.
         21    1    1    2  505  504  0.23663117453E+03 -0.13191358514E+03  0.44300294715E+03  0.51927557027E+03  0.00000000000E+00 0.  1.
          2    1    1    2  501    0 -0.33101770262E+03  0.10981088558E+03 -0.23540029308E+04  0.23796976590E+04  0.00000000000E+00 0.  1.
<scales pt_clust_3="31.23278" pt_clust_4="91.10830" pt_clust_5="91.10830" pt_clust_6="348.30440"></scales>
<clustering>
<clus scale="   31.233">  1  3  2 -1</clus>
<clus scale="   91.108">  4  5 -1 -1</clus>
<clus scale="  348.304">  2  6  1 -1</clus>
<clus scale="   31.233">  1  3  2 -1</clus>
</clustering>
</event>
<event>
 6    0  0.2433432E+002  0.1173313E+03  0.7546771E-02  0.1247566E+00
          2   -1    0    0  503    0 -0.00000000000E+00  0.00000000000E+00  0.25085710744E+04  0.25085710744E+04  0.00000000000E+00 0. -1.
         21   -1    0    0  504  502  0.00000000000E+00 -0.00000000000E+00 -0.38250725029E+03  0.38250725029E+03  0.00000000000E+00 0. -1.
         21    1    1    2  503  505  0.80499349176E+02 -0.43101945813E+02  0.26918190453E+02  0.95197226471E+02  0.00000000000E+00 0. -1.
         21    1    1    2  504  501 -0.41012276969E+02  0.16428365149E+03 -0.31623896723E+03  0.35871745065E+03  0.00000000000E+00 0. -1.
         21    1    1    2  505  502 -0.14764055916E+02 -0.34816308821E+02  0.25545919354E+02  0.45637119789E+02  0.00000000000E+00 0.  1.
          2    1    1    2  501    0 -0.24723016291E+02 -0.86365396854E+02  0.23898386816E+04  0.23915265278E+04  0.00000000000E+00 0. -1.
<scales pt_clust_3="117.33132" pt_clust_4="14000.00000" pt_clust_5="37.81736" pt_clust_6="89.91939"></scales>
<clustering>
<clus scale="   37.817">  2  5  1 -1</clus>
<clus scale="   89.919">  1  6  2 -1</clus>
<clus scale="  117.331">  1  3  2 -1</clus>
<clus scale="   37.817">  2  3  1 -1</clus>
</clustering>
</event>
<event>
 6    0  0.2433432E+002  0.1371891E+03  0.7546771E-02  0.1217162E+00
         21   -1    0    0  505  502  0.00000000000E+00  0.00000000000E+00  0.45521664756E+02  0.45521664756E+02  0.00000000000E+00 0. -1.
          1   -1    0    0  503    0 -0.00000000000E+00 -0.00000000000E+00 -0.27658723106E+04  0.27658723106E+04  0.00000000000E+00 0.  1.
         21    1    1    2  503  504 -0.28747887277E+02  0.27994456101E+02 -0.37815869807E+03  0.38028164762E+03  0.00000000000E+00 0.  1.
         21    1    1    2  504  502 -0.50474847681E+02  0.10419959994E+03 -0.48508476954E+03  0.49871083857E+03  0.00000000000E+00 0. -1.
         21    1    1    2  505  501  0.34153867144E+02 -0.25082583209E+02  0.23332990708E+02  0.48374074428E+02  0.00000000000E+00 0. -1.
          1    1    1    2  501    0  0.45068867813E+02 -0.10711147283E+03 -0.18804401690E+04  0.18840274147E+04  0.00000000000E+00 0.  1.
<scales pt_clust_3="35.74644" pt_clust_4="35.74644" pt_clust_5="42.37479" pt_clust_6="123.01969"></scales>
<clustering>
<clus scale="   35.746">  3  4 -1 -1</clus>
<clus scale="   42.375">  1  5  2 -1</clus>
<clus scale="  123.020">  2  6  1 -1</clus>
<clus scale="   42.375">  1  3  2 -1</clus>
</clustering>
</event>
<event>
 6    0  0.2433432E+002  0.1075364E+03  0.7546771E-02  0.1265201E+00
          1   -1    0    0  505    0 -0.00000000000E+00  0.00000000000E+00  0.11693706570E+04  0.11693706570E+04  0.00000000000E+00 0.  1.
         21   -1    0    0  503  502  0.00000000000E+00 -0.00000000000E+00 -0.89941803557E+02  0.89941803557E+02  0.00000000000E+00 0.  1.
         21    1    1    2  503  501  0.28208144093E+02  0.45422363717E+02  0.68557483197E+01  0.53906324340E+02  0.00000000000E+00 0.  1.
         21    1    1    2  504  502 -0.11679023793E+03  0.38599984134E+02  0.13848735111E+02  0.12378087863E+03  0.00000000000E+00 0.  1.
         21    1    1    2  505  504  0.55609002755E+02 -0.66507703507E+02  0.15876810680E+03  0.18089485219E+03  0.00000000000E+00 0. -1.
          1    1    1    2  501    0  0.32973091081E+02 -0.17514644344E+02  0.89995626324E+03  0.90073040542E+03  0.00000000000E+00 0.  1.
<scales pt_clust_3="53.91714" pt_clust_4="107.53643" pt_clust_5="14000.00000" pt_clust_6="37.33614"></scales>
<clustering>
<clus scale="   37.336">  1  6  2 -1</clus>
<clus scale="   53.917">  2  3  1 -1</clus>
<clus scale="  107.536">  2  4  1 -1</clus>
<clus scale="   53.917">  2  3  1 -1</clus>
</clustering>
</event>
<event>
 6    0  0.2433432E+002  0.1940588E+03  0.7546771E-02  0.1154851E+00
         21   -1    0    0  505  502  0.00000000000E+00  0.00000000000E+00  0.24391410397E+04  0.24391410397E+04  0.00000000000E+00 0. -1.
          2   -1    0    0  504    0 -0.00000000000E+00 -0.00000000000E+00 -0.16159878757E+04  0.16159878757E+04  0.00000000000E+00 0. -1.
         21    1    1    2  503  501 -0.19514797505E+03  0.93068724152E+02  0.50837475156E+03  0.55243950583E+03  0.00000000000E+00 0.  1.
         21    1    1    2  504  502  0.40970305764E+02 -0.73840991745E+02  0.16356327809E+04  0.16378112382E+04  0.00000000000E+00 0. -1.
         21    1    1    2  505  503 -0.38886164477E+02 -0.39882090393E+02  0.26316884269E+03  0.26899917228E+03  0.00000000000E+00 0. -1.
          2    1    1    2  501    0  0.19306383377E+03  0.20654357987E+02 -0.15840232112E+04  0.15958789991E+04  0.00000000000E+00 0. -1.
<scales pt_clust_3="14000.00000" pt_clust_4="104.53449" pt_clust_5="55.70202" pt_clust_6="194.05875"></scales>
<clustering>
<clus scale="   55.702">  1  5  2 -1</clus>
<clus scale="  104.534">  1  4  2 -1</clus>
<clus scale="  194.059">  2  6  1 -1</clus>
<clus scale="   55.702">  1  3  2 -1</clus>
</clustering>
</event>
<event>
 6    0  0.2433432E+002  0.1199482E+03  0.7546771E-02  0.1243183E+00
          1   -1    0    0  505    0 -0.00000000000E+00  0.00000000000E+00  0.10127744935E+04  0.10127744935E+04  0.00000000000E+00 0. -1.
         21   -1    0    0  503  502  0.00000000000E+00 -0.00000000000E+00 -0.22107432172E+03  0.22107432172E+03  0.00000000000E+00 0. -1.
         21    1    1    2  503  504  0.55785638771E+02 -0.89262245822E+01 -0.26131456524E+02  0.62246027974E+02  0.00000000000E+00 0. -1.
         21    1    1    2  504  501  0.35175918682E+02  0.26958342617E+02 -0.89849282358E+01  0.45219757045E+02  0.00000000000E+00 0. -1.
         21    1    1    2  505  502 -0.12132736696E+03 -0.40646583501E+02 -0.12200968083E+03  0.17680168817E+03  0.00000000000E+00 0. -1.
          1    1    1    2  501    0  0.30365809504E+02  0.22614465467E+02  0.94882623739E+03  0.94958134206E+03  0.00000000000E+00 0. -1.
<scales pt_clust_3="36.69575" pt_clust_4="36.69575" pt_clust_5="112.56554" pt_clust_6="37.86154"></scales>
<clustering>
<clus scale="   36.696">  3  4 -1 -1</clus>
<clus scale="   37.862">  1  6  2 -1</clus>
<clus scale="  112.566">  2  5  1 -1</clus>
<clus scale="  112.566">  2  3  1 -1</clus>
</clustering>
</event>
<event>
 6    0  0.2433432E+002  0.1111676E+03  0.7546771E-02  0.1258423E+00
         21   -1    0    0  501  502  0.00000000000E+00  0.00000000000E+00  0.59451064361E+02  0.59451064361E+02  0.00000000000E+00 0. -1.
          2   -1    0    0  505    0 -0.00000000000E+00 -0.00000000000E+00 -0.60016629782E+03  0.60016629782E+03  0.00000000000E+00 0. -1.
         21    1    1    2  503  504 -0.53134923224E+02  0.16934036055E+02 -0.88914522391E+02  0.10495653355E+03  0.00000000000E+00 0. -1.
         21    1    1    2  504  502  0.96591969865E+02 -0.21215195300E+02 -0.10725102617E+02  0.99474222692E+02  0.00000000000E+00 0. -1.
         21    1    1    2  505  503 -0.68881570626E+02 -0.12485505045E+02 -0.19405531997E+03  0.20629596655E+03  0.00000000000E+00 0. -1.
          2    1    1    2  501    0  0.25424523985E+02  0.16766664289E+02 -0.24702028848E+03  0.24889063938E+03  0.00000000000E+00 0. -1.
<scales pt_clust_3="42.11104" pt_clust_4="102.27350" pt_clust_5="42.11104" pt_clust_6="30.45534"></scales>
<clustering>
<clus scale="   30.455">  2  6  1 -1</clus>
<clus scale="   42.111">  3  5 -1 -1</clus>
<clus scale="  102.273">  1  4  2 -1</clus>
<clus scale="  102.273">  1  3  2 -1</clus>
</clustering>
</event>
<event>
 6    0  0.2433432E+002  0.1039278E+03  0.7546771E-02  0.1272247E+00
          3   -1    0    0  503    0 -0.00000000000E+00  0.00000000000E+00  0.13134971204E+03  0.13134971204E+03  0.00000000000E+00 0.  1.
         21   -1    0    0  504  502  0.00000000000E+00 -0.00000000000E+00 -0.47671232126E+03  0.47671232126E+03  0.00000000000E+00 0. -1.
         21    1    1    2  503  505 -0.78404989869E+02  0.99881682783E+01 -0.34500294179E+02  0.86240224028E+02  0.00000000000E+00 0.  1.
         21    1    1    2  504  501 -0.68004598462E+02  0.36723610605E+02 -0.11382270161E+03  0.13758218050E+03  0.00000000000E+00 0. -1.
         21    1    1    2  505  502  0.33758016633E+02 -0.73231965028E+00 -0.24947397131E+03  0.25174868885E+03  0.00000000000E+00 0. -1.
          3    1    1    2  501    0  0.11265157170E+03 -0.45979459233E+02  0.52434357880E+02  0.13249093993E+03  0.00000000000E+00 0.  1.
<scales pt_clust_3="14000.00000" pt_clust_4="61.18111" pt_clust_5="33.76596" pt_clust_6="103.92782"></scales>
<clustering>
<clus scale="   33.766">  2  5  1 -1</clus>
<clus scale="   61.181">  2  4  1 -1</clus>
<clus scale="  103.928">  1  6  2 -1</clus>
<clus scale="   33.766">  2  3  1 -1</clus>
</clustering>
</event>
<event>
 6    0  0.2433432E+002  0.1288108E+03  0.7546771E-02  0.1229231E+00
         21   -1    0    0  505  502  0.00000000000E+00  0.00000000000E+00  0.25501031218E+02  0.25501031218E+02  0.00000000000E+00 0.  1.
          3   -1    0    0  504    0 -0.00000000000E+00 -0.00000000000E+00 -0.12725020655E+04  0.12725020655E+04  0.00000000000E+00 0.  1.
         21    1    1    2  503  502  0.24999311086E+02  0.42981024462E+02 -0.73923698804E+02  0.89090107551E+02  0.00000000000E+00 0.  1.
         21    1    1    2  504  503  0.82951581717E+02  0.41391518677E+02 -0.22832532340E+03  0.24642783128E+03  0.00000000000E+00 0.  1.
         21    1    1    2  505  501 -0.75915908653E+02 -0.67473182835E+02 -0.30019820911E+03  0.31691453160E+03  0.00000000000E+00 0.  1.
          3    1    1    2  501    0 -0.32034984150E+02 -0.16899360304E+02 -0.64455380296E+03  0.64557062627E+03  0.00000000000E+00 0.  1.
<scales pt_clust_3="36.21815" pt_clust_4="36.21815" pt_clust_5="118.93918" pt_clust_6="36.21917"></scales>
<clustering>
<clus scale="   36.218">  3  4 -1 -1</clus>
<clus scale="   36.219">  2  6  1 -1</clus>
<clus scale="  118.939">  2  5  1 -1</clus>
<clus scale="  128.811">  1  3  2 -1</clus>
</clustering>
</event>
<event>
 6    0  0.2433432E+002  0.1202084E+03  0.7546771E-02  0.1242754E+00
         21   -1    0    0  504  502  0.00000000000E+00  0.00000000000E+00  0.10753732911E+03  0.10753732911E+03  0.00000000000E+00 0.  1.
          2   -1    0    0  503    0 -0.00000000000E+00 -0.00000000000E+00 -0.28882035225E+04  0.28882035225E+04  0.00000000000E+00 0.  1.
         21    1    1    2  503  502  0.16497850829E+02  0.49780269985E+02  0.53607124831E+02  0.74993187653E+02  0.00000000000E+00 0.  1.
         21    1    1    2  504  505 -0.72867974275E+02  0.35396498653E+02 -0.11190178253E+03  0.13814725015E+03  0.00000000000E+00 0.  1.
         21    1    1    2  505  501 -0.47171378714E+02 -0.14652551042E+03 -0.17776538075E+03  0.23514972840E+03  0.00000000000E+00 0.  1.
          2    1    1    2  501    0  0.10354150216E+03  0.61348741780E+02 -0.25446061550E+04  0.25474506854E+04  0.00000000000E+00 0.  1.
<scales pt_clust_3="52.44287" pt_clust_4="84.59226" pt_clust_5="120.20837" pt_clust_6="14000.00000"></scales>
<clustering>
<clus scale="   52.443">  1  3  2 -1</clus>
<clus scale="   84.592">  1  4  2 -1</clus>
<clus scale="  120.208">  1  5  2 -1</clus>
<clus scale="   52.443">  1  3  2 -1</clus>
</clustering>
</event>
<event>
 6    0  0.2433432E+002  0.2231434E+03  0.7546771E-02  0.1131561E+00
         21   -1    0    0  501  502  0.00000000000E+00  0.00000000000E+00  0.32671495852E+03  0.32671495852E+03  0.00000000000E+00 0.  1.
          4   -1    0    0  503    0 -0.00000000000E+00 -0.00000000000E+00 -0.28411958303E+03  0.28411958303E+03  0.00000000000E+00 0.  1.
         21    1    1    2  503  505 -0.35607443282E+02  0.71603280140E+01  0.96306431515E+01  0.37575385585E+02  0.00000000000E+00 0.  1.
         21    1    1    2  504  502 -0.62747139113E+02 -0.59002667459E+01  0.88110468181E+02  0.10833037994E+03  0.00000000000E+00 0.  1.
         21    1    1    2  505  504 -0.93734784534E+02  0.63451700460E+02  0.14238947445E+03  0.18189857217E+03  0.00000000000E+00 0.  1.
          4    1    1    2  501    0  0.19208936693E+03 -0.64711761729E+02 -0.19753521029E+03  0.28303020386E+03  0.00000000000E+00 0.  1.
<scales pt_clust_3="32.75296" pt_clust_4="39.75705" pt_clust_5="39.75705" pt_clust_6="202.69666"></scales>
<clustering>
<clus scale="   32.753">  3  5 -1 -1</clus>
<clus scale="   39.757">  3  4 -1 -1</clus>
<clus scale="  202.697">  2  6  1 -1</clus>
<clus scale="  223.143">  1  3  2 -1</clus>
</clustering>
</event>
<event>
 6    0  0.2433432E+002  0.7716422E+02  0.7546771E-02  0.1337297E+00
         21   -1    0    0  503  502  0.00000000000E+00  0.00000000000E+00  0.46311321789E+03  0.46311321789E+03  0.00000000000E+00 0. -1.
          1   -1    0    0  504    0 -0.00000000000E+00 -0.00000000000E+00 -0.18265919400E+04  0.18265919400E+04  0.00000000000E+00 0. -1.
         21    1    1    2  503  501  0.11414574568E+03 -0.36646593201E+02 -0.65869961126E+02  0.13678843455E+03  0.00000000000E+00 0.  1.
         21    1    1    2  504  505 -0.39607873305E+02 -0.13787544897E+02 -0.32747313290E+03  0.33014774388E+03  0.00000000000E+00 0.  1.
         21    1    1    2  505  502 -0.37568216868E+02  0.29360133299E+02  0.42465800205E+03  0.42732634724E+03  0.00000000000E+00 0. -1.
          1    1    1    2  501    0 -0.36969655504E+02  0.21074004798E+02 -0.13947936302E+04  0.13954426322E+04  0.00000000000E+00 0. -1.
<scales pt_clust_3="14000.00000" pt_clust_4="41.93900" pt_clust_5="47.70031" pt_clust_6="77.16422"></scales>
<clustering>
<clus scale="   41.939">  2  4  1 -1</clus>
<clus scale="   47.700">  1  5  2 -1</clus>
<clus scale="   77.164">  2  6  1 -1</clus>
<clus scale="   47.700">  1  3  2 -1</clus>
</clustering>
</event>
<event>
 6    0  0.2433432E+002  0.1222275E+03  0.7546771E-02  0.1239467E+00
          1   -1    0    0  505    0 -0.00000000000E+00  0.00000000000E+00  0.14371207860E+04  0.14371207860E+04  0.00000000000E+00 0.  1.
         21   -1    0    0  503  502  0.00000000000E+00 -0.00000000000E+00 -0.11709209113E+03  0.11709209113E+03  0.00000000000E+00 0.  1.
         21    1    1    2  503  501 -0.50825802752E+02 -0.68763058923E+02 -0.46342169463E+02  0.97258506920E+02  0.00000000000E+00 0.  1.
         21    1    1    2  504  502  0.53504577232E+02 -0.44750146070E+02  0.79734888422E+02  0.10593850947E+03  0.00000000000E+00 0.  1.
         21    1    1    2  505  504 -0.36696449026E+02  0.18554867041E+03  0.26120428704E+03  0.32249436899E+03  0.00000000000E+00 0.  1.
          1    1    1    2  501    0  0.34017674545E+02 -0.72035465418E+02  0.10254316889E+04  0.10285214918E+04  0.00000000000E+00 0.  1.
<scales pt_clust_3="122.22748" pt_clust_4="69.75181" pt_clust_5="14000.00000" pt_clust_6="80.60549"></scales>
<clustering>
<clus scale="   69.752">  2  4  1 -1</clus>
<clus scale="   80.605">  1  6  2 -1</clus>
<clus scale="  122.227">  2  3  1 -1</clus>
<clus scale="   69.752">  2  3  1 -1</clus>
</clustering>
</event>
<event>
 6    0  0.2433432E+002  0.1333591E+03  0.7546771E-02  0.1222555E+00
         21   -1    0    0  504  502  0.00000000000E+00  0.00000000000E+00  0.66989608237E+03  0.66989608237E+03  0.00000000000E+00 0. -1.
          2   -1    0    0  503    0 -0.00000000000E+00 -0.00000000000E+00 -0.17557957226E+04  0.17557957226E+04  0.00000000000E+00 0.  1.
         21    1    1    2  503  505 -0.26561059531E+02 -0.10385782290E+03 -0.74286702505E+03  0.75056202553E+03  0.00000000000E+00 0.  1.
         21    1    1    2  504  501  0.53519748613E+02  0.75790133245E+02  0.65510195079E+03  0.66163968572E+03  0.00000000000E+00 0. -1.
         21    1    1    2  505  502 -0.51492252776E+02 -0.63030616543E+02 -0.45459687873E+03  0.46182532723E+03  0.00000000000E+00 0.  1.
          2    1    1    2  501    0  0.24533563694E+02  0.91098306200E+02 -0.54353768725E+03  0.55166476650E+03  0.00000000000E+00 0.  1.
<scales pt_clust_3="39.15424" pt_clust_4="92.78204" pt_clust_5="39.15424" pt_clust_6="125.56050"></scales>
<clustering>
<clus scale="   39.154">  3  5 -1 -1</clus>
<clus scale="   92.782">  1  4  2 -1</clus>
<clus scale="  125.561">  2  6  1 -1</clus>
<clus scale="   92.782">  1  3  2 -1</clus>
</clustering>
</event>
<event>
 6    0  0.2433432E+002  0.1248494E+03  0.7546771E-02  0.1235305E+00
          2   -1    0    0  505    0 -0.00000000000E+00  0.00000000000E+00  0.58226598204E+03  0.58226598204E+03  0.00000000000E+00 0.  1.
         21   -1    0    0  504  502  0.00000000000E+00 -0.00000000000E+00 -0.30357100079E+03  0.30357100079E+03  0.00000000000E+00 0. -1.
         21    1    1    2  503  502 -0.77274274106E+02  0.69743487202E+01  0.10278294688E+03  0.12878000291E+03  0.00000000000E+00 0. -1.
         21    1    1    2  504  501  0.14903894927E+02 -0.31104767149E+02 -0.27130493451E+03  0.27348857401E+03  0.00000000000E+00 0. -1.
         21    1    1    2  505  503 -0.49783657029E+02  0.37752340882E+02  0.95248264295E+02  0.11391173601E+03  0.00000000000E+00 0. -1.
          2    1    1    2  501    0  0.11215403621E+03 -0.13621922454E+02  0.35196870458E+03  0.36965666992E+03  0.00000000000E+00 0.  1.
<scales pt_clust_3="33.97852" pt_clust_4="34.49105" pt_clust_5="33.97852" pt_clust_6="118.52699"></scales>
<clustering>
<clus scale="   34.491">  2  4  1 -1</clus>
<clus scale="   33.979">  3  5 -1 -1</clus>
<clus scale="  118.527">  1  6  2 -1</clus>
<clus scale="   34.491">  2  3  1 -1</clus>
</clustering>
</event>
<event>
 6    0  0.2433432E+002  0.1706908E+03  0.7546771E-02  0.1177129E+00
         21   -1    0    0  501  502  0.00000000000E+00  0.00000000000E+00  0.59535750870E+02  0.59535750870E+02  0.00000000000E+00 0.  1.
          2   -1    0    0  503    0 -0.00000000000E+00 -0.00000000000E+00 -0.17960954147E+04  0.17960954147E+04  0.00000000000E+00 0.  1.
         21    1    1    2  503  504 -0.35608011830E+01  0.55191220873E+02 -0.31441200129E+03  0.31923918419E+03  0.00000000000E+00 0.  1.
         21    1    1    2  504  505  0.13250537570E+02  0.15408662014E+03 -0.47669514749E+03  0.50115519242E+03  0.00000000000E+00 0.  1.
         21    1    1    2  505  502 -0.29297712243E+02 -0.67020415953E+02  0.56427102396E+01  0.73361653989E+02  0.00000000000E+00 0.  1.
          2    1    1    2  501    0  0.19607975856E+02 -0.14225742506E+03 -0.95109522529E+03  0.96187513497E+03  0.00000000000E+00 0.  1.
<scales pt_clust_3="34.38028" pt_clust_4="34.38028" pt_clust_5="73.14432" pt_clust_6="160.71731"></scales>
<clustering>
<clus scale="   34.380">  3  4 -1 -1</clus>
<clus scale="   73.144">  1  5  2 -1</clus>
<clus scale="  160.717">  2  6  1 -1</clus>
<clus scale="   73.144">  1  3  2 -1</clus>
</clustering>
</event>
<event>
 6    0  0.2433432E+002  0.3199640E+03  0.7546771E-02  0.1075666E+00
          2   -1    0    0  504    0 -0.00000000000E+00  0.00000000000E+00  0.21222368203E+04  0.21222368203E+04  0.00000000000E+00 0. -1.
         21   -1    0    0  505  502  0.00000000000E+00 -0.00000000000E+00 -0.58943420854E+02  0.58943420854E+02  0.00000000000E+00 0. -1.
         21    1    1    2  503  502 -0.17830451208E+02  0.97849171777E+02  0.25808940143E+03  0.27659089742E+03  0.00000000000E+00 0.  1.
         21    1    1    2  504  503 -0.87219827500E+02  0.20476768510E+03  0.97587802023E+03  0.10009370677E+04  0.00000000000E+00 0. -1.
         21    1    1    2  505  501 -0.22618523338E+02 -0.34944313354E+02  0.30643094298E+02  0.51688508025E+02  0.00000000000E+00 0.  1.
          2    1    1    2  501    0  0.12766880205E+03 -0.26767254353E+03  0.79868288346E+03  0.85196376796E+03  0.00000000000E+00 0. -1.
<scales pt_clust_3="54.21565" pt_clust_4="54.21565" pt_clust_5="41.62574" pt_clust_6="309.17208"></scales>
<clustering>
<clus scale="   41.626">  2  5  1 -1</clus>
<clus scale="   54.216">  3  4 -1 -1</clus>
<clus scale="  309.172">  2  6  1 -1</clus>
<clus scale="   41.626">  2  3  1 -1</clus>
</clustering>
</event>
<event>
 6    0  0.2433432E+002  0.2163824E+03  0.7546771E-02  0.1136609E+00
         21   -1    0    0  504  502  0.00000000000E+00  0.00000000000E+00  0.24933196195E+03  0.24933196195E+03  0.00000000000E+00 0. -1.
          4   -1    0    0  505    0 -0.00000000000E+00 -0.00000000000E+00 -0.16216877706E+04  0.16216877706E+04  0.00000000000E+00 0. -1.
         21    1    1    2  503  502 -0.71090146813E+02 -0.85476597279E+02  0.13489784047E+03  0.17480699362E+03  0.00000000000E+00 0. -1.
         21    1    1    2  504  501 -0.24130457861E+02  0.21832972578E+02  0.48761615138E+02  0.58622971598E+02  0.00000000000E+00 0. -1.
         21    1    1    2  505  503 -0.12901111410E+03 -0.34864951720E+02 -0.11620053056E+03  0.17709318373E+03  0.00000000000E+00 0. -1.
          4    1    1    2  501    0  0.22423171878E+03  0.98508576421E+02 -0.14398147337E+04  0.14604965836E+04  0.00000000000E+00 0. -1.
<scales pt_clust_3="113.06998" pt_clust_4="32.54163" pt_clust_5="216.38239" pt_clust_6="14000.00000"></scales>
<clustering>
<clus scale="   32.542">  1  4  2 -1</clus>
<clus scale="  113.070">  1  3  2 -1</clus>
<clus scale="  216.382">  1  5  2 -1</clus>
<clus scale="   32.542">  1  3  2 -1</clus>
</clustering>
</event>
<event>
 6    0  0.2433432E+002  0.6718122E+02  0.7546771E-02  0.1369950E+00
          1   -1    0    0  503    0 -0.00000000000E+00  0.00000000000E+00  0.10924886121E+04  0.10924886121E+04  0.00000000000E+00 0. -1.
         21   -1    0    0  504  502  0.00000000000E+00 -0.00000000000E+00 -0.13281524612E+03  0.13281524612E+03  0.00000000000E+00 0.  1.
         21    1    1    2  503  502  0.25822837055E+02 -0.38329051830E+02  0.25211089918E+02  0.52645362404E+02  0.00000000000E+00 0.  1.
         21    1    1    2  504  505  0.21452912963E+02  0.81948894531E+02 -0.91219702703E+02  0.12448647698E+03  0.00000000000E+00 0.  1.
         21    1    1    2  505  501 -0.91752002945E+02 -0.92784780129E+01  0.19623768901E+03  0.21682654539E+03  0.00000000000E+00 0.  1.
          1    1    1    2  501    0  0.44476252927E+02 -0.34341364688E+02  0.82944428973E+03  0.83134547341E+03  0.00000000000E+00 0. -1.
<scales pt_clust_3="46.21618" pt_clust_4="67.18122" pt_clust_5="14000.00000" pt_clust_6="56.54156"></scales>
<clustering>
<clus scale="   46.216">  2  3  1 -1</clus>
<clus scale="   56.542">  1  6  2 -1</clus>
<clus scale="   67.181">  2  4  1 -1</clus>
<clus scale="   46.216">  2  3  1 -1</clus>
</clustering>
</event>
<event>
 6    0  0.2433432E+002  0.1117811E+03  0.7546771E-02  0.1257307E+00
         21   -1    0    0  504  502  0.00000000000E+00  0.00000000000E+00  0.94183424840E+03  0.94183424840E+03  0.00000000000E+00 0.  1.
          2   -1    0    0  503    0 -0.00000000000E+00 -0.00000000000E+00 -0.22543465761E+04  0.22543465761E+04  0.00000000000E+00 0. -1.
         21    1    1    2  503  502 -0.57071482053E+01 -0.39872427744E+02  0.13382225397E+03  0.13975255880E+03  0.00000000000E+00 0.  1.
         21    1    1    2  504  505  0.22416156436E+02 -0.82999690496E+02  0.76186761692E+03  0.76670313577E+03  0.00000000000E+00 0.  1.
         21    1    1    2  505  501  0.33455858248E+02  0.70218020547E+02  0.25058083535E+01  0.77821230626E+02  0.00000000000E+00 0. -1.
          2    1    1    2  501    0 -0.50164866478E+02  0.52654097693E+02 -0.22107080070E+04  0.22119038993E+04  0.00000000000E+00 0. -1.
<scales pt_clust_3="40.27880" pt_clust_4="111.78108" pt_clust_5="14000.00000" pt_clust_6="72.70678"></scales>
<clustering>
<clus scale="   40.279">  1  3  2 -1</clus>
<clus scale="   72.707">  2  6  1 -1</clus>
<clus scale="  111.781">  1  4  2 -1</clus>
<clus scale="   40.279">  1  3  2 -1</clus>
</clustering>
</event>
<event>
 6    0  0.2433432E+002  0.2365811E+03  0.7546771E-02  0.1122092E+00
         21   -1    0    0  505  502  0.00000000000E+00  0.00000000000E+00  0.34262048682E+03  0.34262048682E+03  0.00000000000E+00 0.  1.
          2   -1    0    0  504    0 -0.00000000000E+00 -0.00000000000E+00 -0.94588574086E+03  0.94588574086E+03  0.00000000000E+00 0.  1.
         21    1    1    2  503  502 -0.91585099732E+02  0.14834747363E+03  0.25641406581E+03  0.31006930930E+03  0.00000000000E+00 0.  1.
         21    1    1    2  504  503 -0.35785646301E+02  0.33497290622E+02  0.17091339823E+02  0.51911413554E+02  0.00000000000E+00 0. -1.
         21    1    1    2  505  501  0.29764641983E+02  0.17022321737E+02 -0.16243738521E+02  0.37941433695E+02  0.00000000000E+00 0. -1.
          2    1    1    2  501    0  0.97606104050E+02 -0.19886708599E+03 -0.86052692116E+03  0.88858407113E+03  0.00000000000E+00 0.  1.
<scales pt_clust_3="43.55016" pt_clust_4="43.55016" pt_clust_5="34.28839" pt_clust_6="221.44205"></scales>
<clustering>
<clus scale="   34.288">  1  5  2 -1</clus>
<clus scale="   43.550">  3  4 -1 -1</clus>
<clus scale="  221.442">  2  6  1 -1</clus>
<clus scale="   34.288">  1  3  2 -1</clus>
</clustering>
</event>
<event>
 6    0  0.2433432E+002  0.1460453E+03  0.7546771E-02  0.1205418E+00
          1   -1    0    0  503    0 -0.00000000000E+00  0.00000000000E+00  0.31388690351E+03  0.31388690351E+03  0.00000000000E+00 0. -1.
         21   -1    0    0  505  502  0.00000000000E+00 -0.00000000000E+00 -0.21429696103E+04  0.21429696103E+04  0.00000000000E+00 0.  1.
         21    1    1    2  503  502  0.96944886804E+02  0.38644112744E+02 -0.18427829115E+04  0.18457357713E+04  0.00000000000E+00 0.  1.
         21    1    1    2  504  501 -0.62108694353E+02 -0.10136445111E+03 -0.46570427420E+02  0.12767555198E+03  0.00000000000E+00 0. -1.
         21    1    1    2  505  504  0.30683153722E+02  0.51118141044E+02 -0.20316710300E+03  0.21173424854E+03  0.00000000000E+00 0.  1.
          1    1    1    2  501    0 -0.65519346173E+02  0.11602197327E+02  0.26343773512E+03  0.27171094198E+03  0.00000000000E+00 0. -1.
<scales pt_clust_3="146.04528" pt_clust_4="14000.00000" pt_clust_5="59.61980" pt_clust_6="66.49326"></scales>
<clustering>
<clus scale="   59.620">  2  5  1 -1</clus>
<clus scale="   66.493">  1  6  2 -1</clus>
<clus scale="  146.045">  2  3  1 -1</clus>
<clus scale="   59.620">  2  3  1 -1</clus>
</clustering>
</event>
<event>
 6    0  0.2433432E+002  0.1089507E+03  0.7546771E-02  0.1262525E+00
          1   -1    0    0  504    0 -0.00000000000E+00  0.00000000000E+00  0.84820900035E+03  0.84820900035E+03  0.00000000000E+00 0. -1.
         21   -1    0    0  503  502  0.00000000000E+00 -0.00000000000E+00 -0.44010008907E+02  0.44010008907E+02  0.00000000000E+00 0. -1.
         21    1    1    2  503  501 -0.38986906005E+02 -0.10259223763E+03  0.12295650473E+03  0.16481337360E+03  0.00000000000E+00 0. -1.
         21    1    1    2  504  505  0.42061860058E+02  0.17565949204E+02  0.68282945514E+02  0.82099471929E+02  0.00000000000E+00 0. -1.
         21    1    1    2  505  502  0.33394957410E+02  0.47809766821E+02  0.41743226150E+02  0.71718156093E+02  0.00000000000E+00 0. -1.
          1    1    1    2  501    0 -0.36469911464E+02  0.37216521609E+02  0.57121631505E+03  0.57358800763E+03  0.00000000000E+00 0. -1.
<scales pt_clust_3="101.40943" pt_clust_4="35.21293" pt_clust_5="35.21293" pt_clust_6="52.10685"></scales>
<clustering>
<clus scale="   35.213">  4  5 -1 -1</clus>
<clus scale="   52.107">  1  6  2 -1</clus>
<clus scale="  101.409">  1  3  2 -1</clus>
<clus scale="  108.951">  2  3  1 -1</clus>
</clustering>
</event>
<event>
 6    0  0.2433432E+002  0.9888515E+02  0.7546771E-02  0.1282658E+00
         21   -1    0    0  501  502  0.00000000000E+00  0.00000000000E+00  0.17745336827E+02  0.17745336827E+02  0.00000000000E+00 0.  1.
          2   -1    0    0  505    0 -0.00000000000E+00 -0.00000000000E+00 -0.13111421839E+04  0.13111421839E+04  0.00000000000E+00 0.  1.
         21    1    1    2  503  504  0.31405472373E+02  0.83648240574E+01 -0.12361332943E+03  0.12781443263E+03  0.00000000000E+00 0.  1.
         21    1    1    2  504  502 -0.15375160979E+01 -0.31513368384E+02 -0.34434444539E+02  0.46703183118E+02  0.00000000000E+00 0.  1.
         21    1    1    2  505  503  0.33231316248E+02 -0.69341829538E+02 -0.23924462653E+03  0.25129783331E+03  0.00000000000E+00 0.  1.
          2    1    1    2  501    0 -0.63099272523E+02  0.92490373865E+02 -0.89610444656E+03  0.90307207165E+03  0.00000000000E+00 0.  1.
<scales pt_clust_3="31.24108" pt_clust_4="31.55085" pt_clust_5="98.88515" pt_clust_6="14000.00000"></scales>
<clustering>
<clus scale="   31.551">  1  4  2 -1</clus>
<clus scale="   31.241">  1  3  2 -1</clus>
<clus scale="   98.885">  1  5  2 -1</clus>
<clus scale="   31.551">  1  3  2 -1</clus>
</clustering>
</event>
<event>
 6    0  0.2433432E+002  0.7897259E+02  0.7546771E-02  0.1331993E+00
         21   -1    0    0  505  502  0.00000000000E+00  0.00000000000E+00  0.67343449236E+03  0.67343449236E+03  0.00000000000E+00 0. -1.
          2   -1    0    0  503    0 -0.00000000000E+00 -0.00000000000E+00 -0.30895695655E+04  0.30895695655E+04  0.00000000000E+00 0.  1.
         21    1    1    2  503  504  0.13665636611E+02 -0.77674437913E+02 -0.22230858609E+04  0.22244843926E+04  0.00000000000E+00 0.  1.
         21    1    1    2  504  502 -0.45262854079E+02  0.27876519387E+02 -0.11446537109E+03  0.12620676476E+03  0.00000000000E+00 0.  1.
         21    1    1    2  505  501  0.13335783944E+02 -0.32444731356E+02  0.66401987212E+03  0.66494578297E+03  0.00000000000E+00 0. -1.
          2    1    1    2  501    0  0.18261433524E+02  0.82242649882E+02 -0.74260371328E+03  0.74736711755E+03  0.00000000000E+00 0.  1.
<scales pt_clust_3="14000.00000" pt_clust_4="37.10834" pt_clust_5="35.07854" pt_clust_6="78.97259"></scales>
<clustering>
<clus scale="   35.079">  1  5  2 -1</clus>
<clus scale="   37.108">  1  4  2 -1</clus>
<clus scale="   78.973">  1  6  2 -1</clus>
<clus scale="   35.079">  1  3  2 -1</clus>
</clustering>
</event>
<event>
 6    0  0.2433432E+002  0.1116806E+03  0.7546771E-02  0.1257489E+00
          1   -1    0    0  504    0 -0.00000000000E+00  0.00000000000E+00  0.27381269243E+04  0.27381269243E+04  0.00000000000E+00 0.  1.
         21   -1    0    0  505  502  0.00000000000E+00 -0.00000000000E+00 -0.75083034597E+02  0.75083034597E+02  0.00000000000E+00 0. -1.
         21    1    1    2  503  501 -0.12816921997E+03 -0.31049562811E+02  0.64796540403E+02  0.14693541421E+03  0.00000000000E+00 0. -1.
         21    1    1    2  504  502  0.46866484407E+02 -0.76095483407E+02  0.13637697664E+03  0.16305112607E+03  0.00000000000E+00 0.  1.
         21    1    1    2  505  503 -0.92646896297E+00  0.31770585594E+02 -0.64097900291E+01  0.32423970484E+02  0.00000000000E+00 0. -1.
          1    1    1    2  501    0  0.82229204531E+02  0.75374460624E+02  0.24682801627E+04  0.24707994481E+04  0.00000000000E+00 0.  1.
<scales pt_clust_3="111.68056" pt_clust_4="82.85957" pt_clust_5="31.78409" pt_clust_6="14000.00000"></scales>
<clustering>
<clus scale="   31.784">  2  5  1 -1</clus>
<clus scale="   82.860">  2  4  1 -1</clus>
<clus scale="  111.681">  2  3  1 -1</clus>
<clus scale="   31.784">  2  3  1 -1</clus>
</clustering>
</event>
<event>
 6    0  0.2433432E+002  0.1177323E+03  0.7546771E-02  0.1246886E+00
          2   -1    0    0  504    0 -0.00000000000E+00  0.00000000000E+00  0.12014970511E+04  0.12014970511E+04  0.00000000000E+00 0.  1.
         21   -1    0    0  505  502  0.00000000000E+00 -0.00000000000E+00 -0.12511356664E+03  0.12511356664E+03  0.00000000000E+00 0. -1.
         21    1    1    2  503  501 -0.22695097769E+02 -0.39203271106E+02 -0.18163698014E+02  0.48804547469E+02  0.00000000000E+00 0. -1.
         21    1    1    2  504  502  0.51552448194E+02 -0.48404257537E+02  0.12954258604E+02  0.71891862394E+02  0.00000000000E+00 0.  1.
         21    1    1    2  505  503 -0.19172497155E+02 -0.25389571585E+02 -0.55074169359E+02  0.63603294907E+02  0.00000000000E+00 0. -1.
          2    1    1    2  501    0 -0.96848532709E+01  0.11299710023E+03  0.11366670933E+04  0.11423109130E+04  0.00000000000E+00 0.  1.
<scales pt_clust_3="30.75362" pt_clust_4="70.71511" pt_clust_5="30.75362" pt_clust_6="111.86727"></scales>
<clustering>
<clus scale="   30.754">  3  5 -1 -1</clus>
<clus scale="   70.715">  2  4  1 -1</clus>
<clus scale="  111.867">  1  6  2 -1</clus>
<clus scale="   70.715">  2  3  1 -1</clus>
</clustering>
</event>
<event>
 6    0  0.2433432E+002  0.1517730E+03  0.7546771E-02  0.1198311E+00
          2   -1    0    0  504    0 -0.00000000000E+00  0.00000000000E+00  0.81726995017E+03  0.81726995017E+03  0.00000000000E+00 0. -1.
         21   -1    0    0  505  502  0.00000000000E+00 -0.00000000000E+00 -0.96510374995E+02  0.96510374995E+02  0.00000000000E+00 0. -1.
         21    1    1    2  503  502  0.16256148960E+02 -0.44626390416E+02 -0.30630877393E+02  0.56515730115E+02  0.00000000000E+00 0. -1.
         21    1    1    2  504  503 -0.15299395914E+03 -0.85114650560E+02  0.40313022756E+03  0.43950612697E+03  0.00000000000E+00 0. -1.
         21    1    1    2  505  501  0.98095348533E+02  0.11935547684E+03  0.14941147702E+03  0.21492374629E+03  0.00000000000E+00 0. -1.
          2    1    1    2  501    0  0.38642461647E+02  0.10385564132E+02  0.19884874799E+03  0.20283472179E+03  0.00000000000E+00 0. -1.
<scales pt_clust_3="47.57520" pt_clust_4="151.77300" pt_clust_5="14000.00000" pt_clust_6="40.01374"></scales>
<clustering>
<clus scale="   40.014">  1  6  2 -1</clus>
<clus scale="   47.575">  2  3  1 -1</clus>
<clus scale="  151.773">  1  4  2 -1</clus>
<clus scale="   47.575">  2  3  1 -1</clus>
</clustering>
</event>
<event>
 6    0  0.2433432E+002  0.8423725E+02  0.7546771E-02  0.1317439E+00
          4   -1    0    0  502    0 -0.00000000000E+00  0.00000000000E+00  0.10415620111E+03  0.10415620111E+03  0.00000000000E+00 0. -1.
         21   -1    0    0  503  502  0.00000000000E+00 -0.00000000000E+00 -0.44486914379E+03  0.44486914379E+03  0.00000000000E+00 0. -1.
         21    1    1    2  503  505  0.62188591864E+02 -0.17556310567E+02 -0.34645312188E+03  0.35242788008E+03  0.00000000000E+00 0. -1.
         21    1    1    2  504  501 -0.74359485012E+02  0.36512434976E+02 -0.10351739886E+02  0.83484426318E+02  0.00000000000E+00 0. -1.
         21    1    1    2  505  504 -0.93918950737E+01  0.40708073248E+02 -0.12383894804E+02  0.43574255830E+02  0.00000000000E+00 0. -1.
          4    1    1    2  501    0  0.21562788221E+02 -0.59664197657E+02  0.28475813897E+02  0.69538782669E+02  0.00000000000E+00 0. -1.
<scales pt_clust_3="66.67995" pt_clust_4="36.55517" pt_clust_5="36.55517" pt_clust_6="63.44108"></scales>
<clustering>
<clus scale="   36.555">  4  5 -1 -1</clus>
<clus scale="   63.441">  1  6  2 -1</clus>
<clus scale="   66.680">  2  3  1 -1</clus>
<clus scale="   66.680">  2  3  1 -1</clus>
</clustering>
</event>
<event>
 6    0  0.2433432E+002  0.1819129E+03  0.7546771E-02  0.1165965E+00
         21   -1    0    0  501  502  0.00000000000E+00  0.00000000000E+00  0.92209314429E+03  0.92209314429E+03  0.00000000000E+00 0. -1.
          2   -1    0    0  504    0 -0.00000000000E+00 -0.00000000000E+00 -0.49378669856E+03  0.49378669856E+03  0.00000000000E+00 0. -1.
         21    1    1    2  503  502  0.81992725861E+02  0.44218582004E+02  0.76283182972E+03  0.76849885525E+03  0.00000000000E+00 0. -1.
         21    1    1    2  504  505 -0.97860566504E+02  0.65867858397E+02  0.65394441664E+01  0.11814410513E+03  0.00000000000E+00 0. -1.
         21    1    1    2  505  503 -0.71206178478E+02  0.37627018942E+02  0.55083407241E+02  0.97571994759E+02  0.00000000000E+00 0. -1.
          2    1    1    2  501    0  0.87074019121E+02 -0.14771345934E+03 -0.39614823540E+03  0.43166488772E+03  0.00000000000E+00 0. -1.
<scales pt_clust_3="93.15627" pt_clust_4="48.47133" pt_clust_5="48.47133" pt_clust_6="172.19460"></scales>
<clustering>
<clus scale="   48.471">  4  5 -1 -1</clus>
<clus scale="   93.156">  1  3  2 -1</clus>
<clus scale="  172.195">  2  6  1 -1</clus>
<clus scale="   93.156">  1  3  2 -1</clus>
</clustering>
</event>
<event>
 6    0  0.2433432E+002  0.8263722E+02  0.7546771E-02  0.1321730E+00
         -2   -1    0    0    0  501 -0.00000000000E+00  0.00000000000E+00  0.80809644733E+03  0.80809644733E+03  0.00000000000E+00 0. -1.
         21   -1    0    0  505  502  0.00000000000E+00 -0.00000000000E+00 -0.87420792171E+02  0.87420792171E+02  0.00000000000E+00 0. -1.
         21    1    1    2  503  502 -0.88620524504E+02 -0.37311949724E+02  0.34612510810E+02  0.10219493559E+03  0.00000000000E+00 0.  1.
         21    1    1    2  504  501  0.67657376909E+02  0.38529791105E+02  0.86378626318E+02  0.11628986429E+03  0.00000000000E+00 0.  1.
         21    1    1    2  505  504  0.45557995241E+02 -0.36070249956E+02 -0.15683479732E+02  0.60187751235E+02  0.00000000000E+00 0. -1.
         -2    1    1    2    0  503 -0.24594847646E+02  0.34852408575E+02  0.61536799777E+03  0.61684468839E+03  0.00000000000E+00 0. -1.
<scales pt_clust_3="82.63722" pt_clust_4="14000.00000" pt_clust_5="53.38437" pt_clust_6="42.65673"></scales>
<clustering>
<clus scale="   42.657">  1  6  2 -1</clus>
<clus scale="   53.384">  2  5  1 -1</clus>
<clus scale="   82.637">  2  3  1 -1</clus>
<clus scale="   53.384">  2  3  1 -1</clus>
</clustering>
</event>
<event>
 6    0  0.2433432E+002  0.9444783E+02  0.7546771E-02  0.1292425E+00
          1   -1    0    0  504    0 -0.00000000000E+00  0.00000000000E+00  0.11791518462E+04  0.11791518462E+04  0.00000000000E+00 0. -1.
         21   -1    0    0  503  502  0.00000000000E+00 -0.00000000000E+00 -0.72596411856E+02  0.72596411856E+02  0.00000000000E+00 0. -1.
         21    1    1    2  503  501 -0.45869474875E+02 -0.91999992479E+02  0.35883331948E+03  0.37326848046E+03  0.00000000000E+00 0.  1.
         21    1    1    2  504  505  0.25846569267E+02 -0.21946738985E+02  0.17352753199E+03  0.17680924425E+03  0.00000000000E+00 0. -1.
         21    1    1    2  505  502 -0.34421876383E+02  0.40371957179E+02 -0.48742148158E+02  0.72045523853E+02  0.00000000000E+00 0. -1.
          1    1    1    2  501    0  0.54444781990E+02  0.73574774284E+02  0.62293673100E+03  0.62962500945E+03  0.00000000000E+00 0. -1.
<scales pt_clust_3="94.44783" pt_clust_4="33.90729" pt_clust_5="52.66592" pt_clust_6="14000.00000"></scales>
<clustering>
<clus scale="   33.907">  1  4  2 -1</clus>
<clus scale="   52.666">  2  5  1 -1</clus>
<clus scale="   94.448">  2  3  1 -1</clus>
<clus scale="   52.666">  2  3  1 -1</clus>
</clustering>
</event>
<event>
 6    0  0.2433432E+002  0.1638575E+03  0.7546771E-02  0.1184409E+00
         21   -1    0    0  504  502  0.00000000000E+00  0.00000000000E+00  0.18716467686E+04  0.18716467686E+04  0.00000000000E+00 0. -1.
          2   -1    0    0  503    0 -0.00000000000E+00 -0.00000000000E+00 -0.92773233147E+03  0.92773233147E+03  0.00000000000E+00 0. -1.
         21    1    1    2  503  502 -0.26456955262E+02 -0.26036568538E+02  0.39418766283E+03  0.39593154321E+03  0.00000000000E+00 0. -1.
         21    1    1    2  504  505  0.81548602300E+02 -0.27234110459E+02  0.10657075539E+04  0.10691699873E+04  0.00000000000E+00 0. -1.
         21    1    1    2  505  501  0.99234568196E+02 -0.54878822080E+01  0.39558317024E+03  0.40787701694E+03  0.00000000000E+00 0.  1.
          2    1    1    2  501    0 -0.15432621523E+03  0.58758561205E+02 -0.91156394984E+03  0.92640055260E+03  0.00000000000E+00 0. -1.
<scales pt_clust_3="37.11972" pt_clust_4="77.57420" pt_clust_5="163.85747" pt_clust_6="14000.00000"></scales>
<clustering>
<clus scale="   37.120">  1  3  2 -1</clus>
<clus scale="   77.574">  1  4  2 -1</clus>
<clus scale="  163.857">  1  5  2 -1</clus>
<clus scale="   37.120">  1  3  2 -1</clus>
</clustering>
</event>
<event>
 6    0  0.2433432E+002  0.3048621E+03  0.7546771E-02  0.1082835E+00
          1   -1    0    0  503    0 -0.00000000000E+00  0.00000000000E+00  0.84487499213E+03  0.84487499213E+03  0.00000000000E+00 0.  1.
         21   -1    0    0  501  502  0.00000000000E+00 -0.00000000000E+00 -0.64563054721E+03  0.64563054721E+03  0.00000000000E+00 0.  1.
         21    1    1    2  503  505  0.17848262911E+02  0.29771381064E+02  0.16590548856E+02  0.38472612736E+02  0.00000000000E+00 0.  1.
         21    1    1    2  504  502 -0.81172532294E+02 -0.17408671092E+02 -0.39600309818E+03  0.40461153666E+03  0.00000000000E+00 0.  1.
         21    1    1    2  505  504 -0.23970889044E+03  0.51412166608E+01 -0.13268145721E+03  0.27402765070E+03  0.00000000000E+00 0.  1.
          1    1    1    2  501    0  0.30303315982E+03 -0.17503926632E+02  0.71133845145E+03  0.77339373925E+03  0.00000000000E+00 0.  1.
<scales pt_clust_3="34.71161" pt_clust_4="82.89365" pt_clust_5="14000.00000" pt_clust_6="304.86207"></scales>
<clustering>
<clus scale="   34.712">  1  3  2 -1</clus>
<clus scale="   82.894">  2  4  1 -1</clus>
<clus scale="  304.862">  1  6  2 -1</clus>
<clus scale="   82.894">  2  3  1 -1</clus>
</clustering>
</event>
<event>
 6    0  0.2433432E+002  0.1381654E+03  0.7546771E-02  0.1215819E+00
         21   -1    0    0  503  502  0.00000000000E+00  0.00000000000E+00  0.19753470688E+03  0.19753470688E+03  0.00000000000E+00 0.  1.
          2   -1    0    0  504    0 -0.00000000000E+00 -0.00000000000E+00 -0.70023024784E+03  0.70023024784E+03  0.00000000000E+00 0. -1.
         21    1    1    2  503  501  0.33787723844E+02 -0.29246799884E+02  0.54621389865E+01  0.45020223770E+02  0.00000000000E+00 0. -1.
         21    1    1    2  504  505  0.37806225311E+02  0.24988181303E+02 -0.57122514995E+02  0.72915715702E+02  0.00000000000E+00 0. -1.
         21    1    1    2  505  502  0.16655540176E+02  0.15280483379E+03  0.11244809084E+03  0.19045024910E+03  0.00000000000E+00 0.  1.
          2    1    1    2  501    0 -0.88249489330E+02 -0.14854621521E+03 -0.56348325580E+03  0.58937876615E+03  0.00000000000E+00 0. -1.
<scales pt_clust_3="44.68764" pt_clust_4="45.91313" pt_clust_5="14000.00000" pt_clust_6="138.16543"></scales>
<clustering>
<clus scale="   44.688">  1  3  2 -1</clus>
<clus scale="   45.913">  2  4  1 -1</clus>
<clus scale="  138.165">  2  6  1 -1</clus>
<clus scale="   44.688">  1  3  2 -1</clus>
</clustering>
</event>
<event>
 6    0  0.2433432E+002  0.1595933E+03  0.7546771E-02  0.1189157E+00
         21   -1    0    0  504  502  0.00000000000E+00  0.00000000000E+00  0.64069329903E+03  0.64069329903E+03  0.00000000000E+00 0.  1.
          2   -1    0    0  503    0 -0.00000000000E+00 -0.00000000000E+00 -0.17591964481E+04  0.17591964481E+04  0.00000000000E+00 0. -1.
         21    1    1    2  503  502  0.22704461103E+02 -0.25606979803E+02  0.34897975404E+03  0.35065378752E+03  0.00000000000E+00 0.  1.
         21    1    1    2  504  505  0.29869040303E+02  0.56335346923E+01  0.59898453646E+02  0.67169345917E+02  0.00000000000E+00 0. -1.
         21    1    1    2  505  501  0.49905122180E+02  0.12472537015E+03  0.20412812949E+03  0.24436700356E+03  0.00000000000E+00 0. -1.
          2    1    1    2  501    0 -0.10247862359E+03 -0.10475192504E+03 -0.17315094863E+04  0.17376996102E+04  0.00000000000E+00 0. -1.
<scales pt_clust_3="34.22295" pt_clust_4="30.03691" pt_clust_5="30.03691" pt_clust_6="146.56922"></scales>
<clustering>
<clus scale="   30.037">  4  5 -1 -1</clus>
<clus scale="   34.223">  1  3  2 -1</clus>
<clus scale="  146.569">  2  6  1 -1</clus>
<clus scale="   34.223">  1  3  2 -1</clus>
</clustering>
</event>
<event>
 6    0  0.2433432E+002  0.7529555E+02  0.7546771E-02  0.1342958E+00
         -2   -1    0    0    0  501 -0.00000000000E+00  0.00000000000E+00  0.56654388668E+02  0.56654388668E+02  0.00000000000E+00 0. -1.
         21   -1    0    0  505  502  0.00000000000E+00 -0.00000000000E+00 -0.53550888674E+03  0.53550888674E+03  0.00000000000E+00 0. -1.
         21    1    1    2  503  501  0.57076515759E+02  0.39649722214E+02 -0.67739089071E+02  0.97048510092E+02  0.00000000000E+00 0. -1.
         21    1    1    2  504  502 -0.93837434084E+02  0.78964530316E+02 -0.26569920413E+03  0.29263787889E+03  0.00000000000E+00 0. -1.
         21    1    1    2  505  503  0.32679281186E+02 -0.50548514516E+02 -0.11059115966E+03  0.12591065218E+03  0.00000000000E+00 0. -1.
         -2    1    1    2    0  504  0.40816371377E+01 -0.68065738013E+02 -0.34825045215E+02  0.76566234250E+02  0.00000000000E+00 0. -1.
<scales pt_clust_3="70.11562" pt_clust_4="14000.00000" pt_clust_5="60.19209" pt_clust_6="75.29555"></scales>
<clustering>
<clus scale="   60.192">  2  5  1 -1</clus>
<clus scale="   70.116">  1  3  2 -1</clus>
<clus scale="   75.296">  1  6  2 -1</clus>
<clus scale="   60.192">  2  3  1 -1</clus>
</clustering>
</event>
<event>
 6    0  0.2433432E+002  0.1047913E+03  0.7546771E-02  0.1270531E+00
          2   -1    0    0  504    0 -0.00000000000E+00  0.00000000000E+00  0.12967279943E+04  0.12967279943E+04  0.00000000000E+00 0. -1.
         21   -1    0    0  503  502  0.00000000000E+00 -0.00000000000E+00 -0.85255976926E+02  0.85255976926E+02  0.00000000000E+00 0.  1.
         21    1    1    2  503  501 -0.10495714314E+03  0.12267776587E+02  0.28109712951E+03  0.30030334074E+03  0.00000000000E+00 0. -1.
         21    1    1    2  504  505  0.25288382839E+02 -0.25460886796E+02  0.11406391092E+03  0.11957564483E+03  0.00000000000E+00 0. -1.
         21    1    1    2  505  502  0.95472251786E+02  0.47761946804E+02 -0.33159770651E+02  0.11178427802E+03  0.00000000000E+00 0.  1.
          2    1    1    2  501    0 -0.15803491479E+02 -0.34568836596E+02  0.84947074756E+03  0.85032070760E+03  0.00000000000E+00 0. -1.
<scales pt_clust_3="14000.00000" pt_clust_4="35.88536" pt_clust_5="104.79133" pt_clust_6="52.96343"></scales>
<clustering>
<clus scale="   35.885">  1  4  2 -1</clus>
<clus scale="   52.963">  1  6  2 -1</clus>
<clus scale="  104.791">  2  5  1 -1</clus>
<clus scale="  104.791">  2  3  1 -1</clus>
</clustering>
</event>
<event>
 6    0  0.2433432E+002  0.1246433E+03  0.7546771E-02  0.1235628E+00
          2   -1    0    0  505    0 -0.00000000000E+00  0.00000000000E+00  0.18440754530E+04  0.18440754530E+04  0.00000000000E+00 0. -1.
         21   -1    0    0  504  502  0.00000000000E+00 -0.00000000000E+00 -0.97098534554E+02  0.97098534554E+02  0.00000000000E+00 0. -1.
         21    1    1    2  503  501 -0.77301759634E+02 -0.21748757668E+02  0.96851653947E+02  0.12581261215E+03  0.00000000000E+00 0.  1.
         21    1    1    2  504  503  0.54389144584E+02  0.13431158324E+03  0.12554462363E+02  0.14544894282E+03  0.00000000000E+00 0. -1.
         21    1    1    2  505  502 -0.95436634154E+01 -0.92218729651E+02  0.11896952436E+03  0.15082812515E+03  0.00000000000E+00 0. -1.
          2    1    1    2  501    0  0.32456278465E+02 -0.20344095920E+02  0.15186012778E+04  0.15190843074E+04  0.00000000000E+00 0. -1.
<scales pt_clust_3="72.15081" pt_clust_4="14000.00000" pt_clust_5="124.64328" pt_clust_6="38.30525"></scales>
<clustering>
<clus scale="   38.305">  1  6  2 -1</clus>
<clus scale="   72.151">  1  3  2 -1</clus>
<clus scale="  124.643">  1  5  2 -1</clus>
<clus scale="  124.643">  2  3  1 -1</clus>
</clustering>
</event>
<event>
 6    0  0.2433432E+002  0.1279004E+03  0.7546771E-02  0.1230605E+00
         21   -1    0    0  501  502  0.00000000000E+00  0.00000000000E+00  0.10821463299E+04  0.10821463299E+04  0.00000000000E+00 0. -1.
          2   -1    0    0  505    0 -0.00000000000E+00 -0.00000000000E+00 -0.18716368647E+04  0.18716368647E+04  0.00000000000E+00 0. -1.
         21    1    1    2  503  502 -0.49962341013E+02  0.10902933142E+02  0.49753460080E+03  0.50015576420E+03  0.00000000000E+00 0. -1.
         21    1    1    2  504  503 -0.65409636749E+02 -0.45467439406E+02  0.52337622904E+03  0.52940380216E+03  0.00000000000E+00 0. -1.
         21    1    1    2  505  504  0.70314501699E+02  0.35310249647E+02  0.29307063434E+02  0.83963366098E+02  0.00000000000E+00 0.  1.
          2    1    1    2  501    0  0.45057476063E+02 -0.74574338280E+00 -0.18397084280E+04  0.18402602621E+04  0.00000000000E+00 0. -1.
<scales pt_clust_3="45.70276" pt_clust_4="45.70276" pt_clust_5="114.58596" pt_clust_6="45.06365"></scales>
<clustering>
<clus scale="   45.064">  2  6  1 -1</clus>
<clus scale="   45.703">  3  4 -1 -1</clus>
<clus scale="  114.586">  2  5  1 -1</clus>
<clus scale="  127.900">  1  3  2 -1</clus>
</clustering>
</event>
<event>
 6    0  0.2433432E+002  0.9894783E+02  0.7546771E-02  0.1282524E+00
          2   -1    0    0  505    0 -0.00000000000E+00  0.00000000000E+00  0.74649500494E+03  0.74649500494E+03  0.00000000000E+00 0. -1.
         21   -1    0    0  504  502  0.00000000000E+00 -0.00000000000E+00 -0.27348861217E+03  0.27348861217E+03  0.00000000000E+00 0.  1.
         21    1    1    2  503  502  0.83669138539E+00 -0.49788343211E+02 -0.19578929793E+03  0.20202234618E+03  0.00000000000E+00 0.  1.
         21    1    1    2  504  501 -0.49565683852E+02  0.27100484257E+02  0.27483306638E+01  0.56557462674E+02  0.00000000000E+00 0. -1.
         21    1    1    2  505  503 -0.39023000959E+02 -0.31642237332E+02 -0.29486843659E+02  0.58253752979E+02  0.00000000000E+00 0. -1.
          2    1    1    2  501    0  0.87751993426E+02  0.54330096286E+02  0.69553420370E+03  0.70315005527E+03  0.00000000000E+00 0. -1.
<scales pt_clust_3="49.79537" pt_clust_4="50.10459" pt_clust_5="98.94783" pt_clust_6="14000.00000"></scales>
<clustering>
<clus scale="   49.795">  2  3  1 -1</clus>
<clus scale="   50.105">  2  4  1 -1</clus>
<clus scale="   98.948">  2  5  1 -1</clus>
<clus scale="   49.795">  2  3  1 -1</clus>
</clustering>
</event>
<event>
 6    0  0.2433432E+002  0.8415853E+02  0.7546771E-02  0.1317648E+00
         21   -1    0    0  505  502  0.00000000000E+00  0.00000000000E+00  0.81844348604E+02  0.81844348604E+02  0.00000000000E+00 0.  1.
          2   -1    0    0  504    0 -0.00000000000E+00 -0.00000000000E+00 -0.47486638847E+03  0.47486638847E+03  0.00000000000E+00 0.  1.
         21    1    1    2  503  502  0.40560972315E+02  0.38879872841E+02  0.16305865824E+02  0.58504001979E+02  0.00000000000E+00 0.  1.
         21    1    1    2  504  503  0.42632213871E+02 -0.55130297120E+02 -0.12404978959E+03  0.14228564796E+03  0.00000000000E+00 0.  1.
         21    1    1    2  505  501  0.50200873620E+02 -0.10547903702E+02 -0.15191300133E+02  0.53499173680E+02  0.00000000000E+00 0.  1.
          2    1    1    2  501    0 -0.13339405981E+03  0.26798327981E+02 -0.27008681597E+03  0.30242191345E+03  0.00000000000E+00 0.  1.
<scales pt_clust_3="14000.00000" pt_clust_4="75.52631" pt_clust_5="51.29704" pt_clust_6="84.15853"></scales>
<clustering>
<clus scale="   51.297">  1  5  2 -1</clus>
<clus scale="   75.526">  2  4  1 -1</clus>
<clus scale="   84.159">  2  6  1 -1</clus>
<clus scale="   51.297">  1  3  2 -1</clus>
</clustering>
</event>
<event>
 6    0  0.2433432E+002  0.1146171E+03  0.7546771E-02  0.1252251E+00
         21   -1    0    0  503  502  0.00000000000E+00  0.00000000000E+00  0.33830213367E+02  0.33830213367E+02  0.00000000000E+00 0. -1.
          1   -1    0    0  505    0 -0.00000000000E+00 -0.00000000000E+00 -0.15984804172E+04  0.15984804172E+04  0.00000000000E+00 0. -1.
         21    1    1    2  503  504  0.89582736799E+02 -0.32796277010E+02 -0.40664465329E+03  0.41768473346E+03  0.00000000000E+00 0. -1.
         21    1    1    2  504  501  0.37580713909E+02  0.14175728549E+02 -0.89899576075E+02  0.98464181895E+02  0.00000000000E+00 0. -1.
         21    1    1    2  505  502 -0.93177918401E+02 -0.14793275925E+02 -0.71400422746E+02  0.11831731005E+03  0.00000000000E+00 0. -1.
          1    1    1    2  501    0 -0.33985532307E+02  0.33413824387E+02 -0.99670555175E+03  0.99784440518E+03  0.00000000000E+00 0. -1.
<scales pt_clust_3="37.47901" pt_clust_4="37.47901" pt_clust_5="98.99911" pt_clust_6="47.66026"></scales>
<clustering>
<clus scale="   37.479">  3  4 -1 -1</clus>
<clus scale="   47.660">  2  6  1 -1</clus>
<clus scale="   98.999">  1  5  2 -1</clus>
<clus scale="   98.999">  1  3  2 -1</clus>
</clustering>
</event>
<event>
 6    0  0.2433432E+002  0.6575757E+02  0.7546771E-02  0.1375144E+00
         21   -1    0    0  504  502  0.00000000000E+00  0.00000000000E+00  0.15523492448E+02  0.15523492448E+02  0.00000000000E+00 0. -1.
          2   -1    0    0  502    0 -0.00000000000E+00 -0.00000000000E+00 -0.23018918850E+04  0.23018918850E+04  0.00000000000E+00 0. -1.
         21    1    1    2  503  501 -0.83521418466E+01 -0.56736523397E+02 -0.26005326439E+03  0.26630150521E+03  0.00000000000E+00 0. -1.
         21    1    1    2  504  505  0.54496253054E+02  0.35831730331E+02 -0.22964583853E+03  0.23872780661E+03  0.00000000000E+00 0. -1.
         21    1    1    2  505  503 -0.80819864618E+02  0.53813469920E+02 -0.30784571960E+03  0.32279517831E+03  0.00000000000E+00 0. -1.
          2    1    1    2  501    0  0.34675753410E+02 -0.32908676854E+02 -0.14888235700E+04  0.14895908873E+04  0.00000000000E+00 0. -1.
<scales pt_clust_3="67.45496" pt_clust_4="14000.00000" pt_clust_5="65.75757" pt_clust_6="47.80574"></scales>
<clustering>
<clus scale="   47.806">  2  6  1 -1</clus>
<clus scale="   67.455">  2  3  1 -1</clus>
<clus scale="   65.758">  2  5  1 -1</clus>
<clus scale="   65.758">  1  3  2 -1</clus>
</clustering>
</event>
<event>
 6    0  0.2433432E+002  0.6490416E+02  0.7546771E-02  0.1378332E+00
         21   -1    0    0  505  502  0.00000000000E+00  0.00000000000E+00  0.14698566708E+02  0.14698566708E+02  0.00000000000E+00 0. -1.
          2   -1    0    0  504    0 -0.00000000000E+00 -0.00000000000E+00 -0.14879318006E+04  0.14879318006E+04  0.00000000000E+00 0.  1.
         21    1    1    2  503  502 -0.23932399717E+02 -0.52959815457E+02 -0.14690353459E+03  0.15798148716E+03  0.00000000000E+00 0. -1.
         21    1    1    2  504  503 -0.18050204762E+02  0.40319320698E+02 -0.53265569478E+03  0.53448437460E+03  0.00000000000E+00 0.  1.
         21    1    1    2  505  501  0.12097032554E+02  0.76779693241E+02 -0.24729133932E+03  0.25921895377E+03  0.00000000000E+00 0.  1.
          2    1    1    2  501    0  0.29885571925E+02 -0.64139198482E+02 -0.54638266520E+03  0.55094555178E+03  0.00000000000E+00 0.  1.
<scales pt_clust_3="64.90416" pt_clust_4="44.17530" pt_clust_5="14000.00000" pt_clust_6="45.36812"></scales>
<clustering>
<clus scale="   44.175">  2  4  1 -1</clus>
<clus scale="   45.368">  2  6  1 -1</clus>
<clus scale="   64.904">  1  3  2 -1</clus>
<clus scale="   64.904">  1  3  2 -1</clus>
</clustering>
</event>
<event>
 6    0  0.2433432E+002  0.1991817E+03  0.7546771E-02  0.1150431E+00
         21   -1    0    0  503  502  0.00000000000E+00  0.00000000000E+00  0.67622669699E+02  0.67622669699E+02  0.00000000000E+00 0.  1.
          2   -1    0    0  502    0 -0.00000000000E+00 -0.00000000000E+00 -0.13534576272E+04  0.13534576272E+04  0.00000000000E+00 0.  1.
         21    1    1    2  503  505 -0.56040206386E+02  0.17721737100E+02 -0.54542601687E+02  0.80183914200E+02  0.00000000000E+00 0.  1.
         21    1    1    2  504  501  0.15254894439E+03  0.42202760276E+02 -0.50645794430E+03  0.53061464619E+03  0.00000000000E+00 0.  1.
         21    1    1    2  505  504 -0.12595895319E+03 -0.75885749018E+02 -0.85562942355E+02  0.17013324748E+03  0.00000000000E+00 0.  1.
          2    1    1    2  501    0  0.29450215183E+02  0.15961251642E+02 -0.63927146915E+03  0.64014848902E+03  0.00000000000E+00 0.  1.
<scales pt_clust_3="51.16919" pt_clust_4="182.07407" pt_clust_5="51.16919" pt_clust_6="33.49741"></scales>
<clustering>
<clus scale="   33.497">  2  6  1 -1</clus>
<clus scale="   51.169">  3  5 -1 -1</clus>
<clus scale="  182.074">  2  4  1 -1</clus>
<clus scale="  199.182">  1  3  2 -1</clus>
</clustering>
</event>
<event>
 6    0  0.2433432E+002  0.1301595E+03  0.7546771E-02  0.1227219E+00
         21   -1    0    0  504  502  0.00000000000E+00  0.00000000000E+00  0.35475815881E+02  0.35475815881E+02  0.00000000000E+00 0. -1.
          1   -1    0    0  503    0 -0.00000000000E+00 -0.00000000000E+00 -0.22249028743E+04  0.22249028743E+04  0.00000000000E+00 0. -1.
         21    1    1    2  503  505 -0.99405484091E+02  0.83354176633E+02 -0.25209641532E+03  0.28351714524E+03  0.00000000000E+00 0. -1.
         21    1    1    2  504  501  0.10640066041E+02 -0.28059333436E+02 -0.10305345857E+03  0.10733383679E+03  0.00000000000E+00 0.  1.
         21    1    1    2  505  502  0.32304787416E+02  0.63844084191E+02 -0.69222968554E+02  0.99556445053E+02  0.00000000000E+00 0. -1.
          1    1    1    2  501    0  0.56460630634E+02 -0.11913892739E+03 -0.17650542160E+04  0.17699712631E+04  0.00000000000E+00 0. -1.
<scales pt_clust_3="130.15954" pt_clust_4="30.00895" pt_clust_5="63.15660" pt_clust_6="14000.00000"></scales>
<clustering>
<clus scale="   30.009">  1  4  2 -1</clus>
<clus scale="   63.157">  1  5  2 -1</clus>
<clus scale="  130.160">  1  3  2 -1</clus>
<clus scale="   30.009">  1  3  2 -1</clus>
</clustering>
</event>
<event>
 6    0  0.2433432E+002  0.1469767E+03  0.7546771E-02  0.1204238E+00
          2   -1    0    0  505    0 -0.00000000000E+00  0.00000000000E+00  0.13521324663E+04  0.13521324663E+04  0.00000000000E+00 0. -1.
         21   -1    0    0  501  502  0.00000000000E+00 -0.00000000000E+00 -0.40523170178E+03  0.40523170178E+03  0.00000000000E+00 0. -1.
         21    1    1    2  503  502  0.81162179644E+02 -0.52896521827E+02 -0.51727107214E+02  0.10982274376E+03  0.00000000000E+00 0. -1.
         21    1    1    2  504  503 -0.36148233503E+02 -0.61498805267E+02 -0.14365085688E+03  0.16038817449E+03  0.00000000000E+00 0. -1.
         21    1    1    2  505  504 -0.79022507652E+02 -0.14175667991E+02 -0.15951742234E+03  0.17858139407E+03  0.00000000000E+00 0. -1.
          2    1    1    2  501    0  0.34008561510E+02  0.12857099509E+03  0.13017961510E+04  0.13085718558E+04  0.00000000000E+00 0. -1.
<scales pt_clust_3="96.87797" pt_clust_4="59.60527" pt_clust_5="59.60527" pt_clust_6="132.67902"></scales>
<clustering>
<clus scale="   59.605">  4  5 -1 -1</clus>
<clus scale="   96.878">  2  3  1 -1</clus>
<clus scale="  132.679">  1  6  2 -1</clus>
<clus scale="   96.878">  2  3  1 -1</clus>
</clustering>
</event>
<event>
 6    0  0.2433432E+002  0.1606828E+03  0.7546771E-02  0.1187928E+00
         -3   -1    0    0    0  501 -0.00000000000E+00  0.00000000000E+00  0.37196327635E+03  0.37196327635E+03  0.00000000000E+00 0.  1.
         21   -1    0    0  505  502  0.00000000000E+00 -0.00000000000E+00 -0.91368176136E+02  0.91368176136E+02  0.00000000000E+00 0.  1.
         21    1    1    2  503  501  0.27259904569E+02  0.26204300350E+02  0.40929288010E+02  0.55722296892E+02  0.00000000000E+00 0. -1.
         21    1    1    2  504  503  0.32175783655E+01  0.11492137302E+03  0.34386881194E+02  0.11999888493E+03  0.00000000000E+00 0.  1.
         21    1    1    2  505  504 -0.25981896321E+02  0.24242491755E+02  0.29024900303E+02  0.45882482284E+02  0.00000000000E+00 0.  1.
         -3    1    1    2    0  502 -0.44955866129E+01 -0.16536816512E+03  0.17625403071E+03  0.24172778838E+03  0.00000000000E+00 0.  1.
<scales pt_clust_3="37.81227" pt_clust_4="33.40757" pt_clust_5="33.40757" pt_clust_6="149.02415"></scales>
<clustering>
<clus scale="   33.408">  4  5 -1 -1</clus>
<clus scale="   37.812">  1  3  2 -1</clus>
<clus scale="  149.024">  1  6  2 -1</clus>
<clus scale="  160.683">  2  3  1 -1</clus>
</clustering>
</event>
<event>
 6    0  0.2433432E+002  0.1007096E+03  0.7546771E-02  0.1278811E+00
          2   -1    0    0  504    0 -0.00000000000E+00  0.00000000000E+00  0.57092593308E+03  0.57092593308E+03  0.00000000000E+00 0. -1.
         21   -1    0    0  503  502  0.00000000000E+00 -0.00000000000E+00 -0.15546211100E+03  0.15546211100E+03  0.00000000000E+00 0.  1.
         21    1    1    2  503  501 -0.40491866376E+02  0.78655199850E+02 -0.11303581439E+03  0.14353859078E+03  0.00000000000E+00 0.  1.
         21    1    1    2  504  505  0.64683150574E+02 -0.14207715261E+02  0.58145205021E+02  0.88128508486E+02  0.00000000000E+00 0.  1.
         21    1    1    2  505  502  0.38294496519E+02 -0.45349129464E+02  0.83845874476E+02  0.10272849008E+03  0.00000000000E+00 0.  1.
          2    1    1    2  501    0 -0.62485780717E+02 -0.19098355125E+02  0.38650855698E+03  0.39199245475E+03  0.00000000000E+00 0. -1.
<scales pt_clust_3="89.60420" pt_clust_4="43.52308" pt_clust_5="43.52308" pt_clust_6="65.33927"></scales>
<clustering>
<clus scale="   43.523">  4  5 -1 -1</clus>
<clus scale="   65.339">  1  6  2 -1</clus>
<clus scale="   89.604">  2  3  1 -1</clus>
<clus scale="   89.604">  2  3  1 -1</clus>
</clustering>
</event>
<event>
 6    0  0.2433432E+002  0.8426665E+02  0.7546771E-02  0.1317362E+00
         21   -1    0    0  503  502  0.00000000000E+00  0.00000000000E+00  0.28765982122E+02  0.28765982122E+02  0.00000000000E+00 0.  1.
          1   -1    0    0  504    0 -0.00000000000E+00 -0.00000000000E+00 -0.13138591610E+04  0.13138591610E+04  0.00000000000E+00 0. -1.
         21    1    1    2  503  501 -0.19805502355E+02  0.80575100193E+02 -0.24245494732E+03  0.25625964601E+03  0.00000000000E+00 0.  1.
         21    1    1    2  504  505 -0.63051375940E+02 -0.81213913295E+02 -0.20993224070E+03  0.23375782641E+03  0.00000000000E+00 0.  1.
         21    1    1    2  505  502  0.43328513509E+02 -0.12161935126E+02 -0.44438708126E+02  0.63246118685E+02  0.00000000000E+00 0.  1.
          1    1    1    2  501    0  0.39528364787E+02  0.12800748228E+02 -0.78826728274E+03  0.78936155202E+03  0.00000000000E+00 0. -1.
<scales pt_clust_3="14000.00000" pt_clust_4="84.26665" pt_clust_5="48.60830" pt_clust_6="41.54938"></scales>
<clustering>
<clus scale="   41.549">  2  6  1 -1</clus>
<clus scale="   48.608">  1  5  2 -1</clus>
<clus scale="   84.267">  1  4  2 -1</clus>
<clus scale="   48.608">  1  3  2 -1</clus>
</clustering>
</event>
<event>
 6    0  0.2433432E+002  0.2209337E+03  0.7546771E-02  0.1133189E+00
         21   -1    0    0  501  502  0.00000000000E+00  0.00000000000E+00  0.26319473724E+03  0.26319473724E+03  0.00000000000E+00 0. -1.
          2   -1    0    0  503    0 -0.00000000000E+00 -0.00000000000E+00 -0.16587856094E+04  0.16587856094E+04  0.00000000000E+00 0.  1.
         21    1    1    2  503  504  0.10633884009E+03  0.27384000559E+01  0.23295331903E+02  0.10889499638E+03  0.00000000000E+00 0. -1.
         21    1    1    2  504  505  0.86612158216E+02  0.18051759476E+02  0.84331611102E+02  0.12222664440E+03  0.00000000000E+00 0.  1.
         21    1    1    2  505  502  0.18500449899E+02 -0.37845944722E+02  0.81639230122E+02  0.91867002091E+02  0.00000000000E+00 0. -1.
          2    1    1    2  501    0 -0.21145144821E+03  0.17055785191E+02 -0.15848570453E+04  0.15989917038E+04  0.00000000000E+00 0.  1.
<scales pt_clust_3="59.77833" pt_clust_4="59.77833" pt_clust_5="42.12579" pt_clust_6="211.28267"></scales>
<clustering>
<clus scale="   42.126">  1  5  2 -1</clus>
<clus scale="   59.778">  3  4 -1 -1</clus>
<clus scale="  211.283">  2  6  1 -1</clus>
<clus scale="   42.126">  1  3  2 -1</clus>
</clustering>
</event>
<event>
 6    0  0.2433432E+002  0.1668999E+03  0.7546771E-02  0.1181120E+00
          1   -1    0    0  503    0 -0.00000000000E+00  0.00000000000E+00  0.14449136249E+04  0.14449136249E+04  0.00000000000E+00 0.  1.
         21   -1    0    0  505  502  0.00000000000E+00 -0.00000000000E+00 -0.48369054094E+03  0.48369054094E+03  0.00000000000E+00 0.  1.
         21    1    1    2  503  502 -0.76107660133E+02 -0.12874336823E+03  0.50852005379E+01  0.14964320919E+03  0.00000000000E+00 0.  1.
         21    1    1    2  504  501  0.40090960166E+02  0.81437681815E+02 -0.21778929603E+03  0.23594821163E+03  0.00000000000E+00 0.  1.
         21    1    1    2  505  504  0.69905547067E+02  0.35742747356E+02 -0.17594379478E+03  0.19266693650E+03  0.00000000000E+00 0.  1.
          1    1    1    2  501    0 -0.33888847100E+02  0.11562939055E+02  0.13498709742E+04  0.13503458085E+04  0.00000000000E+00 0.  1.
<scales pt_clust_3="158.11666" pt_clust_4="49.10361" pt_clust_5="49.10361" pt_clust_6="35.80720"></scales>
<clustering>
<clus scale="   35.807">  1  6  2 -1</clus>
<clus scale="   49.104">  4  5 -1 -1</clus>
<clus scale="  158.117">  1  3  2 -1</clus>
<clus scale="  166.900">  2  3  1 -1</clus>
</clustering>
</event>
<event>
 6    0  0.2433432E+002  0.1481214E+03  0.7546771E-02  0.1202801E+00
         21   -1    0    0  503  502  0.00000000000E+00  0.00000000000E+00  0.10229620759E+02  0.10229620759E+02  0.00000000000E+00 0. -1.
          2   -1    0    0  504    0 -0.00000000000E+00 -0.00000000000E+00 -0.32481710279E+04  0.32481710279E+04  0.00000000000E+00 0. -1.
         21    1    1    2  503  501 -0.55326382382E+01  0.64598812223E+02 -0.23150308219E+03  0.24041067715E+03  0.00000000000E+00 0. -1.
         21    1    1    2  504  505 -0.14273989864E+02 -0.27806061850E+02 -0.89070376441E+03  0.89125199568E+03  0.00000000000E+00 0. -1.
         21    1    1    2  505  502  0.59406009579E+02 -0.10934913189E+03 -0.15512426939E+04  0.15562262695E+04  0.00000000000E+00 0. -1.
          2    1    1    2  501    0 -0.39599381477E+02  0.72556381516E+02 -0.56449186673E+03  0.57051170638E+03  0.00000000000E+00 0. -1.
<scales pt_clust_3="49.81629" pt_clust_4="31.25578" pt_clust_5="137.11766" pt_clust_6="49.81629"></scales>
<clustering>
<clus scale="   31.256">  2  4  1 -1</clus>
<clus scale="   49.816">  3  6 -1 -1</clus>
<clus scale="  137.118">  2  5  1 -1</clus>
<clus scale="  148.121">  1  3  2 -1</clus>
</clustering>
</event>
<event>
 6    0  0.2433432E+002  0.1138253E+03  0.7546771E-02  0.1253646E+00
         -2   -1    0    0    0  501 -0.00000000000E+00  0.00000000000E+00  0.23748548374E+03  0.23748548374E+03  0.00000000000E+00 0. -1.
         21   -1    0    0  505  502  0.00000000000E+00 -0.00000000000E+00 -0.84054392720E+03  0.84054392720E+03  0.00000000000E+00 0.  1.
         21    1    1    2  503  504 -0.42538523575E+02 -0.54641472183E+01 -0.11490406527E+03  0.12264716511E+03  0.00000000000E+00 0. -1.
         21    1    1    2  504  502 -0.10136143628E+03 -0.45869725972E+02 -0.58139572300E+03  0.59194523332E+03  0.00000000000E+00 0.  1.
         21    1    1    2  505  501  0.86441923528E+02 -0.32990286052E+02 -0.10532166283E+03  0.14018993465E+03  0.00000000000E+00 0. -1.
         -2    1    1    2    0  503  0.57458036327E+02  0.84324159242E+02  0.19856300764E+03  0.22324707786E+03  0.00000000000E+00 0. -1.
<scales pt_clust_3="30.83526" pt_clust_4="30.83526" pt_clust_5="92.52332" pt_clust_6="102.41903"></scales>
<clustering>
<clus scale="   30.835">  3  4 -1 -1</clus>
<clus scale="   92.523">  2  5  1 -1</clus>
<clus scale="  102.419">  1  6  2 -1</clus>
<clus scale="   92.523">  2  3  1 -1</clus>
</clustering>
</event>
<event>
 6    0  0.2433432E+002  0.9458502E+02  0.7546771E-02  0.1292113E+00
         -1   -1    0    0    0  501 -0.00000000000E+00  0.00000000000E+00  0.44360095839E+03  0.44360095839E+03  0.00000000000E+00 0.  1.
         21   -1    0    0  504  502  0.00000000000E+00 -0.00000000000E+00 -0.47569119851E+03  0.47569119851E+03  0.00000000000E+00 0. -1.
         21    1    1    2  503  505  0.68524319848E+02 -0.38963967101E+02  0.38126941939E+02  0.87563901492E+02  0.00000000000E+00 0. -1.
         21    1    1    2  504  501 -0.49820653526E+02  0.10987296582E+03 -0.37122432129E+03  0.39033532104E+03  0.00000000000E+00 0. -1.
         21    1    1    2  505  502 -0.18016173198E+02 -0.39988260255E+02 -0.62620472891E+02  0.76452384398E+02  0.00000000000E+00 0. -1.
         -1    1    1    2    0  503 -0.68749312377E+00 -0.30920738459E+02  0.36362761213E+03  0.36494054997E+03  0.00000000000E+00 0.  1.
<scales pt_clust_3="94.58502" pt_clust_4="14000.00000" pt_clust_5="46.35408" pt_clust_6="30.92838"></scales>
<clustering>
<clus scale="   30.928">  1  6  2 -1</clus>
<clus scale="   46.354">  2  5  1 -1</clus>
<clus scale="   94.585">  1  3  2 -1</clus>
<clus scale="   46.354">  2  3  1 -1</clus>
</clustering>
</event>
<event>
 6    0  0.2433432E+002  0.1121584E+03  0.7546771E-02  0.1256624E+00
         21   -1    0    0  504  502  0.00000000000E+00  0.00000000000E+00  0.36327653614E+03  0.36327653614E+03  0.00000000000E+00 0. -1.
         -3   -1    0    0    0  501 -0.00000000000E+00 -0.00000000000E+00 -0.36112163117E+03  0.36112163117E+03  0.00000000000E+00 0.  1.
         21    1    1    2  503  502  0.11289101769E+03  0.13899396348E+02  0.30076728176E+03  0.32155642254E+03  0.00000000000E+00 0. -1.
         21    1    1    2  504  501 -0.92992291321E+02 -0.41340395239E+02 -0.67205034026E+02  0.12195536529E+03  0.00000000000E+00 0.  1.
         21    1    1    2  505  503 -0.69752321855E+01  0.80257205624E+02 -0.58305632947E+02  0.99445561751E+02  0.00000000000E+00 0. -1.
         -3    1    1    2    0  505 -0.12923494186E+02 -0.52816206734E+02 -0.17310170983E+03  0.18144081773E+03  0.00000000000E+00 0.  1.
<scales pt_clust_3="14000.00000" pt_clust_4="112.15838" pt_clust_5="58.94292" pt_clust_6="54.37434"></scales>
<clustering>
<clus scale="   54.374">  2  6  1 -1</clus>
<clus scale="   58.943">  2  5  1 -1</clus>
<clus scale="  112.158">  2  4  1 -1</clus>
<clus scale="  112.158">  1  3  2 -1</clus>
</clustering>
</event>
<event>
 6    0  0.2433432E+002  0.1071829E+03  0.7546771E-02  0.1265878E+00
          2   -1    0    0  504    0 -0.00000000000E+00  0.00000000000E+00  0.22045766817E+04  0.22045766817E+04  0.00000000000E+00 0. -1.
         21   -1    0    0  503  502  0.00000000000E+00 -0.00000000000E+00 -0.67003839332E+02  0.67003839332E+02  0.00000000000E+00 0.  1.
         21    1    1    2  503  501  0.42209102696E+02 -0.19731500355E+01  0.97799305558E+02  0.10653734481E+03  0.00000000000E+00 0. -1.
         21    1    1    2  504  505 -0.11081328032E+03 -0.82976943910E+02  0.48633031015E+02  0.14673080120E+03  0.00000000000E+00 0.  1.
         21    1    1    2  505  502 -0.25813194634E+02  0.36071203515E+02  0.28344552847E+02  0.52639019903E+02  0.00000000000E+00 0. -1.
          2    1    1    2  501    0  0.94417372255E+02  0.48878890431E+02  0.19627959529E+04  0.19656733551E+04  0.00000000000E+00 0. -1.
<scales pt_clust_3="42.25520" pt_clust_4="14000.00000" pt_clust_5="39.80443" pt_clust_6="107.18285"></scales>
<clustering>
<clus scale="   42.255">  2  3  1 -1</clus>
<clus scale="   39.804">  2  5  1 -1</clus>
<clus scale="  107.183">  1  6  2 -1</clus>
<clus scale="   42.255">  2  3  1 -1</clus>
</clustering>
</event>
<event>
 6    0  0.2433432E+002  0.1002732E+03  0.7546771E-02  0.1279722E+00
          2   -1    0    0  504    0 -0.00000000000E+00  0.00000000000E+00  0.13299202078E+04  0.13299202078E+04  0.00000000000E+00 0. -1.
         21   -1    0    0  505  502  0.00000000000E+00 -0.00000000000E+00 -0.48858247683E+03  0.48858247683E+03  0.00000000000E+00 0. -1.
         21    1    1    2  503  501 -0.67945507063E+02 -0.89621016293E+02 -0.46245745510E+02  0.12160258003E+03  0.00000000000E+00 0. -1.
         21    1    1    2  504  502  0.90232879605E+02  0.63420679656E+02 -0.99556633403E+02  0.14857886264E+03  0.00000000000E+00 0. -1.
         21    1    1    2  505  503 -0.27223827520E+02 -0.15295330877E+02 -0.27937611593E+03  0.28111580902E+03  0.00000000000E+00 0. -1.
          2    1    1    2  501    0  0.49364549775E+01  0.41495667513E+02  0.12665162258E+04  0.12672054329E+04  0.00000000000E+00 0. -1.
<scales pt_clust_3="14000.00000" pt_clust_4="100.27322" pt_clust_5="31.22633" pt_clust_6="41.75784"></scales>
<clustering>
<clus scale="   31.226">  2  5  1 -1</clus>
<clus scale="   41.758">  1  6  2 -1</clus>
<clus scale="  100.273">  2  4  1 -1</clus>
<clus scale="   31.226">  2  3  1 -1</clus>
</clustering>
</event>
<event>
 6    0  0.2433432E+002  0.1110116E+03  0.7546771E-02  0.1258708E+00
         21   -1    0    0  505  502  0.00000000000E+00  0.00000000000E+00  0.79923978467E+02  0.79923978467E+02  0.00000000000E+00 0.  1.
          2   -1    0    0  504    0 -0.00000000000E+00 -0.00000000000E+00 -0.37143502170E+03  0.37143502170E+03  0.00000000000E+00 0.  1.
         21    1    1    2  503  502  0.55352693968E+01  0.33154121952E+02 -0.36191888929E+01  0.33807300069E+02  0.00000000000E+00 0.  1.
         21    1    1    2  504  503  0.12652432597E+03 -0.20902504862E+02 -0.12384362521E+03  0.17827664815E+03  0.00000000000E+00 0.  1.
         21    1    1    2  505  501 -0.99461546561E+02 -0.52985057044E+02 -0.72794963287E+02  0.13416080722E+03  0.00000000000E+00 0.  1.
          2    1    1    2  501    0 -0.32598048807E+02  0.40733439954E+02 -0.91253265843E+02  0.10511424472E+03  0.00000000000E+00 0.  1.
<scales pt_clust_3="33.61302" pt_clust_4="111.01164" pt_clust_5="14000.00000" pt_clust_6="54.63441"></scales>
<clustering>
<clus scale="   33.613">  1  3  2 -1</clus>
<clus scale="   54.634">  2  6  1 -1</clus>
<clus scale="  111.012">  2  4  1 -1</clus>
<clus scale="   33.613">  1  3  2 -1</clus>
</clustering>
</event>
<event>
 6    0  0.2433432E+002  0.8030314E+02  0.7546771E-02  0.1328193E+00
         21   -1    0    0  503  502  0.00000000000E+00  0.00000000000E+00  0.26325096618E+02  0.26325096618E+02  0.00000000000E+00 0. -1.
          1   -1    0    0  504    0 -0.00000000000E+00 -0.00000000000E+00 -0.10069649852E+04  0.10069649852E+04  0.00000000000E+00 0.  1.
         21    1    1    2  503  501  0.26065643257E+02 -0.17361113047E+02 -0.16130382510E+02  0.35228046278E+02  0.00000000000E+00 0.  1.
         21    1    1    2  504  505 -0.38140656644E+02  0.63604301198E+02 -0.48101336905E+03  0.48669711117E+03  0.00000000000E+00 0.  1.
         21    1    1    2  505  502 -0.49880317866E+02  0.22540818053E+02 -0.77074108259E+02  0.94533342017E+02  0.00000000000E+00 0. -1.
          1    1    1    2  501    0  0.61955331253E+02 -0.68784006205E+02 -0.40642202879E+03  0.41683158237E+03  0.00000000000E+00 0.  1.
<scales pt_clust_3="31.31814" pt_clust_4="14000.00000" pt_clust_5="38.74732" pt_clust_6="80.30314"></scales>
<clustering>
<clus scale="   31.318">  1  3  2 -1</clus>
<clus scale="   38.747">  1  5  2 -1</clus>
<clus scale="   80.303">  1  6  2 -1</clus>
<clus scale="   31.318">  1  3  2 -1</clus>
</clustering>
</event>
<event>
 6    0  0.2433432E+002  0.8997145E+02  0.7546771E-02  0.1302921E+00
         21   -1    0    0  503  502  0.00000000000E+00  0.00000000000E+00  0.29104593734E+03  0.29104593734E+03  0.00000000000E+00 0. -1.
          1   -1    0    0  504    0 -0.00000000000E+00 -0.00000000000E+00 -0.12317241638E+03  0.12317241638E+03  0.00000000000E+00 0.  1.
         21    1    1    2  503  501 -0.69794480768E+02 -0.69944484314E+02  0.47206617874E+02  0.10950783170E+03  0.00000000000E+00 0.  1.
         21    1    1    2  504  505 -0.42203198562E+02  0.53495235836E+02 -0.46619553065E+01  0.68297760236E+02  0.00000000000E+00 0.  1.
         21    1    1    2  505  502  0.30485627809E+02 -0.16050416607E+02  0.14283505862E+03  0.14693142396E+03  0.00000000000E+00 0. -1.
          1    1    1    2  501    0  0.81512051521E+02  0.32499665085E+02 -0.17506200230E+02  0.89481337833E+02  0.00000000000E+00 0.  1.
<scales pt_clust_3="89.97145" pt_clust_4="61.36061" pt_clust_5="34.45271" pt_clust_6="14000.00000"></scales>
<clustering>
<clus scale="   34.453">  1  5  2 -1</clus>
<clus scale="   61.361">  2  4  1 -1</clus>
<clus scale="   89.971">  1  3  2 -1</clus>
<clus scale="   34.453">  1  3  2 -1</clus>
</clustering>
</event>
<event>
 6    0  0.2433432E+002  0.2107993E+03  0.7546771E-02  0.1140935E+00
          2   -1    0    0  503    0 -0.00000000000E+00  0.00000000000E+00  0.99520270417E+03  0.99520270417E+03  0.00000000000E+00 0. -1.
         21   -1    0    0  505  502  0.00000000000E+00 -0.00000000000E+00 -0.21562421505E+04  0.21562421505E+04  0.00000000000E+00 0. -1.
         21    1    1    2  503  504  0.68276055385E+02 -0.26635537986E+01  0.18962285345E+03  0.20155778529E+03  0.00000000000E+00 0. -1.
         21    1    1    2  504  502  0.14262842962E+03 -0.38274939657E+02  0.20197484791E+03  0.25020327562E+03  0.00000000000E+00 0. -1.
         21    1    1    2  505  501 -0.19930105468E+03  0.87024356618E+01 -0.21209640594E+04  0.21303251357E+04  0.00000000000E+00 0. -1.
          2    1    1    2  501    0 -0.11603430328E+02  0.32236057794E+02  0.56832691164E+03  0.56935865806E+03  0.00000000000E+00 0. -1.
<scales pt_clust_3="46.12210" pt_clust_4="46.12210" pt_clust_5="199.63396" pt_clust_6="34.26081"></scales>
<clustering>
<clus scale="   34.261">  1  6  2 -1</clus>
<clus scale="   46.122">  3  4 -1 -1</clus>
<clus scale="  199.634">  2  5  1 -1</clus>
<clus scale="  199.634">  2  3  1 -1</clus>
</clustering>
</event>
<event>
 6    0  0.2433432E+002  0.9896787E+02  0.7546771E-02  0.1282481E+00
         21   -1    0    0  505  502  0.00000000000E+00  0.00000000000E+00  0.88996885987E+02  0.88996885987E+02  0.00000000000E+00 0. -1.
         -1   -1    0    0    0  501 -0.00000000000E+00 -0.00000000000E+00 -0.11005186209E+04  0.11005186209E+04  0.00000000000E+00 0. -1.
         21    1    1    2  503  502  0.42446498841E+02 -0.18038476126E+01 -0.15772075340E+02  0.45317959912E+02  0.00000000000E+00 0. -1.
         21    1    1    2  504  503  0.65547338864E+02 -0.75265290577E+01  0.36337532727E+02  0.75322762538E+02  0.00000000000E+00 0. -1.
         21    1    1    2  505  501 -0.32468375401E+02  0.50404907920E+02 -0.37800693850E+02  0.70878364817E+02  0.00000000000E+00 0. -1.
         -1    1    1    2    0  504 -0.75525462304E+02 -0.41074531250E+02 -0.99428649849E+03  0.99799641966E+03  0.00000000000E+00 0. -1.
<scales pt_clust_3="39.16015" pt_clust_4="39.16015" pt_clust_5="59.95707" pt_clust_6="86.09947"></scales>
<clustering>
<clus scale="   39.160">  3  4 -1 -1</clus>
<clus scale="   59.957">  1  5  2 -1</clus>
<clus scale="   86.099">  2  6  1 -1</clus>
<clus scale="   59.957">  1  3  2 -1</clus>
</clustering>
</event>
<event>
 6    0  0.2433432E+002  0.1064066E+03  0.7546771E-02  0.1267373E+00
         21   -1    0    0  504  502  0.00000000000E+00  0.00000000000E+00  0.34724406051E+03  0.34724406051E+03  0.00000000000E+00 0.  1.
          2   -1    0    0  502    0 -0.00000000000E+00 -0.00000000000E+00 -0.33604933524E+03  0.33604933524E+03  0.00000000000E+00 0.  1.
         21    1    1    2  503  505  0.49154206770E+02 -0.56625235761E+00  0.81014015942E+02  0.94761423924E+02  0.00000000000E+00 0.  1.
         21    1    1    2  504  503 -0.27838832422E+02 -0.12947627896E+02  0.17975289132E+03  0.18235609010E+03  0.00000000000E+00 0.  1.
         21    1    1    2  505  501  0.33630917211E+02 -0.80905546148E+02  0.40271127088E+02  0.96428780283E+02  0.00000000000E+00 0.  1.
          2    1    1    2  501    0 -0.54946291559E+02  0.94419426402E+02 -0.28984330908E+03  0.30974710145E+03  0.00000000000E+00 0.  1.
<scales pt_clust_3="35.22096" pt_clust_4="30.70247" pt_clust_5="106.40657" pt_clust_6="14000.00000"></scales>
<clustering>
<clus scale="   30.702">  1  4  2 -1</clus>
<clus scale="   35.221">  1  3  2 -1</clus>
<clus scale="  106.407">  1  5  2 -1</clus>
<clus scale="   30.702">  1  3  2 -1</clus>
</clustering>
</event>
<event>
 6    0  0.2433432E+002  0.8059483E+02  0.7546771E-02  0.1327372E+00
         21   -1    0    0  505  502  0.00000000000E+00  0.00000000000E+00  0.29153391550E+03  0.29153391550E+03  0.00000000000E+00 0. -1.
         -3   -1    0    0    0  501 -0.00000000000E+00 -0.00000000000E+00 -0.46467268570E+03  0.46467268570E+03  0.00000000000E+00 0.  1.
         21    1    1    2  503  502  0.29426703620E+02  0.23730356783E+02  0.21795471090E+03  0.22120876276E+03  0.00000000000E+00 0. -1.
         21    1    1    2  504  501  0.42668668368E+02 -0.90220088738E+01 -0.11806303784E+03  0.12586060864E+03  0.00000000000E+00 0. -1.
         21    1    1    2  505  504 -0.44944042882E+01 -0.95671684672E+02  0.19876893482E+02  0.97818003519E+02  0.00000000000E+00 0. -1.
         -3    1    1    2    0  503 -0.67600967699E+02  0.80963336763E+02 -0.29290733674E+03  0.31131922627E+03  0.00000000000E+00 0.  1.
<scales pt_clust_3="37.80292" pt_clust_4="44.93414" pt_clust_5="14000.00000" pt_clust_6="80.59483"></scales>
<clustering>
<clus scale="   37.803">  1  3  2 -1</clus>
<clus scale="   44.934">  2  4  1 -1</clus>
<clus scale="   80.595">  2  6  1 -1</clus>
<clus scale="   37.803">  1  3  2 -1</clus>
</clustering>
</event>
<event>
 6    0  0.2433432E+002  0.7849012E+02  0.7546771E-02  0.1333392E+00
          2   -1    0    0  505    0 -0.00000000000E+00  0.00000000000E+00  0.20137986854E+04  0.20137986854E+04  0.00000000000E+00 0.  1.
         21   -1    0    0  503  502  0.00000000000E+00 -0.00000000000E+00 -0.62336625875E+02  0.62336625875E+02  0.00000000000E+00 0.  1.
         21    1    1    2  503  501 -0.19339787546E+02  0.75232128116E+02 -0.22617495229E+02  0.80903965129E+02  0.00000000000E+00 0.  1.
         21    1    1    2  504  502 -0.27912194250E+02  0.63213335224E+02  0.17894864537E+03  0.19182709407E+03  0.00000000000E+00 0.  1.
         21    1    1    2  505  504  0.51485294702E+02 -0.27657917537E+02  0.79549043055E+03  0.79763445329E+03  0.00000000000E+00 0. -1.
          2    1    1    2  501    0 -0.42333129055E+01 -0.11078754580E+03  0.99964047881E+03  0.10057697988E+04  0.00000000000E+00 0.  1.
<scales pt_clust_3="78.49012" pt_clust_4="62.32138" pt_clust_5="58.44396" pt_clust_6="14000.00000"></scales>
<clustering>
<clus scale="   58.444">  1  5  2 -1</clus>
<clus scale="   62.321">  1  4  2 -1</clus>
<clus scale="   78.490">  2  3  1 -1</clus>
<clus scale="   78.490">  2  3  1 -1</clus>
</clustering>
</event>
<event>
 6    0  0.2433432E+002  0.1855256E+03  0.7546771E-02  0.1162560E+00
          2   -1    0    0  505    0 -0.00000000000E+00  0.00000000000E+00  0.93132547290E+03  0.93132547290E+03  0.00000000000E+00 0. -1.
         21   -1    0    0  504  502  0.00000000000E+00 -0.00000000000E+00 -0.24715357174E+03  0.24715357174E+03  0.00000000000E+00 0.  1.
         21    1    1    2  503  502 -0.43832034715E+02  0.25097280479E+02 -0.11620153378E+03  0.12670405364E+03  0.00000000000E+00 0.  1.
         21    1    1    2  504  501  0.14313731530E+03  0.15166140558E+03 -0.88976965601E+01  0.20873102783E+03  0.00000000000E+00 0.  1.
         21    1    1    2  505  503 -0.19185311374E+02 -0.13292817875E+03  0.35220619183E+03  0.37694452967E+03  0.00000000000E+00 0. -1.
          2    1    1    2  501    0 -0.80119969216E+02 -0.43830507308E+02  0.45706493967E+03  0.46609943351E+03  0.00000000000E+00 0. -1.
<scales pt_clust_3="50.50862" pt_clust_4="185.52557" pt_clust_5="14000.00000" pt_clust_6="92.28738"></scales>
<clustering>
<clus scale="   50.509">  2  3  1 -1</clus>
<clus scale="   92.287">  1  6  2 -1</clus>
<clus scale="  185.526">  2  4  1 -1</clus>
<clus scale="   50.509">  2  3  1 -1</clus>
</clustering>
</event>
<event>
 6    0  0.2433432E+002  0.5946831E+02  0.7546771E-02  0.1400077E+00
         21   -1    0    0  503  502  0.00000000000E+00  0.00000000000E+00  0.43937466724E+02  0.43937466724E+02  0.00000000000E+00 0. -1.
          1   -1    0    0  504    0 -0.00000000000E+00 -0.00000000000E+00 -0.90551491508E+03  0.90551491508E+03  0.00000000000E+00 0. -1.
         21    1    1    2  503  501 -0.54651399611E+02 -0.46608372068E+02 -0.36097885747E+02  0.80387643215E+02  0.00000000000E+00 0. -1.
         21    1    1    2  504  505 -0.18153265985E+02  0.40203732384E+02 -0.10296111063E+03  0.11201281831E+03  0.00000000000E+00 0. -1.
         21    1    1    2  505  502  0.78271927021E+01  0.55520066862E+02 -0.38065816937E+02  0.67769825063E+02  0.00000000000E+00 0. -1.
          1    1    1    2  501    0  0.64977472894E+02 -0.49115427178E+02 -0.68445263505E+03  0.68928209522E+03  0.00000000000E+00 0. -1.
<scales pt_clust_3="59.46831" pt_clust_4="44.11214" pt_clust_5="14000.00000" pt_clust_6="51.44217"></scales>
<clustering>
<clus scale="   44.112">  2  4  1 -1</clus>
<clus scale="   51.442">  2  6  1 -1</clus>
<clus scale="   59.468">  2  3  1 -1</clus>
<clus scale="   59.468">  1  3  2 -1</clus>
</clustering>
</event>
<event>
 6    0  0.2433432E+002  0.1042098E+03  0.7546771E-02  0.1271684E+00
          1   -1    0    0  505    0 -0.00000000000E+00  0.00000000000E+00  0.85515586403E+03  0.85515586403E+03  0.00000000000E+00 0. -1.
         21   -1    0    0  504  502  0.00000000000E+00 -0.00000000000E+00 -0.21655714770E+03  0.21655714770E+03  0.00000000000E+00 0. -1.
         21    1    1    2  503  502 -0.96973259389E+02 -0.11667380940E+02  0.80561811250E+02  0.12661021383E+03  0.00000000000E+00 0. -1.
         21    1    1    2  504  501  0.93321480306E+02 -0.53940231833E+02 -0.17209794643E+03  0.20306686204E+03  0.00000000000E+00 0. -1.
         21    1    1    2  505  503 -0.29690575112E+02  0.29060386548E+02  0.81135122551E+02  0.91153411501E+02  0.00000000000E+00 0. -1.
          1    1    1    2  501    0  0.33342354196E+02  0.36547226225E+02  0.64899972895E+03  0.65088252435E+03  0.00000000000E+00 0. -1.
<scales pt_clust_3="104.20977" pt_clust_4="14000.00000" pt_clust_5="41.54559" pt_clust_6="61.66227"></scales>
<clustering>
<clus scale="   41.546">  1  5  2 -1</clus>
<clus scale="   61.662">  1  6  2 -1</clus>
<clus scale="  104.210">  1  3  2 -1</clus>
<clus scale="  104.210">  2  3  1 -1</clus>
</clustering>
</event>
<event>
 6    0  0.2433432E+002  0.6779627E+02  0.7546771E-02  0.1367751E+00
          1   -1    0    0  505    0 -0.00000000000E+00  0.00000000000E+00  0.14836470880E+04  0.14836470880E+04  0.00000000000E+00 0. -1.
         21   -1    0    0  504  502  0.00000000000E+00 -0.00000000000E+00 -0.16295319113E+03  0.16295319113E+03  0.00000000000E+00 0.  1.
         21    1    1    2  503  501  0.26488577092E+02  0.78373355561E+02  0.43358469807E+02  0.93402272361E+02  0.00000000000E+00 0.  1.
         21    1    1    2  504  503 -0.35863906334E+02  0.10174858983E+01 -0.52936252944E+02  0.63949213684E+02  0.00000000000E+00 0.  1.
         21    1    1    2  505  502  0.58591081190E+02 -0.61319606743E+02 -0.56228430736E+02  0.10175777803E+03  0.00000000000E+00 0.  1.
          1    1    1    2  501    0 -0.49215751948E+02 -0.18071234716E+02  0.13865001108E+04  0.13874910151E+04  0.00000000000E+00 0. -1.
<scales pt_clust_3="67.79627" pt_clust_4="35.87834" pt_clust_5="14000.00000" pt_clust_6="52.58659"></scales>
<clustering>
<clus scale="   35.878">  2  4  1 -1</clus>
<clus scale="   52.587">  1  6  2 -1</clus>
<clus scale="   67.796">  1  3  2 -1</clus>
<clus scale="   35.878">  2  3  1 -1</clus>
</clustering>
</event>
<event>
 6    0  0.2433432E+002  0.6802220E+02  0.7546771E-02  0.1366951E+00
         -1   -1    0    0    0  501 -0.00000000000E+00  0.00000000000E+00  0.48691058251E+03  0.48691058251E+03  0.00000000000E+00 0. -1.
         21   -1    0    0  505  502  0.00000000000E+00 -0.00000000000E+00 -0.41195052127E+03  0.41195052127E+03  0.00000000000E+00 0.  1.
         21    1    1    2  503  502  0.39530743459E+02  0.15346496141E+02 -0.68749010992E+02  0.80775126955E+02  0.00000000000E+00 0.  1.
         21    1    1    2  504  503  0.69692555896E+01 -0.49184571951E+02 -0.87733455885E+02  0.10082089031E+03  0.00000000000E+00 0.  1.
         21    1    1    2  505  501 -0.97391361858E+02 -0.11100349369E+02 -0.23043895915E+03  0.25042046445E+03  0.00000000000E+00 0.  1.
         -1    1    1    2    0  504  0.50891362809E+02  0.44938425179E+02  0.46188148727E+03  0.46684462206E+03  0.00000000000E+00 0. -1.
<scales pt_clust_3="42.40512" pt_clust_4="48.37600" pt_clust_5="14000.00000" pt_clust_6="68.02220"></scales>
<clustering>
<clus scale="   42.405">  2  3  1 -1</clus>
<clus scale="   48.376">  2  4  1 -1</clus>
<clus scale="   68.022">  1  6  2 -1</clus>
<clus scale="   42.405">  2  3  1 -1</clus>
</clustering>
</event>
<event>
 6    0  0.2433432E+002  0.7522058E+02  0.7546771E-02  0.1343189E+00
         21   -1    0    0  504  502  0.00000000000E+00  0.00000000000E+00  0.66116307504E+03  0.66116307504E+03  0.00000000000E+00 0. -1.
          2   -1    0    0  503    0 -0.00000000000E+00 -0.00000000000E+00 -0.26901696694E+04  0.26901696694E+04  0.00000000000E+00 0.  1.
         21    1    1    2  503  502  0.74210796573E+02 -0.44965501891E+02 -0.11566149095E+03  0.14459155984E+03  0.00000000000E+00 0. -1.
         21    1    1    2  504  505  0.21873719711E+02  0.43949612118E+02  0.43892870714E+03  0.44166552726E+03  0.00000000000E+00 0. -1.
         21    1    1    2  505  501 -0.37987162417E+02  0.33417922292E+02  0.20286101217E+03  0.20907503987E+03  0.00000000000E+00 0. -1.
          2    1    1    2  501    0 -0.58097353867E+02 -0.32402032519E+02 -0.25551348228E+04  0.25560006175E+04  0.00000000000E+00 0.  1.
<scales pt_clust_3="75.22058" pt_clust_4="49.09204" pt_clust_5="14000.00000" pt_clust_6="66.44275"></scales>
<clustering>
<clus scale="   49.092">  1  4  2 -1</clus>
<clus scale="   66.443">  2  6  1 -1</clus>
<clus scale="   75.221">  2  3  1 -1</clus>
<clus scale="   49.092">  1  3  2 -1</clus>
</clustering>
</event>
<event>
 6    0  0.2433432E+002  0.1174058E+03  0.7546771E-02  0.1247439E+00
          2   -1    0    0  503    0 -0.00000000000E+00  0.00000000000E+00  0.15032629526E+04  0.15032629526E+04  0.00000000000E+00 0.  1.
         21   -1    0    0  504  502  0.00000000000E+00 -0.00000000000E+00 -0.89608551042E+02  0.89608551042E+02  0.00000000000E+00 0. -1.
         21    1    1    2  503  502 -0.47775340899E+02  0.93917122844E+01 -0.41146300788E+02  0.63747200144E+02  0.00000000000E+00 0. -1.
         21    1    1    2  504  505 -0.22723714907E+02 -0.54670577991E+02  0.69976654817E+02  0.91662268881E+02  0.00000000000E+00 0. -1.
         21    1    1    2  505  501 -0.54175725478E+02  0.50478125983E+02  0.35035475398E+02  0.81917855015E+02  0.00000000000E+00 0. -1.
          2    1    1    2  501    0  0.12467478128E+03 -0.51992602764E+01  0.13497885721E+04  0.13555441796E+04  0.00000000000E+00 0.  1.
<scales pt_clust_3="48.68971" pt_clust_4="63.56850" pt_clust_5="117.40577" pt_clust_6="14000.00000"></scales>
<clustering>
<clus scale="   48.690">  2  3  1 -1</clus>
<clus scale="   63.569">  2  4  1 -1</clus>
<clus scale="  117.406">  2  5  1 -1</clus>
<clus scale="   48.690">  2  3  1 -1</clus>
</clustering>
</event>
<event>
 6    0  0.2433432E+002  0.1238898E+03  0.7546771E-02  0.1236815E+00
          2   -1    0    0  503    0 -0.00000000000E+00  0.00000000000E+00  0.21808697017E+04  0.21808697017E+04  0.00000000000E+00 0.  1.
         21   -1    0    0  501  502  0.00000000000E+00 -0.00000000000E+00 -0.17858505481E+03  0.17858505481E+03  0.00000000000E+00 0.  1.
         21    1    1    2  503  505 -0.49216650661E+01 -0.44564026097E+02  0.83054680072E+02  0.94383553074E+02  0.00000000000E+00 0.  1.
         21    1    1    2  504  502  0.74612308774E+02 -0.23746381972E+02 -0.14659333692E+03  0.16619414462E+03  0.00000000000E+00 0.  1.
         21    1    1    2  505  504 -0.58983866211E+02 -0.45550454796E+02  0.78410240295E+02  0.10817627369E+03  0.00000000000E+00 0. -1.
          2    1    1    2  501    0 -0.10706777497E+02  0.11386086287E+03  0.19874130634E+04  0.19907007851E+04  0.00000000000E+00 0.  1.
<scales pt_clust_3="40.71187" pt_clust_4="78.29998" pt_clust_5="40.71187" pt_clust_6="112.22141"></scales>
<clustering>
<clus scale="   40.712">  3  5 -1 -1</clus>
<clus scale="   78.300">  2  4  1 -1</clus>
<clus scale="  112.221">  1  6  2 -1</clus>
<clus scale="   78.300">  2  3  1 -1</clus>
</clustering>
</event>
<event>
 6    0  0.2433432E+002  0.1098698E+03  0.7546771E-02  0.1260811E+00
         21   -1    0    0  501  502  0.00000000000E+00  0.00000000000E+00  0.44418090062E+02  0.44418090062E+02  0.00000000000E+00 0.  1.
          1   -1    0    0  504    0 -0.00000000000E+00 -0.00000000000E+00 -0.47603019443E+03  0.47603019443E+03  0.00000000000E+00 0.  1.
         21    1    1    2  503  505 -0.47702438061E+02 -0.27982779952E+01 -0.61465715334E+02  0.77854910688E+02  0.00000000000E+00 0.  1.
         21    1    1    2  504  503 -0.61117518975E+02 -0.50046636785E+02 -0.81154563458E+02  0.11325228540E+03  0.00000000000E+00 0.  1.
         21    1    1    2  505  502  0.57058262358E+02  0.72809780219E+02 -0.12025171405E+03  0.15171481184E+03  0.00000000000E+00 0.  1.
          1    1    1    2  501    0  0.51761694678E+02 -0.19964865438E+02 -0.16874011153E+03  0.17762627657E+03  0.00000000000E+00 0.  1.
<scales pt_clust_3="30.59136" pt_clust_4="30.59136" pt_clust_5="102.58811" pt_clust_6="55.47854"></scales>
<clustering>
<clus scale="   30.591">  3  4 -1 -1</clus>
<clus scale="   55.479">  2  6  1 -1</clus>
<clus scale="  102.588">  1  5  2 -1</clus>
<clus scale="  102.588">  1  3  2 -1</clus>
</clustering>
</event>
<event>
 6    0  0.2433432E+002  0.1399008E+03  0.7546771E-02  0.1213463E+00
          2   -1    0    0  505    0 -0.00000000000E+00  0.00000000000E+00  0.15255455808E+04  0.15255455808E+04  0.00000000000E+00 0.  1.
         21   -1    0    0  504  502  0.00000000000E+00 -0.00000000000E+00 -0.70978607265E+02  0.70978607265E+02  0.00000000000E+00 0.  1.
         21    1    1    2  503  502 -0.75244410061E+01 -0.46006696321E+02 -0.31393691669E+02  0.56203177805E+02  0.00000000000E+00 0.  1.
         21    1    1    2  504  501  0.16472105836E+02 -0.12221839634E+03  0.18603373516E+03  0.22319770897E+03  0.00000000000E+00 0.  1.
         21    1    1    2  505  503  0.24404809868E+01  0.13468908624E+03  0.54627848205E+03  0.56264312477E+03  0.00000000000E+00 0.  1.
          2    1    1    2  501    0 -0.11388145817E+02  0.33536006418E+02  0.75364844796E+03  0.75448017648E+03  0.00000000000E+00 0.  1.
<scales pt_clust_3="46.11612" pt_clust_4="139.90078" pt_clust_5="14000.00000" pt_clust_6="35.41685"></scales>
<clustering>
<clus scale="   35.417">  1  6  2 -1</clus>
<clus scale="   46.116">  2  3  1 -1</clus>
<clus scale="  139.901">  2  4  1 -1</clus>
<clus scale="   46.116">  2  3  1 -1</clus>
</clustering>
</event>
<event>
 6    0  0.2433432E+002  0.1011141E+03  0.7546771E-02  0.1277970E+00
          1   -1    0    0  504    0 -0.00000000000E+00  0.00000000000E+00  0.10580279202E+04  0.10580279202E+04  0.00000000000E+00 0. -1.
         21   -1    0    0  503  502  0.00000000000E+00 -0.00000000000E+00 -0.95294227935E+02  0.95294227935E+02  0.00000000000E+00 0.  1.
         21    1    1    2  503  505  0.24504809030E+02 -0.68315603190E+02 -0.24641735314E+02  0.76646737857E+02  0.00000000000E+00 0.  1.
         21    1    1    2  504  502  0.28031267689E+01  0.43859527876E+02  0.11125089708E+00  0.43949153370E+02  0.00000000000E+00 0.  1.
         21    1    1    2  505  501  0.71149987697E+02 -0.13587206373E+02  0.46538370459E+02  0.86097345205E+02  0.00000000000E+00 0.  1.
          1    1    1    2  501    0 -0.98457923496E+02  0.38043281688E+02  0.94072580619E+03  0.94662891167E+03  0.00000000000E+00 0. -1.
<scales pt_clust_3="46.32871" pt_clust_4="43.94901" pt_clust_5="101.11410" pt_clust_6="14000.00000"></scales>
<clustering>
<clus scale="   43.949">  2  4  1 -1</clus>
<clus scale="   46.329">  2  3  1 -1</clus>
<clus scale="  101.114">  2  5  1 -1</clus>
<clus scale="   43.949">  2  3  1 -1</clus>
</clustering>
</event>
<event>
 6    0  0.2433432E+002  0.2406003E+03  0.7546771E-02  0.1119394E+00
          1   -1    0    0  505    0 -0.00000000000E+00  0.00000000000E+00  0.43758271792E+04  0.43758271792E+04  0.00000000000E+00 0.  1.
         21   -1    0    0  504  502  0.00000000000E+00 -0.00000000000E+00 -0.13613666456E+03  0.13613666456E+03  0.00000000000E+00 0.  1.
         21    1    1    2  503  501  0.21001929363E+02 -0.19508190360E+03  0.70081395178E+02  0.20834930309E+03  0.00000000000E+00 0.  1.
         21    1    1    2  504  503 -0.64443353917E+02 -0.18335512203E+02 -0.24370624897E+02  0.71295611574E+02  0.00000000000E+00 0. -1.
         21    1    1    2  505  502  0.74007855908E+02 -0.27556521855E+02  0.84467956466E+02  0.11563459821E+03  0.00000000000E+00 0.  1.
          1    1    1    2  501    0 -0.30566431355E+02  0.24097393766E+03  0.41095117879E+04  0.41166843309E+04  0.00000000000E+00 0.  1.
<scales pt_clust_3="240.60030" pt_clust_4="67.00102" pt_clust_5="69.79497" pt_clust_6="14000.00000"></scales>
<clustering>
<clus scale="   67.001">  2  4  1 -1</clus>
<clus scale="   69.795">  2  5  1 -1</clus>
<clus scale="  240.600">  2  3  1 -1</clus>
<clus scale="   67.001">  2  3  1 -1</clus>
</clustering>
</event>
<event>
 6    0  0.2433432E+002  0.9897746E+02  0.7546771E-02  0.1282461E+00
         21   -1    0    0  505  502  0.00000000000E+00  0.00000000000E+00  0.24380531069E+03  0.24380531069E+03  0.00000000000E+00 0. -1.
          2   -1    0    0  502    0 -0.00000000000E+00 -0.00000000000E+00 -0.16602337182E+04  0.16602337182E+04  0.00000000000E+00 0. -1.
         21    1    1    2  503  501 -0.11303489287E+03 -0.25245150854E+02 -0.21580684267E+03  0.24492202431E+03  0.00000000000E+00 0.  1.
         21    1    1    2  504  503  0.87380288458E+02  0.22149869884E+02 -0.12844186941E+03  0.15691795743E+03  0.00000000000E+00 0.  1.
         21    1    1    2  505  504  0.32355448790E+01 -0.39685677213E+02  0.21270861061E+03  0.21640326881E+03  0.00000000000E+00 0. -1.
          2    1    1    2  501    0  0.22419059534E+02  0.42780958183E+02 -0.12848883060E+04  0.12857957783E+04  0.00000000000E+00 0. -1.
<scales pt_clust_3="98.97746" pt_clust_4="14000.00000" pt_clust_5="39.81735" pt_clust_6="47.77847"></scales>
<clustering>
<clus scale="   39.817">  1  5  2 -1</clus>
<clus scale="   47.778">  2  6  1 -1</clus>
<clus scale="   98.977">  2  3  1 -1</clus>
<clus scale="   39.817">  1  3  2 -1</clus>
</clustering>
</event>
<event>
 6    0  0.2433432E+002  0.1192880E+03  0.7546771E-02  0.1244276E+00
         21   -1    0    0  504  502  0.00000000000E+00  0.00000000000E+00  0.23647400791E+04  0.23647400791E+04  0.00000000000E+00 0. -1.
          1   -1    0    0  505    0 -0.00000000000E+00 -0.00000000000E+00 -0.64571585889E+02  0.64571585889E+02  0.00000000000E+00 0. -1.
         21    1    1    2  503  502  0.27356099418E+02  0.15805246260E+02  0.98557488618E+03  0.98608114182E+03  0.00000000000E+00 0. -1.
         21    1    1    2  504  501 -0.10159798565E+03 -0.37447669311E+02  0.59504803200E+03  0.60481950945E+03  0.00000000000E+00 0. -1.
         21    1    1    2  505  503 -0.44225339709E+02  0.52422810191E+02  0.71251525002E+03  0.71580864288E+03  0.00000000000E+00 0. -1.
          1    1    1    2  501    0  0.11846722594E+03 -0.30780387139E+02  0.70303249533E+01  0.12260237079E+03  0.00000000000E+00 0. -1.
<scales pt_clust_3="31.59370" pt_clust_4="119.28799" pt_clust_5="67.65232" pt_clust_6="14000.00000"></scales>
<clustering>
<clus scale="   31.594">  1  3  2 -1</clus>
<clus scale="   67.652">  1  5  2 -1</clus>
<clus scale="  119.288">  1  4  2 -1</clus>
<clus scale="   31.594">  1  3  2 -1</clus>
</clustering>
</event>
<event>
 6    0  0.2433432E+002  0.3145611E+03  0.7546771E-02  0.1078180E+00
         -1   -1    0    0    0  501 -0.00000000000E+00  0.00000000000E+00  0.24395441590E+03  0.24395441590E+03  0.00000000000E+00 0.  1.
         21   -1    0    0  501  502  0.00000000000E+00 -0.00000000000E+00 -0.21961106401E+04  0.21961106401E+04  0.00000000000E+00 0. -1.
         21    1    1    2  503  502 -0.12326997812E+03  0.19982493966E+03 -0.11881355399E+04  0.12111117022E+04  0.00000000000E+00 0. -1.
         21    1    1    2  504  503 -0.39736405959E+02  0.74566901858E+02 -0.62574286039E+03  0.63142167538E+03  0.00000000000E+00 0. -1.
         21    1    1    2  505  504  0.10903883442E+03 -0.25527483584E+03 -0.31023495035E+03  0.41629368677E+03  0.00000000000E+00 0. -1.
         -1    1    1    2    0  505  0.53967549660E+02 -0.19117005678E+02  0.17195712639E+03  0.18123799171E+03  0.00000000000E+00 0.  1.
<scales pt_clust_3="32.37444" pt_clust_4="32.37444" pt_clust_5="309.89719" pt_clust_6="57.25344"></scales>
<clustering>
<clus scale="   32.374">  3  4 -1 -1</clus>
<clus scale="   57.253">  1  6  2 -1</clus>
<clus scale="  309.897">  1  5  2 -1</clus>
<clus scale="  314.561">  2  3  1 -1</clus>
</clustering>
</event>
<event>
 6    0  0.2433432E+002  0.9668920E+02  0.7546771E-02  0.1287416E+00
         -1   -1    0    0    0  501 -0.00000000000E+00  0.00000000000E+00  0.45503672366E+03  0.45503672366E+03  0.00000000000E+00 0. -1.
         21   -1    0    0  505  502  0.00000000000E+00 -0.00000000000E+00 -0.65485393614E+03  0.65485393614E+03  0.00000000000E+00 0. -1.
         21    1    1    2  503  504 -0.45453879305E+02 -0.58826833881E+02 -0.38772770552E+02  0.83844971612E+02  0.00000000000E+00 0.  1.
         21    1    1    2  504  501 -0.25405101226E+02  0.30891659773E+02  0.16759138882E+01  0.40031518822E+02  0.00000000000E+00 0.  1.
         21    1    1    2  505  503 -0.41117954927E+02 -0.33531060539E+01 -0.56539112208E+03  0.56689421453E+03  0.00000000000E+00 0. -1.
         -1    1    1    2    0  502  0.11197693546E+03  0.31288280162E+02  0.40267076626E+03  0.41911995485E+03  0.00000000000E+00 0. -1.
<scales pt_clust_3="96.68920" pt_clust_4="39.99642" pt_clust_5="41.29397" pt_clust_6="14000.00000"></scales>
<clustering>
<clus scale="   39.996">  1  4  2 -1</clus>
<clus scale="   41.294">  2  5  1 -1</clus>
<clus scale="   96.689">  2  3  1 -1</clus>
<clus scale="   41.294">  2  3  1 -1</clus>
</clustering>
</event>
<event>
 6    0  0.2433432E+002  0.5332776E+03  0.7546771E-02  0.1005440E+00
          3   -1    0    0  502    0 -0.00000000000E+00  0.00000000000E+00  0.69377113719E+03  0.69377113719E+03  0.00000000000E+00 0.  1.
         21   -1    0    0  503  502  0.00000000000E+00 -0.00000000000E+00 -0.18559431404E+04  0.18559431404E+04  0.00000000000E+00 0.  1.
         21    1    1    2  503  505  0.66732488246E+02  0.12454249557E+03 -0.29636497515E+03  0.32832340259E+03  0.00000000000E+00 0.  1.
         21    1    1    2  504  501  0.43134562963E+03 -0.20373916512E+03 -0.12750277740E+04  0.13613465849E+04  0.00000000000E+00 0.  1.
         21    1    1    2  505  504  0.10487696436E+02 -0.39992146560E+02 -0.11366685796E+03  0.12095254508E+03  0.00000000000E+00 0. -1.
          3    1    1    2  501    0 -0.50856581431E+03  0.11918881611E+03  0.52288760388E+03  0.73909174510E+03  0.00000000000E+00 0.  1.
<scales pt_clust_3="141.29423" pt_clust_4="34.97766" pt_clust_5="34.97766" pt_clust_6="519.87374"></scales>
<clustering>
<clus scale="   34.978">  4  5 -1 -1</clus>
<clus scale="  141.294">  2  3  1 -1</clus>
<clus scale="  519.874">  1  6  2 -1</clus>
<clus scale="  141.294">  2  3  1 -1</clus>
</clustering>
</event>
<event>
 6    0  0.2433432E+002  0.8135759E+02  0.7546771E-02  0.1325242E+00
         21   -1    0    0  505  502  0.00000000000E+00  0.00000000000E+00  0.43110470606E+04  0.43110470606E+04  0.00000000000E+00 0. -1.
         -4   -1    0    0    0  501 -0.00000000000E+00 -0.00000000000E+00 -0.12566126477E+02  0.12566126477E+02  0.00000000000E+00 0. -1.
         21    1    1    2  503  501  0.22127399333E+02  0.14694918159E+03  0.13556531577E+04  0.13637738697E+04  0.00000000000E+00 0. -1.
         21    1    1    2  504  502 -0.31564691055E+02 -0.39165196831E+02  0.35457805477E+03  0.35812824419E+03  0.00000000000E+00 0. -1.
         21    1    1    2  505  503  0.27784763937E+02 -0.69086274238E+02  0.25202428854E+04  0.25213427192E+04  0.00000000000E+00 0. -1.
         -4    1    1    2    0  504 -0.18347472215E+02 -0.38697710517E+02  0.68006836245E+02  0.80368353921E+02  0.00000000000E+00 0. -1.
<scales pt_clust_3="81.35759" pt_clust_4="61.94057" pt_clust_5="14000.00000" pt_clust_6="42.82689"></scales>
<clustering>
<clus scale="   42.827">  2  6  1 -1</clus>
<clus scale="   61.941">  2  4  1 -1</clus>
<clus scale="   81.358">  2  3  1 -1</clus>
<clus scale="   81.358">  1  3  2 -1</clus>
</clustering>
</event>
<event>
 6    0  0.2433432E+002  0.1673029E+03  0.7546771E-02  0.1180690E+00
          2   -1    0    0  503    0 -0.00000000000E+00  0.00000000000E+00  0.69621131059E+03  0.69621131059E+03  0.00000000000E+00 0.  1.
         21   -1    0    0  505  502  0.00000000000E+00 -0.00000000000E+00 -0.72450120455E+03  0.72450120455E+03  0.00000000000E+00 0. -1.
         21    1    1    2  503  504 -0.16404789891E+03 -0.53764906169E+02 -0.11054855305E+03  0.20499600204E+03  0.00000000000E+00 0. -1.
         21    1    1    2  504  502  0.15644316816E+03  0.53097670078E+02 -0.44998805893E+03  0.47935694489E+03  0.00000000000E+00 0. -1.
         21    1    1    2  505  501 -0.20027574324E+02  0.47693163795E+02 -0.94239937095E+02  0.10750305740E+03  0.00000000000E+00 0. -1.
          2    1    1    2  501    0  0.27632305076E+02 -0.47025927704E+02  0.62648665512E+03  0.62885651082E+03  0.00000000000E+00 0.  1.
<scales pt_clust_3="167.30288" pt_clust_4="14000.00000" pt_clust_5="51.72757" pt_clust_6="54.44599"></scales>
<clustering>
<clus scale="   51.728">  2  5  1 -1</clus>
<clus scale="   54.446">  1  6  2 -1</clus>
<clus scale="  167.303">  1  3  2 -1</clus>
<clus scale="   51.728">  2  3  1 -1</clus>
</clustering>
</event>
<event>
 6    0  0.2433432E+002  0.1839124E+03  0.7546771E-02  0.1164069E+00
         21   -1    0    0  501  502  0.00000000000E+00  0.00000000000E+00  0.50670185696E+02  0.50670185696E+02  0.00000000000E+00 0. -1.
          2   -1    0    0  504    0 -0.00000000000E+00 -0.00000000000E+00 -0.30616569987E+04  0.30616569987E+04  0.00000000000E+00 0.  1.
         21    1    1    2  503  502 -0.15184616117E+03 -0.10543379853E+03 -0.14654414389E+03  0.23589982756E+03  0.00000000000E+00 0. -1.
         21    1    1    2  504  505  0.67284140838E+02  0.15459641843E+02 -0.45506020152E+03  0.46026725187E+03  0.00000000000E+00 0. -1.
         21    1    1    2  505  503  0.85908468167E+02 -0.13395239109E+01 -0.92950618118E+03  0.93346869261E+03  0.00000000000E+00 0. -1.
          2    1    1    2  501    0 -0.13464478303E+01  0.91313680598E+02 -0.14798762864E+04  0.14826914124E+04  0.00000000000E+00 0.  1.
<scales pt_clust_3="178.92818" pt_clust_4="38.11995" pt_clust_5="38.11995" pt_clust_6="91.32361"></scales>
<clustering>
<clus scale="   38.120">  4  5 -1 -1</clus>
<clus scale="   91.324">  2  6  1 -1</clus>
<clus scale="  178.928">  1  3  2 -1</clus>
<clus scale="  178.928">  1  3  2 -1</clus>
</clustering>
</event>
<event>
 6    0  0.2433432E+002  0.1249529E+03  0.7546771E-02  0.1235143E+00
          4   -1    0    0  502    0 -0.00000000000E+00  0.00000000000E+00  0.11762517854E+04  0.11762517854E+04  0.00000000000E+00 0.  1.
         21   -1    0    0  505  502  0.00000000000E+00 -0.00000000000E+00 -0.11131214915E+03  0.11131214915E+03  0.00000000000E+00 0. -1.
         21    1    1    2  503  504  0.10447763630E+03 -0.33323433456E+02 -0.59817526148E+02  0.12491662875E+03  0.00000000000E+00 0. -1.
         21    1    1    2  504  501 -0.79992203426E+02  0.34856342427E+02  0.28636198718E+03  0.29936082729E+03  0.00000000000E+00 0.  1.
         21    1    1    2  505  503  0.19194977062E+02 -0.24186445002E+02  0.86263884664E+01  0.32060035000E+02  0.00000000000E+00 0.  1.
          4    1    1    2  501    0 -0.43680409936E+02  0.22653536031E+02  0.82976878672E+03  0.83122644347E+03  0.00000000000E+00 0.  1.
<scales pt_clust_3="14000.00000" pt_clust_4="124.95290" pt_clust_5="30.87768" pt_clust_6="48.99920"></scales>
<clustering>
<clus scale="   30.878">  2  5  1 -1</clus>
<clus scale="   48.999">  1  6  2 -1</clus>
<clus scale="  124.953">  1  4  2 -1</clus>
<clus scale="   30.878">  2  3  1 -1</clus>
</clustering>
</event>
<event>
 6    0  0.2433432E+002  0.1371256E+03  0.7546771E-02  0.1217250E+00
         21   -1    0    0  501  502  0.00000000000E+00  0.00000000000E+00  0.20995064973E+03  0.20995064973E+03  0.00000000000E+00 0. -1.
          2   -1    0    0  505    0 -0.00000000000E+00 -0.00000000000E+00 -0.95560675190E+03  0.95560675190E+03  0.00000000000E+00 0.  1.
         21    1    1    2  503  504  0.47392406014E+02 -0.22901859277E+02 -0.84807490288E+01  0.53314711012E+02  0.00000000000E+00 0.  1.
         21    1    1    2  504  502  0.52355101870E+02 -0.89068662228E+01  0.21946509184E+02  0.57463364182E+02  0.00000000000E+00 0.  1.
         21    1    1    2  505  503 -0.12828702678E+03 -0.10265367181E+03  0.94917365900E+02  0.18974889703E+03  0.00000000000E+00 0. -1.
          2    1    1    2  501    0  0.28539518895E+02  0.13446239731E+03 -0.85403922823E+03  0.86503042939E+03  0.00000000000E+00 0.  1.
<scales pt_clust_3="33.45252" pt_clust_4="109.95661" pt_clust_5="137.12565" pt_clust_6="14000.00000"></scales>
<clustering>
<clus scale="   33.453">  3  4 -1 -1</clus>
<clus scale="  109.957">  1  3  2 -1</clus>
<clus scale="  137.126">  1  5  2 -1</clus>
<clus scale="  109.957">  1  3  2 -1</clus>
</clustering>
</event>
<event>
 6    0  0.2433432E+002  0.1257909E+03  0.7546771E-02  0.1233838E+00
          2   -1    0    0  505    0 -0.00000000000E+00  0.00000000000E+00  0.10723382670E+04  0.10723382670E+04  0.00000000000E+00 0.  1.
         21   -1    0    0  503  502  0.00000000000E+00 -0.00000000000E+00 -0.21380325051E+03  0.21380325051E+03  0.00000000000E+00 0. -1.
         21    1    1    2  503  504  0.67332259037E+02 -0.11544816153E+03 -0.10954736714E+03  0.17280780293E+03  0.00000000000E+00 0. -1.
         21    1    1    2  504  501  0.29471086402E+01 -0.53515852800E+02 -0.23697059478E+02  0.58601899100E+02  0.00000000000E+00 0. -1.
         21    1    1    2  505  502 -0.47402144612E+02  0.56187502408E+02  0.20028912613E+02  0.76191574870E+02  0.00000000000E+00 0. -1.
          2    1    1    2  501    0 -0.22877223065E+02  0.11277651192E+03  0.97175053045E+03  0.97854024056E+03  0.00000000000E+00 0.  1.
<scales pt_clust_3="30.42555" pt_clust_4="30.42555" pt_clust_5="73.51190" pt_clust_6="116.25411"></scales>
<clustering>
<clus scale="   30.426">  3  4 -1 -1</clus>
<clus scale="   73.512">  2  5  1 -1</clus>
<clus scale="  116.254">  1  6  2 -1</clus>
<clus scale="   73.512">  2  3  1 -1</clus>
</clustering>
</event>
<event>
 6    0  0.2433432E+002  0.7657257E+02  0.7546771E-02  0.1339069E+00
         21   -1    0    0  503  502  0.00000000000E+00  0.00000000000E+00  0.92516817805E+03  0.92516817805E+03  0.00000000000E+00 0. -1.
          2   -1    0    0  505    0 -0.00000000000E+00 -0.00000000000E+00 -0.21402449514E+02  0.21402449514E+02  0.00000000000E+00 0.  1.
         21    1    1    2  503  501 -0.24800821174E+02 -0.21597759966E+02  0.26565671199E+03  0.26768457668E+03  0.00000000000E+00 0. -1.
         21    1    1    2  504  502  0.54906667572E+02  0.72203250438E+02  0.33464256911E+03  0.34671847453E+03  0.00000000000E+00 0. -1.
         21    1    1    2  505  504  0.47108605330E+02 -0.23131039052E+02  0.10313545196E+03  0.11572029690E+03  0.00000000000E+00 0.  1.
          2    1    1    2  501    0 -0.77214451728E+02 -0.27474451420E+02  0.20033099547E+03  0.21644727945E+03  0.00000000000E+00 0.  1.
<scales pt_clust_3="32.88684" pt_clust_4="14000.00000" pt_clust_5="50.61490" pt_clust_6="76.57257"></scales>
<clustering>
<clus scale="   32.887">  1  3  2 -1</clus>
<clus scale="   50.615">  2  5  1 -1</clus>
<clus scale="   76.573">  2  6  1 -1</clus>
<clus scale="   32.887">  1  3  2 -1</clus>
</clustering>
</event>
<event>
 6    0  0.2433432E+002  0.4196731E+03  0.7546771E-02  0.1037173E+00
          1   -1    0    0  505    0 -0.00000000000E+00  0.00000000000E+00  0.87524103720E+03  0.87524103720E+03  0.00000000000E+00 0.  1.
         21   -1    0    0  501  502  0.00000000000E+00 -0.00000000000E+00 -0.33672708703E+03  0.33672708703E+03  0.00000000000E+00 0.  1.
         21    1    1    2  503  502 -0.52241949037E+02  0.95389256090E+02 -0.55826571991E+02  0.12224948898E+03  0.00000000000E+00 0.  1.
         21    1    1    2  504  503 -0.13597365210E+03  0.10341798899E+03 -0.11479847949E+03  0.20582226655E+03  0.00000000000E+00 0.  1.
         21    1    1    2  505  504 -0.90213393876E+02  0.56416395101E+02  0.36540187145E+02  0.11250089487E+03  0.00000000000E+00 0. -1.
          1    1    1    2  501    0  0.27842899502E+03 -0.25522364018E+03  0.67259881451E+03  0.77139547383E+03  0.00000000000E+00 0.  1.
<scales pt_clust_3="47.66520" pt_clust_4="106.23911" pt_clust_5="106.23911" pt_clust_6="377.70599"></scales>
<clustering>
<clus scale="   47.665">  3  4 -1 -1</clus>
<clus scale="  106.239">  3  5 -1 -1</clus>
<clus scale="  377.706">  1  6  2 -1</clus>
<clus scale="  419.673">  2  3  1 -1</clus>
</clustering>
</event>
<event>
 6    0  0.2433432E+002  0.1491628E+03  0.7546771E-02  0.1201506E+00
         -1   -1    0    0    0  501 -0.00000000000E+00  0.00000000000E+00  0.48410111633E+03  0.48410111633E+03  0.00000000000E+00 0.  1.
         21   -1    0    0  501  502  0.00000000000E+00 -0.00000000000E+00 -0.11412102628E+04  0.11412102628E+04  0.00000000000E+00 0.  1.
         21    1    1    2  503  502  0.58242070447E+02  0.10500127042E+02 -0.25262317289E+03  0.25946263492E+03  0.00000000000E+00 0.  1.
         21    1    1    2  504  503  0.78210865181E+02 -0.86760346633E+01 -0.60591582419E+03  0.61100425450E+03  0.00000000000E+00 0.  1.
         21    1    1    2  505  504 -0.16687910727E+03 -0.26338357176E+02 -0.24999703596E+03  0.30172978556E+03  0.00000000000E+00 0.  1.
         -1    1    1    2    0  505  0.30426171642E+02  0.24514264797E+02  0.45142688663E+03  0.45311470410E+03  0.00000000000E+00 0.  1.
<scales pt_clust_3="38.78974" pt_clust_4="38.78974" pt_clust_5="142.29856" pt_clust_6="39.07302"></scales>
<clustering>
<clus scale="   38.790">  3  4 -1 -1</clus>
<clus scale="   39.073">  1  6  2 -1</clus>
<clus scale="  142.299">  1  5  2 -1</clus>
<clus scale="  149.163">  2  3  1 -1</clus>
</clustering>
</event>
<event>
 6    0  0.2433432E+002  0.1285866E+03  0.7546771E-02  0.1229568E+00
          2   -1    0    0  504    0 -0.00000000000E+00  0.00000000000E+00  0.14231898108E+04  0.14231898108E+04  0.00000000000E+00 0. -1.
         21   -1    0    0  505  502  0.00000000000E+00 -0.00000000000E+00 -0.57950286634E+02  0.57950286634E+02  0.00000000000E+00 0. -1.
         21    1    1    2  503  502 -0.76074480962E+02  0.20499450751E+01  0.89645803929E+02  0.11759208770E+03  0.00000000000E+00 0. -1.
         21    1    1    2  504  503  0.72254946437E+02 -0.32170894256E+02  0.20330262217E+03  0.21814605177E+03  0.00000000000E+00 0. -1.
         21    1    1    2  505  501 -0.64636664114E+02 -0.82500931503E+02  0.52666377394E+02  0.11729471154E+03  0.00000000000E+00 0. -1.
          2    1    1    2  501    0  0.68456198640E+02  0.11262188068E+03  0.10196247207E+04  0.10281072464E+04  0.00000000000E+00 0. -1.
<scales pt_clust_3="76.10210" pt_clust_4="67.40277" pt_clust_5="128.58659" pt_clust_6="14000.00000"></scales>
<clustering>
<clus scale="   76.102">  2  3  1 -1</clus>
<clus scale="   67.403">  2  4  1 -1</clus>
<clus scale="  128.587">  2  5  1 -1</clus>
<clus scale="   76.102">  2  3  1 -1</clus>
</clustering>
</event>
<event>
 6    0  0.2433432E+002  0.1540070E+03  0.7546771E-02  0.1195634E+00
          1   -1    0    0  502    0 -0.00000000000E+00  0.00000000000E+00  0.92381454298E+03  0.92381454298E+03  0.00000000000E+00 0. -1.
         21   -1    0    0  505  502  0.00000000000E+00 -0.00000000000E+00 -0.11304707341E+04  0.11304707341E+04  0.00000000000E+00 0. -1.
         21    1    1    2  503  501  0.46043994642E+02 -0.38555654093E+02 -0.63668706930E+02  0.87523094937E+02  0.00000000000E+00 0. -1.
         21    1    1    2  504  503  0.42965816233E+02 -0.20928837382E+02 -0.11408732103E+03  0.12369314621E+03  0.00000000000E+00 0.  1.
         21    1    1    2  505  504  0.30319546791E+02 -0.31767717585E+02 -0.92924300113E+03  0.93028007501E+03  0.00000000000E+00 0. -1.
          1    1    1    2  501    0 -0.11932935767E+03  0.91252209060E+02  0.90034283799E+03  0.91278896092E+03  0.00000000000E+00 0. -1.
<scales pt_clust_3="35.16586" pt_clust_4="35.16586" pt_clust_5="43.91427" pt_clust_6="148.87645"></scales>
<clustering>
<clus scale="   35.166">  3  4 -1 -1</clus>
<clus scale="   43.914">  2  5  1 -1</clus>
<clus scale="  148.876">  1  6  2 -1</clus>
<clus scale="   43.914">  2  3  1 -1</clus>
</clustering>
</event>
<event>
 6    0  0.2433432E+002  0.1187191E+03  0.7546771E-02  0.1245225E+00
          2   -1    0    0  505    0 -0.00000000000E+00  0.00000000000E+00  0.11789759554E+04  0.11789759554E+04  0.00000000000E+00 0. -1.
         21   -1    0    0  504  502  0.00000000000E+00 -0.00000000000E+00 -0.41813693217E+02  0.41813693217E+02  0.00000000000E+00 0.  1.
         21    1    1    2  503  501 -0.15416907136E+02 -0.42589594714E+02  0.36661964313E+03  0.36940698062E+03  0.00000000000E+00 0. -1.
         21    1    1    2  504  503 -0.59683534930E+02 -0.64150423043E+02  0.37992453674E+03  0.38989749260E+03  0.00000000000E+00 0.  1.
         21    1    1    2  505  502  0.36691007970E+02  0.10073892735E+03  0.49376699551E+02  0.11803651981E+03  0.00000000000E+00 0.  1.
          2    1    1    2  501    0  0.38409434095E+02  0.60010904018E+01  0.34124138271E+03  0.34344865553E+03  0.00000000000E+00 0. -1.
<scales pt_clust_3="33.58158" pt_clust_4="33.58158" pt_clust_5="109.14515" pt_clust_6="38.87541"></scales>
<clustering>
<clus scale="   33.582">  3  4 -1 -1</clus>
<clus scale="   38.875">  1  6  2 -1</clus>
<clus scale="  109.145">  2  5  1 -1</clus>
<clus scale="  109.145">  2  3  1 -1</clus>
</clustering>
</event>
<event>
 6    0  0.8493840E+002  0.1096900E+03  0.7546771E-02  0.1261145E+00
          2   -1    0    0  503    0 -0.00000000000E+00  0.00000000000E+00  0.14691704844E+04  0.14691704844E+04  0.00000000000E+00 0. -1.
         21   -1    0    0  505  502  0.00000000000E+00 -0.00000000000E+00 -0.73489157416E+03  0.73489157416E+03  0.00000000000E+00 0.  1.
         21    1    1    2  503  504 -0.13816819502E+03  0.23284210091E+02  0.20594235552E+02  0.14162177479E+03  0.00000000000E+00 0.  1.
         21    1    1    2  504  502  0.11419903190E+03 -0.59624704564E+02 -0.64144441804E+03  0.65425336508E+03  0.00000000000E+00 0.  1.
         21    1    1    2  505  501 -0.17240104571E+02  0.25485073240E+02 -0.17164020303E+02  0.35232282876E+02  0.00000000000E+00 0.  1.
          2    1    1    2  501    0  0.41209267699E+02  0.10855421232E+02  0.13722931130E+04  0.13729546358E+04  0.00000000000E+00 0. -1.
<scales pt_clust_3="109.68999" pt_clust_4="14000.00000" pt_clust_5="30.76866" pt_clust_6="42.61032"></scales>
<clustering>
<clus scale="   30.769">  2  5  1 -1</clus>
<clus scale="   42.610">  1  6  2 -1</clus>
<clus scale="  109.690">  1  3  2 -1</clus>
<clus scale="   30.769">  2  3  1 -1</clus>
</clustering>
</event>
<event>
 6    0  0.2433432E+002  0.1091847E+03  0.7546771E-02  0.1262087E+00
         21   -1    0    0  504  502  0.00000000000E+00  0.00000000000E+00  0.16963681000E+03  0.16963681000E+03  0.00000000000E+00 0. -1.
          1   -1    0    0  505    0 -0.00000000000E+00 -0.00000000000E+00 -0.65675694423E+03  0.65675694423E+03  0.00000000000E+00 0.  1.
         21    1    1    2  503  502 -0.26360273154E+02  0.15165646074E+02  0.10186772945E+02  0.32072280316E+02  0.00000000000E+00 0. -1.
         21    1    1    2  504  501 -0.92488252552E+01 -0.43450797002E+02 -0.75892813149E+01  0.45067834645E+02  0.00000000000E+00 0.  1.
         21    1    1    2  505  503  0.13157019263E+03 -0.22265484911E+02  0.89040397855E+02  0.16042026012E+03  0.00000000000E+00 0. -1.
          1    1    1    2  501    0 -0.95961094217E+02  0.50550635839E+02 -0.57875802371E+03  0.58883337915E+03  0.00000000000E+00 0.  1.
<scales pt_clust_3="30.41152" pt_clust_4="43.39892" pt_clust_5="14000.00000" pt_clust_6="109.18474"></scales>
<clustering>
<clus scale="   30.412">  1  3  2 -1</clus>
<clus scale="   43.399">  1  4  2 -1</clus>
<clus scale="  109.185">  2  6  1 -1</clus>
<clus scale="   30.412">  1  3  2 -1</clus>
</clustering>
</event>
<event>
 6    0  0.2433432E+002  0.7978347E+02  0.7546771E-02  0.1329667E+00
         -1   -1    0    0    0  501 -0.00000000000E+00  0.00000000000E+00  0.67755259902E+03  0.67755259902E+03  0.00000000000E+00 0.  1.
         21   -1    0    0  503  502  0.00000000000E+00 -0.00000000000E+00 -0.92171637734E+03  0.92171637734E+03  0.00000000000E+00 0. -1.
         21    1    1    2  503  501 -0.60167851673E+02 -0.79620852567E+02 -0.14394823317E+03  0.17515919722E+03  0.00000000000E+00 0. -1.
         21    1    1    2  504  502  0.25963646283E+02 -0.17862901347E+02 -0.48551850407E+03  0.48654024701E+03  0.00000000000E+00 0. -1.
         21    1    1    2  505  504 -0.93664197832E+01  0.85679220877E+02 -0.26861053885E+03  0.28209977010E+03  0.00000000000E+00 0. -1.
         -1    1    1    2    0  505  0.43570625173E+02  0.11804533037E+02  0.65391349776E+03  0.65546976203E+03  0.00000000000E+00 0.  1.
<scales pt_clust_3="79.78347" pt_clust_4="31.51498" pt_clust_5="14000.00000" pt_clust_6="45.17784"></scales>
<clustering>
<clus scale="   31.515">  2  4  1 -1</clus>
<clus scale="   45.178">  1  6  2 -1</clus>
<clus scale="   79.783">  1  3  2 -1</clus>
<clus scale="   31.515">  2  3  1 -1</clus>
</clustering>
</event>
<event>
 6    0  0.2433432E+002  0.7979824E+02  0.7546771E-02  0.1329625E+00
          2   -1    0    0  503    0 -0.00000000000E+00  0.00000000000E+00  0.86731250679E+03  0.86731250679E+03  0.00000000000E+00 0.  1.
         21   -1    0    0  505  502  0.00000000000E+00 -0.00000000000E+00 -0.52628456207E+03  0.52628456207E+03  0.00000000000E+00 0.  1.
         21    1    1    2  503  504 -0.34916004656E+02 -0.58302817436E+02 -0.46679558488E+02  0.82445903978E+02  0.00000000000E+00 0. -1.
         21    1    1    2  504  502  0.95333005594E+02  0.29233466512E+02 -0.16080908105E+03  0.18921558622E+03  0.00000000000E+00 0.  1.
         21    1    1    2  505  501 -0.41650545945E+02  0.57651941907E+02 -0.28194143347E+03  0.29077394363E+03  0.00000000000E+00 0.  1.
          2    1    1    2  501    0 -0.18766454993E+02 -0.28582590983E+02  0.83045801773E+03  0.83116163503E+03  0.00000000000E+00 0.  1.
<scales pt_clust_3="14000.00000" pt_clust_4="79.79824" pt_clust_5="69.75695" pt_clust_6="34.19275"></scales>
<clustering>
<clus scale="   34.193">  1  6  2 -1</clus>
<clus scale="   69.757">  2  5  1 -1</clus>
<clus scale="   79.798">  2  4  1 -1</clus>
<clus scale="   69.757">  2  3  1 -1</clus>
</clustering>
</event>
<event>
 6    0  0.2433432E+002  0.1169243E+03  0.7546771E-02  0.1248259E+00
          2   -1    0    0  504    0 -0.00000000000E+00  0.00000000000E+00  0.93921901742E+03  0.93921901742E+03  0.00000000000E+00 0.  1.
         21   -1    0    0  505  502  0.00000000000E+00 -0.00000000000E+00 -0.91061156352E+02  0.91061156352E+02  0.00000000000E+00 0.  1.
         21    1    1    2  503  502  0.21015334993E+02  0.27443037196E+02  0.14749955034E+02  0.37580922938E+02  0.00000000000E+00 0.  1.
         21    1    1    2  504  503 -0.37624823962E+02  0.21245649544E+02  0.19654551988E+03  0.20123902800E+03  0.00000000000E+00 0.  1.
         21    1    1    2  505  501 -0.24529806987E+02  0.90323089398E+02 -0.38138519468E+02  0.10106690149E+03  0.00000000000E+00 0.  1.
          2    1    1    2  501    0  0.41139295957E+02 -0.13901177614E+03  0.67500090562E+03  0.69039332135E+03  0.00000000000E+00 0.  1.
<scales pt_clust_3="34.56537" pt_clust_4="43.07906" pt_clust_5="116.92428" pt_clust_6="14000.00000"></scales>
<clustering>
<clus scale="   34.565">  2  3  1 -1</clus>
<clus scale="   43.079">  1  4  2 -1</clus>
<clus scale="  116.924">  2  5  1 -1</clus>
<clus scale="   34.565">  2  3  1 -1</clus>
</clustering>
</event>
<event>
 6    0  0.2433432E+002  0.8923471E+02  0.7546771E-02  0.1304716E+00
          2   -1    0    0  503    0 -0.00000000000E+00  0.00000000000E+00  0.32488614607E+04  0.32488614607E+04  0.00000000000E+00 0. -1.
         21   -1    0    0  505  502  0.00000000000E+00 -0.00000000000E+00 -0.12743754237E+03  0.12743754237E+03  0.00000000000E+00 0. -1.
         21    1    1    2  503  504 -0.42015510055E+02  0.42519993800E+02  0.12720895874E+03  0.14055380515E+03  0.00000000000E+00 0. -1.
         21    1    1    2  504  502 -0.62104857076E+02 -0.46054730218E+02  0.70305924420E+02  0.10450346624E+03  0.00000000000E+00 0. -1.
         21    1    1    2  505  501  0.20382282034E+02  0.43374049672E+02 -0.97377897619E+02  0.10853202546E+03  0.00000000000E+00 0. -1.
          2    1    1    2  501    0  0.83738085097E+02 -0.39839313254E+02  0.30212869328E+04  0.30227097062E+04  0.00000000000E+00 0. -1.
<scales pt_clust_3="14000.00000" pt_clust_4="50.39798" pt_clust_5="47.92437" pt_clust_6="89.23471"></scales>
<clustering>
<clus scale="   47.924">  2  5  1 -1</clus>
<clus scale="   50.398">  2  4  1 -1</clus>
<clus scale="   89.235">  1  6  2 -1</clus>
<clus scale="   47.924">  2  3  1 -1</clus>
</clustering>
</event>
<event>
 6    0  0.2433432E+002  0.9280373E+02  0.7546771E-02  0.1296201E+00
         21   -1    0    0  503  502  0.00000000000E+00  0.00000000000E+00  0.11610920876E+03  0.11610920876E+03  0.00000000000E+00 0. -1.
          2   -1    0    0  504    0 -0.00000000000E+00 -0.00000000000E+00 -0.30250266090E+03  0.30250266090E+03  0.00000000000E+00 0. -1.
         21    1    1    2  503  505 -0.45399642473E+02 -0.59414898209E+02 -0.20207773691E+01  0.74802013389E+02  0.00000000000E+00 0. -1.
         21    1    1    2  504  502  0.13892965569E+02  0.10708519906E+03 -0.40751345614E+02  0.11541631825E+03  0.00000000000E+00 0. -1.
         21    1    1    2  505  501  0.40848631241E+02 -0.78620814878E+02 -0.79861074337E+01  0.88958535950E+02  0.00000000000E+00 0. -1.
          2    1    1    2  501    0 -0.93419543376E+01  0.30950514029E+02 -0.13563522172E+03  0.13943500207E+03  0.00000000000E+00 0. -1.
<scales pt_clust_3="70.63338" pt_clust_4="14000.00000" pt_clust_5="92.80373" pt_clust_6="32.32965"></scales>
<clustering>
<clus scale="   32.330">  2  6  1 -1</clus>
<clus scale="   70.633">  1  3  2 -1</clus>
<clus scale="   92.804">  2  5  1 -1</clus>
<clus scale="   70.633">  1  3  2 -1</clus>
</clustering>
</event>
<event>
 6    0  0.2433432E+002  0.1951363E+03  0.7546771E-02  0.1153909E+00
         21   -1    0    0  501  502  0.00000000000E+00  0.00000000000E+00  0.14714436822E+03  0.14714436822E+03  0.00000000000E+00 0.  1.
          1   -1    0    0  505    0 -0.00000000000E+00 -0.00000000000E+00 -0.36049761114E+04  0.36049761114E+04  0.00000000000E+00 0. -1.
         21    1    1    2  503  502 -0.10312964876E+03 -0.15631690481E+02  0.45295917167E+02  0.11371804744E+03  0.00000000000E+00 0.  1.
         21    1    1    2  504  503 -0.64980111512E+02 -0.64165218510E+02  0.27287223065E+02  0.95310978912E+02  0.00000000000E+00 0.  1.
         21    1    1    2  505  504  0.36810146654E+02  0.33516592675E+02 -0.12107424730E+03  0.13090959568E+03  0.00000000000E+00 0.  1.
          1    1    1    2  501    0  0.13129961362E+03  0.46280316316E+02 -0.34093406361E+04  0.34121818575E+04  0.00000000000E+00 0. -1.
<scales pt_clust_3="57.61063" pt_clust_4="57.61063" pt_clust_5="49.78302" pt_clust_6="185.15344"></scales>
<clustering>
<clus scale="   49.783">  2  5  1 -1</clus>
<clus scale="   57.611">  3  4 -1 -1</clus>
<clus scale="  185.153">  2  6  1 -1</clus>
<clus scale="  195.136">  1  3  2 -1</clus>
</clustering>
</event>
<event>
 6    0  0.2433432E+002  0.1265891E+03  0.7546771E-02  0.1232606E+00
         21   -1    0    0  505  502  0.00000000000E+00  0.00000000000E+00  0.26257466791E+04  0.26257466791E+04  0.00000000000E+00 0.  1.
         -3   -1    0    0    0  501 -0.00000000000E+00 -0.00000000000E+00 -0.18537994764E+03  0.18537994764E+03  0.00000000000E+00 0.  1.
         21    1    1    2  503  501  0.46112201111E+02  0.20134512743E+03  0.13046367819E+04  0.13208873261E+04  0.00000000000E+00 0.  1.
         21    1    1    2  504  502 -0.12638464000E+02 -0.81660374649E+02  0.14384873969E+03  0.16589336175E+03  0.00000000000E+00 0.  1.
         21    1    1    2  505  503  0.31255370958E+02 -0.12365277571E+02  0.11342066204E+04  0.11347045677E+04  0.00000000000E+00 0.  1.
         -3    1    1    2    0  504 -0.64729108069E+02 -0.10731947521E+03 -0.14232541053E+03  0.18964137120E+03  0.00000000000E+00 0.  1.
<scales pt_clust_3="126.58912" pt_clust_4="83.47462" pt_clust_5="33.61247" pt_clust_6="14000.00000"></scales>
<clustering>
<clus scale="   33.612">  1  5  2 -1</clus>
<clus scale="   83.475">  1  4  2 -1</clus>
<clus scale="  126.589">  1  3  2 -1</clus>
<clus scale="   33.612">  1  3  2 -1</clus>
</clustering>
</event>
<event>
 6    0  0.2433432E+002  0.2456266E+03  0.7546771E-02  0.1116100E+00
         21   -1    0    0  503  502  0.00000000000E+00  0.00000000000E+00  0.99673233179E+03  0.99673233179E+03  0.00000000000E+00 0.  1.
          2   -1    0    0  505    0 -0.00000000000E+00 -0.00000000000E+00 -0.56139300334E+03  0.56139300334E+03  0.00000000000E+00 0.  1.
         21    1    1    2  503  501 -0.19456218944E+03 -0.21344785367E+03  0.37279756739E+03  0.47158504858E+03  0.00000000000E+00 0. -1.
         21    1    1    2  504  502  0.82425920051E+02  0.36336810240E+02  0.20414837804E+03  0.22313887230E+03  0.00000000000E+00 0.  1.
         21    1    1    2  505  504  0.69189545610E+02  0.11354953344E+03  0.34554561374E+03  0.37024648674E+03  0.00000000000E+00 0.  1.
          2    1    1    2  501    0  0.42946723779E+02  0.63561509989E+02 -0.48715223072E+03  0.49315492751E+03  0.00000000000E+00 0.  1.
<scales pt_clust_3="236.31105" pt_clust_4="55.14929" pt_clust_5="55.14929" pt_clust_6="76.71041"></scales>
<clustering>
<clus scale="   55.149">  4  5 -1 -1</clus>
<clus scale="   76.710">  2  6  1 -1</clus>
<clus scale="  236.311">  2  3  1 -1</clus>
<clus scale="  245.627">  1  3  2 -1</clus>
</clustering>
</event>
<event>
 6    0  0.2433432E+002  0.9483720E+02  0.7546771E-02  0.1291543E+00
          2   -1    0    0  505    0 -0.00000000000E+00  0.00000000000E+00  0.10071442981E+04  0.10071442981E+04  0.00000000000E+00 0.  1.
         21   -1    0    0  503  502  0.00000000000E+00 -0.00000000000E+00 -0.12811305130E+03  0.12811305130E+03  0.00000000000E+00 0.  1.
         21    1    1    2  503  504 -0.25603123041E+02 -0.24475997504E+02  0.14847539832E+02  0.38406298992E+02  0.00000000000E+00 0.  1.
         21    1    1    2  504  501  0.44620718459E+02  0.13831703032E+02  0.54287783896E+02  0.71620444043E+02  0.00000000000E+00 0.  1.
         21    1    1    2  505  502  0.60503030851E+02  0.62749906167E+02 -0.87091075090E+02  0.12321940929E+03  0.00000000000E+00 0.  1.
          2    1    1    2  501    0 -0.79520626269E+02 -0.52105611696E+02  0.89698699815E+03  0.90201119706E+03  0.00000000000E+00 0.  1.
<scales pt_clust_3="35.42025" pt_clust_4="44.36931" pt_clust_5="14000.00000" pt_clust_6="94.83720"></scales>
<clustering>
<clus scale="   35.420">  2  3  1 -1</clus>
<clus scale="   44.369">  2  4  1 -1</clus>
<clus scale="   94.837">  1  6  2 -1</clus>
<clus scale="   35.420">  2  3  1 -1</clus>
</clustering>
</event>
<event>
 6    0  0.2433432E+002  0.1162598E+03  0.7546771E-02  0.1249398E+00
          2   -1    0    0  504    0 -0.00000000000E+00  0.00000000000E+00  0.64812458802E+03  0.64812458802E+03  0.00000000000E+00 0.  1.
         21   -1    0    0  503  502  0.00000000000E+00 -0.00000000000E+00 -0.22240603117E+03  0.22240603117E+03  0.00000000000E+00 0. -1.
         21    1    1    2  503  501  0.10873535046E+03 -0.38174566821E+02 -0.16296151235E+03  0.19959240592E+03  0.00000000000E+00 0. -1.
         21    1    1    2  504  505  0.44678118649E+02  0.53896978962E+01  0.10426733104E+03  0.11356434058E+03  0.00000000000E+00 0.  1.
         21    1    1    2  505  502 -0.12185545316E+03  0.20991172072E+02  0.70987886296E+02  0.14257861260E+03  0.00000000000E+00 0.  1.
          2    1    1    2  501    0 -0.31558015945E+02  0.11793696853E+02  0.41342485187E+03  0.41479526009E+03  0.00000000000E+00 0.  1.
<scales pt_clust_3="14000.00000" pt_clust_4="31.90242" pt_clust_5="116.25985" pt_clust_6="33.68976"></scales>
<clustering>
<clus scale="   33.690">  1  6  2 -1</clus>
<clus scale="   31.902">  1  4  2 -1</clus>
<clus scale="  116.260">  1  5  2 -1</clus>
<clus scale="  116.260">  2  3  1 -1</clus>
</clustering>
</event>
<event>
 6    0  0.2433432E+002  0.1228855E+03  0.7546771E-02  0.1238411E+00
         21   -1    0    0  504  502  0.00000000000E+00  0.00000000000E+00  0.13578159531E+03  0.13578159531E+03  0.00000000000E+00 0. -1.
          1   -1    0    0  503    0 -0.00000000000E+00 -0.00000000000E+00 -0.10974427898E+04  0.10974427898E+04  0.00000000000E+00 0. -1.
         21    1    1    2  503  505 -0.27491926858E+02  0.56496254933E+02 -0.11230007251E+03  0.12868154160E+03  0.00000000000E+00 0. -1.
         21    1    1    2  504  501  0.61206507045E+02 -0.76792766333E+01 -0.66451922952E+02  0.90670093517E+02  0.00000000000E+00 0. -1.
         21    1    1    2  505  502  0.45230425673E+02 -0.72630024477E+02  0.97437581957E+02  0.12967264260E+03  0.00000000000E+00 0. -1.
          1    1    1    2  501    0 -0.78945005860E+02  0.23813046177E+02 -0.88034678096E+03  0.88420010736E+03  0.00000000000E+00 0. -1.
<scales pt_clust_3="60.69572" pt_clust_4="61.68637" pt_clust_5="122.88555" pt_clust_6="14000.00000"></scales>
<clustering>
<clus scale="   61.686">  1  4  2 -1</clus>
<clus scale="   60.696">  2  3  1 -1</clus>
<clus scale="  122.886">  1  5  2 -1</clus>
<clus scale="   61.686">  1  3  2 -1</clus>
</clustering>
</event>
<event>
 6    0  0.2433432E+002  0.1326677E+03  0.7546771E-02  0.1223550E+00
         21   -1    0    0  504  502  0.00000000000E+00  0.00000000000E+00  0.80362451841E+02  0.80362451841E+02  0.00000000000E+00 0.  1.
          2   -1    0    0  505    0 -0.00000000000E+00 -0.00000000000E+00 -0.12164772024E+04  0.12164772024E+04  0.00000000000E+00 0. -1.
         21    1    1    2  503  502  0.32194389719E+02  0.72194060912E+02 -0.86597505643E+02  0.11725011362E+03  0.00000000000E+00 0. -1.
         21    1    1    2  504  501  0.28155665440E+02 -0.25180318291E+02 -0.21032727073E+02  0.43233847085E+02  0.00000000000E+00 0.  1.
         21    1    1    2  505  503 -0.49165162994E+02 -0.17557188871E+03 -0.11891416381E+03  0.21767700777E+03  0.00000000000E+00 0.  1.
          2    1    1    2  501    0 -0.11184892165E+02  0.12855814609E+03 -0.90957035406E+03  0.91867868579E+03  0.00000000000E+00 0. -1.
<scales pt_clust_3="76.90882" pt_clust_4="37.77287" pt_clust_5="14000.00000" pt_clust_6="132.66766"></scales>
<clustering>
<clus scale="   37.773">  1  4  2 -1</clus>
<clus scale="   76.909">  1  3  2 -1</clus>
<clus scale="  132.668">  2  6  1 -1</clus>
<clus scale="   37.773">  1  3  2 -1</clus>
</clustering>
</event>
<event>
 6    0  0.2433432E+002  0.9946294E+02  0.7546771E-02  0.1281429E+00
         21   -1    0    0  503  502  0.00000000000E+00  0.00000000000E+00  0.13653332974E+04  0.13653332974E+04  0.00000000000E+00 0. -1.
          1   -1    0    0  504    0 -0.00000000000E+00 -0.00000000000E+00 -0.82349855469E+02  0.82349855469E+02  0.00000000000E+00 0. -1.
         21    1    1    2  503  501 -0.40535008668E+02  0.41043964225E+02  0.57747659152E+03  0.58035067648E+03  0.00000000000E+00 0. -1.
         21    1    1    2  504  505  0.37686308867E+02 -0.37713460550E+01  0.58380585019E+02  0.69590039763E+02  0.00000000000E+00 0. -1.
         21    1    1    2  505  502  0.42455558084E+01 -0.13121610746E+03  0.68424213815E+03  0.69672304054E+03  0.00000000000E+00 0. -1.
          1    1    1    2  501    0 -0.13968560070E+01  0.93943489291E+02 -0.37115872721E+02  0.10101939613E+03  0.00000000000E+00 0. -1.
<scales pt_clust_3="57.14185" pt_clust_4="37.87454" pt_clust_5="99.46294" pt_clust_6="14000.00000"></scales>
<clustering>
<clus scale="   37.875">  2  4  1 -1</clus>
<clus scale="   57.142">  1  3  2 -1</clus>
<clus scale="   99.463">  1  5  2 -1</clus>
<clus scale="   57.142">  1  3  2 -1</clus>
</clustering>
</event>
<event>
 6    0  0.2433432E+002  0.1281444E+03  0.7546771E-02  0.1230235E+00
         -1   -1    0    0    0  501 -0.00000000000E+00  0.00000000000E+00  0.89008337915E+02  0.89008337915E+02  0.00000000000E+00 0. -1.
         21   -1    0    0  505  502  0.00000000000E+00 -0.00000000000E+00 -0.37145875555E+03  0.37145875555E+03  0.00000000000E+00 0. -1.
         21    1    1    2  503  502  0.73386408902E+02  0.81497123323E+02 -0.49252143022E+02  0.12022112840E+03  0.00000000000E+00 0. -1.
         21    1    1    2  504  501 -0.51252807114E+02 -0.33314223858E+02 -0.16055417979E+03  0.17179735852E+03  0.00000000000E+00 0. -1.
         21    1    1    2  505  504 -0.66841248727E+02 -0.14631545084E+01 -0.78975568536E+02  0.10347479779E+03  0.00000000000E+00 0. -1.
         -1    1    1    2    0  503  0.44707646939E+02 -0.46719744957E+02  0.63314737137E+01  0.64973808747E+02  0.00000000000E+00 0. -1.
<scales pt_clust_3="114.78849" pt_clust_4="54.46621" pt_clust_5="54.46621" pt_clust_6="64.66458"></scales>
<clustering>
<clus scale="   54.466">  4  5 -1 -1</clus>
<clus scale="   64.665">  1  6  2 -1</clus>
<clus scale="  114.788">  1  3  2 -1</clus>
<clus scale="  128.144">  2  3  1 -1</clus>
</clustering>
</event>
<event>
 6    0  0.2433432E+002  0.2507874E+03  0.7546771E-02  0.1112808E+00
         21   -1    0    0  501  502  0.00000000000E+00  0.00000000000E+00  0.56983444972E+03  0.56983444972E+03  0.00000000000E+00 0.  1.
          1   -1    0    0  505    0 -0.00000000000E+00 -0.00000000000E+00 -0.76352898010E+03  0.76352898010E+03  0.00000000000E+00 0.  1.
         21    1    1    2  503  504  0.18801100591E+03  0.13661815355E+03 -0.12610262596E+03  0.26441355959E+03  0.00000000000E+00 0.  1.
         21    1    1    2  504  502 -0.62021825741E+02 -0.25570890158E+03  0.44266217699E+03  0.51495975779E+03  0.00000000000E+00 0.  1.
         21    1    1    2  505  503 -0.48124895753E+02  0.49594528278E+02 -0.59129185869E+02  0.90949895260E+02  0.00000000000E+00 0.  1.
          1    1    1    2  501    0 -0.77864284417E+02  0.69496219752E+02 -0.45112489554E+03  0.46304021718E+03  0.00000000000E+00 0.  1.
<scales pt_clust_3="250.78742" pt_clust_4="14000.00000" pt_clust_5="69.10588" pt_clust_6="150.16427"></scales>
<clustering>
<clus scale="   69.106">  2  5  1 -1</clus>
<clus scale="  150.164">  2  6  1 -1</clus>
<clus scale="  250.787">  2  3  1 -1</clus>
<clus scale="  250.787">  1  3  2 -1</clus>
</clustering>
</event>
<event>
 6    0  0.2433432E+002  0.1126137E+03  0.7546771E-02  0.1255805E+00
          2   -1    0    0  504    0 -0.00000000000E+00  0.00000000000E+00  0.54798904602E+03  0.54798904602E+03  0.00000000000E+00 0.  1.
         21   -1    0    0  505  502  0.00000000000E+00 -0.00000000000E+00 -0.19706706437E+03  0.19706706437E+03  0.00000000000E+00 0. -1.
         21    1    1    2  503  501  0.39340759829E+02  0.68924932785E+02  0.11466757819E+02  0.80186210025E+02  0.00000000000E+00 0.  1.
         21    1    1    2  504  502 -0.34051427343E+02 -0.15763260940E+03  0.63376495400E+02  0.17327469353E+03  0.00000000000E+00 0.  1.
         21    1    1    2  505  503 -0.21645074697E+02  0.60502208401E+02 -0.97405075214E+02  0.11669093863E+03  0.00000000000E+00 0. -1.
          2    1    1    2  501    0  0.16355742211E+02  0.28205468213E+02  0.37348380364E+03  0.37490426821E+03  0.00000000000E+00 0.  1.
<scales pt_clust_3="14000.00000" pt_clust_4="112.61368" pt_clust_5="65.43991" pt_clust_6="32.60458"></scales>
<clustering>
<clus scale="   32.605">  1  6  2 -1</clus>
<clus scale="   65.440">  2  5  1 -1</clus>
<clus scale="  112.614">  1  4  2 -1</clus>
<clus scale="   65.440">  2  3  1 -1</clus>
</clustering>
</event>
<event>
 6    0  0.2433432E+002  0.1131471E+03  0.7546771E-02  0.1254850E+00
          2   -1    0    0  504    0 -0.00000000000E+00  0.00000000000E+00  0.55592137983E+03  0.55592137983E+03  0.00000000000E+00 0. -1.
         21   -1    0    0  503  502  0.00000000000E+00 -0.00000000000E+00 -0.57480308943E+03  0.57480308943E+03  0.00000000000E+00 0. -1.
         21    1    1    2  503  501  0.54825078679E+02 -0.96096690141E+02 -0.30438745494E+03  0.32387047694E+03  0.00000000000E+00 0. -1.
         21    1    1    2  504  505  0.35340422558E+01  0.44132789027E+02  0.37094285368E+02  0.57759661780E+02  0.00000000000E+00 0. -1.
         21    1    1    2  505  502 -0.72066756425E+02 -0.18563208428E+02 -0.24213559368E+03  0.25331374975E+03  0.00000000000E+00 0. -1.
          2    1    1    2  501    0  0.13707635490E+02  0.70527109542E+02  0.49054705364E+03  0.49578058079E+03  0.00000000000E+00 0. -1.
<scales pt_clust_3="113.14712" pt_clust_4="44.27406" pt_clust_5="74.26196" pt_clust_6="14000.00000"></scales>
<clustering>
<clus scale="   44.274">  1  4  2 -1</clus>
<clus scale="   74.262">  2  5  1 -1</clus>
<clus scale="  113.147">  2  3  1 -1</clus>
<clus scale="   74.262">  2  3  1 -1</clus>
</clustering>
</event>
<event>
 6    0  0.2433432E+002  0.1827949E+03  0.7546771E-02  0.1165125E+00
         21   -1    0    0  505  502  0.00000000000E+00  0.00000000000E+00  0.11568969923E+03  0.11568969923E+03  0.00000000000E+00 0.  1.
          2   -1    0    0  504    0 -0.00000000000E+00 -0.00000000000E+00 -0.81897308029E+03  0.81897308029E+03  0.00000000000E+00 0.  1.
         21    1    1    2  503  501  0.24885462846E+02  0.18438699221E+03 -0.10627560644E+03  0.21427168193E+03  0.00000000000E+00 0.  1.
         21    1    1    2  504  502 -0.12936220674E+03 -0.14912255844E+03 -0.18066638187E+03  0.26760504388E+03  0.00000000000E+00 0.  1.
         21    1    1    2  505  503  0.30553886947E+02 -0.14611138804E+02 -0.48686613951E+01  0.34215920980E+02  0.00000000000E+00 0.  1.
          2    1    1    2  501    0  0.73922856943E+02 -0.20653294959E+02 -0.41147273135E+03  0.41857013273E+03  0.00000000000E+00 0.  1.
<scales pt_clust_3="14000.00000" pt_clust_4="182.79487" pt_clust_5="33.86776" pt_clust_6="77.92597"></scales>
<clustering>
<clus scale="   33.868">  1  5  2 -1</clus>
<clus scale="   77.926">  2  6  1 -1</clus>
<clus scale="  182.795">  2  4  1 -1</clus>
<clus scale="   33.868">  1  3  2 -1</clus>
</clustering>
</event>
<event>
 6    0  0.2433432E+002  0.6760208E+02  0.7546771E-02  0.1368442E+00
          2   -1    0    0  504    0 -0.00000000000E+00  0.00000000000E+00  0.24056560451E+04  0.24056560451E+04  0.00000000000E+00 0.  1.
         21   -1    0    0  503  502  0.00000000000E+00 -0.00000000000E+00 -0.38404401268E+02  0.38404401268E+02  0.00000000000E+00 0.  1.
         21    1    1    2  503  505 -0.24674390224E+02 -0.26512739321E+02  0.20286174619E+02  0.41512404892E+02  0.00000000000E+00 0.  1.
         21    1    1    2  504  502  0.58528331775E+02 -0.20362666510E+02  0.73853691185E+02  0.96408358089E+02  0.00000000000E+00 0.  1.
         21    1    1    2  505  501 -0.80459002826E+02  0.93297091585E+02  0.22136438514E+03  0.25333809315E+03  0.00000000000E+00 0.  1.
          2    1    1    2  501    0  0.46605061275E+02 -0.46421685755E+02  0.20517473929E+04  0.20528015902E+04  0.00000000000E+00 0.  1.
<scales pt_clust_3="36.21810" pt_clust_4="57.63948" pt_clust_5="14000.00000" pt_clust_6="67.60208"></scales>
<clustering>
<clus scale="   36.218">  2  3  1 -1</clus>
<clus scale="   57.639">  2  4  1 -1</clus>
<clus scale="   67.602">  1  6  2 -1</clus>
<clus scale="   36.218">  2  3  1 -1</clus>
</clustering>
</event>
<event>
 6    0  0.2433432E+002  0.1351268E+03  0.7546771E-02  0.1220041E+00
          2   -1    0    0  504    0 -0.00000000000E+00  0.00000000000E+00  0.46618435132E+03  0.46618435132E+03  0.00000000000E+00 0.  1.
         21   -1    0    0  505  502  0.00000000000E+00 -0.00000000000E+00 -0.38205398677E+03  0.38205398677E+03  0.00000000000E+00 0. -1.
         21    1    1    2  503  502 -0.16217932400E+02  0.75265043826E+02 -0.19547371429E+03  0.21009003101E+03  0.00000000000E+00 0. -1.
         21    1    1    2  504  503  0.34739977217E+01  0.61853755910E+02 -0.83828696947E+02  0.10423629988E+03  0.00000000000E+00 0. -1.
         21    1    1    2  505  501  0.42454781744E+02 -0.12501329173E+02 -0.69515077290E+02  0.82407752637E+02  0.00000000000E+00 0. -1.
          2    1    1    2  501    0 -0.29710847066E+02 -0.12461747056E+03  0.43294785308E+03  0.45150425456E+03  0.00000000000E+00 0.  1.
<scales pt_clust_3="38.34402" pt_clust_4="38.34402" pt_clust_5="44.25711" pt_clust_6="128.18746"></scales>
<clustering>
<clus scale="   38.344">  3  4 -1 -1</clus>
<clus scale="   44.257">  2  5  1 -1</clus>
<clus scale="  128.187">  1  6  2 -1</clus>
<clus scale="   44.257">  2  3  1 -1</clus>
</clustering>
</event>
<event>
 6    0  0.2433432E+002  0.7027949E+02  0.7546771E-02  0.1359145E+00
          2   -1    0    0  503    0 -0.00000000000E+00  0.00000000000E+00  0.45592556658E+03  0.45592556658E+03  0.00000000000E+00 0.  1.
         21   -1    0    0  504  502  0.00000000000E+00 -0.00000000000E+00 -0.12050903827E+03  0.12050903827E+03  0.00000000000E+00 0.  1.
         21    1    1    2  503  502 -0.25759883969E+02  0.61972711372E+02  0.38864066828E+02  0.77553879770E+02  0.00000000000E+00 0.  1.
         21    1    1    2  504  505 -0.56044159747E+02  0.13872021215E+02 -0.55794571778E+02  0.80289570021E+02  0.00000000000E+00 0.  1.
         21    1    1    2  505  501  0.32153161307E+01 -0.71215306801E+02  0.15877568114E+02  0.73034617476E+02  0.00000000000E+00 0.  1.
          2    1    1    2  501    0  0.78588727585E+02 -0.46294257863E+01  0.33646946515E+03  0.34555653758E+03  0.00000000000E+00 0.  1.
<scales pt_clust_3="14000.00000" pt_clust_4="57.73544" pt_clust_5="69.27072" pt_clust_6="70.27949"></scales>
<clustering>
<clus scale="   57.735">  2  4  1 -1</clus>
<clus scale="   69.271">  2  5  1 -1</clus>
<clus scale="   70.279">  1  6  2 -1</clus>
<clus scale="   57.735">  2  3  1 -1</clus>
</clustering>
</event>
<event>
 6    0  0.2433432E+002  0.7747662E+02  0.7546771E-02  0.1336369E+00
         21   -1    0    0  504  502  0.00000000000E+00  0.00000000000E+00  0.15650425051E+03  0.15650425051E+03  0.00000000000E+00 0.  1.
          3   -1    0    0  503    0 -0.00000000000E+00 -0.00000000000E+00 -0.38086345959E+03  0.38086345959E+03  0.00000000000E+00 0. -1.
         21    1    1    2  503  502 -0.77932580932E+02 -0.10428665830E+02 -0.14507361638E+02  0.79954410657E+02  0.00000000000E+00 0. -1.
         21    1    1    2  504  505  0.34843620048E+02  0.83201349632E+02  0.74856860323E+02  0.11721813843E+03  0.00000000000E+00 0.  1.
         21    1    1    2  505  501  0.77724763763E+01 -0.50407502760E+02  0.14258796436E+01  0.51023140400E+02  0.00000000000E+00 0. -1.
          3    1    1    2  501    0  0.35316484508E+02 -0.22365181041E+02 -0.28613458741E+03  0.28917202062E+03  0.00000000000E+00 0. -1.
<scales pt_clust_3="77.47662" pt_clust_4="14000.00000" pt_clust_5="58.91481" pt_clust_6="41.80258"></scales>
<clustering>
<clus scale="   41.803">  2  6  1 -1</clus>
<clus scale="   58.915">  2  5  1 -1</clus>
<clus scale="   77.477">  2  3  1 -1</clus>
<clus scale="   77.477">  1  3  2 -1</clus>
</clustering>
</event>
<event>
 6    0  0.2433432E+002  0.8878733E+02  0.7546771E-02  0.1305815E+00
         21   -1    0    0  503  502  0.00000000000E+00  0.00000000000E+00  0.20203640808E+03  0.20203640808E+03  0.00000000000E+00 0. -1.
          2   -1    0    0  504    0 -0.00000000000E+00 -0.00000000000E+00 -0.21496657944E+04  0.21496657944E+04  0.00000000000E+00 0.  1.
         21    1    1    2  503  501  0.40201848269E+02 -0.48114143614E+02  0.64996466083E+01  0.63034949242E+02  0.00000000000E+00 0. -1.
         21    1    1    2  504  505 -0.70472814869E+02 -0.11419897033E+02  0.42687615031E+02  0.83180912238E+02  0.00000000000E+00 0. -1.
         21    1    1    2  505  502 -0.38088925130E+02  0.22329633279E+01  0.99866408240E+02  0.10690674365E+03  0.00000000000E+00 0. -1.
          2    1    1    2  501    0  0.68359891730E+02  0.57301077319E+02 -0.20966830562E+04  0.20985795973E+04  0.00000000000E+00 0.  1.
<scales pt_clust_3="54.37765" pt_clust_4="88.78733" pt_clust_5="38.15432" pt_clust_6="14000.00000"></scales>
<clustering>
<clus scale="   38.154">  1  5  2 -1</clus>
<clus scale="   54.378">  1  3  2 -1</clus>
<clus scale="   88.787">  1  4  2 -1</clus>
<clus scale="   38.154">  1  3  2 -1</clus>
</clustering>
</event>
<event>
 6    0  0.2433432E+002  0.1167966E+03  0.7546771E-02  0.1248477E+00
          1   -1    0    0  505    0 -0.00000000000E+00  0.00000000000E+00  0.18779469126E+04  0.18779469126E+04  0.00000000000E+00 0.  1.
         21   -1    0    0  504  502  0.00000000000E+00 -0.00000000000E+00 -0.91037586203E+02  0.91037586203E+02  0.00000000000E+00 0. -1.
         21    1    1    2  503  502  0.47729864315E+02  0.37582246169E+02  0.11831871456E+02  0.61891504723E+02  0.00000000000E+00 0. -1.
         21    1    1    2  504  501 -0.20875782128E+02  0.50105346407E+02 -0.45148647341E+02  0.70602722149E+02  0.00000000000E+00 0. -1.
         21    1    1    2  505  503  0.33962774723E+02  0.33865630979E+01  0.38697228114E+02  0.51598588549E+02  0.00000000000E+00 0. -1.
          1    1    1    2  501    0 -0.60816856910E+02 -0.91074155675E+02  0.17815288742E+04  0.17848916834E+04  0.00000000000E+00 0.  1.
<scales pt_clust_3="33.30819" pt_clust_4="54.28024" pt_clust_5="33.30819" pt_clust_6="108.01280"></scales>
<clustering>
<clus scale="   33.308">  3  5 -1 -1</clus>
<clus scale="   54.280">  2  4  1 -1</clus>
<clus scale="  108.013">  1  6  2 -1</clus>
<clus scale="   54.280">  2  3  1 -1</clus>
</clustering>
</event>
<event>
 6    0  0.2433432E+002  0.9625764E+02  0.7546771E-02  0.1288368E+00
         -3   -1    0    0    0  501 -0.00000000000E+00  0.00000000000E+00  0.10413219725E+04  0.10413219725E+04  0.00000000000E+00 0.  1.
         21   -1    0    0  505  502  0.00000000000E+00 -0.00000000000E+00 -0.38853637465E+02  0.38853637465E+02  0.00000000000E+00 0.  1.
         21    1    1    2  503  504 -0.48861463521E+02 -0.55801301752E+02  0.23295648086E+03  0.24447893543E+03  0.00000000000E+00 0.  1.
         21    1    1    2  504  502 -0.59412007541E+02 -0.21930920627E+01  0.19295471746E+02  0.62505291958E+02  0.00000000000E+00 0.  1.
         21    1    1    2  505  501 -0.27573327450E+02  0.36953340413E+02  0.13032067925E+03  0.13823645392E+03  0.00000000000E+00 0. -1.
         -3    1    1    2    0  503  0.13584679851E+03  0.21041053402E+02  0.61989570315E+03  0.63495492862E+03  0.00000000000E+00 0.  1.
<scales pt_clust_3="96.25764" pt_clust_4="60.65763" pt_clust_5="46.10681" pt_clust_6="14000.00000"></scales>
<clustering>
<clus scale="   46.107">  1  5  2 -1</clus>
<clus scale="   60.658">  2  4  1 -1</clus>
<clus scale="   96.258">  2  3  1 -1</clus>
<clus scale="   60.658">  2  3  1 -1</clus>
</clustering>
</event>
<event>
 6    0  0.2433432E+002  0.1262333E+03  0.7546771E-02  0.1233154E+00
          2   -1    0    0  503    0 -0.00000000000E+00  0.00000000000E+00  0.10098780082E+04  0.10098780082E+04  0.00000000000E+00 0. -1.
         21   -1    0    0  501  502  0.00000000000E+00 -0.00000000000E+00 -0.61171766060E+02  0.61171766060E+02  0.00000000000E+00 0. -1.
         21    1    1    2  503  505 -0.23408222225E+02 -0.99591764707E+02  0.42500644130E+02  0.11078253119E+03  0.00000000000E+00 0. -1.
         21    1    1    2  504  502  0.20051413374E+02  0.24095220149E+02  0.12521157939E+02  0.33755269343E+02  0.00000000000E+00 0. -1.
         21    1    1    2  505  504  0.47495476629E+02 -0.49309123375E+02  0.95967791506E+02  0.11788565203E+03  0.00000000000E+00 0. -1.
          2    1    1    2  501    0 -0.44138667778E+02  0.12480566793E+03  0.79771664852E+03  0.80862632165E+03  0.00000000000E+00 0. -1.
<scales pt_clust_3="14000.00000" pt_clust_4="31.34707" pt_clust_5="68.05270" pt_clust_6="126.23326"></scales>
<clustering>
<clus scale="   31.347">  2  4  1 -1</clus>
<clus scale="   68.053">  2  5  1 -1</clus>
<clus scale="  126.233">  1  6  2 -1</clus>
<clus scale="   31.347">  2  3  1 -1</clus>
</clustering>
</event>
<event>
 6    0  0.2433432E+002  0.8986373E+02  0.7546771E-02  0.1303182E+00
          2   -1    0    0  503    0 -0.00000000000E+00  0.00000000000E+00  0.96317451975E+03  0.96317451975E+03  0.00000000000E+00 0. -1.
         21   -1    0    0  505  502  0.00000000000E+00 -0.00000000000E+00 -0.16123738762E+03  0.16123738762E+03  0.00000000000E+00 0.  1.
         21    1    1    2  503  504  0.79139758106E+02  0.38317284866E+02  0.50440943632E+02  0.10136865604E+03  0.00000000000E+00 0. -1.
         21    1    1    2  504  502 -0.32261586088E+02 -0.29366294157E+02 -0.85989849493E+02  0.96423251269E+02  0.00000000000E+00 0.  1.
         21    1    1    2  505  501 -0.82647212010E+02 -0.25607463819E+02 -0.16673422963E+01  0.86539493219E+02  0.00000000000E+00 0.  1.
          2    1    1    2  501    0  0.35769039992E+02  0.16656473111E+02  0.83915338029E+03  0.84008050684E+03  0.00000000000E+00 0. -1.
<scales pt_clust_3="89.86373" pt_clust_4="42.03829" pt_clust_5="14000.00000" pt_clust_6="39.45709"></scales>
<clustering>
<clus scale="   39.457">  1  6  2 -1</clus>
<clus scale="   42.038">  2  4  1 -1</clus>
<clus scale="   89.864">  2  3  1 -1</clus>
<clus scale="   42.038">  2  3  1 -1</clus>
</clustering>
</event>
<event>
 6    0  0.2433432E+002  0.1368511E+03  0.7546771E-02  0.1217630E+00
         21   -1    0    0  501  502  0.00000000000E+00  0.00000000000E+00  0.15374617590E+03  0.15374617590E+03  0.00000000000E+00 0. -1.
          2   -1    0    0  503    0 -0.00000000000E+00 -0.00000000000E+00 -0.10089765142E+04  0.10089765142E+04  0.00000000000E+00 0.  1.
         21    1    1    2  503  505  0.18704439094E+03 -0.64413261461E+02 -0.25842902498E+03  0.32545388827E+03  0.00000000000E+00 0. -1.
         21    1    1    2  504  502 -0.59374205206E+02  0.33016351626E+02 -0.17166707144E+02  0.70071902734E+02  0.00000000000E+00 0. -1.
         21    1    1    2  505  504 -0.81047923627E+02 -0.20424827664E+02  0.72925816847E+02  0.11092391208E+03  0.00000000000E+00 0. -1.
          2    1    1    2  501    0 -0.46622262102E+02  0.51821737499E+02 -0.65256042302E+03  0.65627298702E+03  0.00000000000E+00 0.  1.
<scales pt_clust_3="14000.00000" pt_clust_4="67.93656" pt_clust_5="136.85109" pt_clust_6="70.64520"></scales>
<clustering>
<clus scale="   67.937">  1  4  2 -1</clus>
<clus scale="   70.645">  2  6  1 -1</clus>
<clus scale="  136.851">  1  5  2 -1</clus>
<clus scale="   67.937">  1  3  2 -1</clus>
</clustering>
</event>
<event>
 6    0  0.2433432E+002  0.1479556E+03  0.7546771E-02  0.1203008E+00
         21   -1    0    0  505  502  0.00000000000E+00  0.00000000000E+00  0.14915517089E+03  0.14915517089E+03  0.00000000000E+00 0. -1.
          2   -1    0    0  504    0 -0.00000000000E+00 -0.00000000000E+00 -0.15341870756E+04  0.15341870756E+04  0.00000000000E+00 0. -1.
         21    1    1    2  503  502 -0.61417998535E+02  0.14074661593E+03  0.84410490188E+02  0.17523387599E+03  0.00000000000E+00 0. -1.
         21    1    1    2  504  503  0.32280203163E+02 -0.97869056806E+02 -0.35967651463E+03  0.37414911328E+03  0.00000000000E+00 0. -1.
         21    1    1    2  505  501 -0.10945028235E+02 -0.50008575008E+02 -0.44250919464E+02  0.67666794596E+02  0.00000000000E+00 0.  1.
          2    1    1    2  501    0  0.40082823607E+02  0.71310158788E+01 -0.10655149609E+04  0.10662924627E+04  0.00000000000E+00 0. -1.
<scales pt_clust_3="147.95565" pt_clust_4="14000.00000" pt_clust_5="49.54030" pt_clust_6="40.71221"></scales>
<clustering>
<clus scale="   40.712">  2  6  1 -1</clus>
<clus scale="   49.540">  2  5  1 -1</clus>
<clus scale="  147.956">  1  3  2 -1</clus>
<clus scale="  147.956">  1  3  2 -1</clus>
</clustering>
</event>
<event>
 6    0  0.2433432E+002  0.7570513E+02  0.7546771E-02  0.1341701E+00
         21   -1    0    0  505  502  0.00000000000E+00  0.00000000000E+00  0.28820947880E+03  0.28820947880E+03  0.00000000000E+00 0. -1.
         -2   -1    0    0    0  501 -0.00000000000E+00 -0.00000000000E+00 -0.20769515770E+04  0.20769515770E+04  0.00000000000E+00 0. -1.
         21    1    1    2  503  502 -0.23150211651E+01  0.75580486532E+02  0.27354519145E+03  0.28380405394E+03  0.00000000000E+00 0. -1.
         21    1    1    2  504  501 -0.41455761069E+02  0.18650659130E+02 -0.17467605821E+03  0.18049418972E+03  0.00000000000E+00 0. -1.
         21    1    1    2  505  504  0.89418706679E+02 -0.95819746604E+01 -0.14510362569E+04  0.14538203941E+04  0.00000000000E+00 0. -1.
         -2    1    1    2    0  503 -0.45647924445E+02 -0.84649171001E+02 -0.43657497456E+03  0.44704241808E+03  0.00000000000E+00 0. -1.
<scales pt_clust_3="75.70513" pt_clust_4="45.45797" pt_clust_5="57.90729" pt_clust_6="14000.00000"></scales>
<clustering>
<clus scale="   45.458">  2  4  1 -1</clus>
<clus scale="   57.907">  2  5  1 -1</clus>
<clus scale="   75.705">  1  3  2 -1</clus>
<clus scale="   75.705">  1  3  2 -1</clus>
</clustering>
</event>
<event>
 6    0  0.2433432E+002  0.2317535E+03  0.7546771E-02  0.1125412E+00
          1   -1    0    0  505    0 -0.00000000000E+00  0.00000000000E+00  0.19050273192E+04  0.19050273192E+04  0.00000000000E+00 0.  1.
         21   -1    0    0  501  502  0.00000000000E+00 -0.00000000000E+00 -0.55782062684E+02  0.55782062684E+02  0.00000000000E+00 0. -1.
         21    1    1    2  503  504 -0.22542701805E+02 -0.16659969303E+03  0.25117019401E+03  0.30224178645E+03  0.00000000000E+00 0. -1.
         21    1    1    2  504  502  0.21169144037E+02  0.23034755240E+02 -0.58468038535E+00  0.31290165538E+02  0.00000000000E+00 0.  1.
         21    1    1    2  505  503  0.26410362244E+02 -0.67175695163E+02  0.20037308864E+03  0.21297759485E+03  0.00000000000E+00 0. -1.
          1    1    1    2  501    0 -0.25036804476E+02  0.21074063295E+03  0.13982866543E+04  0.14142998351E+04  0.00000000000E+00 0.  1.
<scales pt_clust_3="56.38908" pt_clust_4="31.28470" pt_clust_5="56.38908" pt_clust_6="216.36980"></scales>
<clustering>
<clus scale="   31.285">  2  4  1 -1</clus>
<clus scale="   56.389">  3  5 -1 -1</clus>
<clus scale="  216.370">  1  6  2 -1</clus>
<clus scale="   31.285">  2  3  1 -1</clus>
</clustering>
</event>
<event>
 6    0  0.2433432E+002  0.8731699E+02  0.7546771E-02  0.1309482E+00
         21   -1    0    0  504  502  0.00000000000E+00  0.00000000000E+00  0.18838330229E+02  0.18838330229E+02  0.00000000000E+00 0. -1.
          2   -1    0    0  505    0 -0.00000000000E+00 -0.00000000000E+00 -0.13815964666E+04  0.13815964666E+04  0.00000000000E+00 0. -1.
         21    1    1    2  503  501  0.28894810614E+02 -0.30467673180E+02 -0.40242370925E+03  0.40460849095E+03  0.00000000000E+00 0. -1.
         21    1    1    2  504  503 -0.28730765452E+01 -0.72845129016E+02 -0.15598698973E+03  0.17218190484E+03  0.00000000000E+00 0. -1.
         21    1    1    2  505  502 -0.62956094875E+01  0.12662661310E+03 -0.43672371818E+03  0.45475437311E+03  0.00000000000E+00 0. -1.
          2    1    1    2  501    0 -0.19726124581E+02 -0.23313810902E+02 -0.36762371918E+03  0.36889002788E+03  0.00000000000E+00 0. -1.
<scales pt_clust_3="44.97600" pt_clust_4="87.31699" pt_clust_5="14000.00000" pt_clust_6="30.53938"></scales>
<clustering>
<clus scale="   30.539">  2  6  1 -1</clus>
<clus scale="   44.976">  2  3  1 -1</clus>
<clus scale="   87.317">  1  4  2 -1</clus>
<clus scale="   87.317">  1  3  2 -1</clus>
</clustering>
</event>
<event>
 6    0  0.2433432E+002  0.1211233E+03  0.7546771E-02  0.1241255E+00
         -2   -1    0    0    0  501 -0.00000000000E+00  0.00000000000E+00  0.85662302743E+03  0.85662302743E+03  0.00000000000E+00 0.  1.
         21   -1    0    0  505  502  0.00000000000E+00 -0.00000000000E+00 -0.55116099357E+03  0.55116099357E+03  0.00000000000E+00 0. -1.
         21    1    1    2  503  501  0.56388757726E+02  0.55568953334E+02  0.99858386396E+02  0.12743350386E+03  0.00000000000E+00 0. -1.
         21    1    1    2  504  502 -0.49140980401E+02 -0.90270976648E+02 -0.94898148962E+02  0.13989047093E+03  0.00000000000E+00 0.  1.
         21    1    1    2  505  503 -0.44715471340E+02 -0.26134870877E+02 -0.41660021554E+03  0.41980738969E+03  0.00000000000E+00 0. -1.
         -2    1    1    2    0  504  0.37467694014E+02  0.60836894191E+02  0.71710201196E+03  0.72065265652E+03  0.00000000000E+00 0.  1.
<scales pt_clust_3="14000.00000" pt_clust_4="121.12331" pt_clust_5="51.79290" pt_clust_6="70.83948"></scales>
<clustering>
<clus scale="   51.793">  2  5  1 -1</clus>
<clus scale="   70.839">  1  6  2 -1</clus>
<clus scale="  121.123">  2  4  1 -1</clus>
<clus scale="   51.793">  2  3  1 -1</clus>
</clustering>
</event>
<event>
 6    0  0.2433432E+002  0.1640520E+03  0.7546771E-02  0.1184197E+00
          2   -1    0    0  505    0 -0.00000000000E+00  0.00000000000E+00  0.80083437303E+03  0.80083437303E+03  0.00000000000E+00 0.  1.
         21   -1    0    0  504  502  0.00000000000E+00 -0.00000000000E+00 -0.65202504420E+02  0.65202504420E+02  0.00000000000E+00 0. -1.
         21    1    1    2  503  501 -0.98549986965E+01 -0.71623208652E+02  0.49713977297E+02  0.87741008403E+02  0.00000000000E+00 0. -1.
         21    1    1    2  504  503 -0.49631900859E+02 -0.82078099321E+02  0.16563476962E+03  0.19140276089E+03  0.00000000000E+00 0.  1.
         21    1    1    2  505  502  0.41624134599E+02  0.81655114937E+01 -0.38923374596E+01  0.42595709291E+02  0.00000000000E+00 0.  1.
          2    1    1    2  501    0  0.17862764957E+02  0.14553579648E+03  0.52417545915E+03  0.54429739886E+03  0.00000000000E+00 0.  1.
<scales pt_clust_3="58.52365" pt_clust_4="58.52365" pt_clust_5="42.41750" pt_clust_6="150.09887"></scales>
<clustering>
<clus scale="   42.417">  2  5  1 -1</clus>
<clus scale="   58.524">  3  4 -1 -1</clus>
<clus scale="  150.099">  1  6  2 -1</clus>
<clus scale="   42.417">  2  3  1 -1</clus>
</clustering>
</event>
<event>
 6    0  0.2433432E+002  0.1888018E+03  0.7546771E-02  0.1159546E+00
         21   -1    0    0  503  502  0.00000000000E+00  0.00000000000E+00  0.49181286746E+02  0.49181286746E+02  0.00000000000E+00 0.  1.
          1   -1    0    0  505    0 -0.00000000000E+00 -0.00000000000E+00 -0.19342142034E+04  0.19342142034E+04  0.00000000000E+00 0.  1.
         21    1    1    2  503  501 -0.48903004822E+02  0.24634245294E+02 -0.65158806397E+02  0.85111808657E+02  0.00000000000E+00 0.  1.
         21    1    1    2  504  502  0.88206666777E+02 -0.15922716459E+03 -0.57141573372E+03  0.59970796789E+03  0.00000000000E+00 0.  1.
         21    1    1    2  505  504 -0.66449724353E+02 -0.77828254219E+02 -0.73734448713E+03  0.74441231567E+03  0.00000000000E+00 0.  1.
          1    1    1    2  501    0  0.27146062398E+02  0.21242117352E+03 -0.51111388944E+03  0.55416339796E+03  0.00000000000E+00 0.  1.
<scales pt_clust_3="54.75719" pt_clust_4="188.80183" pt_clust_5="103.62124" pt_clust_6="14000.00000"></scales>
<clustering>
<clus scale="   54.757">  1  3  2 -1</clus>
<clus scale="  103.621">  2  5  1 -1</clus>
<clus scale="  188.802">  1  4  2 -1</clus>
<clus scale="   54.757">  1  3  2 -1</clus>
</clustering>
</event>
<event>
 6    0  0.2433432E+002  0.7409292E+02  0.7546771E-02  0.1346703E+00
         21   -1    0    0  505  502  0.00000000000E+00  0.00000000000E+00  0.17442114645E+04  0.17442114645E+04  0.00000000000E+00 0. -1.
          1   -1    0    0  503    0 -0.00000000000E+00 -0.00000000000E+00 -0.99104729339E+03  0.99104729339E+03  0.00000000000E+00 0.  1.
         21    1    1    2  503  504 -0.11240200711E+03  0.21316681081E+02 -0.20684749807E+03  0.23637787450E+03  0.00000000000E+00 0.  1.
         21    1    1    2  504  502  0.45166690816E+02 -0.95882536717E+02  0.59665642783E+03  0.60599701622E+03  0.00000000000E+00 0. -1.
         21    1    1    2  505  501  0.15129751578E+02  0.68842696568E+02  0.11261181499E+04  0.11283219017E+04  0.00000000000E+00 0. -1.
          1    1    1    2  501    0  0.52105564720E+02  0.57231590682E+01 -0.76276290854E+03  0.76456196549E+03  0.00000000000E+00 0.  1.
<scales pt_clust_3="67.23270" pt_clust_4="14000.00000" pt_clust_5="74.09292" pt_clust_6="52.41893"></scales>
<clustering>
<clus scale="   52.419">  2  6  1 -1</clus>
<clus scale="   67.233">  2  3  1 -1</clus>
<clus scale="   74.093">  1  5  2 -1</clus>
<clus scale="   74.093">  1  3  2 -1</clus>
</clustering>
</event>
<event>
 6    0  0.2433432E+002  0.9166110E+02  0.7546771E-02  0.1298878E+00
         -3   -1    0    0    0  501 -0.00000000000E+00  0.00000000000E+00  0.28398059196E+03  0.28398059196E+03  0.00000000000E+00 0.  1.
         21   -1    0    0  504  502  0.00000000000E+00 -0.00000000000E+00 -0.31659736069E+03  0.31659736069E+03  0.00000000000E+00 0. -1.
         21    1    1    2  503  501  0.32599267170E+02 -0.30247396470E+02  0.38410335147E+01  0.44635980461E+02  0.00000000000E+00 0.  1.
         21    1    1    2  504  503  0.44686983525E+02  0.22232682172E+02  0.11729256074E+03  0.12747063764E+03  0.00000000000E+00 0.  1.
         21    1    1    2  505  502 -0.65124728341E+02 -0.68265371938E+02 -0.27162408212E+03  0.28754309805E+03  0.00000000000E+00 0. -1.
         -3    1    1    2    0  505 -0.12161522353E+02  0.76280086236E+02  0.11787371913E+03  0.14092823651E+03  0.00000000000E+00 0.  1.
<scales pt_clust_3="44.47041" pt_clust_4="60.57473" pt_clust_5="91.66110" pt_clust_6="14000.00000"></scales>
<clustering>
<clus scale="   44.470">  1  3  2 -1</clus>
<clus scale="   60.575">  1  4  2 -1</clus>
<clus scale="   91.661">  2  5  1 -1</clus>
<clus scale="   91.661">  2  3  1 -1</clus>
</clustering>
</event>
<event>
 6    0  0.2433432E+002  0.1184392E+03  0.7546771E-02  0.1245694E+00
         21   -1    0    0  503  502  0.00000000000E+00  0.00000000000E+00  0.11859841567E+04  0.11859841567E+04  0.00000000000E+00 0.  1.
         -4   -1    0    0    0  501 -0.00000000000E+00 -0.00000000000E+00 -0.59375390521E+02  0.59375390521E+02  0.00000000000E+00 0.  1.
         21    1    1    2  503  505  0.78680679538E+01 -0.92797529130E+02  0.95168178923E+03  0.95622775313E+03  0.00000000000E+00 0.  1.
         21    1    1    2  504  501 -0.38271632742E+02  0.28479079188E+02  0.11138556455E+02  0.48988195149E+02  0.00000000000E+00 0.  1.
         21    1    1    2  505  504 -0.59261703388E+01  0.11171194612E+03  0.81219600400E+02  0.13824363237E+03  0.00000000000E+00 0.  1.
         -4    1    1    2    0  502  0.36329735126E+02 -0.47393496182E+02  0.82568820077E+02  0.10189996655E+03  0.00000000000E+00 0.  1.
<scales pt_clust_3="95.44151" pt_clust_4="45.79892" pt_clust_5="45.79892" pt_clust_6="59.71594"></scales>
<clustering>
<clus scale="   45.799">  4  5 -1 -1</clus>
<clus scale="   59.716">  2  6  1 -1</clus>
<clus scale="   95.442">  1  3  2 -1</clus>
<clus scale="   95.442">  1  3  2 -1</clus>
</clustering>
</event>
<event>
 6    0  0.2433432E+002  0.1634566E+03  0.7546771E-02  0.1184849E+00
         21   -1    0    0  505  502  0.00000000000E+00  0.00000000000E+00  0.15477676865E+03  0.15477676865E+03  0.00000000000E+00 0. -1.
          2   -1    0    0  503    0 -0.00000000000E+00 -0.00000000000E+00 -0.41917490846E+04  0.41917490846E+04  0.00000000000E+00 0. -1.
         21    1    1    2  503  504 -0.55597746397E+02 -0.67107601318E+02 -0.51796864548E+03  0.52524856712E+03  0.00000000000E+00 0. -1.
         21    1    1    2  504  502 -0.41078841401E+02 -0.48548715874E+01 -0.10383609366E+03  0.11177197921E+03  0.00000000000E+00 0. -1.
         21    1    1    2  505  501 -0.31322208392E+02 -0.15212033961E+02  0.14340125072E+03  0.14756830766E+03  0.00000000000E+00 0. -1.
          2    1    1    2  501    0  0.12799879619E+03  0.87174506867E+02 -0.35585688275E+04  0.35619369993E+04  0.00000000000E+00 0. -1.
<scales pt_clust_3="50.81397" pt_clust_4="50.81397" pt_clust_5="34.82078" pt_clust_6="148.62357"></scales>
<clustering>
<clus scale="   34.821">  1  5  2 -1</clus>
<clus scale="   50.814">  3  4 -1 -1</clus>
<clus scale="  148.624">  2  6  1 -1</clus>
<clus scale="   34.821">  1  3  2 -1</clus>
</clustering>
</event>
<event>
 6    0  0.2433432E+002  0.9092708E+02  0.7546771E-02  0.1300622E+00
         21   -1    0    0  504  502  0.00000000000E+00  0.00000000000E+00  0.89262366761E+02  0.89262366761E+02  0.00000000000E+00 0.  1.
          1   -1    0    0  502    0 -0.00000000000E+00 -0.00000000000E+00 -0.56298713059E+03  0.56298713059E+03  0.00000000000E+00 0. -1.
         21    1    1    2  503  505  0.62019810229E+02 -0.83802957904E+02  0.12506034937E+02  0.10500377862E+03  0.00000000000E+00 0.  1.
         21    1    1    2  504  503  0.28878192164E+02  0.11599568073E+02  0.17506978429E+01  0.31169935917E+02  0.00000000000E+00 0.  1.
         21    1    1    2  505  501 -0.45953669464E+02  0.44813595328E+02 -0.70710825753E+02  0.95498790266E+02  0.00000000000E+00 0.  1.
          1    1    1    2  501    0 -0.44944332928E+02  0.27389794503E+02 -0.41727067085E+03  0.42057699255E+03  0.00000000000E+00 0. -1.
<scales pt_clust_3="90.92708" pt_clust_4="31.12073" pt_clust_5="14000.00000" pt_clust_6="52.21281"></scales>
<clustering>
<clus scale="   31.121">  1  4  2 -1</clus>
<clus scale="   52.213">  2  6  1 -1</clus>
<clus scale="   90.927">  1  3  2 -1</clus>
<clus scale="   31.121">  1  3  2 -1</clus>
</clustering>
</event>
<event>
 6    0  0.2433432E+002  0.9927450E+02  0.7546771E-02  0.1281829E+00
          2   -1    0    0  505    0 -0.00000000000E+00  0.00000000000E+00  0.16511827392E+04  0.16511827392E+04  0.00000000000E+00 0. -1.
         21   -1    0    0  504  502  0.00000000000E+00 -0.00000000000E+00 -0.46077732095E+03  0.46077732095E+03  0.00000000000E+00 0.  1.
         21    1    1    2  503  501 -0.51127471890E+02 -0.23079838831E+02 -0.28542029631E+02  0.62939215103E+02  0.00000000000E+00 0. -1.
         21    1    1    2  504  503 -0.74089513875E+02  0.13150153139E+02 -0.30629436040E+02  0.81242507014E+02  0.00000000000E+00 0.  1.
         21    1    1    2  505  502  0.86662644999E+02  0.87336537056E+01 -0.35358359639E+03  0.36415388283E+03  0.00000000000E+00 0.  1.
          2    1    1    2  501    0  0.38554340766E+02  0.11960319858E+01  0.16031604803E+04  0.16036244552E+04  0.00000000000E+00 0. -1.
<scales pt_clust_3="33.54233" pt_clust_4="33.54233" pt_clust_5="91.35760" pt_clust_6="38.57289"></scales>
<clustering>
<clus scale="   33.542">  3  4 -1 -1</clus>
<clus scale="   38.573">  1  6  2 -1</clus>
<clus scale="   91.358">  2  5  1 -1</clus>
<clus scale="   91.358">  2  3  1 -1</clus>
</clustering>
</event>
<event>
 6    0  0.2433432E+002  0.9190088E+02  0.7546771E-02  0.1298313E+00
         21   -1    0    0  504  502  0.00000000000E+00  0.00000000000E+00  0.26872563707E+03  0.26872563707E+03  0.00000000000E+00 0.  1.
          4   -1    0    0  505    0 -0.00000000000E+00 -0.00000000000E+00 -0.20858132935E+04  0.20858132935E+04  0.00000000000E+00 0.  1.
         21    1    1    2  503  501 -0.68974897564E+02  0.90556467128E+02 -0.15568330088E+03  0.19286083171E+03  0.00000000000E+00 0.  1.
         21    1    1    2  504  503  0.13530830865E+02  0.29421532434E+02 -0.13827460175E+02  0.35212336043E+02  0.00000000000E+00 0. -1.
         21    1    1    2  505  502 -0.14174422362E+02 -0.61740717033E+02  0.23414159088E+03  0.24255950809E+03  0.00000000000E+00 0.  1.
          4    1    1    2  501    0  0.69618489061E+02 -0.58237282530E+02 -0.18817184862E+04  0.18839062547E+04  0.00000000000E+00 0.  1.
<scales pt_clust_3="91.90088" pt_clust_4="32.38379" pt_clust_5="34.60404" pt_clust_6="14000.00000"></scales>
<clustering>
<clus scale="   32.384">  1  4  2 -1</clus>
<clus scale="   34.604">  1  5  2 -1</clus>
<clus scale="   91.901">  1  3  2 -1</clus>
<clus scale="   32.384">  1  3  2 -1</clus>
</clustering>
</event>
<event>
 6    0  0.2433432E+002  0.8242036E+02  0.7546771E-02  0.1322320E+00
          2   -1    0    0  505    0 -0.00000000000E+00  0.00000000000E+00  0.28356256096E+04  0.28356256096E+04  0.00000000000E+00 0. -1.
         21   -1    0    0  501  502  0.00000000000E+00 -0.00000000000E+00 -0.65006070336E+02  0.65006070336E+02  0.00000000000E+00 0. -1.
         21    1    1    2  503  502  0.28268456951E+02 -0.29317064251E+02 -0.44972002901E+02  0.60671879480E+02  0.00000000000E+00 0. -1.
         21    1    1    2  504  503 -0.20759901119E+02 -0.56247480975E+02  0.94325791296E+02  0.11176809703E+03  0.00000000000E+00 0. -1.
         21    1    1    2  505  504 -0.35676090253E+02  0.11290284085E+03  0.10825899932E+04  0.10890458798E+04  0.00000000000E+00 0. -1.
          2    1    1    2  501    0  0.28167534421E+02 -0.27338295625E+02  0.16386757577E+04  0.16391458237E+04  0.00000000000E+00 0. -1.
<scales pt_clust_3="40.98320" pt_clust_4="82.42036" pt_clust_5="14000.00000" pt_clust_6="39.25293"></scales>
<clustering>
<clus scale="   39.253">  1  6  2 -1</clus>
<clus scale="   40.983">  2  3  1 -1</clus>
<clus scale="   82.420">  2  4  1 -1</clus>
<clus scale="   40.983">  2  3  1 -1</clus>
</clustering>
</event>
<event>
 6    0  0.2433432E+002  0.7553303E+02  0.7546771E-02  0.1342228E+00
          2   -1    0    0  503    0 -0.00000000000E+00  0.00000000000E+00  0.21149424840E+04  0.21149424840E+04  0.00000000000E+00 0. -1.
         21   -1    0    0  504  502  0.00000000000E+00 -0.00000000000E+00 -0.16702539412E+02  0.16702539412E+02  0.00000000000E+00 0. -1.
         21    1    1    2  503  502  0.94219939608E+02  0.26372780623E+02  0.49672303692E+03  0.50626741549E+03  0.00000000000E+00 0. -1.
         21    1    1    2  504  505  0.34303471638E+02 -0.27807061172E+01  0.32831480394E+02  0.47564341663E+02  0.00000000000E+00 0. -1.
         21    1    1    2  505  501 -0.62422110681E+02  0.25430958833E+01  0.26793096654E+03  0.27511813839E+03  0.00000000000E+00 0. -1.
          2    1    1    2  501    0 -0.66101300565E+02 -0.26135170389E+02  0.13007544607E+04  0.13026951279E+04  0.00000000000E+00 0. -1.
<scales pt_clust_3="14000.00000" pt_clust_4="34.41599" pt_clust_5="49.24030" pt_clust_6="75.53303"></scales>
<clustering>
<clus scale="   34.416">  2  4  1 -1</clus>
<clus scale="   49.240">  2  5  1 -1</clus>
<clus scale="   75.533">  1  6  2 -1</clus>
<clus scale="   34.416">  2  3  1 -1</clus>
</clustering>
</event>
<event>
 6    0  0.2433432E+002  0.8878120E+02  0.7546771E-02  0.1305830E+00
          2   -1    0    0  503    0 -0.00000000000E+00  0.00000000000E+00  0.39118820273E+04  0.39118820273E+04  0.00000000000E+00 0.  1.
         21   -1    0    0  504  502  0.00000000000E+00 -0.00000000000E+00 -0.58860713983E+01  0.58860713983E+01  0.00000000000E+00 0.  1.
         21    1    1    2  503  505  0.53132798469E+02 -0.63560167252E+02  0.79899280705E+03  0.80327610126E+03  0.00000000000E+00 0.  1.
         21    1    1    2  504  501 -0.15382309290E+02  0.67640136274E+02  0.52938377081E+03  0.53390914983E+03  0.00000000000E+00 0.  1.
         21    1    1    2  505  502  0.34319798371E+02  0.19998556418E+01  0.32710402380E+03  0.32890559492E+03  0.00000000000E+00 0. -1.
          2    1    1    2  501    0 -0.72070287549E+02 -0.60798246637E+01  0.22505153543E+04  0.22516772527E+04  0.00000000000E+00 0.  1.
<scales pt_clust_3="30.91892" pt_clust_4="69.36716" pt_clust_5="30.91892" pt_clust_6="74.68875"></scales>
<clustering>
<clus scale="   30.919">  3  5 -1 -1</clus>
<clus scale="   69.367">  2  4  1 -1</clus>
<clus scale="   74.689">  1  6  2 -1</clus>
<clus scale="   69.367">  2  3  1 -1</clus>
</clustering>
</event>
<event>
 6    0  0.2433432E+002  0.3609613E+03  0.7546771E-02  0.1058204E+00
         21   -1    0    0  503  502  0.00000000000E+00  0.00000000000E+00  0.72273665098E+02  0.72273665098E+02  0.00000000000E+00 0.  1.
          2   -1    0    0  504    0 -0.00000000000E+00 -0.00000000000E+00 -0.19866436371E+04  0.19866436371E+04  0.00000000000E+00 0.  1.
         21    1    1    2  503  501  0.18922302169E+02  0.23766497594E+02 -0.31200731617E+02  0.43547509466E+02  0.00000000000E+00 0.  1.
         21    1    1    2  504  505 -0.24715665960E+03  0.51920874116E+02 -0.61085695599E+03  0.66100560681E+03  0.00000000000E+00 0.  1.
         21    1    1    2  505  502 -0.75917675385E+02  0.78077131579E+02 -0.18268417125E+03  0.21268060169E+03  0.00000000000E+00 0.  1.
          2    1    1    2  501    0  0.30415203282E+03 -0.15376450329E+03 -0.10896281131E+04  0.11416835842E+04  0.00000000000E+00 0.  1.
<scales pt_clust_3="30.37927" pt_clust_4="74.04935" pt_clust_5="74.04935" pt_clust_6="343.43779"></scales>
<clustering>
<clus scale="   30.379">  1  3  2 -1</clus>
<clus scale="   74.049">  4  5 -1 -1</clus>
<clus scale="  343.438">  2  6  1 -1</clus>
<clus scale="   30.379">  1  3  2 -1</clus>
</clustering>
</event>
<event>
 6    0  0.2433432E+002  0.1431261E+03  0.7546771E-02  0.1209183E+00
          2   -1    0    0  504    0 -0.00000000000E+00  0.00000000000E+00  0.65834693010E+02  0.65834693010E+02  0.00000000000E+00 0.  1.
         21   -1    0    0  503  502  0.00000000000E+00 -0.00000000000E+00 -0.19238598627E+04  0.19238598627E+04  0.00000000000E+00 0.  1.
         21    1    1    2  503  505 -0.13728469682E+02 -0.60479308104E+02 -0.10098162488E+04  0.10117188710E+04  0.00000000000E+00 0.  1.
         21    1    1    2  504  502 -0.80183743053E+01  0.10447219857E+03 -0.26060354742E+03  0.28087887698E+03  0.00000000000E+00 0.  1.
         21    1    1    2  505  501  0.17055771178E+01 -0.80709553945E+02 -0.63139719644E+03  0.63653700659E+03  0.00000000000E+00 0. -1.
          2    1    1    2  501    0  0.20041266869E+02  0.36716663476E+02  0.43791822977E+02  0.60559801141E+02  0.00000000000E+00 0.  1.
<scales pt_clust_3="49.70239" pt_clust_4="131.90174" pt_clust_5="49.70239" pt_clust_6="41.83020"></scales>
<clustering>
<clus scale="   41.830">  1  6  2 -1</clus>
<clus scale="   49.702">  3  5 -1 -1</clus>
<clus scale="  131.902">  1  4  2 -1</clus>
<clus scale="  143.126">  2  3  1 -1</clus>
</clustering>
</event>
<event>
 6    0  0.2433432E+002  0.1353348E+03  0.7546771E-02  0.1219748E+00
          2   -1    0    0  502    0 -0.00000000000E+00  0.00000000000E+00  0.19421840935E+03  0.19421840935E+03  0.00000000000E+00 0. -1.
         21   -1    0    0  505  502  0.00000000000E+00 -0.00000000000E+00 -0.54713930729E+03  0.54713930729E+03  0.00000000000E+00 0. -1.
         21    1    1    2  503  504 -0.11784818422E+03  0.58111477383E+02  0.47375484200E+02  0.13967667962E+03  0.00000000000E+00 0.  1.
         21    1    1    2  504  501  0.34238826530E+02 -0.59012271201E+01  0.22469177722E+01  0.34816237062E+02  0.00000000000E+00 0. -1.
         21    1    1    2  505  503  0.35810579143E+02  0.29169919444E+02 -0.45604349625E+03  0.45837643073E+03  0.00000000000E+00 0. -1.
          2    1    1    2  501    0  0.47798778544E+02 -0.81380169707E+02  0.53500196332E+02  0.10848836924E+03  0.00000000000E+00 0. -1.
<scales pt_clust_3="123.43119" pt_clust_4="33.67386" pt_clust_5="46.18746" pt_clust_6="33.67386"></scales>
<clustering>
<clus scale="   33.674">  4  6 -1 -1</clus>
<clus scale="   46.187">  2  5  1 -1</clus>
<clus scale="  123.431">  2  3  1 -1</clus>
<clus scale="   46.187">  2  3  1 -1</clus>
</clustering>
</event>
<event>
 6    0  0.2433432E+002  0.8120691E+02  0.7546771E-02  0.1325661E+00
          1   -1    0    0  504    0 -0.00000000000E+00  0.00000000000E+00  0.50405455619E+03  0.50405455619E+03  0.00000000000E+00 0. -1.
         21   -1    0    0  505  502  0.00000000000E+00 -0.00000000000E+00 -0.68528538681E+03  0.68528538681E+03  0.00000000000E+00 0. -1.
         21    1    1    2  503  501  0.67998929626E+02 -0.76314211073E+02 -0.69732180415E+01  0.10245164231E+03  0.00000000000E+00 0. -1.
         21    1    1    2  504  502 -0.81753524374E+02  0.10014240354E+03 -0.45335416249E+03  0.47142564248E+03  0.00000000000E+00 0. -1.
         21    1    1    2  505  503  0.29607008803E+02 -0.53358096415E+02 -0.16199116295E+03  0.17310343237E+03  0.00000000000E+00 0.  1.
          1    1    1    2  501    0 -0.15852414055E+02  0.29529903944E+02  0.44108771286E+03  0.44235922585E+03  0.00000000000E+00 0. -1.
<scales pt_clust_3="81.20691" pt_clust_4="14000.00000" pt_clust_5="58.03454" pt_clust_6="33.51588"></scales>
<clustering>
<clus scale="   33.516">  1  6  2 -1</clus>
<clus scale="   58.035">  2  5  1 -1</clus>
<clus scale="   81.207">  1  3  2 -1</clus>
<clus scale="   58.035">  2  3  1 -1</clus>
</clustering>
</event>
<event>
 6    0  0.2433432E+002  0.1499801E+03  0.7546771E-02  0.1200497E+00
          2   -1    0    0  503    0 -0.00000000000E+00  0.00000000000E+00  0.24610844630E+03  0.24610844630E+03  0.00000000000E+00 0. -1.
         21   -1    0    0  505  502  0.00000000000E+00 -0.00000000000E+00 -0.90769505065E+03  0.90769505065E+03  0.00000000000E+00 0. -1.
         21    1    1    2  503  502 -0.53616193360E+01 -0.41590015102E+02 -0.21399022223E+02  0.47078598855E+02  0.00000000000E+00 0. -1.
         21    1    1    2  504  501 -0.13124955342E+03 -0.67727588169E+02  0.25233473656E+02  0.14983390693E+03  0.00000000000E+00 0. -1.
         21    1    1    2  505  504 -0.24597260520E+02  0.97099667660E+02 -0.76200948333E+03  0.76856478151E+03  0.00000000000E+00 0. -1.
          2    1    1    2  501    0  0.16120843328E+03  0.12217935612E+02  0.96588427544E+02  0.18832620966E+03  0.00000000000E+00 0. -1.
<scales pt_clust_3="41.93419" pt_clust_4="14000.00000" pt_clust_5="99.61896" pt_clust_6="149.98008"></scales>
<clustering>
<clus scale="   41.934">  1  3  2 -1</clus>
<clus scale="   99.619">  2  5  1 -1</clus>
<clus scale="  149.980">  1  6  2 -1</clus>
<clus scale="   99.619">  2  3  1 -1</clus>
</clustering>
</event>
<event>
 6    0  0.2433432E+002  0.1069371E+03  0.7546771E-02  0.1266349E+00
         21   -1    0    0  501  502  0.00000000000E+00  0.00000000000E+00  0.12476915357E+02  0.12476915357E+02  0.00000000000E+00 0.  1.
          2   -1    0    0  504    0 -0.00000000000E+00 -0.00000000000E+00 -0.27177575381E+04  0.27177575381E+04  0.00000000000E+00 0.  1.
         21    1    1    2  503  502 -0.30993604134E+02 -0.44973557248E+01 -0.90002913923E+02  0.95296139588E+02  0.00000000000E+00 0. -1.
         21    1    1    2  504  505  0.45668577393E+02  0.71691563448E+01 -0.48176756209E+03  0.48398037113E+03  0.00000000000E+00 0.  1.
         21    1    1    2  505  503  0.29578765907E+02 -0.94278423255E+02 -0.17893430850E+04  0.17920691951E+04  0.00000000000E+00 0.  1.
          2    1    1    2  501    0 -0.44253739166E+02  0.91606622635E+02 -0.34416706183E+03  0.35888874765E+03  0.00000000000E+00 0.  1.
<scales pt_clust_3="31.31820" pt_clust_4="42.70325" pt_clust_5="106.93711" pt_clust_6="14000.00000"></scales>
<clustering>
<clus scale="   31.318">  1  3  2 -1</clus>
<clus scale="   42.703">  2  4  1 -1</clus>
<clus scale="  106.937">  2  5  1 -1</clus>
<clus scale="   31.318">  1  3  2 -1</clus>
</clustering>
</event>
<event>
 6    0  0.2433432E+002  0.1389099E+03  0.7546771E-02  0.1214803E+00
          2   -1    0    0  505    0 -0.00000000000E+00  0.00000000000E+00  0.12898802634E+03  0.12898802634E+03  0.00000000000E+00 0. -1.
         21   -1    0    0  503  502  0.00000000000E+00 -0.00000000000E+00 -0.84504859089E+03  0.84504859089E+03  0.00000000000E+00 0.  1.
         21    1    1    2  503  504  0.16197802085E+02 -0.27689060148E+02 -0.11216712172E+02  0.33983341158E+02  0.00000000000E+00 0. -1.
         21    1    1    2  504  501 -0.46899343196E+02 -0.99090156915E+02 -0.23497304939E+02  0.11211837909E+03  0.00000000000E+00 0. -1.
         21    1    1    2  505  502 -0.14290193950E+02  0.12674506900E+03 -0.74173895263E+03  0.75262553505E+03  0.00000000000E+00 0.  1.
          2    1    1    2  501    0  0.44991735061E+02  0.34148058125E-01  0.60392405198E+02  0.75309361938E+02  0.00000000000E+00 0. -1.
<scales pt_clust_3="30.23983" pt_clust_4="30.23983" pt_clust_5="127.16466" pt_clust_6="44.99175"></scales>
<clustering>
<clus scale="   30.240">  3  4 -1 -1</clus>
<clus scale="   44.992">  1  6  2 -1</clus>
<clus scale="  127.165">  2  5  1 -1</clus>
<clus scale="  127.165">  2  3  1 -1</clus>
</clustering>
</event>
<event>
 6    0  0.2433432E+002  0.1052805E+03  0.7546771E-02  0.1269568E+00
         21   -1    0    0  505  502  0.00000000000E+00  0.00000000000E+00  0.16182092377E+03  0.16182092377E+03  0.00000000000E+00 0.  1.
          2   -1    0    0  504    0 -0.00000000000E+00 -0.00000000000E+00 -0.21824262864E+04  0.21824262864E+04  0.00000000000E+00 0. -1.
         21    1    1    2  503  502 -0.21755660293E+02 -0.40666825605E+02 -0.12048503425E+02  0.47668290239E+02  0.00000000000E+00 0. -1.
         21    1    1    2  504  503  0.88718994495E+01  0.35935671251E+02 -0.13110323345E+03  0.13622826759E+03  0.00000000000E+00 0.  1.
         21    1    1    2  505  501  0.86505040709E+02 -0.43655273320E+02  0.12377072338E+03  0.15718809409E+03  0.00000000000E+00 0.  1.
          2    1    1    2  501    0 -0.73621279866E+02  0.48386427674E+02 -0.20012243492E+04  0.20031625583E+04  0.00000000000E+00 0. -1.
<scales pt_clust_3="45.59790" pt_clust_4="37.01463" pt_clust_5="105.28047" pt_clust_6="14000.00000"></scales>
<clustering>
<clus scale="   37.015">  2  4  1 -1</clus>
<clus scale="   45.598">  1  3  2 -1</clus>
<clus scale="  105.280">  1  5  2 -1</clus>
<clus scale="   45.598">  1  3  2 -1</clus>
</clustering>
</event>
<event>
 6    0  0.2433432E+002  0.8779765E+02  0.7546771E-02  0.1308274E+00
         -2   -1    0    0    0  501 -0.00000000000E+00  0.00000000000E+00  0.93276878008E+02  0.93276878008E+02  0.00000000000E+00 0.  1.
         21   -1    0    0  501  502  0.00000000000E+00 -0.00000000000E+00 -0.32690521326E+04  0.32690521326E+04  0.00000000000E+00 0.  1.
         21    1    1    2  503  504 -0.41169186984E+02 -0.71113695488E+02 -0.99198063181E+03  0.99537813595E+03  0.00000000000E+00 0.  1.
         21    1    1    2  504  502  0.60224635700E+02  0.69298964938E+02 -0.20365043174E+04  0.20385728312E+04  0.00000000000E+00 0.  1.
         21    1    1    2  505  503 -0.55975990561E+02 -0.59346089394E+00 -0.23056003046E+03  0.23725849060E+03  0.00000000000E+00 0.  1.
         -2    1    1    2    0  505  0.36920541845E+02  0.24081914448E+01  0.83269725089E+02  0.91119552856E+02  0.00000000000E+00 0.  1.
<scales pt_clust_3="87.79765" pt_clust_4="14000.00000" pt_clust_5="35.65295" pt_clust_6="36.99900"></scales>
<clustering>
<clus scale="   36.999">  1  6  2 -1</clus>
<clus scale="   35.653">  1  5  2 -1</clus>
<clus scale="   87.798">  1  3  2 -1</clus>
<clus scale="   87.798">  2  3  1 -1</clus>
</clustering>
</event>
<event>
 6    0  0.2433432E+002  0.1572833E+03  0.7546771E-02  0.1191798E+00
         -1   -1    0    0    0  501 -0.00000000000E+00  0.00000000000E+00  0.59991603879E+03  0.59991603879E+03  0.00000000000E+00 0.  1.
         21   -1    0    0  504  502  0.00000000000E+00 -0.00000000000E+00 -0.79156815288E+02  0.79156815288E+02  0.00000000000E+00 0.  1.
         21    1    1    2  503  501 -0.12221140468E+03 -0.11018372563E+03  0.17744451470E+03  0.24199718309E+03  0.00000000000E+00 0.  1.
         21    1    1    2  504  505  0.10527069871E+03  0.15453294698E+01  0.69216934143E+02  0.12599719054E+03  0.00000000000E+00 0.  1.
         21    1    1    2  505  503  0.42320288351E+02  0.27759824818E+02  0.48573956240E+02  0.70150152565E+02  0.00000000000E+00 0.  1.
         -1    1    1    2    0  502 -0.25379582380E+02  0.80878571338E+02  0.22552381842E+03  0.24092832789E+03  0.00000000000E+00 0.  1.
<scales pt_clust_3="150.93325" pt_clust_4="30.67385" pt_clust_5="30.67385" pt_clust_6="84.76713"></scales>
<clustering>
<clus scale="   30.674">  4  5 -1 -1</clus>
<clus scale="   84.767">  1  6  2 -1</clus>
<clus scale="  150.933">  1  3  2 -1</clus>
<clus scale="  157.283">  2  3  1 -1</clus>
</clustering>
</event>
<event>
 6    0  0.2433432E+002  0.1706823E+03  0.7546771E-02  0.1177138E+00
         21   -1    0    0  501  502  0.00000000000E+00  0.00000000000E+00  0.11737192397E+04  0.11737192397E+04  0.00000000000E+00 0. -1.
          1   -1    0    0  505    0 -0.00000000000E+00 -0.00000000000E+00 -0.59771473002E+03  0.59771473002E+03  0.00000000000E+00 0. -1.
         21    1    1    2  503  502  0.38825547350E+02 -0.47233802179E+02  0.27585871097E+03  0.28255350575E+03  0.00000000000E+00 0. -1.
         21    1    1    2  504  503  0.82203542719E+02  0.19891549374E+02  0.25207797284E+03  0.26588794738E+03  0.00000000000E+00 0. -1.
         21    1    1    2  505  504 -0.32608657684E+02  0.17423338182E+03  0.61013257159E+03  0.63536001670E+03  0.00000000000E+00 0. -1.
          1    1    1    2  501    0 -0.88420432385E+02 -0.14689112902E+03 -0.56206474567E+03  0.58763249993E+03  0.00000000000E+00 0. -1.
<scales pt_clust_3="61.14291" pt_clust_4="93.65100" pt_clust_5="170.68234" pt_clust_6="14000.00000"></scales>
<clustering>
<clus scale="   61.143">  1  3  2 -1</clus>
<clus scale="   93.651">  1  4  2 -1</clus>
<clus scale="  170.682">  1  5  2 -1</clus>
<clus scale="   61.143">  1  3  2 -1</clus>
</clustering>
</event>
<event>
 6    0  0.2433432E+002  0.1473673E+03  0.7546771E-02  0.1203746E+00
         21   -1    0    0  505  502  0.00000000000E+00  0.00000000000E+00  0.51868815466E+03  0.51868815466E+03  0.00000000000E+00 0. -1.
          1   -1    0    0  504    0 -0.00000000000E+00 -0.00000000000E+00 -0.85336193789E+03  0.85336193789E+03  0.00000000000E+00 0. -1.
         21    1    1    2  503  501 -0.14062816756E+03 -0.10739696794E+03  0.20446896906E+03  0.27040330904E+03  0.00000000000E+00 0. -1.
         21    1    1    2  504  502  0.39146699118E+02  0.42888892911E+02 -0.29003322694E+02  0.64908504175E+02  0.00000000000E+00 0.  1.
         21    1    1    2  505  503  0.57927861118E+02 -0.15237291479E+02  0.25717718968E+03  0.26406044581E+03  0.00000000000E+00 0. -1.
          1    1    1    2  501    0  0.43553607326E+02  0.79745366505E+02 -0.76731661928E+03  0.77267783352E+03  0.00000000000E+00 0. -1.
<scales pt_clust_3="147.36729" pt_clust_4="58.06825" pt_clust_5="60.01376" pt_clust_6="14000.00000"></scales>
<clustering>
<clus scale="   58.068">  2  4  1 -1</clus>
<clus scale="   60.014">  1  5  2 -1</clus>
<clus scale="  147.367">  1  3  2 -1</clus>
<clus scale="   60.014">  1  3  2 -1</clus>
</clustering>
</event>
<event>
 6    0  0.2433432E+002  0.9415421E+02  0.7546771E-02  0.1293092E+00
          2   -1    0    0  505    0 -0.00000000000E+00  0.00000000000E+00  0.36425256313E+03  0.36425256313E+03  0.00000000000E+00 0. -1.
         21   -1    0    0  504  502  0.00000000000E+00 -0.00000000000E+00 -0.22538258678E+03  0.22538258678E+03  0.00000000000E+00 0. -1.
         21    1    1    2  503  502 -0.59857776151E+01  0.96863997438E+02 -0.15268882086E+03  0.18092081016E+03  0.00000000000E+00 0. -1.
         21    1    1    2  504  501 -0.53047197338E+02 -0.93133075696E+01 -0.20553621759E+02  0.57647152668E+02  0.00000000000E+00 0. -1.
         21    1    1    2  505  503  0.56917065847E+02 -0.52467918687E+02  0.63896443204E+02  0.10037524760E+03  0.00000000000E+00 0. -1.
          2    1    1    2  501    0  0.21159091063E+01 -0.35082771182E+02  0.24821597576E+03  0.25069193950E+03  0.00000000000E+00 0. -1.
<scales pt_clust_3="14000.00000" pt_clust_4="54.79318" pt_clust_5="94.15421" pt_clust_6="35.14652"></scales>
<clustering>
<clus scale="   35.147">  1  6  2 -1</clus>
<clus scale="   54.793">  2  4  1 -1</clus>
<clus scale="   94.154">  1  5  2 -1</clus>
<clus scale="   54.793">  2  3  1 -1</clus>
</clustering>
</event>
<event>
 6    0  0.2433432E+002  0.4390781E+03  0.7546771E-02  0.1031030E+00
          2   -1    0    0  505    0 -0.00000000000E+00  0.00000000000E+00  0.97779077651E+03  0.97779077651E+03  0.00000000000E+00 0.  1.
         21   -1    0    0  504  502  0.00000000000E+00 -0.00000000000E+00 -0.10692287575E+04  0.10692287575E+04  0.00000000000E+00 0.  1.
         21    1    1    2  503  501  0.10987596525E+03 -0.43834415585E+01 -0.45617911945E+03  0.46924549153E+03  0.00000000000E+00 0.  1.
         21    1    1    2  504  503  0.29225058544E+03  0.45384247150E+02 -0.47670382022E+03  0.56099613795E+03  0.00000000000E+00 0.  1.
         21    1    1    2  505  502  0.34548201133E+02  0.52906213415E+02 -0.10599714438E+01  0.63196274882E+02  0.00000000000E+00 0.  1.
          2    1    1    2  501    0 -0.43667475182E+03 -0.93907019007E+02  0.84250493013E+03  0.95358162964E+03  0.00000000000E+00 0.  1.
<scales pt_clust_3="101.33880" pt_clust_4="101.33880" pt_clust_5="63.18738" pt_clust_6="406.26242"></scales>
<clustering>
<clus scale="   63.187">  1  5  2 -1</clus>
<clus scale="  101.339">  3  4 -1 -1</clus>
<clus scale="  406.262">  1  6  2 -1</clus>
<clus scale="  439.078">  2  3  1 -1</clus>
</clustering>
</event>
<event>
 6    0  0.2433432E+002  0.1402062E+03  0.7546771E-02  0.1213052E+00
         21   -1    0    0  503  502  0.00000000000E+00  0.00000000000E+00  0.99015930904E+02  0.99015930904E+02  0.00000000000E+00 0. -1.
          2   -1    0    0  504    0 -0.00000000000E+00 -0.00000000000E+00 -0.17243040953E+04  0.17243040953E+04  0.00000000000E+00 0. -1.
         21    1    1    2  503  501  0.10353107336E+03  0.91052875169E+02  0.42785219511E+02  0.14436025851E+03  0.00000000000E+00 0. -1.
         21    1    1    2  504  505 -0.59891903333E+02 -0.25873368736E+02 -0.49331246533E+03  0.49760793778E+03  0.00000000000E+00 0. -1.
         21    1    1    2  505  502 -0.35597786316E+02  0.15195630068E+02 -0.23930954960E+03  0.24241940948E+03  0.00000000000E+00 0. -1.
          2    1    1    2  501    0 -0.80413837103E+01 -0.80375136501E+02 -0.93545136897E+03  0.93893242042E+03  0.00000000000E+00 0. -1.
<scales pt_clust_3="134.10674" pt_clust_4="31.50595" pt_clust_5="31.50595" pt_clust_6="80.77640"></scales>
<clustering>
<clus scale="   31.506">  4  5 -1 -1</clus>
<clus scale="   80.776">  2  6  1 -1</clus>
<clus scale="  134.107">  1  3  2 -1</clus>
<clus scale="  134.107">  1  3  2 -1</clus>
</clustering>
</event>
<event>
 6    0  0.2433432E+002  0.2031992E+03  0.7546771E-02  0.1147068E+00
          1   -1    0    0  505    0 -0.00000000000E+00  0.00000000000E+00  0.84333579135E+03  0.84333579135E+03  0.00000000000E+00 0.  1.
         21   -1    0    0  501  502  0.00000000000E+00 -0.00000000000E+00 -0.39642193435E+03  0.39642193435E+03  0.00000000000E+00 0.  1.
         21    1    1    2  503  502 -0.80659531677E+02 -0.72692329136E+02 -0.19322342539E+03  0.22164256560E+03  0.00000000000E+00 0.  1.
         21    1    1    2  504  503 -0.43790985512E+02  0.17067551358E+03 -0.11061677182E+03  0.20804771461E+03  0.00000000000E+00 0.  1.
         21    1    1    2  505  504 -0.13257122092E+02  0.37688780862E+02  0.57169863182E+01  0.40359378360E+02  0.00000000000E+00 0.  1.
          1    1    1    2  501    0  0.13770763928E+03 -0.13567196531E+03  0.74503706789E+03  0.76970806714E+03  0.00000000000E+00 0.  1.
<scales pt_clust_3="108.58239" pt_clust_4="30.23581" pt_clust_5="30.23581" pt_clust_6="193.02322"></scales>
<clustering>
<clus scale="   30.236">  4  5 -1 -1</clus>
<clus scale="  108.582">  2  3  1 -1</clus>
<clus scale="  193.023">  1  6  2 -1</clus>
<clus scale="  108.582">  2  3  1 -1</clus>
</clustering>
</event>
<event>
 6    0  0.2433432E+002  0.7215701E+02  0.7546771E-02  0.1352908E+00
         21   -1    0    0  505  502  0.00000000000E+00  0.00000000000E+00  0.77509332183E+03  0.77509332183E+03  0.00000000000E+00 0.  1.
         -2   -1    0    0    0  501 -0.00000000000E+00 -0.00000000000E+00 -0.40254387236E+02  0.40254387236E+02  0.00000000000E+00 0.  1.
         21    1    1    2  503  502  0.41325330295E+02 -0.10997634118E+02  0.45269908832E+03  0.45471441086E+03  0.00000000000E+00 0.  1.
         21    1    1    2  504  501  0.32176367433E+02  0.43952296452E+02  0.56128262155E+02  0.78214479459E+02  0.00000000000E+00 0.  1.
         21    1    1    2  505  504 -0.31444882335E+02  0.59723046018E+02  0.85894795473E+02  0.10924073755E+03  0.00000000000E+00 0.  1.
         -2    1    1    2    0  503 -0.42056815392E+02 -0.92677708352E+02  0.14011678865E+03  0.17317808120E+03  0.00000000000E+00 0.  1.
<scales pt_clust_3="42.76366" pt_clust_4="58.31621" pt_clust_5="14000.00000" pt_clust_6="72.15701"></scales>
<clustering>
<clus scale="   42.764">  1  3  2 -1</clus>
<clus scale="   58.316">  2  4  1 -1</clus>
<clus scale="   72.157">  2  6  1 -1</clus>
<clus scale="   42.764">  1  3  2 -1</clus>
</clustering>
</event>
<event>
 6    0  0.2433432E+002  0.7641525E+02  0.7546771E-02  0.1339544E+00
         -2   -1    0    0    0  501 -0.00000000000E+00  0.00000000000E+00  0.67324229675E+02  0.67324229675E+02  0.00000000000E+00 0. -1.
         21   -1    0    0  504  502  0.00000000000E+00 -0.00000000000E+00 -0.13388465362E+04  0.13388465362E+04  0.00000000000E+00 0. -1.
         21    1    1    2  503  502  0.39797627758E+02  0.77528115497E+01 -0.10047827071E+04  0.10056004405E+04  0.00000000000E+00 0. -1.
         21    1    1    2  504  505  0.50939878681E+02  0.13926215363E+02 -0.11733454772E+03  0.12867092446E+03  0.00000000000E+00 0. -1.
         21    1    1    2  505  501 -0.84059442405E+02 -0.78887132336E+02 -0.17444614624E+03  0.20909478100E+03  0.00000000000E+00 0. -1.
         -2    1    1    2    0  503 -0.66780640336E+01  0.57208105423E+02  0.25041094603E+02  0.62804619928E+02  0.00000000000E+00 0. -1.
<scales pt_clust_3="40.54574" pt_clust_4="76.41525" pt_clust_5="14000.00000" pt_clust_6="57.81649"></scales>
<clustering>
<clus scale="   40.546">  2  3  1 -1</clus>
<clus scale="   57.816">  1  6  2 -1</clus>
<clus scale="   76.415">  2  4  1 -1</clus>
<clus scale="   40.546">  2  3  1 -1</clus>
</clustering>
</event>
<event>
 6    0  0.2433432E+002  0.1081240E+03  0.7546771E-02  0.1264084E+00
         21   -1    0    0  504  502  0.00000000000E+00  0.00000000000E+00  0.10963146556E+03  0.10963146556E+03  0.00000000000E+00 0. -1.
         -4   -1    0    0    0  501 -0.00000000000E+00 -0.00000000000E+00 -0.17958428491E+04  0.17958428491E+04  0.00000000000E+00 0. -1.
         21    1    1    2  503  501 -0.55848847935E+02  0.44201293778E+02 -0.59353098011E+02  0.92712665967E+02  0.00000000000E+00 0. -1.
         21    1    1    2  504  503 -0.23370170694E+02  0.52057019267E+02 -0.30041242803E+02  0.64487009563E+02  0.00000000000E+00 0. -1.
         21    1    1    2  505  502  0.47746562562E+00 -0.32018503725E+02  0.70726267170E+02  0.77637731947E+02  0.00000000000E+00 0. -1.
         -4    1    1    2    0  505  0.78741553003E+02 -0.64239809320E+02 -0.16675433099E+04  0.16706369072E+04  0.00000000000E+00 0. -1.
<scales pt_clust_3="30.73491" pt_clust_4="30.73491" pt_clust_5="32.02206" pt_clust_6="102.52666"></scales>
<clustering>
<clus scale="   30.735">  3  4 -1 -1</clus>
<clus scale="   32.022">  1  5  2 -1</clus>
<clus scale="  102.527">  2  6  1 -1</clus>
<clus scale="   32.022">  1  3  2 -1</clus>
</clustering>
</event>
<event>
 6    0  0.2433432E+002  0.1527778E+03  0.7546771E-02  0.1197101E+00
          2   -1    0    0  504    0 -0.00000000000E+00  0.00000000000E+00  0.25780495746E+03  0.25780495746E+03  0.00000000000E+00 0.  1.
         21   -1    0    0  501  502  0.00000000000E+00 -0.00000000000E+00 -0.20703123568E+04  0.20703123568E+04  0.00000000000E+00 0. -1.
         21    1    1    2  503  505 -0.49893743230E+02  0.22115946528E+02 -0.38555502355E+03  0.38939848085E+03  0.00000000000E+00 0.  1.
         21    1    1    2  504  503 -0.67336835016E+02  0.30558796347E+01 -0.26908663331E+03  0.27740080024E+03  0.00000000000E+00 0.  1.
         21    1    1    2  505  502 -0.30574075312E+02 -0.16008770758E+02 -0.13875789520E+04  0.13880080702E+04  0.00000000000E+00 0. -1.
          2    1    1    2  501    0  0.14780465356E+03 -0.91630554050E+01  0.22971320957E+03  0.27330996295E+03  0.00000000000E+00 0.  1.
<scales pt_clust_3="38.11288" pt_clust_4="38.11288" pt_clust_5="34.51166" pt_clust_6="147.14655"></scales>
<clustering>
<clus scale="   34.512">  2  5  1 -1</clus>
<clus scale="   38.113">  3  4 -1 -1</clus>
<clus scale="  147.147">  1  6  2 -1</clus>
<clus scale="   34.512">  2  3  1 -1</clus>
</clustering>
</event>
<event>
 6    0  0.2433432E+002  0.1867718E+03  0.7546771E-02  0.1161406E+00
          2   -1    0    0  505    0 -0.00000000000E+00  0.00000000000E+00  0.15742209253E+04  0.15742209253E+04  0.00000000000E+00 0. -1.
         21   -1    0    0  503  502  0.00000000000E+00 -0.00000000000E+00 -0.37505404526E+03  0.37505404526E+03  0.00000000000E+00 0. -1.
         21    1    1    2  503  501 -0.72860725338E+02  0.92756125258E+02  0.19794150886E+03  0.23041967147E+03  0.00000000000E+00 0. -1.
         21    1    1    2  504  502  0.12593325146E+03 -0.11554026448E+03 -0.32799280805E+03  0.36984864292E+03  0.00000000000E+00 0. -1.
         21    1    1    2  505  504  0.38510160606E+02 -0.57866113892E+01  0.10978079030E+04  0.10984983884E+04  0.00000000000E+00 0. -1.
          2    1    1    2  501    0 -0.91582686731E+02  0.28570750607E+02  0.23141027625E+03  0.25050826784E+03  0.00000000000E+00 0. -1.
<scales pt_clust_3="61.22236" pt_clust_4="172.32770" pt_clust_5="38.94249" pt_clust_6="61.22236"></scales>
<clustering>
<clus scale="   38.942">  1  5  2 -1</clus>
<clus scale="   61.222">  3  6 -1 -1</clus>
<clus scale="  172.328">  2  4  1 -1</clus>
<clus scale="  172.328">  2  3  1 -1</clus>
</clustering>
</event>
<event>
 6    0  0.2433432E+002  0.1309472E+03  0.7546771E-02  0.1226057E+00
          2   -1    0    0  503    0 -0.00000000000E+00  0.00000000000E+00  0.52963803738E+03  0.52963803738E+03  0.00000000000E+00 0. -1.
         21   -1    0    0  504  502  0.00000000000E+00 -0.00000000000E+00 -0.33899763899E+03  0.33899763899E+03  0.00000000000E+00 0.  1.
         21    1    1    2  503  505  0.72533971342E+02  0.41681986155E+02 -0.53581727380E+02  0.99345691791E+02  0.00000000000E+00 0.  1.
         21    1    1    2  504  501 -0.31623990319E+02  0.22067464782E+01 -0.15182260461E+03  0.15509690443E+03  0.00000000000E+00 0.  1.
         21    1    1    2  505  502  0.35833879507E+02  0.46937310809E+02 -0.93405113653E+02  0.11050653068E+03  0.00000000000E+00 0.  1.
          2    1    1    2  501    0 -0.76743860529E+02 -0.90826043442E+02  0.48944984403E+03  0.50368654947E+03  0.00000000000E+00 0. -1.
<scales pt_clust_3="44.70388" pt_clust_4="31.70089" pt_clust_5="44.70388" pt_clust_6="119.62991"></scales>
<clustering>
<clus scale="   31.701">  2  4  1 -1</clus>
<clus scale="   44.704">  3  5 -1 -1</clus>
<clus scale="  119.630">  1  6  2 -1</clus>
<clus scale="   31.701">  2  3  1 -1</clus>
</clustering>
</event>
<event>
 6    0  0.2433432E+002  0.2266444E+03  0.7546771E-02  0.1129024E+00
         21   -1    0    0  504  502  0.00000000000E+00  0.00000000000E+00  0.38127433021E+03  0.38127433021E+03  0.00000000000E+00 0. -1.
          2   -1    0    0  505    0 -0.00000000000E+00 -0.00000000000E+00 -0.15557539488E+04  0.15557539488E+04  0.00000000000E+00 0. -1.
         21    1    1    2  503  501  0.77861908299E+02  0.12584635299E+02  0.19887763829E+03  0.21394664012E+03  0.00000000000E+00 0. -1.
         21    1    1    2  504  503  0.40575814968E+02  0.44635511759E+02  0.11037690832E+03  0.12578468730E+03  0.00000000000E+00 0.  1.
         21    1    1    2  505  502  0.46687190420E+02  0.93511766675E+02 -0.81113916643E+01  0.10483290958E+03  0.00000000000E+00 0. -1.
          2    1    1    2  501    0 -0.16512491369E+03 -0.15073191373E+03 -0.14756227736E+04  0.14924640420E+04  0.00000000000E+00 0. -1.
<scales pt_clust_3="43.52808" pt_clust_4="43.52808" pt_clust_5="104.51863" pt_clust_6="221.11152"></scales>
<clustering>
<clus scale="   43.528">  3  4 -1 -1</clus>
<clus scale="  104.519">  1  5  2 -1</clus>
<clus scale="  221.112">  2  6  1 -1</clus>
<clus scale="  104.519">  1  3  2 -1</clus>
</clustering>
</event>
<event>
 6    0  0.2433432E+002  0.8705091E+02  0.7546771E-02  0.1310155E+00
         -1   -1    0    0    0  501 -0.00000000000E+00  0.00000000000E+00  0.32542653320E+03  0.32542653320E+03  0.00000000000E+00 0. -1.
         21   -1    0    0  501  502  0.00000000000E+00 -0.00000000000E+00 -0.16424514908E+03  0.16424514908E+03  0.00000000000E+00 0. -1.
         21    1    1    2  503  505 -0.36002119225E+02  0.38404056712E+02  0.78047125000E+02  0.94140203321E+02  0.00000000000E+00 0. -1.
         21    1    1    2  504  502 -0.29073565551E+02 -0.81724026469E+02 -0.11708442349E+03  0.14571496471E+03  0.00000000000E+00 0. -1.
         21    1    1    2  505  504  0.41690403554E+02  0.79622160436E+02  0.74017282691E+02  0.11643168090E+03  0.00000000000E+00 0. -1.
         -1    1    1    2    0  503  0.23385281221E+02 -0.36302190679E+02  0.12620139992E+03  0.13338483335E+03  0.00000000000E+00 0. -1.
<scales pt_clust_3="34.11854" pt_clust_4="14000.00000" pt_clust_5="87.05091" pt_clust_6="43.18241"></scales>
<clustering>
<clus scale="   43.182">  1  6  2 -1</clus>
<clus scale="   34.119">  1  3  2 -1</clus>
<clus scale="   87.051">  1  5  2 -1</clus>
<clus scale="   87.051">  2  3  1 -1</clus>
</clustering>
</event>
<event>
 6    0  0.2433432E+002  0.1238410E+03  0.7546771E-02  0.1236892E+00
         21   -1    0    0  505  502  0.00000000000E+00  0.00000000000E+00  0.68664702866E+03  0.68664702866E+03  0.00000000000E+00 0.  1.
         -3   -1    0    0    0  501 -0.00000000000E+00 -0.00000000000E+00 -0.45165514688E+02  0.45165514688E+02  0.00000000000E+00 0.  1.
         21    1    1    2  503  502 -0.36113853162E+02  0.34148533593E+02  0.11929413456E+03  0.12923398654E+03  0.00000000000E+00 0.  1.
         21    1    1    2  504  503 -0.99974009115E+02  0.15492609541E+02  0.19558554968E+03  0.22020111420E+03  0.00000000000E+00 0.  1.
         21    1    1    2  505  501  0.92947850810E+02 -0.42815406967E+02  0.32268746750E+03  0.33852572092E+03  0.00000000000E+00 0.  1.
         -3    1    1    2    0  504  0.43140011468E+02 -0.68257361674E+01  0.39143622332E+01  0.43851721692E+02  0.00000000000E+00 0.  1.
<scales pt_clust_3="31.12217" pt_clust_4="31.12217" pt_clust_5="115.60737" pt_clust_6="43.67667"></scales>
<clustering>
<clus scale="   31.122">  3  4 -1 -1</clus>
<clus scale="   43.677">  2  6  1 -1</clus>
<clus scale="  115.607">  1  5  2 -1</clus>
<clus scale="  115.607">  1  3  2 -1</clus>
</clustering>
</event>
<event>
 6    0  0.2566175E+002  0.1434744E+03  0.7546771E-02  0.1208729E+00
         21   -1    0    0  505  502  0.00000000000E+00  0.00000000000E+00  0.79295598125E+03  0.79295598125E+03  0.00000000000E+00 0. -1.
         -1   -1    0    0    0  501 -0.00000000000E+00 -0.00000000000E+00 -0.31342784205E+03  0.31342784205E+03  0.00000000000E+00 0. -1.
         21    1    1    2  503  502 -0.10736529837E+02 -0.45107293042E+02  0.50379019331E+02  0.68468872835E+02  0.00000000000E+00 0.  1.
         21    1    1    2  504  501 -0.24701456743E+02  0.53728632870E+02  0.13576608199E+02  0.60673324003E+02  0.00000000000E+00 0. -1.
         21    1    1    2  505  504  0.21039093129E+02 -0.10382126957E+03  0.68395559763E+03  0.69211036619E+03  0.00000000000E+00 0. -1.
         -1    1    1    2    0  503  0.14398893450E+02  0.95199929741E+02 -0.26838308596E+03  0.28513126027E+03  0.00000000000E+00 0. -1.
<scales pt_clust_3="46.36746" pt_clust_4="57.30586" pt_clust_5="143.47435" pt_clust_6="14000.00000"></scales>
<clustering>
<clus scale="   46.367">  1  3  2 -1</clus>
<clus scale="   57.306">  2  4  1 -1</clus>
<clus scale="  143.474">  1  5  2 -1</clus>
<clus scale="   46.367">  1  3  2 -1</clus>
</clustering>
</event>
<event>
 6    0  0.2433432E+002  0.1278773E+03  0.7546771E-02  0.1230640E+00
         21   -1    0    0  504  502  0.00000000000E+00  0.00000000000E+00  0.16112817694E+03  0.16112817694E+03  0.00000000000E+00 0. -1.
         -4   -1    0    0    0  501 -0.00000000000E+00 -0.00000000000E+00 -0.16456842370E+04  0.16456842370E+04  0.00000000000E+00 0.  1.
         21    1    1    2  503  505  0.38566218347E+02 -0.34939126048E+02 -0.44149612773E+02  0.68244296718E+02  0.00000000000E+00 0.  1.
         21    1    1    2  504  501  0.13095836668E+03  0.60605584718E+02  0.84195336542E+02  0.16706880438E+03  0.00000000000E+00 0. -1.
         21    1    1    2  505  502 -0.44707616810E+02  0.85231893232E+00 -0.32804412968E+01  0.44835909085E+02  0.00000000000E+00 0. -1.
         -4    1    1    2    0  503 -0.12481696822E+03 -0.26518777602E+02 -0.15213213425E+04  0.15266634038E+04  0.00000000000E+00 0.  1.
<scales pt_clust_3="49.21090" pt_clust_4="14000.00000" pt_clust_5="44.71574" pt_clust_6="127.87726"></scales>
<clustering>
<clus scale="   44.716">  1  5  2 -1</clus>
<clus scale="   49.211">  1  3  2 -1</clus>
<clus scale="  127.877">  2  6  1 -1</clus>
<clus scale="   44.716">  1  3  2 -1</clus>
</clustering>
</event>
<event>
 6    0  0.2433432E+002  0.1200497E+03  0.7546771E-02  0.1243015E+00
          1   -1    0    0  503    0 -0.00000000000E+00  0.00000000000E+00  0.76003889816E+03  0.76003889816E+03  0.00000000000E+00 0.  1.
         21   -1    0    0  504  502  0.00000000000E+00 -0.00000000000E+00 -0.92836761275E+02  0.92836761275E+02  0.00000000000E+00 0.  1.
         21    1    1    2  503  502  0.12533741036E+03 -0.98776285467E+02  0.13658873995E+03  0.21005405230E+03  0.00000000000E+00 0.  1.
         21    1    1    2  504  505 -0.66920433575E+02  0.53905492114E+02  0.48733269847E+02  0.98788046341E+02  0.00000000000E+00 0.  1.
         21    1    1    2  505  501  0.17280266707E+02  0.13417015111E+03  0.24832009451E+03  0.28277748568E+03  0.00000000000E+00 0.  1.
          1    1    1    2  501    0 -0.75697243496E+02 -0.89299357756E+02  0.23356003257E+03  0.26125607511E+03  0.00000000000E+00 0.  1.
<scales pt_clust_3="113.03587" pt_clust_4="85.93106" pt_clust_5="14000.00000" pt_clust_6="120.04973"></scales>
<clustering>
<clus scale="   85.931">  2  4  1 -1</clus>
<clus scale="  113.036">  2  3  1 -1</clus>
<clus scale="  120.050">  1  6  2 -1</clus>
<clus scale="   85.931">  2  3  1 -1</clus>
</clustering>
</event>
<event>
 6    0  0.2433432E+002  0.1072962E+03  0.7546771E-02  0.1265660E+00
         21   -1    0    0  504  502  0.00000000000E+00  0.00000000000E+00  0.13136596328E+03  0.13136596328E+03  0.00000000000E+00 0.  1.
          2   -1    0    0  505    0 -0.00000000000E+00 -0.00000000000E+00 -0.15064512791E+04  0.15064512791E+04  0.00000000000E+00 0. -1.
         21    1    1    2  503  501  0.33712926153E+02  0.58465296451E+02 -0.51419749029E+02  0.84845405704E+02  0.00000000000E+00 0. -1.
         21    1    1    2  504  503 -0.80300624365E+01  0.65834229931E+02 -0.53017115598E+02  0.84908434679E+02  0.00000000000E+00 0.  1.
         21    1    1    2  505  502 -0.22204712583E+02 -0.27218239653E+02  0.93799852922E+02  0.10016134104E+03  0.00000000000E+00 0.  1.
          2    1    1    2  501    0 -0.34781511332E+01 -0.97081286728E+02 -0.13644483041E+04  0.13679020609E+04  0.00000000000E+00 0. -1.
<scales pt_clust_3="40.26531" pt_clust_4="40.26531" pt_clust_5="35.12665" pt_clust_6="98.55532"></scales>
<clustering>
<clus scale="   35.127">  1  5  2 -1</clus>
<clus scale="   40.265">  3  4 -1 -1</clus>
<clus scale="   98.555">  2  6  1 -1</clus>
<clus scale="   35.127">  1  3  2 -1</clus>
</clustering>
</event>
<event>
 6    0  0.2433432E+002  0.1172005E+03  0.7546771E-02  0.1247788E+00
         21   -1    0    0  505  502  0.00000000000E+00  0.00000000000E+00  0.83542683817E+03  0.83542683817E+03  0.00000000000E+00 0.  1.
          2   -1    0    0  503    0 -0.00000000000E+00 -0.00000000000E+00 -0.36485158317E+03  0.36485158317E+03  0.00000000000E+00 0.  1.
         21    1    1    2  503  502 -0.14819979366E+01 -0.30170642221E+02  0.34431206919E+02  0.45803624090E+02  0.00000000000E+00 0.  1.
         21    1    1    2  504  501 -0.29690382474E+01  0.12026949038E+03  0.15335665804E+03  0.19491493034E+03  0.00000000000E+00 0.  1.
         21    1    1    2  505  504 -0.40051382237E+02 -0.91123771902E+02  0.61569517785E+03  0.62368919107E+03  0.00000000000E+00 0.  1.
          2    1    1    2  501    0  0.44502418421E+02  0.10249237377E+01 -0.33290778780E+03  0.33587067585E+03  0.00000000000E+00 0.  1.
<scales pt_clust_3="30.20702" pt_clust_4="117.20052" pt_clust_5="14000.00000" pt_clust_6="44.51020"></scales>
<clustering>
<clus scale="   30.207">  1  3  2 -1</clus>
<clus scale="   44.510">  2  6  1 -1</clus>
<clus scale="  117.201">  2  4  1 -1</clus>
<clus scale="   30.207">  1  3  2 -1</clus>
</clustering>
</event>
<event>
 6    0  0.2433432E+002  0.1676740E+03  0.7546771E-02  0.1180295E+00
          1   -1    0    0  505    0 -0.00000000000E+00  0.00000000000E+00  0.24518667418E+02  0.24518667418E+02  0.00000000000E+00 0. -1.
         21   -1    0    0  503  502  0.00000000000E+00 -0.00000000000E+00 -0.26062361006E+04  0.26062361006E+04  0.00000000000E+00 0. -1.
         21    1    1    2  503  501  0.13517734395E+03 -0.19884912063E+02 -0.42413510414E+03  0.44559949574E+03  0.00000000000E+00 0. -1.
         21    1    1    2  504  502 -0.10631506140E+03  0.77452207374E+02 -0.18410300179E+04  0.18457229650E+04  0.00000000000E+00 0. -1.
         21    1    1    2  505  504 -0.35803819636E+02  0.27859939411E+01 -0.23505927786E+03  0.23778675189E+03  0.00000000000E+00 0. -1.
          1    1    1    2  501    0  0.69415370823E+01 -0.60353289252E+02 -0.81493033359E+02  0.10164555547E+03  0.00000000000E+00 0. -1.
<scales pt_clust_3="154.54620" pt_clust_4="33.98360" pt_clust_5="33.98360" pt_clust_6="60.75117"></scales>
<clustering>
<clus scale="   33.984">  4  5 -1 -1</clus>
<clus scale="   60.751">  1  6  2 -1</clus>
<clus scale="  154.546">  1  3  2 -1</clus>
<clus scale="  167.674">  2  3  1 -1</clus>
</clustering>
</event>
<event>
 6    0  0.2433432E+002  0.2001755E+03  0.7546771E-02  0.1149591E+00
          2   -1    0    0  504    0 -0.00000000000E+00  0.00000000000E+00  0.42870361933E+03  0.42870361933E+03  0.00000000000E+00 0. -1.
         21   -1    0    0  501  502  0.00000000000E+00 -0.00000000000E+00 -0.11873148568E+04  0.11873148568E+04  0.00000000000E+00 0.  1.
         21    1    1    2  503  505 -0.10506764786E+03  0.42729503510E+02  0.10212318327E+03  0.15262426301E+03  0.00000000000E+00 0. -1.
         21    1    1    2  504  503 -0.92261208203E+02  0.83161178880E+02  0.79452023157E+02  0.14744672324E+03  0.00000000000E+00 0. -1.
         21    1    1    2  505  502  0.17191232503E+03 -0.87837581729E+02 -0.11168711512E+04  0.11334330402E+04  0.00000000000E+00 0.  1.
          2    1    1    2  501    0  0.25416531032E+02 -0.38053100661E+02  0.17668470734E+03  0.18251444964E+03  0.00000000000E+00 0. -1.
<scales pt_clust_3="45.68824" pt_clust_4="45.68824" pt_clust_5="194.38193" pt_clust_6="45.76067"></scales>
<clustering>
<clus scale="   45.688">  3  4 -1 -1</clus>
<clus scale="   45.761">  1  6  2 -1</clus>
<clus scale="  194.382">  2  5  1 -1</clus>
<clus scale="  194.382">  2  3  1 -1</clus>
</clustering>
</event>
<event>
 6    0  0.2433432E+002  0.1673184E+03  0.7546771E-02  0.1180673E+00
          2   -1    0    0  504    0 -0.00000000000E+00  0.00000000000E+00  0.31351025919E+04  0.31351025919E+04  0.00000000000E+00 0. -1.
         21   -1    0    0  501  502  0.00000000000E+00 -0.00000000000E+00 -0.79429999821E+02  0.79429999821E+02  0.00000000000E+00 0.  1.
         21    1    1    2  503  502  0.16455656743E+02 -0.90014120075E+02 -0.13375811299E+02  0.92478336813E+02  0.00000000000E+00 0.  1.
         21    1    1    2  504  505 -0.10612830863E+03  0.51994150839E+01  0.71593720634E+03  0.72377920337E+03  0.00000000000E+00 0.  1.
         21    1    1    2  505  503 -0.15609510533E+03  0.65670551758E+02  0.47969204067E+03  0.50870694624E+03  0.00000000000E+00 0. -1.
          2    1    1    2  501    0  0.24576775722E+03  0.19144153233E+02  0.18734191564E+04  0.18895681053E+04  0.00000000000E+00 0. -1.
<scales pt_clust_3="91.50590" pt_clust_4="104.01103" pt_clust_5="167.31843" pt_clust_6="14000.00000"></scales>
<clustering>
<clus scale="   91.506">  2  3  1 -1</clus>
<clus scale="  104.011">  1  4  2 -1</clus>
<clus scale="  167.318">  2  5  1 -1</clus>
<clus scale="   91.506">  2  3  1 -1</clus>
</clustering>
</event>
<event>
 6    0  0.2433432E+002  0.1465255E+03  0.7546771E-02  0.1204809E+00
         21   -1    0    0  504  502  0.00000000000E+00  0.00000000000E+00  0.21006895180E+02  0.21006895180E+02  0.00000000000E+00 0. -1.
          2   -1    0    0  505    0 -0.00000000000E+00 -0.00000000000E+00 -0.34814044477E+04  0.34814044477E+04  0.00000000000E+00 0. -1.
         21    1    1    2  503  501 -0.84444116631E+02 -0.37288482170E+02 -0.87830513285E+03  0.88314276656E+03  0.00000000000E+00 0. -1.
         21    1    1    2  504  503  0.11680150209E+03  0.99592834805E+02 -0.44907314883E+03  0.47458193880E+03  0.00000000000E+00 0. -1.
         21    1    1    2  505  502 -0.36546813453E+02 -0.14010522312E+03 -0.14655754259E+04  0.14727105866E+04  0.00000000000E+00 0. -1.
          2    1    1    2  501    0  0.41894279986E+01  0.77800870483E+02 -0.66744384500E+03  0.67197605090E+03  0.00000000000E+00 0. -1.
<scales pt_clust_3="84.12959" pt_clust_4="14000.00000" pt_clust_5="146.52552" pt_clust_6="77.91359"></scales>
<clustering>
<clus scale="   77.914">  2  6  1 -1</clus>
<clus scale="   84.130">  2  3  1 -1</clus>
<clus scale="  146.526">  2  5  1 -1</clus>
<clus scale="  146.526">  1  3  2 -1</clus>
</clustering>
</event>
<event>
 6    0  0.2433432E+002  0.3785929E+03  0.7546771E-02  0.1051455E+00
         21   -1    0    0  503  502  0.00000000000E+00  0.00000000000E+00  0.47756191808E+03  0.47756191808E+03  0.00000000000E+00 0.  1.
          1   -1    0    0  505    0 -0.00000000000E+00 -0.00000000000E+00 -0.95800277745E+03  0.95800277745E+03  0.00000000000E+00 0. -1.
         21    1    1    2  503  504 -0.97209320985E+02 -0.16870031701E+03  0.19610223976E+03  0.27634315169E+03  0.00000000000E+00 0.  1.
         21    1    1    2  504  501  0.10810376272E+02 -0.18721876913E+03  0.10045385769E+03  0.21274094405E+03  0.00000000000E+00 0.  1.
         21    1    1    2  505  502  0.84964141574E+02  0.30894707876E+03 -0.22273090842E+03  0.39022590943E+03  0.00000000000E+00 0.  1.
          1    1    1    2  501    0  0.14348031387E+01  0.46972007381E+02 -0.55426604841E+03  0.55625469036E+03  0.00000000000E+00 0. -1.
<scales pt_clust_3="127.49069" pt_clust_4="127.49069" pt_clust_5="355.27181" pt_clust_6="46.99392"></scales>
<clustering>
<clus scale="   46.994">  2  6  1 -1</clus>
<clus scale="  127.491">  3  4 -1 -1</clus>
<clus scale="  355.272">  2  5  1 -1</clus>
<clus scale="  378.593">  1  3  2 -1</clus>
</clustering>
</event>
<event>
 6    0  0.2433432E+002  0.2248156E+03  0.7546771E-02  0.1130343E+00
         -1   -1    0    0    0  501 -0.00000000000E+00  0.00000000000E+00  0.13867607933E+04  0.13867607933E+04  0.00000000000E+00 0.  1.
         21   -1    0    0  503  502  0.00000000000E+00 -0.00000000000E+00 -0.66682391328E+03  0.66682391328E+03  0.00000000000E+00 0. -1.
         21    1    1    2  503  505 -0.20738329709E+03 -0.51867480018E+01 -0.62960693111E+03  0.66290242266E+03  0.00000000000E+00 0. -1.
         21    1    1    2  504  502  0.16602101256E+03 -0.38615525254E+02  0.82109899728E+03  0.83860461407E+03  0.00000000000E+00 0.  1.
         21    1    1    2  505  501 -0.36739240345E+01  0.32137558701E+02  0.13525150526E+02  0.35060663054E+02  0.00000000000E+00 0.  1.
         -1    1    1    2    0  504  0.45036208560E+02  0.11664714555E+02  0.51491966334E+03  0.51701700682E+03  0.00000000000E+00 0.  1.
<scales pt_clust_3="207.48358" pt_clust_4="47.53683" pt_clust_5="32.34688" pt_clust_6="47.53683"></scales>
<clustering>
<clus scale="   32.347">  1  5  2 -1</clus>
<clus scale="   47.537">  4  6 -1 -1</clus>
<clus scale="  207.484">  2  3  1 -1</clus>
<clus scale="  207.484">  2  3  1 -1</clus>
</clustering>
</event>
<event>
 6    0  0.2433432E+002  0.7162861E+02  0.7546771E-02  0.1354641E+00
          1   -1    0    0  505    0 -0.00000000000E+00  0.00000000000E+00  0.17518084762E+04  0.17518084762E+04  0.00000000000E+00 0.  1.
         21   -1    0    0  504  502  0.00000000000E+00 -0.00000000000E+00 -0.27473123047E+03  0.27473123047E+03  0.00000000000E+00 0.  1.
         21    1    1    2  503  501 -0.11478493971E+03  0.58186002810E+01  0.59414476756E+03  0.60515902316E+03  0.00000000000E+00 0. -1.
         21    1    1    2  504  503  0.47332894000E+02 -0.23694219497E+02  0.88188053955E+02  0.10285403129E+03  0.00000000000E+00 0. -1.
         21    1    1    2  505  502  0.25190992228E+02  0.31218948516E+02 -0.25988686651E+03  0.26296462161E+03  0.00000000000E+00 0.  1.
          1    1    1    2  501    0  0.42261053478E+02 -0.13343329299E+02  0.10546312907E+04  0.10555620306E+04  0.00000000000E+00 0.  1.
<scales pt_clust_3="14000.00000" pt_clust_4="71.62861" pt_clust_5="40.11495" pt_clust_6="44.84797"></scales>
<clustering>
<clus scale="   40.115">  2  5  1 -1</clus>
<clus scale="   44.848">  1  6  2 -1</clus>
<clus scale="   71.629">  2  4  1 -1</clus>
<clus scale="   40.115">  2  3  1 -1</clus>
</clustering>
</event>
<event>
 6    0  0.2433432E+002  0.9660459E+02  0.7546771E-02  0.1287603E+00
         21   -1    0    0  503  502  0.00000000000E+00  0.00000000000E+00  0.38989704480E+03  0.38989704480E+03  0.00000000000E+00 0.  1.
          1   -1    0    0  505    0 -0.00000000000E+00 -0.00000000000E+00 -0.63618025585E+03  0.63618025585E+03  0.00000000000E+00 0. -1.
         21    1    1    2  503  501  0.33456274008E+02 -0.10293763760E+03  0.28243857974E+03  0.30246823111E+03  0.00000000000E+00 0.  1.
         21    1    1    2  504  502 -0.38424999983E+02  0.59917593740E+01  0.76001462594E+02  0.85373322065E+02  0.00000000000E+00 0.  1.
         21    1    1    2  505  504 -0.36503165878E+02  0.31827068679E+02 -0.27140775011E+02  0.55516349736E+02  0.00000000000E+00 0. -1.
          1    1    1    2  501    0  0.41471891853E+02  0.65118809551E+02 -0.57758247837E+03  0.58271939773E+03  0.00000000000E+00 0. -1.
<scales pt_clust_3="14000.00000" pt_clust_4="38.88935" pt_clust_5="49.94842" pt_clust_6="96.60459"></scales>
<clustering>
<clus scale="   38.889">  1  4  2 -1</clus>
<clus scale="   49.948">  2  5  1 -1</clus>
<clus scale="   96.605">  2  6  1 -1</clus>
<clus scale="   38.889">  1  3  2 -1</clus>
</clustering>
</event>
<event>
 6    0  0.2433432E+002  0.6477328E+02  0.7546771E-02  0.1378826E+00
          2   -1    0    0  504    0 -0.00000000000E+00  0.00000000000E+00  0.15867604893E+04  0.15867604893E+04  0.00000000000E+00 0. -1.
         21   -1    0    0  503  502  0.00000000000E+00 -0.00000000000E+00 -0.35473270273E+04  0.35473270273E+04  0.00000000000E+00 0.  1.
         21    1    1    2  503  501 -0.45746177246E+01  0.10231817503E+03 -0.25860197180E+04  0.25880471244E+04  0.00000000000E+00 0.  1.
         21    1    1    2  504  505  0.26734303094E+02 -0.42718704962E+02 -0.22993903863E+03  0.23539662742E+03  0.00000000000E+00 0.  1.
         21    1    1    2  505  502 -0.34567440416E+02  0.39647746200E+01 -0.72654686826E+03  0.72737952896E+03  0.00000000000E+00 0.  1.
          2    1    1    2  501    0  0.12407755047E+02 -0.63564244688E+02  0.15819390870E+04  0.15832642358E+04  0.00000000000E+00 0. -1.
<scales pt_clust_3="14000.00000" pt_clust_4="48.65625" pt_clust_5="34.79407" pt_clust_6="64.77328"></scales>
<clustering>
<clus scale="   34.794">  2  5  1 -1</clus>
<clus scale="   48.656">  2  4  1 -1</clus>
<clus scale="   64.773">  1  6  2 -1</clus>
<clus scale="   34.794">  2  3  1 -1</clus>
</clustering>
</event>
<event>
 6    0  0.2433432E+002  0.1157596E+03  0.7546771E-02  0.1250261E+00
          2   -1    0    0  505    0 -0.00000000000E+00  0.00000000000E+00  0.21721790459E+04  0.21721790459E+04  0.00000000000E+00 0. -1.
         21   -1    0    0  501  502  0.00000000000E+00 -0.00000000000E+00 -0.85671188239E+02  0.85671188239E+02  0.00000000000E+00 0. -1.
         21    1    1    2  503  504  0.67914020470E+02  0.65698630894E+02 -0.24423112772E+02  0.97596683936E+02  0.00000000000E+00 0. -1.
         21    1    1    2  504  502 -0.70137806928E+02  0.55793477683E+02  0.82119456096E+02  0.12155586856E+03  0.00000000000E+00 0. -1.
         21    1    1    2  505  503 -0.38342370509E+02 -0.20432636720E+02  0.13632930744E+03  0.14308497505E+03  0.00000000000E+00 0. -1.
          2    1    1    2  501    0  0.40566156966E+02 -0.10105947186E+03  0.18924822069E+04  0.18956127066E+04  0.00000000000E+00 0. -1.
<scales pt_clust_3="14000.00000" pt_clust_4="90.51085" pt_clust_5="43.44686" pt_clust_6="115.75962"></scales>
<clustering>
<clus scale="   43.447">  1  5  2 -1</clus>
<clus scale="   90.511">  2  4  1 -1</clus>
<clus scale="  115.760">  1  6  2 -1</clus>
<clus scale="   90.511">  2  3  1 -1</clus>
</clustering>
</event>
<event>
 6    0  0.2433432E+002  0.1162500E+03  0.7546771E-02  0.1249415E+00
          2   -1    0    0  505    0 -0.00000000000E+00  0.00000000000E+00  0.15821202204E+04  0.15821202204E+04  0.00000000000E+00 0. -1.
         21   -1    0    0  503  502  0.00000000000E+00 -0.00000000000E+00 -0.90803157654E+02  0.90803157654E+02  0.00000000000E+00 0. -1.
         21    1    1    2  503  504  0.38608268122E+02  0.40681615759E+02  0.21955381069E+02  0.60229818080E+02  0.00000000000E+00 0.  1.
         21    1    1    2  504  501 -0.18531088692E+01  0.33296361498E+02 -0.55015096896E+01  0.33798643617E+02  0.00000000000E+00 0. -1.
         21    1    1    2  505  502  0.78897474419E+02 -0.93476562060E+02  0.25699112351E+02  0.12499249377E+03  0.00000000000E+00 0. -1.
          2    1    1    2  501    0 -0.11565263367E+03  0.19498584803E+02  0.14491640791E+04  0.14539024226E+04  0.00000000000E+00 0. -1.
<scales pt_clust_3="92.57765" pt_clust_4="32.22904" pt_clust_5="116.24998" pt_clust_6="14000.00000"></scales>
<clustering>
<clus scale="   32.229">  3  4 -1 -1</clus>
<clus scale="   92.578">  2  3  1 -1</clus>
<clus scale="  116.250">  2  5  1 -1</clus>
<clus scale="   92.578">  2  3  1 -1</clus>
</clustering>
</event>
<event>
 6    0  0.2433432E+002  0.8606492E+02  0.7546771E-02  0.1312671E+00
         21   -1    0    0  504  502  0.00000000000E+00  0.00000000000E+00  0.59232905167E+03  0.59232905167E+03  0.00000000000E+00 0.  1.
          1   -1    0    0  503    0 -0.00000000000E+00 -0.00000000000E+00 -0.55261648661E+03  0.55261648661E+03  0.00000000000E+00 0. -1.
         21    1    1    2  503  505  0.12331189230E+03 -0.45416753034E+02  0.11687517953E+03  0.17586447006E+03  0.00000000000E+00 0.  1.
         21    1    1    2  504  501 -0.33147604681E+02  0.91826722437E+01  0.29651557017E+03  0.29850388360E+03  0.00000000000E+00 0.  1.
         21    1    1    2  505  502 -0.50507337401E+02  0.24711900585E+02  0.14227021694E+03  0.15297870371E+03  0.00000000000E+00 0.  1.
          1    1    1    2  501    0 -0.39656950218E+02  0.11522180205E+02 -0.51594840159E+03  0.51759848091E+03  0.00000000000E+00 0. -1.
<scales pt_clust_3="86.06492" pt_clust_4="34.39601" pt_clust_5="14000.00000" pt_clust_6="41.39315"></scales>
<clustering>
<clus scale="   34.396">  1  4  2 -1</clus>
<clus scale="   41.393">  2  6  1 -1</clus>
<clus scale="   86.065">  2  3  1 -1</clus>
<clus scale="   34.396">  1  3  2 -1</clus>
</clustering>
</event>
<event>
 6    0  0.2433432E+002  0.1810487E+03  0.7546771E-02  0.1166792E+00
          2   -1    0    0  504    0 -0.00000000000E+00  0.00000000000E+00  0.32024948426E+04  0.32024948426E+04  0.00000000000E+00 0. -1.
         21   -1    0    0  503  502  0.00000000000E+00 -0.00000000000E+00 -0.22464311659E+02  0.22464311659E+02  0.00000000000E+00 0. -1.
         21    1    1    2  503  505  0.80737182497E+02  0.37856452989E+02  0.30087157849E+03  0.31380776028E+03  0.00000000000E+00 0. -1.
         21    1    1    2  504  502 -0.55119321737E+02  0.28855470035E+02  0.20335823427E+03  0.21266252426E+03  0.00000000000E+00 0. -1.
         21    1    1    2  505  501  0.74019232122E+02  0.77873671345E+02  0.35121445406E+03  0.36728020387E+03  0.00000000000E+00 0. -1.
          2    1    1    2  501    0 -0.99637092883E+02 -0.14458559437E+03  0.23245862642E+04  0.23312086659E+04  0.00000000000E+00 0. -1.
<scales pt_clust_3="33.11955" pt_clust_4="62.21558" pt_clust_5="33.11955" pt_clust_6="177.36125"></scales>
<clustering>
<clus scale="   33.120">  3  5 -1 -1</clus>
<clus scale="   62.216">  2  4  1 -1</clus>
<clus scale="  177.361">  1  6  2 -1</clus>
<clus scale="   62.216">  2  3  1 -1</clus>
</clustering>
</event>
<event>
 6    0  0.2433432E+002  0.6727771E+02  0.7546771E-02  0.1369603E+00
          1   -1    0    0  504    0 -0.00000000000E+00  0.00000000000E+00  0.53760609607E+03  0.53760609607E+03  0.00000000000E+00 0.  1.
         21   -1    0    0  503  502  0.00000000000E+00 -0.00000000000E+00 -0.51818340390E+03  0.51818340390E+03  0.00000000000E+00 0. -1.
         21    1    1    2  503  505  0.53251366799E+02  0.17160049006E+02 -0.21350218444E+03  0.22071102852E+03  0.00000000000E+00 0. -1.
         21    1    1    2  504  502 -0.62546791780E+02  0.49306775968E+02 -0.20202911825E+03  0.21716128555E+03  0.00000000000E+00 0.  1.
         21    1    1    2  505  501  0.62477426751E+02 -0.38655000847E+02 -0.74680719941E+02  0.10476090814E+03  0.00000000000E+00 0. -1.
          1    1    1    2  501    0 -0.53182001770E+02 -0.27811824126E+02  0.50963471481E+03  0.51315627776E+03  0.00000000000E+00 0.  1.
<scales pt_clust_3="55.94797" pt_clust_4="14000.00000" pt_clust_5="67.27771" pt_clust_6="59.69274"></scales>
<clustering>
<clus scale="   55.948">  2  3  1 -1</clus>
<clus scale="   59.693">  1  6  2 -1</clus>
<clus scale="   67.278">  1  5  2 -1</clus>
<clus scale="   55.948">  2  3  1 -1</clus>
</clustering>
</event>
<event>
 6    0  0.2433432E+002  0.1216179E+03  0.7546771E-02  0.1240452E+00
          2   -1    0    0  505    0 -0.00000000000E+00  0.00000000000E+00  0.35276265766E+04  0.35276265766E+04  0.00000000000E+00 0.  1.
         21   -1    0    0  503  502  0.00000000000E+00 -0.00000000000E+00 -0.84425138691E+02  0.84425138691E+02  0.00000000000E+00 0. -1.
         21    1    1    2  503  504  0.23099105843E+02  0.12470501038E+03 -0.14242176112E+02  0.12762346135E+03  0.00000000000E+00 0. -1.
         21    1    1    2  504  501 -0.12601338026E+03 -0.35903666480E+02  0.71611646822E+03  0.72800497343E+03  0.00000000000E+00 0.  1.
         21    1    1    2  505  502  0.68768797423E+02 -0.91692609457E+02  0.43514338630E+03  0.44998494282E+03  0.00000000000E+00 0.  1.
          2    1    1    2  501    0  0.34145476991E+02  0.28912655529E+01  0.23061837595E+04  0.23064383377E+04  0.00000000000E+00 0.  1.
<scales pt_clust_3="121.61794" pt_clust_4="111.21332" pt_clust_5="14000.00000" pt_clust_6="34.26767"></scales>
<clustering>
<clus scale="   34.268">  1  6  2 -1</clus>
<clus scale="  111.213">  1  4  2 -1</clus>
<clus scale="  121.618">  2  3  1 -1</clus>
<clus scale="  121.618">  2  3  1 -1</clus>
</clustering>
</event>
<event>
 6    0  0.2433432E+002  0.1188694E+03  0.7546771E-02  0.1244974E+00
         21   -1    0    0  503  502  0.00000000000E+00  0.00000000000E+00  0.64096671022E+02  0.64096671022E+02  0.00000000000E+00 0.  1.
          2   -1    0    0  504    0 -0.00000000000E+00 -0.00000000000E+00 -0.13082000183E+04  0.13082000183E+04  0.00000000000E+00 0. -1.
         21    1    1    2  503  501  0.33141949591E+00 -0.46034323714E+02 -0.23777067198E+01  0.46096879373E+02  0.00000000000E+00 0.  1.
         21    1    1    2  504  505 -0.36843461325E+02 -0.70709604914E+00 -0.24419481669E+02  0.44206919280E+02  0.00000000000E+00 0. -1.
         21    1    1    2  505  502 -0.64721759022E+02  0.77039452014E+02 -0.54567111710E+02  0.11446201526E+03  0.00000000000E+00 0.  1.
          2    1    1    2  501    0  0.10123380085E+03 -0.30298032252E+02 -0.11627390472E+04  0.11675308754E+04  0.00000000000E+00 0. -1.
<scales pt_clust_3="46.03552" pt_clust_4="31.99335" pt_clust_5="31.99335" pt_clust_6="106.46649"></scales>
<clustering>
<clus scale="   31.993">  4  5 -1 -1</clus>
<clus scale="   46.036">  1  3  2 -1</clus>
<clus scale="  106.466">  2  6  1 -1</clus>
<clus scale="   46.036">  1  3  2 -1</clus>
</clustering>
</event>
<event>
 6    0  0.2433432E+002  0.1280234E+03  0.7546771E-02  0.1230418E+00
         21   -1    0    0  504  502  0.00000000000E+00  0.00000000000E+00  0.28825423273E+03  0.28825423273E+03  0.00000000000E+00 0.  1.
          2   -1    0    0  505    0 -0.00000000000E+00 -0.00000000000E+00 -0.24966953574E+03  0.24966953574E+03  0.00000000000E+00 0.  1.
         21    1    1    2  503  501 -0.70707435404E+02 -0.89648693680E+02  0.31514078447E+02  0.11844647247E+03  0.00000000000E+00 0.  1.
         21    1    1    2  504  503  0.78557015611E+02  0.11088539281E+03  0.16375329528E+03  0.21279548105E+03  0.00000000000E+00 0.  1.
         21    1    1    2  505  502  0.23879827231E+02  0.29879061104E+02  0.63290396957E+00  0.38254476973E+02  0.00000000000E+00 0. -1.
          2    1    1    2  501    0 -0.31729407438E+02 -0.51115760236E+02 -0.15731558071E+03  0.16842733797E+03  0.00000000000E+00 0.  1.
<scales pt_clust_3="14000.00000" pt_clust_4="128.02344" pt_clust_5="38.24924" pt_clust_6="33.52073"></scales>
<clustering>
<clus scale="   38.249">  2  5  1 -1</clus>
<clus scale="   33.521">  2  6  1 -1</clus>
<clus scale="  128.023">  1  4  2 -1</clus>
<clus scale="  128.023">  1  3  2 -1</clus>
</clustering>
</event>
<event>
 6    0  0.2433432E+002  0.6683195E+02  0.7546771E-02  0.1371210E+00
          2   -1    0    0  503    0 -0.00000000000E+00  0.00000000000E+00  0.16033085104E+04  0.16033085104E+04  0.00000000000E+00 0. -1.
         21   -1    0    0  504  502  0.00000000000E+00 -0.00000000000E+00 -0.60605493003E+02  0.60605493003E+02  0.00000000000E+00 0.  1.
         21    1    1    2  503  505  0.52550440399E+01  0.40727039327E+02  0.12569230785E+03  0.13223034248E+03  0.00000000000E+00 0.  1.
         21    1    1    2  504  501  0.35333405517E+02  0.92499650462E+02  0.97090329251E+02  0.13867648292E+03  0.00000000000E+00 0.  1.
         21    1    1    2  505  502 -0.34896203949E+02 -0.49166277171E+02 -0.93996376587E+01  0.61019841437E+02  0.00000000000E+00 0. -1.
          2    1    1    2  501    0 -0.56922456082E+01 -0.84060412618E+02  0.13293200179E+04  0.13319873365E+04  0.00000000000E+00 0. -1.
<scales pt_clust_3="41.06467" pt_clust_4="66.83195" pt_clust_5="14000.00000" pt_clust_6="47.31226"></scales>
<clustering>
<clus scale="   41.065">  1  3  2 -1</clus>
<clus scale="   47.312">  1  6  2 -1</clus>
<clus scale="   66.832">  1  4  2 -1</clus>
<clus scale="   66.832">  2  3  1 -1</clus>
</clustering>
</event>
<event>
 6    0  0.2433432E+002  0.9397533E+02  0.7546771E-02  0.1293501E+00
          1   -1    0    0  504    0 -0.00000000000E+00  0.00000000000E+00  0.11789072969E+04  0.11789072969E+04  0.00000000000E+00 0. -1.
         21   -1    0    0  503  502  0.00000000000E+00 -0.00000000000E+00 -0.20788132882E+03  0.20788132882E+03  0.00000000000E+00 0. -1.
         21    1    1    2  503  501  0.37864225634E+02  0.25083850566E+02 -0.16694482390E+03  0.17301292833E+03  0.00000000000E+00 0. -1.
         21    1    1    2  504  505 -0.57946475454E+02  0.48758034724E+02  0.43087361799E+03  0.43747824477E+03  0.00000000000E+00 0.  1.
         21    1    1    2  505  502 -0.36322579691E+02  0.55634904346E+02  0.12651080831E+02  0.67635953628E+02  0.00000000000E+00 0.  1.
          1    1    1    2  501    0  0.56404829511E+02 -0.12947678964E+03  0.69444609317E+03  0.70866149900E+03  0.00000000000E+00 0. -1.
<scales pt_clust_3="45.41915" pt_clust_4="14000.00000" pt_clust_5="74.35888" pt_clust_6="93.97533"></scales>
<clustering>
<clus scale="   45.419">  2  3  1 -1</clus>
<clus scale="   74.359">  2  5  1 -1</clus>
<clus scale="   93.975">  2  6  1 -1</clus>
<clus scale="   45.419">  2  3  1 -1</clus>
</clustering>
</event>
<event>
 6    0  0.2433432E+002  0.9009671E+02  0.7546771E-02  0.1302618E+00
         -1   -1    0    0    0  501 -0.00000000000E+00  0.00000000000E+00  0.12521567757E+04  0.12521567757E+04  0.00000000000E+00 0.  1.
         21   -1    0    0  505  502  0.00000000000E+00 -0.00000000000E+00 -0.24313881095E+03  0.24313881095E+03  0.00000000000E+00 0. -1.
         21    1    1    2  503  501  0.11567362504E+03  0.14903562444E+02 -0.94893040640E+02  0.15035688499E+03  0.00000000000E+00 0. -1.
         21    1    1    2  504  502 -0.60572679855E+02  0.48510516135E+02 -0.23358857251E+02  0.81042926481E+02  0.00000000000E+00 0.  1.
         21    1    1    2  505  503  0.29318137231E+01 -0.33670165217E+02 -0.63184950260E+02  0.71656217433E+02  0.00000000000E+00 0. -1.
         -1    1    1    2    0  504 -0.58032758908E+02 -0.29743913362E+02  0.11904548129E+04  0.11922395578E+04  0.00000000000E+00 0.  1.
<scales pt_clust_3="90.09671" pt_clust_4="14000.00000" pt_clust_5="33.79757" pt_clust_6="65.27614"></scales>
<clustering>
<clus scale="   33.798">  2  5  1 -1</clus>
<clus scale="   65.276">  1  6  2 -1</clus>
<clus scale="   90.097">  1  3  2 -1</clus>
<clus scale="   33.798">  2  3  1 -1</clus>
</clustering>
</event>
<event>
 6    0  0.2433432E+002  0.7307595E+02  0.7546771E-02  0.1349935E+00
          1   -1    0    0  503    0 -0.00000000000E+00  0.00000000000E+00  0.46568514715E+03  0.46568514715E+03  0.00000000000E+00 0.  1.
         21   -1    0    0  505  502  0.00000000000E+00 -0.00000000000E+00 -0.13981270834E+04  0.13981270834E+04  0.00000000000E+00 0.  1.
         21    1    1    2  503  504 -0.66533422670E+02 -0.12765395725E+03 -0.22720808422E+03  0.26897163915E+03  0.00000000000E+00 0. -1.
         21    1    1    2  504  502  0.35463948531E+02  0.33265571220E+02 -0.11172566020E+04  0.11183141797E+04  0.00000000000E+00 0.  1.
         21    1    1    2  505  501 -0.39729497365E+01  0.31237751934E+02 -0.20787407165E+02  0.37731919805E+02  0.00000000000E+00 0.  1.
          1    1    1    2  501    0  0.35042423875E+02  0.63150634097E+02  0.43281015708E+03  0.43879449191E+03  0.00000000000E+00 0.  1.
<scales pt_clust_3="14000.00000" pt_clust_4="67.02571" pt_clust_5="31.48939" pt_clust_6="73.07595"></scales>
<clustering>
<clus scale="   31.489">  2  5  1 -1</clus>
<clus scale="   67.026">  2  4  1 -1</clus>
<clus scale="   73.076">  1  6  2 -1</clus>
<clus scale="   31.489">  2  3  1 -1</clus>
</clustering>
</event>
<event>
 6    0  0.2433432E+002  0.9325334E+02  0.7546771E-02  0.1295159E+00
         21   -1    0    0  505  502  0.00000000000E+00  0.00000000000E+00  0.44308105597E+03  0.44308105597E+03  0.00000000000E+00 0. -1.
         -4   -1    0    0    0  501 -0.00000000000E+00 -0.00000000000E+00 -0.80473406566E+03  0.80473406566E+03  0.00000000000E+00 0.  1.
         21    1    1    2  503  502 -0.97769869782E+01  0.54685082436E+02  0.59546332892E+02  0.81435947077E+02  0.00000000000E+00 0. -1.
         21    1    1    2  504  501  0.34095439737E+02 -0.38714843470E+02  0.89177000952E+02  0.10302366531E+03  0.00000000000E+00 0. -1.
         21    1    1    2  505  504  0.49265918942E+02 -0.50033787299E+02  0.26989633962E+03  0.27888087920E+03  0.00000000000E+00 0. -1.
         -4    1    1    2    0  503 -0.73584371701E+02  0.34063548333E+02 -0.78027268316E+03  0.78447463004E+03  0.00000000000E+00 0.  1.
<scales pt_clust_3="55.55221" pt_clust_4="39.20405" pt_clust_5="39.20405" pt_clust_6="81.26626"></scales>
<clustering>
<clus scale="   39.204">  4  5 -1 -1</clus>
<clus scale="   55.552">  1  3  2 -1</clus>
<clus scale="   81.266">  2  6  1 -1</clus>
<clus scale="   55.552">  1  3  2 -1</clus>
</clustering>
</event>
<event>
 6    0  0.2433432E+002  0.2073393E+03  0.7546771E-02  0.1143690E+00
          2   -1    0    0  503    0 -0.00000000000E+00  0.00000000000E+00  0.35060806770E+04  0.35060806770E+04  0.00000000000E+00 0.  1.
         21   -1    0    0  504  502  0.00000000000E+00 -0.00000000000E+00 -0.32595547321E+02  0.32595547321E+02  0.00000000000E+00 0.  1.
         21    1    1    2  503  505  0.34579576310E+02 -0.34560509549E+02  0.14454955861E+03  0.15259341667E+03  0.00000000000E+00 0.  1.
         21    1    1    2  504  501  0.15166066568E+03  0.11825508853E+03  0.60231694778E+03  0.63227440962E+03  0.00000000000E+00 0.  1.
         21    1    1    2  505  502  0.23748293204E+02 -0.34228524128E+02  0.37506389251E+02  0.56056244333E+02  0.00000000000E+00 0.  1.
          2    1    1    2  501    0 -0.20998853520E+03 -0.49466054855E+02  0.26891122341E+04  0.26977521537E+04  0.00000000000E+00 0.  1.
<scales pt_clust_3="55.97394" pt_clust_4="207.33931" pt_clust_5="41.66021" pt_clust_6="14000.00000"></scales>
<clustering>
<clus scale="   41.660">  2  5  1 -1</clus>
<clus scale="   55.974">  2  3  1 -1</clus>
<clus scale="  207.339">  2  4  1 -1</clus>
<clus scale="   41.660">  2  3  1 -1</clus>
</clustering>
</event>
<event>
 6    0  0.2433432E+002  0.7098242E+02  0.7546771E-02  0.1356784E+00
         21   -1    0    0  503  502  0.00000000000E+00  0.00000000000E+00  0.60679478223E+02  0.60679478223E+02  0.00000000000E+00 0.  1.
          2   -1    0    0  505    0 -0.00000000000E+00 -0.00000000000E+00 -0.17099269450E+04  0.17099269450E+04  0.00000000000E+00 0. -1.
         21    1    1    2  503  501  0.19406774199E+02 -0.76996495485E+02 -0.37264285529E+02  0.87713796964E+02  0.00000000000E+00 0.  1.
         21    1    1    2  504  502 -0.44219821463E+02  0.18040668258E+02 -0.83853250034E+01  0.48488885292E+02  0.00000000000E+00 0.  1.
         21    1    1    2  505  504 -0.47071247560E+02  0.63927592702E+02 -0.93792493382E+02  0.12287990589E+03  0.00000000000E+00 0.  1.
          2    1    1    2  501    0  0.71884294823E+02 -0.49717654744E+01 -0.15098053628E+04  0.15115238350E+04  0.00000000000E+00 0. -1.
<scales pt_clust_3="66.28589" pt_clust_4="47.75833" pt_clust_5="70.98242" pt_clust_6="14000.00000"></scales>
<clustering>
<clus scale="   47.758">  1  4  2 -1</clus>
<clus scale="   66.286">  1  3  2 -1</clus>
<clus scale="   70.982">  1  5  2 -1</clus>
<clus scale="   47.758">  1  3  2 -1</clus>
</clustering>
</event>
<event>
 6    0  0.2433432E+002  0.9374164E+02  0.7546771E-02  0.1294036E+00
         21   -1    0    0  505  502  0.00000000000E+00  0.00000000000E+00  0.95405176302E+02  0.95405176302E+02  0.00000000000E+00 0. -1.
          2   -1    0    0  502    0 -0.00000000000E+00 -0.00000000000E+00 -0.23300561185E+04  0.23300561185E+04  0.00000000000E+00 0. -1.
         21    1    1    2  503  504 -0.65609244516E+02 -0.35366787431E+02 -0.10472364782E+03  0.12853958547E+03  0.00000000000E+00 0. -1.
         21    1    1    2  504  501  0.26229235151E+02  0.14998575140E+03 -0.61911146939E+03  0.63755996575E+03  0.00000000000E+00 0. -1.
         21    1    1    2  505  503  0.15621521920E+02 -0.47232462948E+02  0.65041089003E+02  0.81885778752E+02  0.00000000000E+00 0. -1.
          2    1    1    2  501    0  0.23758487445E+02 -0.67386501020E+02 -0.15758569140E+04  0.15774759649E+04  0.00000000000E+00 0. -1.
<scales pt_clust_3="14000.00000" pt_clust_4="93.74164" pt_clust_5="49.74874" pt_clust_6="73.28723"></scales>
<clustering>
<clus scale="   49.749">  1  5  2 -1</clus>
<clus scale="   73.287">  2  6  1 -1</clus>
<clus scale="   93.742">  2  4  1 -1</clus>
<clus scale="   49.749">  1  3  2 -1</clus>
</clustering>
</event>
<event>
 6    0  0.2433432E+002  0.9082592E+02  0.7546771E-02  0.1300864E+00
         21   -1    0    0  503  502  0.00000000000E+00  0.00000000000E+00  0.12719086665E+03  0.12719086665E+03  0.00000000000E+00 0.  1.
          4   -1    0    0  505    0 -0.00000000000E+00 -0.00000000000E+00 -0.51827446027E+03  0.51827446027E+03  0.00000000000E+00 0.  1.
         21    1    1    2  503  504  0.39382208559E+02  0.11914805141E+02 -0.24200495599E+02  0.47734525448E+02  0.00000000000E+00 0.  1.
         21    1    1    2  504  501  0.84828063386E+02  0.37047998504E+02  0.69391065475E+02  0.11568696771E+03  0.00000000000E+00 0.  1.
         21    1    1    2  505  502 -0.47455716222E+02 -0.47377086809E+00 -0.13089491213E+02  0.49230115186E+02  0.00000000000E+00 0.  1.
          4    1    1    2  501    0 -0.76754555723E+02 -0.48489032777E+02 -0.42318467229E+03  0.43281371857E+03  0.00000000000E+00 0.  1.
<scales pt_clust_3="41.14512" pt_clust_4="14000.00000" pt_clust_5="41.31363" pt_clust_6="90.82592"></scales>
<clustering>
<clus scale="   41.145">  1  3  2 -1</clus>
<clus scale="   41.314">  1  5  2 -1</clus>
<clus scale="   90.826">  2  6  1 -1</clus>
<clus scale="   41.145">  1  3  2 -1</clus>
</clustering>
</event>
<event>
 6    0  0.2433432E+002  0.1598081E+03  0.7546771E-02  0.1188914E+00
         21   -1    0    0  504  502  0.00000000000E+00  0.00000000000E+00  0.26259086386E+03  0.26259086386E+03  0.00000000000E+00 0. -1.
          2   -1    0    0  503    0 -0.00000000000E+00 -0.00000000000E+00 -0.37208573857E+04  0.37208573857E+04  0.00000000000E+00 0.  1.
         21    1    1    2  503  505 -0.96404756656E+02  0.12801249131E+02  0.11523299931E+03  0.15078591849E+03  0.00000000000E+00 0. -1.
         21    1    1    2  504  501  0.28744701491E+01  0.32197759757E+02  0.23807750436E+02  0.40146821703E+02  0.00000000000E+00 0. -1.
         21    1    1    2  505  502 -0.56497244171E+02 -0.34800735123E+02  0.84611459604E+02  0.10752734006E+03  0.00000000000E+00 0. -1.
          2    1    1    2  501    0  0.15002753068E+03 -0.10198273766E+02 -0.36819187312E+04  0.36849881693E+04  0.00000000000E+00 0.  1.
<scales pt_clust_3="41.68476" pt_clust_4="32.32581" pt_clust_5="41.68476" pt_clust_6="150.37846"></scales>
<clustering>
<clus scale="   32.326">  1  4  2 -1</clus>
<clus scale="   41.685">  3  5 -1 -1</clus>
<clus scale="  150.378">  2  6  1 -1</clus>
<clus scale="   32.326">  1  3  2 -1</clus>
</clustering>
</event>
<event>
 6    0  0.2433432E+002  0.7199465E+02  0.7546771E-02  0.1353439E+00
          1   -1    0    0  505    0 -0.00000000000E+00  0.00000000000E+00  0.87528319290E+03  0.87528319290E+03  0.00000000000E+00 0. -1.
         21   -1    0    0  504  502  0.00000000000E+00 -0.00000000000E+00 -0.43545869853E+03  0.43545869853E+03  0.00000000000E+00 0.  1.
         21    1    1    2  503  502  0.45251231115E+02 -0.25909900548E+01  0.76956398090E+00  0.45331880345E+02  0.00000000000E+00 0. -1.
         21    1    1    2  504  501 -0.69778053773E+02  0.62513206524E+02 -0.38291995078E+03  0.39421385882E+03  0.00000000000E+00 0.  1.
         21    1    1    2  505  503  0.68992743775E+02 -0.72385003177E+02  0.80740792073E+02  0.12852495043E+03  0.00000000000E+00 0.  1.
          1    1    1    2  501    0 -0.44465921117E+02  0.12462786708E+02  0.74123408909E+03  0.74267120183E+03  0.00000000000E+00 0. -1.
<scales pt_clust_3="45.32535" pt_clust_4="71.99465" pt_clust_5="14000.00000" pt_clust_6="46.10243"></scales>
<clustering>
<clus scale="   45.325">  2  3  1 -1</clus>
<clus scale="   46.102">  1  6  2 -1</clus>
<clus scale="   71.995">  2  4  1 -1</clus>
<clus scale="   45.325">  2  3  1 -1</clus>
</clustering>
</event>
<event>
 6    0  0.2433432E+002  0.1173460E+03  0.7546771E-02  0.1247541E+00
         21   -1    0    0  503  502  0.00000000000E+00  0.00000000000E+00  0.51767694760E+02  0.51767694760E+02  0.00000000000E+00 0.  1.
          2   -1    0    0  505    0 -0.00000000000E+00 -0.00000000000E+00 -0.16982980407E+04  0.16982980407E+04  0.00000000000E+00 0. -1.
         21    1    1    2  503  501 -0.38664547065E+02 -0.69382818381E+02 -0.49377266688E+02  0.93525596239E+02  0.00000000000E+00 0.  1.
         21    1    1    2  504  502 -0.23162729984E+01 -0.30249434207E+02  0.11708446770E+02  0.32518934734E+02  0.00000000000E+00 0.  1.
         21    1    1    2  505  504 -0.31005311971E+02  0.18258594696E+01 -0.40863017992E+02  0.51326887424E+02  0.00000000000E+00 0. -1.
          2    1    1    2  501    0  0.71986132034E+02  0.97806393119E+02 -0.15679985081E+04  0.15726943171E+04  0.00000000000E+00 0. -1.
<scales pt_clust_3="14000.00000" pt_clust_4="30.33799" pt_clust_5="31.60959" pt_clust_6="117.34597"></scales>
<clustering>
<clus scale="   30.338">  1  4  2 -1</clus>
<clus scale="   31.610">  1  5  2 -1</clus>
<clus scale="  117.346">  2  6  1 -1</clus>
<clus scale="   30.338">  1  3  2 -1</clus>
</clustering>
</event>
<event>
 6    0  0.2433432E+002  0.8228290E+02  0.7546771E-02  0.1322695E+00
          2   -1    0    0  503    0 -0.00000000000E+00  0.00000000000E+00  0.77486535944E+03  0.77486535944E+03  0.00000000000E+00 0.  1.
         21   -1    0    0  501  502  0.00000000000E+00 -0.00000000000E+00 -0.93852192112E+02  0.93852192112E+02  0.00000000000E+00 0.  1.
         21    1    1    2  503  505 -0.40805624278E+02  0.48295349693E+02  0.43815752140E+02  0.76924377867E+02  0.00000000000E+00 0.  1.
         21    1    1    2  504  502  0.12336817049E+02  0.45746289428E+02 -0.27385231027E+02  0.54725413929E+02  0.00000000000E+00 0.  1.
         21    1    1    2  505  504  0.64810863398E+02 -0.87946064672E+02  0.47903006198E+02  0.11928812308E+03  0.00000000000E+00 0. -1.
          2    1    1    2  501    0 -0.36342056169E+02 -0.60955744490E+01  0.61667964002E+03  0.61777963667E+03  0.00000000000E+00 0.  1.
<scales pt_clust_3="14000.00000" pt_clust_4="46.14117" pt_clust_5="82.28290" pt_clust_6="36.84971"></scales>
<clustering>
<clus scale="   36.850">  1  6  2 -1</clus>
<clus scale="   46.141">  2  4  1 -1</clus>
<clus scale="   82.283">  2  5  1 -1</clus>
<clus scale="   46.141">  2  3  1 -1</clus>
</clustering>
</event>
<event>
 6    0  0.2433432E+002  0.7271243E+02  0.7546771E-02  0.1351105E+00
          3   -1    0    0  502    0 -0.00000000000E+00  0.00000000000E+00  0.12490354267E+04  0.12490354267E+04  0.00000000000E+00 0.  1.
         21   -1    0    0  505  502  0.00000000000E+00 -0.00000000000E+00 -0.19797885558E+03  0.19797885558E+03  0.00000000000E+00 0. -1.
         21    1    1    2  503  504  0.37309750315E+02  0.55232763852E+02  0.34683714919E+02  0.75137445738E+02  0.00000000000E+00 0. -1.
         21    1    1    2  504  501 -0.58691636307E+02 -0.33689184276E+02 -0.75408837697E+02  0.10132207120E+03  0.00000000000E+00 0. -1.
         21    1    1    2  505  503 -0.23827632539E+02  0.36444949569E+02 -0.82865110604E+02  0.93608850954E+02  0.00000000000E+00 0. -1.
          3    1    1    2  501    0  0.45209518530E+02 -0.57988529146E+02  0.11746468044E+04  0.11769459143E+04  0.00000000000E+00 0.  1.
<scales pt_clust_3="70.15271" pt_clust_4="72.71243" pt_clust_5="43.54297" pt_clust_6="14000.00000"></scales>
<clustering>
<clus scale="   43.543">  2  5  1 -1</clus>
<clus scale="   70.153">  2  3  1 -1</clus>
<clus scale="   72.712">  2  4  1 -1</clus>
<clus scale="   43.543">  2  3  1 -1</clus>
</clustering>
</event>
<event>
 6    0  0.2433432E+002  0.1534974E+03  0.7546771E-02  0.1196240E+00
         -2   -1    0    0    0  501 -0.00000000000E+00  0.00000000000E+00  0.84521346070E+03  0.84521346070E+03  0.00000000000E+00 0. -1.
         21   -1    0    0  505  502  0.00000000000E+00 -0.00000000000E+00 -0.14598080360E+03  0.14598080360E+03  0.00000000000E+00 0.  1.
         21    1    1    2  503  502 -0.61599319349E+02  0.91535542993E+02 -0.87290274764E+02  0.14068697112E+03  0.00000000000E+00 0.  1.
         21    1    1    2  504  503 -0.10460126911E+02  0.37904937552E+02  0.63561223789E+00  0.39326868026E+02  0.00000000000E+00 0. -1.
         21    1    1    2  505  501  0.44625231616E+01 -0.76009408935E+02  0.13819659022E+03  0.15778352863E+03  0.00000000000E+00 0. -1.
         -2    1    1    2    0  504  0.67596923098E+02 -0.53431071611E+02  0.64769072940E+03  0.65339689652E+03  0.00000000000E+00 0. -1.
<scales pt_clust_3="32.41672" pt_clust_4="32.41672" pt_clust_5="76.14029" pt_clust_6="143.57198"></scales>
<clustering>
<clus scale="   32.417">  3  4 -1 -1</clus>
<clus scale="   76.140">  1  5  2 -1</clus>
<clus scale="  143.572">  1  6  2 -1</clus>
<clus scale="  153.497">  2  3  1 -1</clus>
</clustering>
</event>
<event>
 6    0  0.2433432E+002  0.7559823E+02  0.7546771E-02  0.1342028E+00
          4   -1    0    0  504    0 -0.00000000000E+00  0.00000000000E+00  0.16987424084E+04  0.16987424084E+04  0.00000000000E+00 0.  1.
         21   -1    0    0  503  502  0.00000000000E+00 -0.00000000000E+00 -0.55595878084E+02  0.55595878084E+02  0.00000000000E+00 0.  1.
         21    1    1    2  503  505  0.46736555629E+02 -0.10581339560E+02  0.15511137982E+02  0.50367308648E+02  0.00000000000E+00 0.  1.
         21    1    1    2  504  502  0.28564137614E+02 -0.24728632365E+02  0.69853981818E+02  0.79416585120E+02  0.00000000000E+00 0.  1.
         21    1    1    2  505  501 -0.48895392959E+02  0.10590262717E+03  0.72454217045E+02  0.13731620247E+03  0.00000000000E+00 0.  1.
          4    1    1    2  501    0 -0.26405300284E+02 -0.70592655243E+02  0.14853271935E+04  0.14872381903E+04  0.00000000000E+00 0.  1.
<scales pt_clust_3="59.66070" pt_clust_4="37.78115" pt_clust_5="75.59823" pt_clust_6="14000.00000"></scales>
<clustering>
<clus scale="   37.781">  2  4  1 -1</clus>
<clus scale="   59.661">  2  3  1 -1</clus>
<clus scale="   75.598">  2  5  1 -1</clus>
<clus scale="   37.781">  2  3  1 -1</clus>
</clustering>
</event>
<event>
 6    0  0.2433432E+002  0.7973174E+02  0.7546771E-02  0.1329814E+00
          2   -1    0    0  505    0 -0.00000000000E+00  0.00000000000E+00  0.17895232510E+04  0.17895232510E+04  0.00000000000E+00 0. -1.
         21   -1    0    0  503  502  0.00000000000E+00 -0.00000000000E+00 -0.19787741466E+02  0.19787741466E+02  0.00000000000E+00 0. -1.
         21    1    1    2  503  504  0.10619391528E+01  0.82365382138E+02  0.14382610097E+03  0.16574417399E+03  0.00000000000E+00 0. -1.
         21    1    1    2  504  501  0.70899841747E+02 -0.64566429723E+01  0.21722130110E+03  0.22859039667E+03  0.00000000000E+00 0. -1.
         21    1    1    2  505  502  0.24109437701E+00 -0.31356099761E+02  0.14064416499E+03  0.14409734301E+03  0.00000000000E+00 0.  1.
          2    1    1    2  501    0 -0.72202875277E+02 -0.44552639405E+02  0.12680439425E+04  0.12708790788E+04  0.00000000000E+00 0. -1.
<scales pt_clust_3="63.35084" pt_clust_4="79.73174" pt_clust_5="31.35703" pt_clust_6="14000.00000"></scales>
<clustering>
<clus scale="   31.357">  2  5  1 -1</clus>
<clus scale="   63.351">  2  3  1 -1</clus>
<clus scale="   79.732">  2  4  1 -1</clus>
<clus scale="   31.357">  2  3  1 -1</clus>
</clustering>
</event>
<event>
 6    0  0.2433432E+002  0.8214155E+02  0.7546771E-02  0.1323082E+00
          1   -1    0    0  504    0 -0.00000000000E+00  0.00000000000E+00  0.20166210613E+04  0.20166210613E+04  0.00000000000E+00 0.  1.
         21   -1    0    0  503  502  0.00000000000E+00 -0.00000000000E+00 -0.46123582725E+03  0.46123582725E+03  0.00000000000E+00 0. -1.
         21    1    1    2  503  501  0.46281117260E+01  0.12596526883E+03 -0.42004865716E+03  0.43855392228E+03  0.00000000000E+00 0. -1.
         21    1    1    2  504  505  0.47426189484E+02 -0.11819201933E+03  0.27786676704E+03  0.30566082036E+03  0.00000000000E+00 0.  1.
         21    1    1    2  505  502  0.96770382721E+01 -0.58643172155E+02  0.34643237984E+02  0.68795498749E+02  0.00000000000E+00 0.  1.
          1    1    1    2  501    0 -0.61731339482E+02  0.50869922654E+02  0.16629238862E+04  0.16648466472E+04  0.00000000000E+00 0.  1.
<scales pt_clust_3="70.68052" pt_clust_4="82.14155" pt_clust_5="59.43624" pt_clust_6="14000.00000"></scales>
<clustering>
<clus scale="   59.436">  2  5  1 -1</clus>
<clus scale="   70.681">  2  3  1 -1</clus>
<clus scale="   82.142">  2  4  1 -1</clus>
<clus scale="   59.436">  2  3  1 -1</clus>
</clustering>
</event>
<event>
 6    0  0.2433432E+002  0.1097887E+03  0.7546771E-02  0.1260962E+00
         21   -1    0    0  504  502  0.00000000000E+00  0.00000000000E+00  0.12827265326E+03  0.12827265326E+03  0.00000000000E+00 0.  1.
         -2   -1    0    0    0  501 -0.00000000000E+00 -0.00000000000E+00 -0.19008275068E+04  0.19008275068E+04  0.00000000000E+00 0.  1.
         21    1    1    2  503  502 -0.38742047630E+02 -0.10651456433E+03 -0.16682799837E+03  0.20168757946E+03  0.00000000000E+00 0.  1.
         21    1    1    2  504  505  0.51552418925E+02  0.96401398601E+02  0.56213216064E+02  0.12292602332E+03  0.00000000000E+00 0.  1.
         21    1    1    2  505  501  0.14585846939E+02  0.96903047954E+02 -0.10039987801E+03  0.14029641171E+03  0.00000000000E+00 0.  1.
         -2    1    1    2    0  503 -0.27396218234E+02 -0.86789882229E+02 -0.15615401933E+04  0.15641901456E+04  0.00000000000E+00 0.  1.
<scales pt_clust_3="109.78871" pt_clust_4="14000.00000" pt_clust_5="66.17374" pt_clust_6="91.01119"></scales>
<clustering>
<clus scale="   91.011">  2  6  1 -1</clus>
<clus scale="   66.174">  2  5  1 -1</clus>
<clus scale="  109.789">  2  3  1 -1</clus>
<clus scale="  109.789">  1  3  2 -1</clus>
</clustering>
</event>
<event>
 6    0  0.2433432E+002  0.1282539E+03  0.7546771E-02  0.1230070E+00
          2   -1    0    0  504    0 -0.00000000000E+00  0.00000000000E+00  0.11595659696E+04  0.11595659696E+04  0.00000000000E+00 0. -1.
         21   -1    0    0  505  502  0.00000000000E+00 -0.00000000000E+00 -0.76680937414E+02  0.76680937414E+02  0.00000000000E+00 0. -1.
         21    1    1    2  503  501  0.50101691526E+02 -0.11245303906E+03  0.80687713343E+02  0.14719501545E+03  0.00000000000E+00 0. -1.
         21    1    1    2  504  502 -0.11118391947E+03  0.61657826666E+02  0.13133854909E+03  0.18279323296E+03  0.00000000000E+00 0.  1.
         21    1    1    2  505  503 -0.46824603461E+02 -0.45271553379E+02  0.84237500251E+02  0.10648010839E+03  0.00000000000E+00 0. -1.
          2    1    1    2  501    0  0.10790683141E+03  0.96066765777E+02  0.78662126955E+03  0.79977855026E+03  0.00000000000E+00 0. -1.
<scales pt_clust_3="128.25390" pt_clust_4="136.79212" pt_clust_5="65.13108" pt_clust_6="14000.00000"></scales>
<clustering>
<clus scale="   65.131">  2  5  1 -1</clus>
<clus scale="  136.792">  2  4  1 -1</clus>
<clus scale="  128.254">  2  3  1 -1</clus>
<clus scale="   65.131">  2  3  1 -1</clus>
</clustering>
</event>
<event>
 6    0  0.2433432E+002  0.9940661E+02  0.7546771E-02  0.1281549E+00
         21   -1    0    0  501  502  0.00000000000E+00  0.00000000000E+00  0.10355605091E+04  0.10355605091E+04  0.00000000000E+00 0. -1.
         -1   -1    0    0    0  501 -0.00000000000E+00 -0.00000000000E+00 -0.36708253946E+03  0.36708253946E+03  0.00000000000E+00 0.  1.
         21    1    1    2  503  504 -0.23981348560E+02  0.11458349158E+03  0.26735490102E+03  0.29186148208E+03  0.00000000000E+00 0. -1.
         21    1    1    2  504  502 -0.24377379738E+02 -0.22187851763E+02  0.59987073208E+03  0.60077570907E+03  0.00000000000E+00 0. -1.
         21    1    1    2  505  503  0.42221376320E+01 -0.85286957867E+02  0.14234643967E+03  0.16599457977E+03  0.00000000000E+00 0.  1.
         -1    1    1    2    0  505  0.44136590665E+02 -0.71086819532E+01 -0.34109410310E+03  0.34401127767E+03  0.00000000000E+00 0.  1.
<scales pt_clust_3="99.40661" pt_clust_4="32.96297" pt_clust_5="14000.00000" pt_clust_6="44.63664"></scales>
<clustering>
<clus scale="   32.963">  1  4  2 -1</clus>
<clus scale="   44.637">  2  6  1 -1</clus>
<clus scale="   99.407">  1  3  2 -1</clus>
<clus scale="   32.963">  1  3  2 -1</clus>
</clustering>
</event>
<event>
 6    0  0.2433432E+002  0.1015286E+03  0.7546771E-02  0.1277114E+00
          1   -1    0    0  505    0 -0.00000000000E+00  0.00000000000E+00  0.18641336112E+04  0.18641336112E+04  0.00000000000E+00 0. -1.
         21   -1    0    0  503  502  0.00000000000E+00 -0.00000000000E+00 -0.24004260447E+02  0.24004260447E+02  0.00000000000E+00 0. -1.
         21    1    1    2  503  501 -0.33967019989E+02  0.93735188135E+01  0.78471373531E+02  0.86019635931E+02  0.00000000000E+00 0. -1.
         21    1    1    2  504  502  0.36050525589E+02  0.40644979029E+02  0.46220623156E+02  0.71330223050E+02  0.00000000000E+00 0. -1.
         21    1    1    2  505  504  0.43771074215E+02  0.55210227304E+02  0.22123332954E+03  0.23218152863E+03  0.00000000000E+00 0. -1.
          1    1    1    2  501    0 -0.45854579815E+02 -0.10522872515E+03  0.14942040245E+04  0.14986064840E+04  0.00000000000E+00 0. -1.
<scales pt_clust_3="35.23665" pt_clust_4="48.81448" pt_clust_5="14000.00000" pt_clust_6="101.52862"></scales>
<clustering>
<clus scale="   35.237">  2  3  1 -1</clus>
<clus scale="   48.814">  2  4  1 -1</clus>
<clus scale="  101.529">  1  6  2 -1</clus>
<clus scale="   35.237">  2  3  1 -1</clus>
</clustering>
</event>
<event>
 6    0  0.2433432E+002  0.1260071E+03  0.7546771E-02  0.1233504E+00
         21   -1    0    0  503  502  0.00000000000E+00  0.00000000000E+00  0.55834712113E+03  0.55834712113E+03  0.00000000000E+00 0. -1.
         -1   -1    0    0    0  501 -0.00000000000E+00 -0.00000000000E+00 -0.45536296627E+03  0.45536296627E+03  0.00000000000E+00 0. -1.
         21    1    1    2  503  501  0.67528417802E+02 -0.17645365561E+02 -0.16138295381E+02  0.71637215988E+02  0.00000000000E+00 0. -1.
         21    1    1    2  504  505  0.22980159459E+02 -0.68806757720E+02 -0.82905590895E+02  0.11016258275E+03  0.00000000000E+00 0. -1.
         21    1    1    2  505  502 -0.70102483845E+02  0.11039178725E+03  0.50787985534E+03  0.52444508997E+03  0.00000000000E+00 0. -1.
         -1    1    1    2    0  504 -0.20406093417E+02 -0.23939663967E+02 -0.30585181420E+03  0.30746519870E+03  0.00000000000E+00 0. -1.
<scales pt_clust_3="66.28421" pt_clust_4="14000.00000" pt_clust_5="126.00712" pt_clust_6="31.45658"></scales>
<clustering>
<clus scale="   31.457">  2  6  1 -1</clus>
<clus scale="   66.284">  2  3  1 -1</clus>
<clus scale="  126.007">  1  5  2 -1</clus>
<clus scale="  126.007">  1  3  2 -1</clus>
</clustering>
</event>
<event>
 6    0  0.2433432E+002  0.9051018E+02  0.7546771E-02  0.1301621E+00
          4   -1    0    0  505    0 -0.00000000000E+00  0.00000000000E+00  0.10327607652E+04  0.10327607652E+04  0.00000000000E+00 0. -1.
         21   -1    0    0  501  502  0.00000000000E+00 -0.00000000000E+00 -0.49059296852E+02  0.49059296852E+02  0.00000000000E+00 0. -1.
         21    1    1    2  503  502 -0.15433357978E+01  0.79535134944E+02  0.43133688055E+02  0.90491627354E+02  0.00000000000E+00 0. -1.
         21    1    1    2  504  503 -0.44267105113E+02 -0.11816536000E+03  0.16106736989E+03  0.20461018191E+03  0.00000000000E+00 0. -1.
         21    1    1    2  505  504 -0.13779698608E+02  0.26889516473E+02  0.98880392121E+02  0.10339370453E+03  0.00000000000E+00 0. -1.
          4    1    1    2  501    0  0.59590139519E+02  0.11740708584E+02  0.68062001829E+03  0.68332454827E+03  0.00000000000E+00 0. -1.
<scales pt_clust_3="90.51018" pt_clust_4="14000.00000" pt_clust_5="30.21467" pt_clust_6="58.63491"></scales>
<clustering>
<clus scale="   30.215">  1  5  2 -1</clus>
<clus scale="   58.635">  1  6  2 -1</clus>
<clus scale="   90.510">  2  3  1 -1</clus>
<clus scale="   90.510">  2  3  1 -1</clus>
</clustering>
</event>
<event>
 6    0  0.2433432E+002  0.1912956E+03  0.7546771E-02  0.1157298E+00
          2   -1    0    0  502    0 -0.00000000000E+00  0.00000000000E+00  0.25362789600E+04  0.25362789600E+04  0.00000000000E+00 0. -1.
         21   -1    0    0  505  502  0.00000000000E+00 -0.00000000000E+00 -0.54449518576E+02  0.54449518576E+02  0.00000000000E+00 0.  1.
         21    1    1    2  503  501  0.24091183565E+02 -0.14871887622E+03  0.10689348392E+04  0.10794995970E+04  0.00000000000E+00 0. -1.
         21    1    1    2  504  503 -0.22279134442E+02  0.52517079627E+02  0.46055767346E+02  0.73318055006E+02  0.00000000000E+00 0.  1.
         21    1    1    2  505  504  0.21950810018E+02  0.13895826767E+03  0.10605546995E+03  0.17617888898E+03  0.00000000000E+00 0. -1.
          2    1    1    2  501    0 -0.23762859141E+02 -0.42756471083E+02  0.12607833649E+04  0.12617319376E+04  0.00000000000E+00 0. -1.
<scales pt_clust_3="184.78644" pt_clust_4="31.50675" pt_clust_5="31.50675" pt_clust_6="48.91615"></scales>
<clustering>
<clus scale="   31.507">  4  5 -1 -1</clus>
<clus scale="   48.916">  1  6  2 -1</clus>
<clus scale="  184.786">  1  3  2 -1</clus>
<clus scale="  191.296">  2  3  1 -1</clus>
</clustering>
</event>
<event>
 6    0  0.2433432E+002  0.8644094E+02  0.7546771E-02  0.1311707E+00
          1   -1    0    0  504    0 -0.00000000000E+00  0.00000000000E+00  0.33491390545E+04  0.33491390545E+04  0.00000000000E+00 0.  1.
         21   -1    0    0  503  502  0.00000000000E+00 -0.00000000000E+00 -0.91810455874E+02  0.91810455874E+02  0.00000000000E+00 0.  1.
         21    1    1    2  503  505  0.13310607655E+01  0.70542572498E+02 -0.21972566983E+02  0.73897360962E+02  0.00000000000E+00 0.  1.
         21    1    1    2  504  502 -0.34594699496E+02 -0.40928474006E+02  0.92435969939E+02  0.10684728240E+03  0.00000000000E+00 0.  1.
         21    1    1    2  505  501 -0.38658771925E+02 -0.77881607214E+02  0.16307919254E+02  0.88464646156E+02  0.00000000000E+00 0.  1.
          1    1    1    2  501    0  0.71922410655E+02  0.48267508723E+02  0.31705572765E+04  0.31717402209E+04  0.00000000000E+00 0.  1.
<scales pt_clust_3="50.75557" pt_clust_4="53.59042" pt_clust_5="86.44094" pt_clust_6="14000.00000"></scales>
<clustering>
<clus scale="   53.590">  2  4  1 -1</clus>
<clus scale="   50.756">  2  3  1 -1</clus>
<clus scale="   86.441">  2  5  1 -1</clus>
<clus scale="   53.590">  2  3  1 -1</clus>
</clustering>
</event>
<event>
 6    0  0.2433432E+002  0.1191850E+03  0.7546771E-02  0.1244448E+00
          2   -1    0    0  503    0 -0.00000000000E+00  0.00000000000E+00  0.26823438977E+04  0.26823438977E+04  0.00000000000E+00 0. -1.
         21   -1    0    0  504  502  0.00000000000E+00 -0.00000000000E+00 -0.66657337914E+03  0.66657337914E+03  0.00000000000E+00 0. -1.
         21    1    1    2  503  502  0.95192194211E+02  0.24638731245E+02  0.64541238011E+02  0.11761884339E+03  0.00000000000E+00 0.  1.
         21    1    1    2  504  505 -0.44347410852E+02 -0.91858698015E+01 -0.48344002514E+03  0.48555672270E+03  0.00000000000E+00 0. -1.
         21    1    1    2  505  501 -0.84500647194E+02 -0.34492929416E+02 -0.14198927411E+03  0.16879299606E+03  0.00000000000E+00 0. -1.
          2    1    1    2  501    0  0.33655863836E+02  0.19040067973E+02  0.25766585798E+04  0.25769487147E+04  0.00000000000E+00 0. -1.
<scales pt_clust_3="119.18503" pt_clust_4="44.91972" pt_clust_5="14000.00000" pt_clust_6="38.66835"></scales>
<clustering>
<clus scale="   38.668">  1  6  2 -1</clus>
<clus scale="   44.920">  2  4  1 -1</clus>
<clus scale="  119.185">  1  3  2 -1</clus>
<clus scale="   44.920">  2  3  1 -1</clus>
</clustering>
</event>
<event>
 6    0  0.2433432E+002  0.9729217E+02  0.7546771E-02  0.1286095E+00
          2   -1    0    0  504    0 -0.00000000000E+00  0.00000000000E+00  0.55768952284E+03  0.55768952284E+03  0.00000000000E+00 0.  1.
         21   -1    0    0  501  502  0.00000000000E+00 -0.00000000000E+00 -0.91780098993E+02  0.91780098993E+02  0.00000000000E+00 0.  1.
         21    1    1    2  503  505 -0.43443797715E+01 -0.89671428044E+02  0.77812456422E+02  0.11880495367E+03  0.00000000000E+00 0.  1.
         21    1    1    2  504  503 -0.90167312724E+02  0.85449871468E+02  0.17258771497E+03  0.21264605375E+03  0.00000000000E+00 0.  1.
         21    1    1    2  505  502  0.16752428005E+02 -0.28016492168E+02 -0.38470092218E+02  0.50453103697E+02  0.00000000000E+00 0.  1.
          2    1    1    2  501    0  0.77759264490E+02  0.32238048745E+02  0.25397934467E+03  0.26756551071E+03  0.00000000000E+00 0.  1.
<scales pt_clust_3="97.29217" pt_clust_4="14000.00000" pt_clust_5="32.64303" pt_clust_6="84.98500"></scales>
<clustering>
<clus scale="   32.643">  2  5  1 -1</clus>
<clus scale="   84.985">  1  6  2 -1</clus>
<clus scale="   97.292">  2  3  1 -1</clus>
<clus scale="   32.643">  2  3  1 -1</clus>
</clustering>
</event>
<event>
 6    0  0.2433432E+002  0.8612192E+02  0.7546771E-02  0.1312524E+00
          2   -1    0    0  505    0 -0.00000000000E+00  0.00000000000E+00  0.84173342826E+03  0.84173342826E+03  0.00000000000E+00 0.  1.
         21   -1    0    0  503  502  0.00000000000E+00 -0.00000000000E+00 -0.54881187389E+02  0.54881187389E+02  0.00000000000E+00 0. -1.
         21    1    1    2  503  504 -0.32864761364E+02  0.44468688955E+02  0.12130324675E+02  0.56610084028E+02  0.00000000000E+00 0. -1.
         21    1    1    2  504  501  0.73527200123E+01  0.78701584212E+02  0.55179367822E+02  0.96398985899E+02  0.00000000000E+00 0. -1.
         21    1    1    2  505  502  0.28359917227E+02 -0.36111499113E+02  0.47955294459E+02  0.66393038340E+02  0.00000000000E+00 0. -1.
          2    1    1    2  501    0 -0.28478758755E+01 -0.87058774054E+02  0.67158725392E+03  0.67721250738E+03  0.00000000000E+00 0.  1.
<scales pt_clust_3="32.94759" pt_clust_4="86.12192" pt_clust_5="45.91650" pt_clust_6="14000.00000"></scales>
<clustering>
<clus scale="   45.917">  2  5  1 -1</clus>
<clus scale="   32.948">  2  3  1 -1</clus>
<clus scale="   86.122">  2  4  1 -1</clus>
<clus scale="   45.917">  2  3  1 -1</clus>
</clustering>
</event>
<event>
 6    0  0.2433432E+002  0.1956387E+03  0.7546771E-02  0.1153472E+00
         21   -1    0    0  503  502  0.00000000000E+00  0.00000000000E+00  0.29648738256E+03  0.29648738256E+03  0.00000000000E+00 0.  1.
          2   -1    0    0  504    0 -0.00000000000E+00 -0.00000000000E+00 -0.15157033433E+04  0.15157033433E+04  0.00000000000E+00 0.  1.
         21    1    1    2  503  501  0.11271517441E+02  0.18897181067E+03  0.19774186617E+03  0.27375032050E+03  0.00000000000E+00 0.  1.
         21    1    1    2  504  505  0.34050539311E+02 -0.28581491487E+03 -0.56008815348E+03  0.62972084645E+03  0.00000000000E+00 0.  1.
         21    1    1    2  505  502  0.72577041196E+02 -0.23567247274E+02 -0.68510299961E+02  0.10255000367E+03  0.00000000000E+00 0.  1.
          2    1    1    2  501    0 -0.11789909795E+03  0.12041035147E+03 -0.78835937349E+03  0.80616955524E+03  0.00000000000E+00 0.  1.
<scales pt_clust_3="195.63866" pt_clust_4="14000.00000" pt_clust_5="76.30755" pt_clust_6="166.36887"></scales>
<clustering>
<clus scale="   76.308">  1  5  2 -1</clus>
<clus scale="  166.369">  2  6  1 -1</clus>
<clus scale="  195.639">  1  3  2 -1</clus>
<clus scale="   76.308">  1  3  2 -1</clus>
</clustering>
</event>
<event>
 6    0  0.2433432E+002  0.9613923E+02  0.7546771E-02  0.1288631E+00
          1   -1    0    0  505    0 -0.00000000000E+00  0.00000000000E+00  0.64354715409E+02  0.64354715409E+02  0.00000000000E+00 0. -1.
         21   -1    0    0  503  502  0.00000000000E+00 -0.00000000000E+00 -0.50892321377E+03  0.50892321377E+03  0.00000000000E+00 0.  1.
         21    1    1    2  503  501  0.28410986830E+02 -0.10373665017E+03 -0.30714352427E+03  0.32543143866E+03  0.00000000000E+00 0.  1.
         21    1    1    2  504  502 -0.67427939713E+02  0.55912318827E+02 -0.10718194793E+03  0.13842212400E+03  0.00000000000E+00 0. -1.
         21    1    1    2  505  504  0.46448604887E+02 -0.78291826796E+00 -0.37522726912E+02  0.59716336892E+02  0.00000000000E+00 0. -1.
          1    1    1    2  501    0 -0.74316520033E+01  0.48607249616E+02  0.72797007556E+01  0.49708029632E+02  0.00000000000E+00 0. -1.
<scales pt_clust_3="96.13923" pt_clust_4="14000.00000" pt_clust_5="46.45520" pt_clust_6="51.24008"></scales>
<clustering>
<clus scale="   46.455">  1  5  2 -1</clus>
<clus scale="   51.240">  1  6  2 -1</clus>
<clus scale="   96.139">  2  3  1 -1</clus>
<clus scale="   96.139">  2  3  1 -1</clus>
</clustering>
</event>
<event>
 6    0  0.2433432E+002  0.8283022E+02  0.7546771E-02  0.1321206E+00
          2   -1    0    0  504    0 -0.00000000000E+00  0.00000000000E+00  0.88826578635E+03  0.88826578635E+03  0.00000000000E+00 0.  1.
         21   -1    0    0  503  502  0.00000000000E+00 -0.00000000000E+00 -0.40904427262E+03  0.40904427262E+03  0.00000000000E+00 0.  1.
         21    1    1    2  503  501  0.90429228500E+02  0.10242644590E+03 -0.35842971241E+03  0.38358894786E+03  0.00000000000E+00 0.  1.
         21    1    1    2  504  505 -0.65014464657E+02 -0.22502071695E+02  0.34779623867E+03  0.35453553768E+03  0.00000000000E+00 0.  1.
         21    1    1    2  505  502 -0.25738696945E+02 -0.49237464894E+02 -0.11629352725E+02  0.56763106984E+02  0.00000000000E+00 0.  1.
          2    1    1    2  501    0  0.32393310185E+00 -0.30686909310E+02  0.50148434019E+03  0.50242246645E+03  0.00000000000E+00 0.  1.
<scales pt_clust_3="14000.00000" pt_clust_4="82.83022" pt_clust_5="57.14521" pt_clust_6="30.68862"></scales>
<clustering>
<clus scale="   30.689">  1  6  2 -1</clus>
<clus scale="   57.145">  2  5  1 -1</clus>
<clus scale="   82.830">  1  4  2 -1</clus>
<clus scale="   57.145">  2  3  1 -1</clus>
</clustering>
</event>
<event>
 6    0  0.2433432E+002  0.6161172E+02  0.7546771E-02  0.1391190E+00
          1   -1    0    0  505    0 -0.00000000000E+00  0.00000000000E+00  0.12629285637E+04  0.12629285637E+04  0.00000000000E+00 0.  1.
         21   -1    0    0  503  502  0.00000000000E+00 -0.00000000000E+00 -0.16184470289E+04  0.16184470289E+04  0.00000000000E+00 0. -1.
         21    1    1    2  503  504  0.42930298516E+02  0.44149321270E+02 -0.16008887298E+04  0.16020726882E+04  0.00000000000E+00 0. -1.
         21    1    1    2  504  501 -0.34126332499E+02 -0.77181489725E+02  0.32831346762E+03  0.33898572529E+03  0.00000000000E+00 0.  1.
         21    1    1    2  505  502 -0.12233307681E+01 -0.46409650291E+02  0.45130478429E+02  0.64746523162E+02  0.00000000000E+00 0.  1.
          1    1    1    2  501    0 -0.75806352497E+01  0.79441818746E+02  0.87192631851E+03  0.87557065592E+03  0.00000000000E+00 0.  1.
<scales pt_clust_3="14000.00000" pt_clust_4="61.61172" pt_clust_5="46.42577" pt_clust_6="46.64793"></scales>
<clustering>
<clus scale="   46.426">  1  5  2 -1</clus>
<clus scale="   46.648">  1  6  2 -1</clus>
<clus scale="   61.612">  1  4  2 -1</clus>
<clus scale="   61.612">  2  3  1 -1</clus>
</clustering>
</event>
<event>
 6    0  0.2433432E+002  0.2558532E+03  0.7546771E-02  0.1109661E+00
          2   -1    0    0  505    0 -0.00000000000E+00  0.00000000000E+00  0.14066815681E+03  0.14066815681E+03  0.00000000000E+00 0.  1.
         21   -1    0    0  501  502  0.00000000000E+00 -0.00000000000E+00 -0.14755194932E+04  0.14755194932E+04  0.00000000000E+00 0.  1.
         21    1    1    2  503  504  0.13149774052E+03 -0.12949007413E+03 -0.74527233708E+03  0.76778264598E+03  0.00000000000E+00 0.  1.
         21    1    1    2  504  502  0.52581828391E+02 -0.11846651943E+02 -0.48018768941E+03  0.48320327906E+03  0.00000000000E+00 0.  1.
         21    1    1    2  505  503  0.42803059834E+02 -0.25562044825E+02 -0.62043691417E+02  0.79592334502E+02  0.00000000000E+00 0. -1.
          2    1    1    2  501    0 -0.22688262875E+03  0.16689877090E+03 -0.47347618521E+02  0.28560939049E+03  0.00000000000E+00 0.  1.
<scales pt_clust_3="51.94575" pt_clust_4="51.94575" pt_clust_5="49.85499" pt_clust_6="236.87280"></scales>
<clustering>
<clus scale="   49.855">  1  5  2 -1</clus>
<clus scale="   51.946">  3  4 -1 -1</clus>
<clus scale="  236.873">  1  6  2 -1</clus>
<clus scale="  255.853">  2  3  1 -1</clus>
</clustering>
</event>
<event>
 6    0  0.2433432E+002  0.9544954E+02  0.7546771E-02  0.1290167E+00
         21   -1    0    0  503  502  0.00000000000E+00  0.00000000000E+00  0.99216695332E+02  0.99216695332E+02  0.00000000000E+00 0. -1.
         -2   -1    0    0    0  501 -0.00000000000E+00 -0.00000000000E+00 -0.24547429678E+04  0.24547429678E+04  0.00000000000E+00 0. -1.
         21    1    1    2  503  501 -0.35620390223E+02  0.17069838829E+03 -0.74948930024E+02  0.18980014245E+03  0.00000000000E+00 0. -1.
         21    1    1    2  504  502  0.29611060452E+00 -0.45077564606E+02  0.14257863637E+02  0.47279606468E+02  0.00000000000E+00 0. -1.
         21    1    1    2  505  504  0.37550161095E+02 -0.31478087361E+02 -0.49775628759E+02  0.69846243997E+02  0.00000000000E+00 0.  1.
         -2    1    1    2    0  505 -0.22258814768E+01 -0.94142736320E+02 -0.22450595773E+04  0.22470336702E+04  0.00000000000E+00 0. -1.
<scales pt_clust_3="95.44954" pt_clust_4="45.07854" pt_clust_5="53.51539" pt_clust_6="14000.00000"></scales>
<clustering>
<clus scale="   45.079">  1  4  2 -1</clus>
<clus scale="   53.515">  1  5  2 -1</clus>
<clus scale="   95.450">  1  3  2 -1</clus>
<clus scale="   45.079">  1  3  2 -1</clus>
</clustering>
</event>
<event>
 6    0  0.2433432E+002  0.1795239E+03  0.7546771E-02  0.1168265E+00
         21   -1    0    0  501  502  0.00000000000E+00  0.00000000000E+00  0.22206584399E+02  0.22206584399E+02  0.00000000000E+00 0.  1.
          2   -1    0    0  505    0 -0.00000000000E+00 -0.00000000000E+00 -0.32538035230E+04  0.32538035230E+04  0.00000000000E+00 0. -1.
         21    1    1    2  503  504  0.71209147051E+02  0.91163870310E+02 -0.67241036378E+03  0.68228827572E+03  0.00000000000E+00 0.  1.
         21    1    1    2  504  502 -0.27906631983E+02 -0.26019306450E+02 -0.38424962912E+02  0.54150366495E+02  0.00000000000E+00 0.  1.
         21    1    1    2  505  503  0.26507629966E+02  0.75828952724E+02 -0.23397248704E+03  0.24737786726E+03  0.00000000000E+00 0.  1.
          2    1    1    2  501    0 -0.69810145035E+02 -0.14097351658E+03 -0.22867891249E+04  0.22921935979E+04  0.00000000000E+00 0. -1.
<scales pt_clust_3="58.02295" pt_clust_4="38.15474" pt_clust_5="58.02295" pt_clust_6="164.05707"></scales>
<clustering>
<clus scale="   38.155">  1  4  2 -1</clus>
<clus scale="   58.023">  3  5 -1 -1</clus>
<clus scale="  164.057">  2  6  1 -1</clus>
<clus scale="   38.155">  1  3  2 -1</clus>
</clustering>
</event>
<event>
 6    0  0.2433432E+002  0.1688526E+03  0.7546771E-02  0.1179050E+00
         21   -1    0    0  505  502  0.00000000000E+00  0.00000000000E+00  0.12631673909E+04  0.12631673909E+04  0.00000000000E+00 0. -1.
         -2   -1    0    0    0  501 -0.00000000000E+00 -0.00000000000E+00 -0.48965433165E+03  0.48965433165E+03  0.00000000000E+00 0. -1.
         21    1    1    2  503  502 -0.38218467708E+02 -0.19112784652E+02  0.26105518106E+02  0.50074423478E+02  0.00000000000E+00 0. -1.
         21    1    1    2  504  501 -0.70556276889E+02  0.18521669368E+03  0.41387182446E+03  0.45888266356E+03  0.00000000000E+00 0. -1.
         21    1    1    2  505  504  0.11819462667E+03 -0.10824421324E+03  0.77861620468E+03  0.79494023276E+03  0.00000000000E+00 0. -1.
         -2    1    1    2    0  503 -0.94198820763E+01 -0.57859695791E+02 -0.44508048800E+03  0.44892440274E+03  0.00000000000E+00 0. -1.
<scales pt_clust_3="42.73113" pt_clust_4="14000.00000" pt_clust_5="168.85255" pt_clust_6="58.66074"></scales>
<clustering>
<clus scale="   42.731">  1  3  2 -1</clus>
<clus scale="   58.661">  2  6  1 -1</clus>
<clus scale="  168.853">  1  5  2 -1</clus>
<clus scale="   42.731">  1  3  2 -1</clus>
</clustering>
</event>
<event>
 6    0  0.2433432E+002  0.1655315E+03  0.7546771E-02  0.1182590E+00
         21   -1    0    0  503  502  0.00000000000E+00  0.00000000000E+00  0.11495687045E+03  0.11495687045E+03  0.00000000000E+00 0. -1.
          1   -1    0    0  504    0 -0.00000000000E+00 -0.00000000000E+00 -0.44381028345E+03  0.44381028345E+03  0.00000000000E+00 0. -1.
         21    1    1    2  503  501 -0.50366703764E+02 -0.11341681075E+02  0.18663559997E+02  0.54897787291E+02  0.00000000000E+00 0. -1.
         21    1    1    2  504  505  0.96453359561E+02 -0.13934205243E+02 -0.63111273234E+02  0.11610532053E+03  0.00000000000E+00 0. -1.
         21    1    1    2  505  502  0.10196044004E+03  0.16893385536E+02 -0.62198794436E+02  0.12062341330E+03  0.00000000000E+00 0. -1.
          1    1    1    2  501    0 -0.14804709584E+03  0.83825007820E+01 -0.22220690532E+03  0.26714063277E+03  0.00000000000E+00 0. -1.
<scales pt_clust_3="51.62789" pt_clust_4="30.10417" pt_clust_5="30.10417" pt_clust_6="162.60258"></scales>
<clustering>
<clus scale="   30.104">  4  5 -1 -1</clus>
<clus scale="   51.628">  1  3  2 -1</clus>
<clus scale="  162.603">  2  6  1 -1</clus>
<clus scale="   51.628">  1  3  2 -1</clus>
</clustering>
</event>
<event>
 6    0  0.2433432E+002  0.6993979E+02  0.7546771E-02  0.1360298E+00
         21   -1    0    0  505  502  0.00000000000E+00  0.00000000000E+00  0.24331300213E+02  0.24331300213E+02  0.00000000000E+00 0. -1.
          2   -1    0    0  503    0 -0.00000000000E+00 -0.00000000000E+00 -0.18240775526E+04  0.18240775526E+04  0.00000000000E+00 0.  1.
         21    1    1    2  503  504 -0.61715152428E+02  0.42015207827E+02 -0.27650313109E+03  0.28640534079E+03  0.00000000000E+00 0. -1.
         21    1    1    2  504  502 -0.13814382032E+02  0.46058346536E+02 -0.30915369684E+02  0.57166148369E+02  0.00000000000E+00 0. -1.
         21    1    1    2  505  501  0.51752932202E+01 -0.82002925368E+02 -0.31985577371E+03  0.33024079003E+03  0.00000000000E+00 0. -1.
          2    1    1    2  501    0  0.70354241240E+02 -0.60706289956E+01 -0.11724719779E+04  0.11745965736E+04  0.00000000000E+00 0.  1.
<scales pt_clust_3="14000.00000" pt_clust_4="48.08543" pt_clust_5="60.67315" pt_clust_6="69.93979"></scales>
<clustering>
<clus scale="   48.085">  1  4  2 -1</clus>
<clus scale="   60.673">  1  5  2 -1</clus>
<clus scale="   69.940">  2  6  1 -1</clus>
<clus scale="   48.085">  1  3  2 -1</clus>
</clustering>
</event>
<event>
 6    0  0.2433432E+002  0.6805054E+02  0.7546771E-02  0.1366851E+00
          2   -1    0    0  504    0 -0.00000000000E+00  0.00000000000E+00  0.10863946157E+04  0.10863946157E+04  0.00000000000E+00 0. -1.
         21   -1    0    0  503  502  0.00000000000E+00 -0.00000000000E+00 -0.97194577650E+02  0.97194577650E+02  0.00000000000E+00 0.  1.
         21    1    1    2  503  505  0.21285301209E+02  0.47948394120E+02  0.36796444524E+02  0.64078786473E+02  0.00000000000E+00 0.  1.
         21    1    1    2  504  502  0.56619729489E+02 -0.78135286402E+02 -0.41263590563E+02  0.10494570336E+03  0.00000000000E+00 0.  1.
         21    1    1    2  505  501 -0.57165875372E+02 -0.18456146180E+02  0.83502177403E+02  0.10286486412E+03  0.00000000000E+00 0.  1.
          2    1    1    2  501    0 -0.20739155326E+02  0.48643038462E+02  0.91016500673E+03  0.91169983944E+03  0.00000000000E+00 0. -1.
<scales pt_clust_3="52.46058" pt_clust_4="14000.00000" pt_clust_5="68.05054" pt_clust_6="53.20926"></scales>
<clustering>
<clus scale="   52.461">  2  3  1 -1</clus>
<clus scale="   53.209">  1  6  2 -1</clus>
<clus scale="   68.051">  1  5  2 -1</clus>
<clus scale="   52.461">  2  3  1 -1</clus>
</clustering>
</event>
<event>
 6    0  0.2433432E+002  0.2388891E+03  0.7546771E-02  0.1120535E+00
         21   -1    0    0  505  502  0.00000000000E+00  0.00000000000E+00  0.79359783739E+03  0.79359783739E+03  0.00000000000E+00 0. -1.
         -3   -1    0    0    0  501 -0.00000000000E+00 -0.00000000000E+00 -0.13694865546E+03  0.13694865546E+03  0.00000000000E+00 0.  1.
         21    1    1    2  503  502  0.25219594220E+02 -0.19849988870E+02  0.15874558798E+03  0.16195743791E+03  0.00000000000E+00 0. -1.
         21    1    1    2  504  501 -0.18981531984E+02  0.73001243761E+02  0.12534403909E+03  0.14628946743E+03  0.00000000000E+00 0. -1.
         21    1    1    2  505  504 -0.16225387199E+03  0.93806456419E+02  0.36208313728E+03  0.40771334114E+03  0.00000000000E+00 0. -1.
         -3    1    1    2    0  503  0.15601580975E+03 -0.14695771131E+03  0.10476417577E+02  0.21458624637E+03  0.00000000000E+00 0.  1.
<scales pt_clust_3="32.09439" pt_clust_4="60.08576" pt_clust_5="60.08576" pt_clust_6="220.01187"></scales>
<clustering>
<clus scale="   32.094">  1  3  2 -1</clus>
<clus scale="   60.086">  4  5 -1 -1</clus>
<clus scale="  220.012">  2  6  1 -1</clus>
<clus scale="   32.094">  1  3  2 -1</clus>
</clustering>
</event>
<event>
 6    0  0.2433432E+002  0.6618615E+02  0.7546771E-02  0.1373564E+00
         21   -1    0    0  504  502  0.00000000000E+00  0.00000000000E+00  0.13656016618E+04  0.13656016618E+04  0.00000000000E+00 0. -1.
          2   -1    0    0  503    0 -0.00000000000E+00 -0.00000000000E+00 -0.15498383394E+03  0.15498383394E+03  0.00000000000E+00 0.  1.
         21    1    1    2  503  505  0.16942529192E+02  0.38428970156E+02  0.41256541171E+02  0.58872211034E+02  0.00000000000E+00 0.  1.
         21    1    1    2  504  501  0.19674825070E+02  0.61616257138E+02  0.11815614502E+04  0.11833305212E+04  0.00000000000E+00 0. -1.
         21    1    1    2  505  502  0.31511005705E+01 -0.12023777120E+03  0.10077893286E+03  0.15691859153E+03  0.00000000000E+00 0.  1.
          2    1    1    2  501    0 -0.39768454833E+02  0.20192543909E+02 -0.11297909641E+03  0.12146417190E+03  0.00000000000E+00 0.  1.
<scales pt_clust_3="41.99804" pt_clust_4="66.18615" pt_clust_5="14000.00000" pt_clust_6="57.33642"></scales>
<clustering>
<clus scale="   41.998">  2  3  1 -1</clus>
<clus scale="   57.336">  2  6  1 -1</clus>
<clus scale="   66.186">  1  4  2 -1</clus>
<clus scale="   66.186">  1  3  2 -1</clus>
</clustering>
</event>
<event>
 6    0  0.2433432E+002  0.1210779E+03  0.7546771E-02  0.1241329E+00
         21   -1    0    0  505  502  0.00000000000E+00  0.00000000000E+00  0.36176125814E+03  0.36176125814E+03  0.00000000000E+00 0. -1.
          2   -1    0    0  504    0 -0.00000000000E+00 -0.00000000000E+00 -0.23437977052E+04  0.23437977052E+04  0.00000000000E+00 0. -1.
         21    1    1    2  503  501 -0.69361977505E+01  0.49400646003E+02 -0.87711456918E+02  0.10090507588E+03  0.00000000000E+00 0. -1.
         21    1    1    2  504  502  0.87364719005E+02 -0.16257716230E+03 -0.29547795797E+01  0.18458780716E+03  0.00000000000E+00 0. -1.
         21    1    1    2  505  503  0.81319119595E+01  0.32062693921E+02  0.26163320159E+03  0.26371590113E+03  0.00000000000E+00 0. -1.
          2    1    1    2  501    0 -0.88560433214E+02  0.81113822378E+02 -0.21530034122E+04  0.21563501792E+04  0.00000000000E+00 0. -1.
<scales pt_clust_3="51.93049" pt_clust_4="14000.00000" pt_clust_5="33.07785" pt_clust_6="121.07786"></scales>
<clustering>
<clus scale="   33.078">  1  5  2 -1</clus>
<clus scale="   51.930">  1  3  2 -1</clus>
<clus scale="  121.078">  2  6  1 -1</clus>
<clus scale="   33.078">  1  3  2 -1</clus>
</clustering>
</event>
<event>
 6    0  0.2433432E+002  0.8913510E+02  0.7546771E-02  0.1304960E+00
         21   -1    0    0  505  502  0.00000000000E+00  0.00000000000E+00  0.17882864289E+03  0.17882864289E+03  0.00000000000E+00 0.  1.
          3   -1    0    0  504    0 -0.00000000000E+00 -0.00000000000E+00 -0.41380959624E+03  0.41380959624E+03  0.00000000000E+00 0.  1.
         21    1    1    2  503  502  0.31798135094E+02 -0.38863315683E+02  0.66316140843E+02  0.83182385381E+02  0.00000000000E+00 0.  1.
         21    1    1    2  504  503 -0.45303946302E+02  0.26197586887E+02  0.30400644692E+02  0.60522395086E+02  0.00000000000E+00 0.  1.
         21    1    1    2  505  501 -0.10360768319E+02 -0.74787607830E+02  0.26057397209E+02  0.79871895899E+02  0.00000000000E+00 0.  1.
          3    1    1    2  501    0  0.23866579527E+02  0.87453336627E+02 -0.35775513610E+03  0.36906156276E+03  0.00000000000E+00 0.  1.
<scales pt_clust_3="50.21433" pt_clust_4="32.74032" pt_clust_5="89.13510" pt_clust_6="14000.00000"></scales>
<clustering>
<clus scale="   50.214">  1  3  2 -1</clus>
<clus scale="   32.740">  1  4  2 -1</clus>
<clus scale="   89.135">  1  5  2 -1</clus>
<clus scale="   50.214">  1  3  2 -1</clus>
</clustering>
</event>
<event>
 6    0  0.2433432E+002  0.9537698E+02  0.7546771E-02  0.1290329E+00
          2   -1    0    0  504    0 -0.00000000000E+00  0.00000000000E+00  0.15619804138E+04  0.15619804138E+04  0.00000000000E+00 0. -1.
         21   -1    0    0  501  502  0.00000000000E+00 -0.00000000000E+00 -0.10832488018E+03  0.10832488018E+03  0.00000000000E+00 0.  1.
         21    1    1    2  503  505  0.73968424884E+02 -0.14638491655E+02  0.11507432901E+03  0.13757803064E+03  0.00000000000E+00 0. -1.
         21    1    1    2  504  503 -0.66567346057E+01 -0.49787759598E+02  0.72196877309E+02  0.87951817573E+02  0.00000000000E+00 0.  1.
         21    1    1    2  505  502 -0.52769383944E+02  0.91905470731E+02 -0.57469297128E+02  0.12055680630E+03  0.00000000000E+00 0.  1.
          2    1    1    2  501    0 -0.14542306335E+02 -0.27479219478E+02  0.13238536245E+04  0.13242186395E+04  0.00000000000E+00 0. -1.
<scales pt_clust_3="95.37698" pt_clust_4="60.15458" pt_clust_5="14000.00000" pt_clust_6="31.08997"></scales>
<clustering>
<clus scale="   31.090">  1  6  2 -1</clus>
<clus scale="   60.155">  1  4  2 -1</clus>
<clus scale="   95.377">  1  3  2 -1</clus>
<clus scale="   95.377">  2  3  1 -1</clus>
</clustering>
</event>
<event>
 6    0  0.2433432E+002  0.8663139E+02  0.7546771E-02  0.1311221E+00
         -2   -1    0    0    0  501 -0.00000000000E+00  0.00000000000E+00  0.20606659070E+03  0.20606659070E+03  0.00000000000E+00 0.  1.
         21   -1    0    0  505  502  0.00000000000E+00 -0.00000000000E+00 -0.12060999415E+03  0.12060999415E+03  0.00000000000E+00 0.  1.
         21    1    1    2  503  501 -0.37862031844E+02 -0.32398753676E+02  0.36822534395E+02  0.61960565963E+02  0.00000000000E+00 0.  1.
         21    1    1    2  504  502  0.63540360825E+02  0.80808637639E+02  0.12369479425E+02  0.10353944848E+03  0.00000000000E+00 0.  1.
         21    1    1    2  505  503 -0.73491522936E+02 -0.35042352820E+02 -0.22283515288E+02  0.84412827746E+02  0.00000000000E+00 0.  1.
         -2    1    1    2    0  504  0.47813193955E+02 -0.13367531143E+02  0.58548098020E+02  0.76763742657E+02  0.00000000000E+00 0.  1.
<scales pt_clust_3="42.59306" pt_clust_4="14000.00000" pt_clust_5="86.63139" pt_clust_6="49.64668"></scales>
<clustering>
<clus scale="   49.647">  1  6  2 -1</clus>
<clus scale="   42.593">  1  3  2 -1</clus>
<clus scale="   86.631">  2  5  1 -1</clus>
<clus scale="   86.631">  2  3  1 -1</clus>
</clustering>
</event>
<event>
 6    0  0.2433432E+002  0.1270845E+03  0.7546771E-02  0.1231847E+00
         21   -1    0    0  504  502  0.00000000000E+00  0.00000000000E+00  0.32598979023E+04  0.32598979023E+04  0.00000000000E+00 0.  1.
         -2   -1    0    0    0  501 -0.00000000000E+00 -0.00000000000E+00 -0.38431313138E+03  0.38431313138E+03  0.00000000000E+00 0. -1.
         21    1    1    2  503  501 -0.84933483642E+02 -0.57943983131E+02  0.13516165451E+03  0.16982306874E+03  0.00000000000E+00 0.  1.
         21    1    1    2  504  503 -0.19105581368E+02  0.14061530594E+03  0.19280150579E+04  0.19332303926E+04  0.00000000000E+00 0.  1.
         21    1    1    2  505  502  0.11843314112E+03 -0.45770241062E+02  0.11722681357E+04  0.11791242114E+04  0.00000000000E+00 0.  1.
         -2    1    1    2    0  505 -0.14394076110E+02 -0.36901081751E+02 -0.35986007720E+03  0.36203336092E+03  0.00000000000E+00 0. -1.
<scales pt_clust_3="122.60662" pt_clust_4="14000.00000" pt_clust_5="127.08448" pt_clust_6="39.60908"></scales>
<clustering>
<clus scale="   39.609">  2  6  1 -1</clus>
<clus scale="  127.084">  1  5  2 -1</clus>
<clus scale="  122.607">  2  3  1 -1</clus>
<clus scale="  127.084">  1  3  2 -1</clus>
</clustering>
</event>
<event>
 6    0  0.2433432E+002  0.2292126E+03  0.7546771E-02  0.1127195E+00
         21   -1    0    0  505  502  0.00000000000E+00  0.00000000000E+00  0.21260782978E+03  0.21260782978E+03  0.00000000000E+00 0.  1.
          4   -1    0    0  504    0 -0.00000000000E+00 -0.00000000000E+00 -0.33548450947E+03  0.33548450947E+03  0.00000000000E+00 0.  1.
         21    1    1    2  503  502  0.11882591123E+03  0.77775922853E+02  0.19125008923E+02  0.14329849030E+03  0.00000000000E+00 0.  1.
         21    1    1    2  504  503  0.92757082782E+02  0.15431631216E+02 -0.26905628414E+00  0.94032356343E+02  0.00000000000E+00 0.  1.
         21    1    1    2  505  501 -0.28828731525E+02  0.31802162888E+02  0.77347694378E+01  0.43615364082E+02  0.00000000000E+00 0. -1.
          4    1    1    2  501    0 -0.18275426249E+03 -0.12500971696E+03 -0.14946740177E+03  0.26714612852E+03  0.00000000000E+00 0.  1.
<scales pt_clust_3="40.81027" pt_clust_4="40.81027" pt_clust_5="42.92404" pt_clust_6="223.65837"></scales>
<clustering>
<clus scale="   40.810">  3  4 -1 -1</clus>
<clus scale="   42.924">  1  5  2 -1</clus>
<clus scale="  223.658">  2  6  1 -1</clus>
<clus scale="   42.924">  1  3  2 -1</clus>
</clustering>
</event>
<event>
 6    0  0.2433432E+002  0.7733262E+02  0.7546771E-02  0.1336796E+00
          1   -1    0    0  503    0 -0.00000000000E+00  0.00000000000E+00  0.37514349869E+04  0.37514349869E+04  0.00000000000E+00 0.  1.
         21   -1    0    0  505  502  0.00000000000E+00 -0.00000000000E+00 -0.16258950554E+02  0.16258950554E+02  0.00000000000E+00 0.  1.
         21    1    1    2  503  504  0.26938594925E+02  0.86335834574E+02  0.10893439528E+04  0.10930918588E+04  0.00000000000E+00 0.  1.
         21    1    1    2  504  502 -0.41441681943E+02 -0.49820063511E+02  0.77022693073E+02  0.10065757288E+03  0.00000000000E+00 0.  1.
         21    1    1    2  505  501 -0.16831082743E+02  0.35347755254E+02  0.19768730827E+03  0.20152672527E+03  0.00000000000E+00 0.  1.
          1    1    1    2  501    0  0.31334169761E+02 -0.71863526317E+02  0.23711220823E+04  0.23724177806E+04  0.00000000000E+00 0.  1.
<scales pt_clust_3="77.33262" pt_clust_4="59.05527" pt_clust_5="39.15034" pt_clust_6="14000.00000"></scales>
<clustering>
<clus scale="   39.150">  2  5  1 -1</clus>
<clus scale="   59.055">  2  4  1 -1</clus>
<clus scale="   77.333">  2  3  1 -1</clus>
<clus scale="   39.150">  2  3  1 -1</clus>
</clustering>
</event>
<event>
 6    0  0.2433432E+002  0.1268135E+03  0.7546771E-02  0.1232262E+00
         -1   -1    0    0    0  501 -0.00000000000E+00  0.00000000000E+00  0.23260286187E+03  0.23260286187E+03  0.00000000000E+00 0.  1.
         21   -1    0    0  505  502  0.00000000000E+00 -0.00000000000E+00 -0.42329802238E+03  0.42329802238E+03  0.00000000000E+00 0.  1.
         21    1    1    2  503  504  0.32193072415E+02 -0.12422889198E+03 -0.77843826322E+02  0.15009621185E+03  0.00000000000E+00 0.  1.
         21    1    1    2  504  501 -0.56375972592E+02  0.14848501187E+02  0.11249608050E+03  0.12670476077E+03  0.00000000000E+00 0.  1.
         21    1    1    2  505  503  0.64071922701E+02  0.51218246412E+01 -0.25550772526E+03  0.26346848395E+03  0.00000000000E+00 0.  1.
         -1    1    1    2    0  502 -0.39889022524E+02  0.10425856615E+03  0.30160310578E+02  0.11563142768E+03  0.00000000000E+00 0.  1.
<scales pt_clust_3="14000.00000" pt_clust_4="58.29861" pt_clust_5="62.34223" pt_clust_6="126.81348"></scales>
<clustering>
<clus scale="   58.299">  1  4  2 -1</clus>
<clus scale="   62.342">  2  5  1 -1</clus>
<clus scale="  126.813">  1  6  2 -1</clus>
<clus scale="   62.342">  2  3  1 -1</clus>
</clustering>
</event>
<event>
 6    0  0.2433432E+002  0.9475697E+02  0.7546771E-02  0.1291724E+00
         21   -1    0    0  505  502  0.00000000000E+00  0.00000000000E+00  0.19881085733E+02  0.19881085733E+02  0.00000000000E+00 0. -1.
         -1   -1    0    0    0  501 -0.00000000000E+00 -0.00000000000E+00 -0.19710790800E+04  0.19710790800E+04  0.00000000000E+00 0.  1.
         21    1    1    2  503  502 -0.57026053953E+02 -0.40101676609E+02 -0.36325048960E+03  0.36987975545E+03  0.00000000000E+00 0. -1.
         21    1    1    2  504  501 -0.52391599809E+02  0.10575064267E+03 -0.29291961545E+03  0.31580053716E+03  0.00000000000E+00 0. -1.
         21    1    1    2  505  504  0.29590933358E+02 -0.16944189818E+02 -0.84145020455E+02  0.90791593074E+02  0.00000000000E+00 0. -1.
         -1    1    1    2    0  503  0.79826720404E+02 -0.48704776239E+02 -0.12108828687E+04  0.12144882800E+04  0.00000000000E+00 0.  1.
<scales pt_clust_3="67.10552" pt_clust_4="94.75697" pt_clust_5="34.09881" pt_clust_6="14000.00000"></scales>
<clustering>
<clus scale="   34.099">  1  5  2 -1</clus>
<clus scale="   67.106">  1  3  2 -1</clus>
<clus scale="   94.757">  1  4  2 -1</clus>
<clus scale="   34.099">  1  3  2 -1</clus>
</clustering>
</event>
<event>
 6    0  0.2433432E+002  0.1589464E+03  0.7546771E-02  0.1189891E+00
         21   -1    0    0  505  502  0.00000000000E+00  0.00000000000E+00  0.42178762980E+02  0.42178762980E+02  0.00000000000E+00 0.  1.
          2   -1    0    0  504    0 -0.00000000000E+00 -0.00000000000E+00 -0.22680483178E+04  0.22680483178E+04  0.00000000000E+00 0.  1.
         21    1    1    2  503  502 -0.22878742454E+02 -0.86027785811E+02 -0.10582189231E+03  0.13828409048E+03  0.00000000000E+00 0.  1.
         21    1    1    2  504  503 -0.72491404414E+02 -0.44656292807E+02 -0.17360505804E+03  0.19335952104E+03  0.00000000000E+00 0.  1.
         21    1    1    2  505  501  0.15180636925E+03 -0.96025703300E+01 -0.46061048215E+03  0.48507669432E+03  0.00000000000E+00 0.  1.
          2    1    1    2  501    0 -0.56436222386E+02  0.14028664895E+03 -0.14858321223E+04  0.14935067750E+04  0.00000000000E+00 0.  1.
<scales pt_clust_3="74.05807" pt_clust_4="74.05807" pt_clust_5="139.74860" pt_clust_6="151.21307"></scales>
<clustering>
<clus scale="   74.058">  3  4 -1 -1</clus>
<clus scale="  151.213">  2  6  1 -1</clus>
<clus scale="  139.749">  2  5  1 -1</clus>
<clus scale="  158.946">  1  3  2 -1</clus>
</clustering>
</event>
<event>
 6    0  0.2433432E+002  0.8826276E+02  0.7546771E-02  0.1307114E+00
         -3   -1    0    0    0  501 -0.00000000000E+00  0.00000000000E+00  0.94740770636E+03  0.94740770636E+03  0.00000000000E+00 0.  1.
         21   -1    0    0  505  502  0.00000000000E+00 -0.00000000000E+00 -0.11430350985E+03  0.11430350985E+03  0.00000000000E+00 0.  1.
         21    1    1    2  503  501 -0.40081278846E+02 -0.27497888447E+02  0.41557354231E+03  0.41840651507E+03  0.00000000000E+00 0.  1.
         21    1    1    2  504  503  0.84009122301E+02  0.56565387497E+01  0.15806121551E+03  0.17908901951E+03  0.00000000000E+00 0. -1.
         21    1    1    2  505  504  0.33805925195E+02 -0.14870790152E+02 -0.93709544027E+02  0.10072467235E+03  0.00000000000E+00 0.  1.
         -3    1    1    2    0  502 -0.77733768650E+02  0.36712139850E+02  0.35317898271E+03  0.36349100928E+03  0.00000000000E+00 0.  1.
<scales pt_clust_3="47.06544" pt_clust_4="14000.00000" pt_clust_5="36.93211" pt_clust_6="88.26276"></scales>
<clustering>
<clus scale="   36.932">  2  5  1 -1</clus>
<clus scale="   47.065">  1  3  2 -1</clus>
<clus scale="   88.263">  1  6  2 -1</clus>
<clus scale="   36.932">  2  3  1 -1</clus>
</clustering>
</event>
<event>
 6    0  0.2433432E+002  0.1800527E+03  0.7546771E-02  0.1167752E+00
         21   -1    0    0  504  502  0.00000000000E+00  0.00000000000E+00  0.68638460020E+03  0.68638460020E+03  0.00000000000E+00 0. -1.
          2   -1    0    0  503    0 -0.00000000000E+00 -0.00000000000E+00 -0.11654138980E+04  0.11654138980E+04  0.00000000000E+00 0. -1.
         21    1    1    2  503  502 -0.16737809216E+03 -0.51738852423E+02  0.61235093638E+03  0.63691915018E+03  0.00000000000E+00 0. -1.
         21    1    1    2  504  505  0.39510043950E+02  0.41646509808E+01  0.45169266811E+01  0.39984878609E+02  0.00000000000E+00 0.  1.
         21    1    1    2  505  501 -0.13774992931E+02 -0.63897409662E+02 -0.11163441958E+01  0.65374885209E+02  0.00000000000E+00 0.  1.
          2    1    1    2  501    0  0.14164304114E+03  0.11147161110E+03 -0.10947808166E+04  0.11095195842E+04  0.00000000000E+00 0. -1.
<scales pt_clust_3="180.05270" pt_clust_4="39.72893" pt_clust_5="64.79133" pt_clust_6="14000.00000"></scales>
<clustering>
<clus scale="   39.729">  1  4  2 -1</clus>
<clus scale="   64.791">  1  5  2 -1</clus>
<clus scale="  180.053">  1  3  2 -1</clus>
<clus scale="   39.729">  1  3  2 -1</clus>
</clustering>
</event>
<event>
 6    0  0.2645676E+002  0.1177708E+03  0.7546771E-02  0.1246821E+00
         21   -1    0    0  505  502  0.00000000000E+00  0.00000000000E+00  0.88127375409E+03  0.88127375409E+03  0.00000000000E+00 0. -1.
          2   -1    0    0  503    0 -0.00000000000E+00 -0.00000000000E+00 -0.26531265590E+04  0.26531265590E+04  0.00000000000E+00 0.  1.
         21    1    1    2  503  502 -0.64528138712E+02  0.51248046380E+02 -0.13621905647E+02  0.83521250331E+02  0.00000000000E+00 0. -1.
         21    1    1    2  504  501  0.11536364125E+03 -0.42267328522E+02  0.17602217651E+03  0.21466043745E+03  0.00000000000E+00 0. -1.
         21    1    1    2  505  504 -0.85131098065E+01 -0.65120747225E+02  0.64884684543E+03  0.65216210683E+03  0.00000000000E+00 0. -1.
          2    1    1    2  501    0 -0.42322392729E+02  0.56140029367E+02 -0.25830999212E+04  0.25840565185E+04  0.00000000000E+00 0.  1.
<scales pt_clust_3="117.77077" pt_clust_4="14000.00000" pt_clust_5="65.67484" pt_clust_6="70.20858"></scales>
<clustering>
<clus scale="   65.675">  1  5  2 -1</clus>
<clus scale="   70.209">  2  6  1 -1</clus>
<clus scale="  117.771">  2  3  1 -1</clus>
<clus scale="   65.675">  1  3  2 -1</clus>
</clustering>
</event>
<event>
 6    0  0.2433432E+002  0.1083806E+03  0.7546771E-02  0.1263599E+00
          3   -1    0    0  503    0 -0.00000000000E+00  0.00000000000E+00  0.61721455110E+03  0.61721455110E+03  0.00000000000E+00 0.  1.
         21   -1    0    0  505  502  0.00000000000E+00 -0.00000000000E+00 -0.18817543445E+03  0.18817543445E+03  0.00000000000E+00 0. -1.
         21    1    1    2  503  502  0.63003282318E+01  0.11860464180E+03 -0.12466632985E+03  0.17218724979E+03  0.00000000000E+00 0. -1.
         21    1    1    2  504  501 -0.63589625577E+01 -0.43996190882E+02  0.14089615544E+02  0.46632804796E+02  0.00000000000E+00 0.  1.
         21    1    1    2  505  504 -0.29719296789E+02 -0.21529586315E+02 -0.63317749620E+01  0.37240449282E+02  0.00000000000E+00 0.  1.
          3    1    1    2  501    0  0.29777931115E+02 -0.53078864599E+02  0.54594760591E+03  0.54932948169E+03  0.00000000000E+00 0.  1.
<scales pt_clust_3="101.81886" pt_clust_4="33.74387" pt_clust_5="33.74387" pt_clust_6="60.86124"></scales>
<clustering>
<clus scale="   33.744">  4  5 -1 -1</clus>
<clus scale="   60.861">  1  6  2 -1</clus>
<clus scale="  101.819">  2  3  1 -1</clus>
<clus scale="  101.819">  2  3  1 -1</clus>
</clustering>
</event>
<event>
 6    0  0.2433432E+002  0.9535579E+02  0.7546771E-02  0.1290377E+00
         21   -1    0    0  503  502  0.00000000000E+00  0.00000000000E+00  0.28176907368E+02  0.28176907368E+02  0.00000000000E+00 0.  1.
          2   -1    0    0  504    0 -0.00000000000E+00 -0.00000000000E+00 -0.21306188396E+04  0.21306188396E+04  0.00000000000E+00 0.  1.
         21    1    1    2  503  501  0.37213884125E+02 -0.10420069678E+02 -0.15951676194E+03  0.16413119254E+03  0.00000000000E+00 0. -1.
         21    1    1    2  504  505 -0.30787973441E+01 -0.75209460027E+02 -0.22191151188E+03  0.23433023914E+03  0.00000000000E+00 0. -1.
         21    1    1    2  505  502 -0.66198632930E+02  0.11370359750E+03 -0.20416467720E+03  0.24288676889E+03  0.00000000000E+00 0.  1.
          2    1    1    2  501    0  0.32063546149E+02 -0.28074067793E+02 -0.15168489812E+04  0.15174475464E+04  0.00000000000E+00 0.  1.
<scales pt_clust_3="38.64519" pt_clust_4="95.35579" pt_clust_5="14000.00000" pt_clust_6="43.02093"></scales>
<clustering>
<clus scale="   38.645">  1  3  2 -1</clus>
<clus scale="   43.021">  2  6  1 -1</clus>
<clus scale="   95.356">  2  4  1 -1</clus>
<clus scale="   38.645">  1  3  2 -1</clus>
</clustering>
</event>
<event>
 6    0  0.2433432E+002  0.1418525E+03  0.7546771E-02  0.1210858E+00
         21   -1    0    0  505  502  0.00000000000E+00  0.00000000000E+00  0.10815704297E+03  0.10815704297E+03  0.00000000000E+00 0.  1.
          2   -1    0    0  504    0 -0.00000000000E+00 -0.00000000000E+00 -0.25056172052E+04  0.25056172052E+04  0.00000000000E+00 0.  1.
         21    1    1    2  503  501 -0.51242649756E+02 -0.65641827315E+01 -0.32861818558E+02  0.61227418432E+02  0.00000000000E+00 0. -1.
         21    1    1    2  504  502 -0.27978870479E+02 -0.11976510101E+03  0.95712756383E+01  0.12336168745E+03  0.00000000000E+00 0.  1.
         21    1    1    2  505  503  0.33622397256E+02 -0.86493123197E+01  0.13514031444E+02  0.37254600343E+02  0.00000000000E+00 0.  1.
          2    1    1    2  501    0  0.45599122979E+02  0.13497859606E+03 -0.23876836508E+04  0.23919305420E+04  0.00000000000E+00 0.  1.
<scales pt_clust_3="46.18783" pt_clust_4="141.85248" pt_clust_5="34.71709" pt_clust_6="14000.00000"></scales>
<clustering>
<clus scale="   34.717">  1  5  2 -1</clus>
<clus scale="   46.188">  1  3  2 -1</clus>
<clus scale="  141.852">  1  4  2 -1</clus>
<clus scale="   34.717">  1  3  2 -1</clus>
</clustering>
</event>
<event>
 6    0  0.2433432E+002  0.9202401E+02  0.7546771E-02  0.1298023E+00
         21   -1    0    0  505  502  0.00000000000E+00  0.00000000000E+00  0.45616606460E+03  0.45616606460E+03  0.00000000000E+00 0. -1.
         -1   -1    0    0    0  501 -0.00000000000E+00 -0.00000000000E+00 -0.49577707943E+03  0.49577707943E+03  0.00000000000E+00 0. -1.
         21    1    1    2  503  501  0.16754047095E+02 -0.10644940788E+03 -0.16884019092E+03  0.20029773988E+03  0.00000000000E+00 0. -1.
         21    1    1    2  504  503 -0.57803623793E+02  0.34390292543E+02  0.14746743325E+03  0.16208206259E+03  0.00000000000E+00 0. -1.
         21    1    1    2  505  504  0.12237331601E+02  0.48969777411E+02  0.28229417479E+03  0.28677132441E+03  0.00000000000E+00 0. -1.
         -1    1    1    2    0  502  0.28812245097E+02  0.23089337923E+02 -0.30053243196E+03  0.30279201715E+03  0.00000000000E+00 0. -1.
<scales pt_clust_3="92.02401" pt_clust_4="14000.00000" pt_clust_5="50.81519" pt_clust_6="36.92239"></scales>
<clustering>
<clus scale="   36.922">  2  6  1 -1</clus>
<clus scale="   50.815">  1  5  2 -1</clus>
<clus scale="   92.024">  2  3  1 -1</clus>
<clus scale="   50.815">  1  3  2 -1</clus>
</clustering>
</event>
<event>
 6    0  0.2433432E+002  0.1488087E+03  0.7546771E-02  0.1201945E+00
         21   -1    0    0  505  502  0.00000000000E+00  0.00000000000E+00  0.75669892255E+03  0.75669892255E+03  0.00000000000E+00 0. -1.
          2   -1    0    0  503    0 -0.00000000000E+00 -0.00000000000E+00 -0.11704065723E+04  0.11704065723E+04  0.00000000000E+00 0. -1.
         21    1    1    2  503  504 -0.21451281954E+02  0.16343685057E+03  0.20526333098E+03  0.26325804198E+03  0.00000000000E+00 0. -1.
         21    1    1    2  504  502  0.84399651121E+01 -0.13772544990E+03  0.31148350585E+03  0.34067801070E+03  0.00000000000E+00 0. -1.
         21    1    1    2  505  501  0.36148956505E+02 -0.96913025583E+00  0.19443540857E+03  0.19776959922E+03  0.00000000000E+00 0. -1.
          2    1    1    2  501    0 -0.23137639663E+02 -0.24742270410E+02 -0.11248898951E+04  0.11253998430E+04  0.00000000000E+00 0. -1.
<scales pt_clust_3="148.80869" pt_clust_4="14000.00000" pt_clust_5="35.34680" pt_clust_6="33.87522"></scales>
<clustering>
<clus scale="   33.875">  2  6  1 -1</clus>
<clus scale="   35.347">  1  5  2 -1</clus>
<clus scale="  148.809">  2  3  1 -1</clus>
<clus scale="   35.347">  1  3  2 -1</clus>
</clustering>
</event>
<event>
 6    0  0.2433432E+002  0.1549416E+03  0.7546771E-02  0.1194529E+00
         21   -1    0    0  503  502  0.00000000000E+00  0.00000000000E+00  0.16042982961E+04  0.16042982961E+04  0.00000000000E+00 0. -1.
         -1   -1    0    0    0  501 -0.00000000000E+00 -0.00000000000E+00 -0.63341748009E+03  0.63341748009E+03  0.00000000000E+00 0.  1.
         21    1    1    2  503  504 -0.38725197040E+02  0.26658375480E+02  0.87180667945E+02  0.99049375224E+02  0.00000000000E+00 0.  1.
         21    1    1    2  504  501  0.15561220284E+03 -0.11605887091E+02  0.13537429683E+04  0.13627068205E+04  0.00000000000E+00 0. -1.
         21    1    1    2  505  502  0.27092237235E+02 -0.72414373149E+02  0.13271569174E+03  0.15359454935E+03  0.00000000000E+00 0. -1.
         -1    1    1    2    0  505 -0.14397924303E+03  0.57361884761E+02 -0.60275851198E+03  0.62236503116E+03  0.00000000000E+00 0.  1.
<scales pt_clust_3="47.01393" pt_clust_4="154.94164" pt_clust_5="73.70989" pt_clust_6="14000.00000"></scales>
<clustering>
<clus scale="   47.014">  1  3  2 -1</clus>
<clus scale="   73.710">  1  5  2 -1</clus>
<clus scale="  154.942">  1  4  2 -1</clus>
<clus scale="   47.014">  1  3  2 -1</clus>
</clustering>
</event>
<event>
 6    0  0.2433432E+002  0.1645387E+03  0.7546771E-02  0.1183666E+00
         21   -1    0    0  504  502  0.00000000000E+00  0.00000000000E+00  0.86247062497E+02  0.86247062497E+02  0.00000000000E+00 0.  1.
          2   -1    0    0  505    0 -0.00000000000E+00 -0.00000000000E+00 -0.19891388501E+04  0.19891388501E+04  0.00000000000E+00 0. -1.
         21    1    1    2  503  502 -0.95864146512E+01 -0.71249789902E+02 -0.39103960143E+01  0.71998077085E+02  0.00000000000E+00 0.  1.
         21    1    1    2  504  501 -0.52879229889E+02  0.79841386417E+02 -0.14630266532E+03  0.17485802761E+03  0.00000000000E+00 0.  1.
         21    1    1    2  505  503  0.81143609321E+02 -0.13101793838E+03 -0.13138825365E+03  0.20251631714E+03  0.00000000000E+00 0.  1.
          2    1    1    2  501    0 -0.18677964781E+02  0.12242634186E+03 -0.16212904726E+04  0.16260134908E+04  0.00000000000E+00 0. -1.
<scales pt_clust_3="71.69848" pt_clust_4="95.76461" pt_clust_5="71.69848" pt_clust_6="126.70136"></scales>
<clustering>
<clus scale="   71.698">  3  5 -1 -1</clus>
<clus scale="   95.765">  1  4  2 -1</clus>
<clus scale="  126.701">  2  6  1 -1</clus>
<clus scale="   95.765">  1  3  2 -1</clus>
</clustering>
</event>
<event>
 6    0  0.2433432E+002  0.1169515E+03  0.7546771E-02  0.1248212E+00
         -2   -1    0    0    0  501 -0.00000000000E+00  0.00000000000E+00  0.14563454912E+04  0.14563454912E+04  0.00000000000E+00 0. -1.
         21   -1    0    0  505  502  0.00000000000E+00 -0.00000000000E+00 -0.22205158478E+03  0.22205158478E+03  0.00000000000E+00 0.  1.
         21    1    1    2  503  504  0.38253734719E+02 -0.46506215816E+02  0.22358420118E+01  0.60259234305E+02  0.00000000000E+00 0.  1.
         21    1    1    2  504  502 -0.15054742788E+02 -0.38005339117E+02 -0.44892051424E+02  0.60715297602E+02  0.00000000000E+00 0.  1.
         21    1    1    2  505  501  0.39739602830E+02 -0.20198998910E+02 -0.13398591037E+03  0.14120715197E+03  0.00000000000E+00 0.  1.
         -2    1    1    2    0  503 -0.62938594762E+02  0.10471055384E+03  0.14109360262E+04  0.14162153921E+04  0.00000000000E+00 0. -1.
<scales pt_clust_3="116.95154" pt_clust_4="40.87849" pt_clust_5="58.02721" pt_clust_6="14000.00000"></scales>
<clustering>
<clus scale="   40.878">  2  4  1 -1</clus>
<clus scale="   58.027">  2  5  1 -1</clus>
<clus scale="  116.952">  2  3  1 -1</clus>
<clus scale="   40.878">  2  3  1 -1</clus>
</clustering>
</event>
<event>
 6    0  0.2433432E+002  0.9837445E+02  0.7546771E-02  0.1283752E+00
          2   -1    0    0  505    0 -0.00000000000E+00  0.00000000000E+00  0.35161712329E+03  0.35161712329E+03  0.00000000000E+00 0.  1.
         21   -1    0    0  504  502  0.00000000000E+00 -0.00000000000E+00 -0.63818904615E+03  0.63818904615E+03  0.00000000000E+00 0.  1.
         21    1    1    2  503  501  0.10534326926E+03  0.20485767646E+02 -0.29677316279E+03  0.31558070474E+03  0.00000000000E+00 0.  1.
         21    1    1    2  504  503  0.21242877982E+02 -0.28769172144E+02 -0.78646483446E+02  0.86395569847E+02  0.00000000000E+00 0.  1.
         21    1    1    2  505  502 -0.32239538930E+02 -0.19823778966E+02 -0.24082083154E+03  0.24377662518E+03  0.00000000000E+00 0.  1.
          2    1    1    2  501    0 -0.94346608316E+02  0.28107183465E+02  0.32966855492E+03  0.34405326966E+03  0.00000000000E+00 0.  1.
<scales pt_clust_3="14000.00000" pt_clust_4="35.76206" pt_clust_5="39.69443" pt_clust_6="98.37445"></scales>
<clustering>
<clus scale="   35.762">  2  4  1 -1</clus>
<clus scale="   39.694">  2  5  1 -1</clus>
<clus scale="   98.374">  1  6  2 -1</clus>
<clus scale="   35.762">  2  3  1 -1</clus>
</clustering>
</event>
<event>
 6    0  0.2433432E+002  0.1055313E+03  0.7546771E-02  0.1269076E+00
         21   -1    0    0  505  502  0.00000000000E+00  0.00000000000E+00  0.69391604240E+02  0.69391604240E+02  0.00000000000E+00 0.  1.
          2   -1    0    0  503    0 -0.00000000000E+00 -0.00000000000E+00 -0.13757096290E+04  0.13757096290E+04  0.00000000000E+00 0. -1.
         21    1    1    2  503  504 -0.65864069967E+02  0.60502577195E+02 -0.21520456447E+03  0.23304858319E+03  0.00000000000E+00 0. -1.
         21    1    1    2  504  502  0.29931435339E+02  0.20203591035E+02 -0.19582410480E+02  0.41079760374E+02  0.00000000000E+00 0.  1.
         21    1    1    2  505  501  0.61760175853E+01 -0.12879584764E+03 -0.35967348446E+02  0.13386621574E+03  0.00000000000E+00 0.  1.
          2    1    1    2  501    0  0.29756617043E+02  0.48089679414E+02 -0.10355637014E+04  0.10371066739E+04  0.00000000000E+00 0. -1.
<scales pt_clust_3="14000.00000" pt_clust_4="36.11199" pt_clust_5="105.53134" pt_clust_6="56.98506"></scales>
<clustering>
<clus scale="   36.112">  1  4  2 -1</clus>
<clus scale="   56.985">  2  6  1 -1</clus>
<clus scale="  105.531">  1  5  2 -1</clus>
<clus scale="   36.112">  1  3  2 -1</clus>
</clustering>
</event>
<event>
 6    0  0.2433432E+002  0.1404865E+03  0.7546771E-02  0.1212676E+00
         21   -1    0    0  504  502  0.00000000000E+00  0.00000000000E+00  0.28051095173E+02  0.28051095173E+02  0.00000000000E+00 0. -1.
          2   -1    0    0  505    0 -0.00000000000E+00 -0.00000000000E+00 -0.23006879618E+04  0.23006879618E+04  0.00000000000E+00 0. -1.
         21    1    1    2  503  502 -0.14706878075E+02  0.99387151091E+02 -0.30171346289E+03  0.31800174804E+03  0.00000000000E+00 0. -1.
         21    1    1    2  504  501  0.72661418063E+02 -0.93576589129E+02 -0.22394704400E+03  0.25335457017E+03  0.00000000000E+00 0. -1.
         21    1    1    2  505  503 -0.48053170151E+02  0.46053411061E+02 -0.22869642630E+03  0.23818496853E+03  0.00000000000E+00 0. -1.
          2    1    1    2  501    0 -0.99013698380E+01 -0.51863973023E+02 -0.15182799334E+04  0.15191977702E+04  0.00000000000E+00 0. -1.
<scales pt_clust_3="43.96126" pt_clust_4="129.68893" pt_clust_5="43.96126" pt_clust_6="52.80065"></scales>
<clustering>
<clus scale="   43.961">  3  5 -1 -1</clus>
<clus scale="   52.801">  2  6  1 -1</clus>
<clus scale="  129.689">  1  4  2 -1</clus>
<clus scale="  129.689">  1  3  2 -1</clus>
</clustering>
</event>
<event>
 6    0  0.2433432E+002  0.9567238E+02  0.7546771E-02  0.1289669E+00
          1   -1    0    0  504    0 -0.00000000000E+00  0.00000000000E+00  0.84157494149E+03  0.84157494149E+03  0.00000000000E+00 0.  1.
         21   -1    0    0  503  502  0.00000000000E+00 -0.00000000000E+00 -0.18028632681E+03  0.18028632681E+03  0.00000000000E+00 0. -1.
         21    1    1    2  503  501 -0.61689528614E+02  0.10721185807E+03 -0.35686408267E+02  0.12873810697E+03  0.00000000000E+00 0. -1.
         21    1    1    2  504  505 -0.18008201179E+01  0.31743934724E+02  0.37079165915E+02  0.48844497027E+02  0.00000000000E+00 0. -1.
         21    1    1    2  505  502  0.15431700169E+02 -0.29046655945E+02 -0.84293465020E+02  0.90483334581E+02  0.00000000000E+00 0. -1.
          1    1    1    2  501    0  0.48058648563E+02 -0.10990913685E+03  0.74418932204E+03  0.75379532972E+03  0.00000000000E+00 0.  1.
<scales pt_clust_3="14000.00000" pt_clust_4="31.79497" pt_clust_5="32.77955" pt_clust_6="95.67238"></scales>
<clustering>
<clus scale="   31.795">  1  4  2 -1</clus>
<clus scale="   32.780">  2  5  1 -1</clus>
<clus scale="   95.672">  1  6  2 -1</clus>
<clus scale="   32.780">  2  3  1 -1</clus>
</clustering>
</event>
<event>
 6    0  0.2433432E+002  0.8596324E+02  0.7546771E-02  0.1312933E+00
         -3   -1    0    0    0  501 -0.00000000000E+00  0.00000000000E+00  0.15859505353E+03  0.15859505353E+03  0.00000000000E+00 0.  1.
         21   -1    0    0  503  502  0.00000000000E+00 -0.00000000000E+00 -0.27385328042E+03  0.27385328042E+03  0.00000000000E+00 0. -1.
         21    1    1    2  503  505  0.57864593340E+02  0.70167122207E+02 -0.86264061835E+02  0.12535240151E+03  0.00000000000E+00 0. -1.
         21    1    1    2  504  502 -0.32538914187E+02  0.17197219923E+02 -0.12747153897E+03  0.13267825201E+03  0.00000000000E+00 0. -1.
         21    1    1    2  505  501  0.42369893748E+02 -0.41382781787E+02  0.24472496545E+02  0.64083114873E+02  0.00000000000E+00 0. -1.
         -3    1    1    2    0  504 -0.67695572900E+02 -0.45981560343E+02  0.74004877370E+02  0.11033456556E+03  0.00000000000E+00 0.  1.
<scales pt_clust_3="14000.00000" pt_clust_4="36.80388" pt_clust_5="54.38346" pt_clust_6="85.96324"></scales>
<clustering>
<clus scale="   36.804">  2  4  1 -1</clus>
<clus scale="   54.383">  1  5  2 -1</clus>
<clus scale="   85.963">  1  6  2 -1</clus>
<clus scale="   36.804">  2  3  1 -1</clus>
</clustering>
</event>
<event>
 6    0  0.2433432E+002  0.2262623E+03  0.7546771E-02  0.1129299E+00
          2   -1    0    0  505    0 -0.00000000000E+00  0.00000000000E+00  0.19136194445E+04  0.19136194445E+04  0.00000000000E+00 0. -1.
         21   -1    0    0  504  502  0.00000000000E+00 -0.00000000000E+00 -0.15793483432E+03  0.15793483432E+03  0.00000000000E+00 0. -1.
         21    1    1    2  503  502  0.25839818252E+02 -0.31435953803E+02 -0.26653773407E+02  0.48645030945E+02  0.00000000000E+00 0. -1.
         21    1    1    2  504  501 -0.12845606483E+03  0.22066677481E+03  0.14765733763E+03  0.29495334454E+03  0.00000000000E+00 0. -1.
         21    1    1    2  505  503  0.59779748503E+02 -0.19886478405E+03  0.18650540705E+03  0.27911482856E+03  0.00000000000E+00 0. -1.
          2    1    1    2  501    0  0.42836498075E+02  0.96339630346E+01  0.14481756389E+04  0.14488410748E+04  0.00000000000E+00 0. -1.
<scales pt_clust_3="40.69294" pt_clust_4="14000.00000" pt_clust_5="226.26226" pt_clust_6="43.95725"></scales>
<clustering>
<clus scale="   40.693">  2  3  1 -1</clus>
<clus scale="   43.957">  1  6  2 -1</clus>
<clus scale="  226.262">  1  5  2 -1</clus>
<clus scale="   40.693">  2  3  1 -1</clus>
</clustering>
</event>
<event>
 6    0  0.2433432E+002  0.1009472E+03  0.7546771E-02  0.1278317E+00
          2   -1    0    0  504    0 -0.00000000000E+00  0.00000000000E+00  0.65951490139E+03  0.65951490139E+03  0.00000000000E+00 0.  1.
         21   -1    0    0  503  502  0.00000000000E+00 -0.00000000000E+00 -0.99582755704E+02  0.99582755704E+02  0.00000000000E+00 0. -1.
         21    1    1    2  503  501 -0.15455793620E+02  0.34982663096E+02 -0.35735467120E+02  0.52342066103E+02  0.00000000000E+00 0. -1.
         21    1    1    2  504  505  0.55055674871E+02 -0.75627567115E+02  0.11217752744E+03  0.14606318463E+03  0.00000000000E+00 0.  1.
         21    1    1    2  505  502  0.48424772164E+02 -0.16425452261E+02 -0.13389880666E+02  0.52858707375E+02  0.00000000000E+00 0. -1.
          2    1    1    2  501    0 -0.88024653415E+02  0.57070356280E+02  0.49687996604E+03  0.50783369898E+03  0.00000000000E+00 0.  1.
<scales pt_clust_3="38.24485" pt_clust_4="14000.00000" pt_clust_5="39.45778" pt_clust_6="100.94715"></scales>
<clustering>
<clus scale="   38.245">  2  3  1 -1</clus>
<clus scale="   39.458">  2  5  1 -1</clus>
<clus scale="  100.947">  1  6  2 -1</clus>
<clus scale="   38.245">  2  3  1 -1</clus>
</clustering>
</event>
<event>
 6    0  0.2433432E+002  0.7799492E+02  0.7546771E-02  0.1334840E+00
          1   -1    0    0  504    0 -0.00000000000E+00  0.00000000000E+00  0.19185970725E+03  0.19185970725E+03  0.00000000000E+00 0. -1.
         21   -1    0    0  503  502  0.00000000000E+00 -0.00000000000E+00 -0.54292732729E+03  0.54292732729E+03  0.00000000000E+00 0.  1.
         21    1    1    2  503  501 -0.38817113165E+02 -0.69493585972E+02 -0.37931892505E+03  0.38758092531E+03  0.00000000000E+00 0.  1.
         21    1    1    2  504  505  0.45113414876E+02  0.33022251278E+02 -0.10103749167E+03  0.11547408369E+03  0.00000000000E+00 0.  1.
         21    1    1    2  505  502  0.27874224854E+02 -0.34480637887E+02 -0.30346250695E+02  0.53728779360E+02  0.00000000000E+00 0.  1.
          1    1    1    2  501    0 -0.34170526565E+02  0.70951972580E+02  0.15963504738E+03  0.17800324618E+03  0.00000000000E+00 0. -1.
<scales pt_clust_3="77.99492" pt_clust_4="57.17430" pt_clust_5="44.33832" pt_clust_6="14000.00000"></scales>
<clustering>
<clus scale="   44.338">  2  5  1 -1</clus>
<clus scale="   57.174">  2  4  1 -1</clus>
<clus scale="   77.995">  2  3  1 -1</clus>
<clus scale="   44.338">  2  3  1 -1</clus>
</clustering>
</event>
<event>
 6    0  0.2433432E+002  0.1317084E+03  0.7546771E-02  0.1224943E+00
          2   -1    0    0  503    0 -0.00000000000E+00  0.00000000000E+00  0.17648860749E+04  0.17648860749E+04  0.00000000000E+00 0. -1.
         21   -1    0    0  504  502  0.00000000000E+00 -0.00000000000E+00 -0.49861874123E+02  0.49861874123E+02  0.00000000000E+00 0. -1.
         21    1    1    2  503  505 -0.56149179062E+02 -0.56937444063E+02  0.23256581281E+03  0.24592978700E+03  0.00000000000E+00 0. -1.
         21    1    1    2  504  501  0.11431612070E+03 -0.65972800070E+02  0.20878822023E+03  0.24700831303E+03  0.00000000000E+00 0. -1.
         21    1    1    2  505  502 -0.70376382233E+02 -0.23259046175E+02  0.50064850877E+02  0.89444439170E+02  0.00000000000E+00 0. -1.
          2    1    1    2  501    0  0.12209440591E+02  0.14616929031E+03  0.12236053169E+04  0.12323654098E+04  0.00000000000E+00 0. -1.
<scales pt_clust_3="94.87294" pt_clust_4="14000.00000" pt_clust_5="74.12030" pt_clust_6="131.70838"></scales>
<clustering>
<clus scale="   74.120">  2  5  1 -1</clus>
<clus scale="   94.873">  2  3  1 -1</clus>
<clus scale="  131.708">  1  6  2 -1</clus>
<clus scale="   74.120">  2  3  1 -1</clus>
</clustering>
</event>
<event>
 6    0  0.2433432E+002  0.1383857E+03  0.7546771E-02  0.1215518E+00
         -3   -1    0    0    0  501 -0.00000000000E+00  0.00000000000E+00  0.70297986029E+03  0.70297986029E+03  0.00000000000E+00 0. -1.
         21   -1    0    0  504  502  0.00000000000E+00 -0.00000000000E+00 -0.82928188721E+02  0.82928188721E+02  0.00000000000E+00 0. -1.
         21    1    1    2  503  501 -0.33404468518E+02  0.53658936710E+02  0.14913005674E+03  0.16197195384E+03  0.00000000000E+00 0. -1.
         21    1    1    2  504  503 -0.11606919582E+03 -0.86609187962E+00  0.29777737702E+03  0.31960002283E+03  0.00000000000E+00 0. -1.
         21    1    1    2  505  502  0.10104944167E+03  0.37939114230E+02  0.60229365320E+01  0.10810477240E+03  0.00000000000E+00 0. -1.
         -3    1    1    2    0  505  0.48424222662E+02 -0.90731959061E+02  0.16712130128E+03  0.19623129994E+03  0.00000000000E+00 0. -1.
<scales pt_clust_3="61.98595" pt_clust_4="61.98595" pt_clust_5="109.97617" pt_clust_6="102.84548"></scales>
<clustering>
<clus scale="   61.986">  3  4 -1 -1</clus>
<clus scale="  102.845">  1  6  2 -1</clus>
<clus scale="  109.976">  2  5  1 -1</clus>
<clus scale="  109.976">  2  3  1 -1</clus>
</clustering>
</event>
<event>
 6    0  0.2433432E+002  0.3383139E+03  0.7546771E-02  0.1067516E+00
         21   -1    0    0  504  502  0.00000000000E+00  0.00000000000E+00  0.24310600362E+03  0.24310600362E+03  0.00000000000E+00 0. -1.
          2   -1    0    0  502    0 -0.00000000000E+00 -0.00000000000E+00 -0.12725019434E+04  0.12725019434E+04  0.00000000000E+00 0.  1.
         21    1    1    2  503  505  0.17023328065E+03  0.12154907840E+03  0.28311822144E+02  0.21108080816E+03  0.00000000000E+00 0. -1.
         21    1    1    2  504  503  0.36610775370E+02  0.10908112953E+02  0.66302925421E+02  0.76520675120E+02  0.00000000000E+00 0. -1.
         21    1    1    2  505  501  0.88321172248E+02 -0.15902310910E+01 -0.40068139311E+02  0.96998010753E+02  0.00000000000E+00 0.  1.
          2    1    1    2  501    0 -0.29516522827E+03 -0.13086696026E+03 -0.10839425480E+04  0.11310084530E+04  0.00000000000E+00 0.  1.
<scales pt_clust_3="73.80444" pt_clust_4="38.20125" pt_clust_5="73.80444" pt_clust_6="317.68302"></scales>
<clustering>
<clus scale="   38.201">  1  4  2 -1</clus>
<clus scale="   73.804">  3  5 -1 -1</clus>
<clus scale="  317.683">  2  6  1 -1</clus>
<clus scale="   38.201">  1  3  2 -1</clus>
</clustering>
</event>
<event>
 6    0  0.2433432E+002  0.1164685E+03  0.7546771E-02  0.1249039E+00
         21   -1    0    0  503  502  0.00000000000E+00  0.00000000000E+00  0.23271994736E+03  0.23271994736E+03  0.00000000000E+00 0.  1.
          2   -1    0    0  502    0 -0.00000000000E+00 -0.00000000000E+00 -0.64748274568E+03  0.64748274568E+03  0.00000000000E+00 0.  1.
         21    1    1    2  503  505 -0.45672400562E+02  0.16878901920E+02 -0.63053799597E+01  0.49098098941E+02  0.00000000000E+00 0.  1.
         21    1    1    2  504  501  0.17439798085E+02 -0.52048353941E+02  0.10391342785E+03  0.11752096916E+03  0.00000000000E+00 0.  1.
         21    1    1    2  505  504 -0.24049416585E+02 -0.59012456206E+02  0.85192403923E+02  0.10638886272E+03  0.00000000000E+00 0.  1.
          2    1    1    2  501    0  0.52282019063E+02  0.94181908226E+02 -0.59756325013E+03  0.60719476221E+03  0.00000000000E+00 0.  1.
<scales pt_clust_3="48.69153" pt_clust_4="41.46929" pt_clust_5="41.46929" pt_clust_6="107.55694"></scales>
<clustering>
<clus scale="   41.469">  4  5 -1 -1</clus>
<clus scale="   48.692">  1  3  2 -1</clus>
<clus scale="  107.557">  2  6  1 -1</clus>
<clus scale="   48.692">  1  3  2 -1</clus>
</clustering>
</event>
<event>
 6    0  0.2433432E+002  0.1044612E+03  0.7546771E-02  0.1271185E+00
          2   -1    0    0  505    0 -0.00000000000E+00  0.00000000000E+00  0.12458784656E+04  0.12458784656E+04  0.00000000000E+00 0.  1.
         21   -1    0    0  503  502  0.00000000000E+00 -0.00000000000E+00 -0.38483270732E+02  0.38483270732E+02  0.00000000000E+00 0.  1.
         21    1    1    2  503  501 -0.17288426070E+02 -0.12468104145E+03  0.22899066291E+03  0.26130628671E+03  0.00000000000E+00 0.  1.
         21    1    1    2  504  502 -0.34293422264E+01  0.94165046477E+02  0.10581276947E+03  0.14168683266E+03  0.00000000000E+00 0.  1.
         21    1    1    2  505  504 -0.35553228421E+02 -0.60811244861E+01  0.10859105495E+03  0.11442477590E+03  0.00000000000E+00 0. -1.
          2    1    1    2  501    0  0.56270996717E+02  0.36597119457E+02  0.76400070756E+03  0.76694384109E+03  0.00000000000E+00 0.  1.
<scales pt_clust_3="104.46122" pt_clust_4="14000.00000" pt_clust_5="36.06955" pt_clust_6="45.80188"></scales>
<clustering>
<clus scale="   36.070">  1  5  2 -1</clus>
<clus scale="   45.802">  1  6  2 -1</clus>
<clus scale="  104.461">  1  3  2 -1</clus>
<clus scale="  104.461">  2  3  1 -1</clus>
</clustering>
</event>
<event>
 6    0  0.2433432E+002  0.1079831E+03  0.7546771E-02  0.1264351E+00
         21   -1    0    0  504  502  0.00000000000E+00  0.00000000000E+00  0.78083205024E+03  0.78083205024E+03  0.00000000000E+00 0.  1.
          2   -1    0    0  502    0 -0.00000000000E+00 -0.00000000000E+00 -0.22391072261E+03  0.22391072261E+03  0.00000000000E+00 0. -1.
         21    1    1    2  503  505  0.64051327881E+02 -0.39653288062E+02  0.90157063186E+02  0.11748724143E+03  0.00000000000E+00 0.  1.
         21    1    1    2  504  503 -0.43141624028E+02 -0.29244805494E+02  0.64036752518E+03  0.64248503926E+03  0.00000000000E+00 0.  1.
         21    1    1    2  505  501  0.39321870027E+02 -0.33244430397E+01  0.79974342385E+01  0.40264380517E+02  0.00000000000E+00 0. -1.
          2    1    1    2  501    0 -0.60231573881E+02  0.72222536595E+02 -0.18160069497E+03  0.20450611164E+03  0.00000000000E+00 0. -1.
<scales pt_clust_3="37.73442" pt_clust_4="52.11965" pt_clust_5="37.73442" pt_clust_6="94.56312"></scales>
<clustering>
<clus scale="   37.734">  3  5 -1 -1</clus>
<clus scale="   52.120">  1  4  2 -1</clus>
<clus scale="   94.563">  2  6  1 -1</clus>
<clus scale="   52.120">  1  3  2 -1</clus>
</clustering>
</event>
<event>
 6    0  0.2433432E+002  0.6666201E+02  0.7546771E-02  0.1371827E+00
          2   -1    0    0  503    0 -0.00000000000E+00  0.00000000000E+00  0.12016173477E+04  0.12016173477E+04  0.00000000000E+00 0. -1.
         21   -1    0    0  505  502  0.00000000000E+00 -0.00000000000E+00 -0.26014415672E+02  0.26014415672E+02  0.00000000000E+00 0. -1.
         21    1    1    2  503  504  0.15869255098E+02  0.51031463804E+02  0.22025793433E+03  0.22664862936E+03  0.00000000000E+00 0.  1.
         21    1    1    2  504  502  0.39917420514E+02  0.32547640191E+02  0.29007302228E+02  0.59111529544E+02  0.00000000000E+00 0. -1.
         21    1    1    2  505  501 -0.25834789983E+02  0.30312467024E+02  0.10811768054E+03  0.11522028847E+03  0.00000000000E+00 0.  1.
          2    1    1    2  501    0 -0.29951885630E+02 -0.11389157102E+03  0.81822001494E+03  0.82665131601E+03  0.00000000000E+00 0. -1.
<scales pt_clust_3="56.67089" pt_clust_4="14000.00000" pt_clust_5="39.82816" pt_clust_6="66.66201"></scales>
<clustering>
<clus scale="   39.828">  2  5  1 -1</clus>
<clus scale="   56.671">  1  3  2 -1</clus>
<clus scale="   66.662">  1  6  2 -1</clus>
<clus scale="   39.828">  2  3  1 -1</clus>
</clustering>
</event>
<event>
 6    0  0.2433432E+002  0.1025532E+03  0.7546771E-02  0.1275017E+00
         21   -1    0    0  505  502  0.00000000000E+00  0.00000000000E+00  0.17868454259E+04  0.17868454259E+04  0.00000000000E+00 0.  1.
          2   -1    0    0  504    0 -0.00000000000E+00 -0.00000000000E+00 -0.67882627663E+02  0.67882627663E+02  0.00000000000E+00 0. -1.
         21    1    1    2  503  501 -0.63605269200E+02 -0.40942512306E+02  0.24907815389E+03  0.26031105687E+03  0.00000000000E+00 0.  1.
         21    1    1    2  504  502  0.80660132243E+02  0.11193699061E+03  0.11661990362E+04  0.11743322098E+04  0.00000000000E+00 0.  1.
         21    1    1    2  505  503 -0.33469031733E+02 -0.66685746467E+01  0.34182342991E+03  0.34352278412E+03  0.00000000000E+00 0.  1.
          2    1    1    2  501    0  0.16414168691E+02 -0.64325903660E+02 -0.38137821822E+02  0.76562002774E+02  0.00000000000E+00 0. -1.
<scales pt_clust_3="102.55323" pt_clust_4="14000.00000" pt_clust_5="34.12691" pt_clust_6="66.36452"></scales>
<clustering>
<clus scale="   34.127">  1  5  2 -1</clus>
<clus scale="   66.365">  2  6  1 -1</clus>
<clus scale="  102.553">  2  3  1 -1</clus>
<clus scale="   34.127">  1  3  2 -1</clus>
</clustering>
</event>
<event>
 6    0  0.2433432E+002  0.8749195E+02  0.7546771E-02  0.1309042E+00
          2   -1    0    0  504    0 -0.00000000000E+00  0.00000000000E+00  0.99643284962E+03  0.99643284962E+03  0.00000000000E+00 0. -1.
         21   -1    0    0  503  502  0.00000000000E+00 -0.00000000000E+00 -0.86666409358E+02  0.86666409358E+02  0.00000000000E+00 0. -1.
         21    1    1    2  503  501  0.39731206367E+02 -0.56383243048E+02 -0.61570892004E+02  0.92458712938E+02  0.00000000000E+00 0. -1.
         21    1    1    2  504  505 -0.16889503086E+02  0.75839666344E+02  0.57790467138E+03  0.58310438132E+03  0.00000000000E+00 0. -1.
         21    1    1    2  505  502 -0.19559622731E+01  0.40922170515E+02  0.12236826179E+03  0.12904433859E+03  0.00000000000E+00 0. -1.
          2    1    1    2  501    0 -0.20885741008E+02 -0.60378593811E+02  0.27106439910E+03  0.27849182614E+03  0.00000000000E+00 0. -1.
<scales pt_clust_3="69.78325" pt_clust_4="38.32189" pt_clust_5="38.32189" pt_clust_6="63.88888"></scales>
<clustering>
<clus scale="   38.322">  4  5 -1 -1</clus>
<clus scale="   63.889">  1  6  2 -1</clus>
<clus scale="   69.783">  2  3  1 -1</clus>
<clus scale="   69.783">  2  3  1 -1</clus>
</clustering>
</event>
<event>
 6    0  0.2433432E+002  0.7601534E+02  0.7546771E-02  0.1340755E+00
          2   -1    0    0  503    0 -0.00000000000E+00  0.00000000000E+00  0.20719244122E+04  0.20719244122E+04  0.00000000000E+00 0.  1.
         21   -1    0    0  504  502  0.00000000000E+00 -0.00000000000E+00 -0.48496121250E+03  0.48496121250E+03  0.00000000000E+00 0. -1.
         21    1    1    2  503  502 -0.47903634751E+02  0.23190428727E+02 -0.39959140893E+03  0.40312014127E+03  0.00000000000E+00 0. -1.
         21    1    1    2  504  505  0.25054494086E+02  0.51611655046E+02 -0.20585514285E+02  0.60952883516E+02  0.00000000000E+00 0. -1.
         21    1    1    2  505  501  0.48156860628E+02 -0.11693622906E+03  0.51489207493E+02  0.13654414444E+03  0.00000000000E+00 0. -1.
          2    1    1    2  501    0 -0.25307719963E+02  0.42134145291E+02  0.19556509155E+04  0.19562684555E+04  0.00000000000E+00 0.  1.
<scales pt_clust_3="53.84920" pt_clust_4="76.01534" pt_clust_5="14000.00000" pt_clust_6="49.15045"></scales>
<clustering>
<clus scale="   49.150">  1  6  2 -1</clus>
<clus scale="   53.849">  2  3  1 -1</clus>
<clus scale="   76.015">  2  4  1 -1</clus>
<clus scale="   53.849">  2  3  1 -1</clus>
</clustering>
</event>
<event>
 6    0  0.2433432E+002  0.6136949E+02  0.7546771E-02  0.1392173E+00
          1   -1    0    0  504    0 -0.00000000000E+00  0.00000000000E+00  0.44393458432E+04  0.44393458432E+04  0.00000000000E+00 0. -1.
         21   -1    0    0  503  502  0.00000000000E+00 -0.00000000000E+00 -0.18636113863E+02  0.18636113863E+02  0.00000000000E+00 0. -1.
         21    1    1    2  503  505  0.65554657729E+02 -0.43268086834E+01  0.10178767715E+04  0.10199947335E+04  0.00000000000E+00 0. -1.
         21    1    1    2  504  502 -0.36545042199E+02 -0.33222767562E+02  0.22360306527E+02  0.54215087400E+02  0.00000000000E+00 0. -1.
         21    1    1    2  505  501 -0.81059682561E+01  0.87982824983E+02  0.15768840225E+04  0.15793574341E+04  0.00000000000E+00 0. -1.
          1    1    1    2  501    0 -0.20903647274E+02 -0.50433248738E+02  0.18035886288E+04  0.18044147020E+04  0.00000000000E+00 0. -1.
<scales pt_clust_3="54.11244" pt_clust_4="49.38919" pt_clust_5="14000.00000" pt_clust_6="61.36949"></scales>
<clustering>
<clus scale="   49.389">  2  4  1 -1</clus>
<clus scale="   54.112">  2  3  1 -1</clus>
<clus scale="   61.369">  1  6  2 -1</clus>
<clus scale="   49.389">  2  3  1 -1</clus>
</clustering>
</event>
<event>
 6    0  0.2433432E+002  0.2130932E+03  0.7546771E-02  0.1139140E+00
          3   -1    0    0  502    0 -0.00000000000E+00  0.00000000000E+00  0.80571166065E+03  0.80571166065E+03  0.00000000000E+00 0. -1.
         21   -1    0    0  504  502  0.00000000000E+00 -0.00000000000E+00 -0.68880334540E+03  0.68880334540E+03  0.00000000000E+00 0.  1.
         21    1    1    2  503  505 -0.95478438237E+02  0.23803558679E+02 -0.14384528735E+03  0.17428197918E+03  0.00000000000E+00 0.  1.
         21    1    1    2  504  503 -0.55232770243E+02  0.77632644569E+02 -0.16862183784E+03  0.19367707817E+03  0.00000000000E+00 0.  1.
         21    1    1    2  505  501  0.16154878334E+03 -0.16681279440E+03 -0.30826608988E+03  0.38594364866E+03  0.00000000000E+00 0.  1.
          3    1    1    2  501    0 -0.10837574855E+02  0.65376591150E+02  0.73764153033E+03  0.74061230004E+03  0.00000000000E+00 0. -1.
<scales pt_clust_3="68.54100" pt_clust_4="68.54100" pt_clust_5="201.62766" pt_clust_6="66.26878"></scales>
<clustering>
<clus scale="   66.269">  1  6  2 -1</clus>
<clus scale="   68.541">  3  4 -1 -1</clus>
<clus scale="  201.628">  1  5  2 -1</clus>
<clus scale="  213.093">  2  3  1 -1</clus>
</clustering>
</event>
<event>
 6    0  0.2433432E+002  0.1144804E+03  0.7546771E-02  0.1252491E+00
          2   -1    0    0  505    0 -0.00000000000E+00  0.00000000000E+00  0.67337946526E+03  0.67337946526E+03  0.00000000000E+00 0.  1.
         21   -1    0    0  504  502  0.00000000000E+00 -0.00000000000E+00 -0.11049823897E+03  0.11049823897E+03  0.00000000000E+00 0. -1.
         21    1    1    2  503  501  0.12432172128E+03 -0.54617429958E+02  0.11753203982E+03  0.17959046306E+03  0.00000000000E+00 0. -1.
         21    1    1    2  504  503 -0.10728090131E+03 -0.80562493001E+02  0.80881356313E+02  0.15665663364E+03  0.00000000000E+00 0. -1.
         21    1    1    2  505  502  0.12465655019E+02  0.34274733031E+02 -0.25003883492E+02  0.44219272598E+02  0.00000000000E+00 0. -1.
          2    1    1    2  501    0 -0.29506474992E+02  0.10090518993E+03  0.38947171365E+03  0.40341133494E+03  0.00000000000E+00 0.  1.
<scales pt_clust_3="14000.00000" pt_clust_4="114.48043" pt_clust_5="36.47122" pt_clust_6="107.84914"></scales>
<clustering>
<clus scale="   36.471">  2  5  1 -1</clus>
<clus scale="  107.849">  1  6  2 -1</clus>
<clus scale="  114.480">  2  4  1 -1</clus>
<clus scale="   36.471">  2  3  1 -1</clus>
</clustering>
</event>
<event>
 6    0  0.2433432E+002  0.6378801E+02  0.7546771E-02  0.1382589E+00
          2   -1    0    0  503    0 -0.00000000000E+00  0.00000000000E+00  0.29382432423E+04  0.29382432423E+04  0.00000000000E+00 0. -1.
         21   -1    0    0  504  502  0.00000000000E+00 -0.00000000000E+00 -0.67409526148E+02  0.67409526148E+02  0.00000000000E+00 0.  1.
         21    1    1    2  503  502  0.19725453897E+02 -0.44808512044E+02  0.89873285924E+02  0.10234306916E+03  0.00000000000E+00 0.  1.
         21    1    1    2  504  505 -0.60638911656E+01  0.10284765863E+03  0.15996351565E+02  0.10426070653E+03  0.00000000000E+00 0.  1.
         21    1    1    2  505  501  0.44483370093E+02 -0.31816104775E+02  0.28183379209E+02  0.61525097331E+02  0.00000000000E+00 0.  1.
          2    1    1    2  501    0 -0.58144932824E+02 -0.26223041811E+02  0.27367806995E+04  0.27375238954E+04  0.00000000000E+00 0. -1.
<scales pt_clust_3="48.95811" pt_clust_4="60.86588" pt_clust_5="14000.00000" pt_clust_6="63.78801"></scales>
<clustering>
<clus scale="   48.958">  2  3  1 -1</clus>
<clus scale="   63.788">  1  6  2 -1</clus>
<clus scale="   60.866">  2  4  1 -1</clus>
<clus scale="   48.958">  2  3  1 -1</clus>
</clustering>
</event>
<event>
 6    0  0.2433432E+002  0.1181780E+03  0.7546771E-02  0.1246133E+00
         21   -1    0    0  503  502  0.00000000000E+00  0.00000000000E+00  0.71414905101E+03  0.71414905101E+03  0.00000000000E+00 0.  1.
         -4   -1    0    0    0  501 -0.00000000000E+00 -0.00000000000E+00 -0.27300824706E+03  0.27300824706E+03  0.00000000000E+00 0.  1.
         21    1    1    2  503  505 -0.61136853852E+01  0.38289125313E+02  0.25779427349E+03  0.26069392343E+03  0.00000000000E+00 0.  1.
         21    1    1    2  504  502 -0.34664701461E+02  0.17203941019E+02  0.72082228332E+02  0.81813597619E+02  0.00000000000E+00 0.  1.
         21    1    1    2  505  501  0.44769535473E+02  0.54025436079E+02  0.36319734296E+03  0.36991265048E+03  0.00000000000E+00 0.  1.
         -4    1    1    2    0  504 -0.39911486267E+01 -0.10951850241E+03 -0.25193304083E+03  0.27473712654E+03  0.00000000000E+00 0.  1.
<scales pt_clust_3="33.39278" pt_clust_4="38.69906" pt_clust_5="33.39278" pt_clust_6="109.30797"></scales>
<clustering>
<clus scale="   33.393">  3  5 -1 -1</clus>
<clus scale="   38.699">  1  4  2 -1</clus>
<clus scale="  109.308">  2  6  1 -1</clus>
<clus scale="   38.699">  1  3  2 -1</clus>
</clustering>
</event>
<event>
 6    0  0.2433432E+002  0.1605544E+03  0.7546771E-02  0.1188072E+00
          1   -1    0    0  504    0 -0.00000000000E+00  0.00000000000E+00  0.43339917356E+03  0.43339917356E+03  0.00000000000E+00 0. -1.
         21   -1    0    0  503  502  0.00000000000E+00 -0.00000000000E+00 -0.63241661624E+03  0.63241661624E+03  0.00000000000E+00 0. -1.
         21    1    1    2  503  501  0.44556375478E+02 -0.13768319417E+03  0.91481035720E+01  0.14500213913E+03  0.00000000000E+00 0.  1.
         21    1    1    2  504  505  0.85658400201E+01  0.60488546099E+02 -0.15219466056E+03  0.16399833087E+03  0.00000000000E+00 0. -1.
         21    1    1    2  505  502 -0.23366077607E+02  0.93903764079E+02 -0.39977595185E+03  0.41132068046E+03  0.00000000000E+00 0. -1.
          1    1    1    2  501    0 -0.29756137891E+02 -0.16709116010E+02  0.34380506616E+03  0.34549463935E+03  0.00000000000E+00 0. -1.
<scales pt_clust_3="153.34065" pt_clust_4="37.49875" pt_clust_5="37.49875" pt_clust_6="34.12656"></scales>
<clustering>
<clus scale="   34.127">  1  6  2 -1</clus>
<clus scale="   37.499">  4  5 -1 -1</clus>
<clus scale="  153.341">  1  3  2 -1</clus>
<clus scale="  160.554">  2  3  1 -1</clus>
</clustering>
</event>
<event>
 6    0  0.2433432E+002  0.5646247E+02  0.7546771E-02  0.1413307E+00
         21   -1    0    0  503  502  0.00000000000E+00  0.00000000000E+00  0.10967162803E+03  0.10967162803E+03  0.00000000000E+00 0. -1.
         -1   -1    0    0    0  501 -0.00000000000E+00 -0.00000000000E+00 -0.15575661623E+04  0.15575661623E+04  0.00000000000E+00 0. -1.
         21    1    1    2  503  505  0.25782358268E+02  0.33598628536E+02  0.10592169027E+02  0.43655376325E+02  0.00000000000E+00 0. -1.
         21    1    1    2  504  502  0.35017718423E+02 -0.20927877129E+02  0.31330322992E+02  0.51437396741E+02  0.00000000000E+00 0. -1.
         21    1    1    2  505  501 -0.11560690047E+03 -0.26633600114E+01 -0.41654386759E+02  0.12291109331E+03  0.00000000000E+00 0.  1.
         -1    1    1    2    0  504  0.54806823775E+02 -0.10007391395E+02 -0.14481626395E+04  0.14492339239E+04  0.00000000000E+00 0. -1.
<scales pt_clust_3="47.06155" pt_clust_4="40.79481" pt_clust_5="14000.00000" pt_clust_6="56.46247"></scales>
<clustering>
<clus scale="   40.795">  1  4  2 -1</clus>
<clus scale="   47.062">  1  3  2 -1</clus>
<clus scale="   56.462">  2  6  1 -1</clus>
<clus scale="   40.795">  1  3  2 -1</clus>
</clustering>
</event>
<event>
 6    0  0.2433432E+002  0.1222524E+03  0.7546771E-02  0.1239427E+00
         21   -1    0    0  501  502  0.00000000000E+00  0.00000000000E+00  0.32052827163E+02  0.32052827163E+02  0.00000000000E+00 0.  1.
          1   -1    0    0  505    0 -0.00000000000E+00 -0.00000000000E+00 -0.18822592855E+04  0.18822592855E+04  0.00000000000E+00 0.  1.
         21    1    1    2  503  504  0.89248086979E-01 -0.71773427896E+02 -0.96240141623E+02  0.12005664403E+03  0.00000000000E+00 0.  1.
         21    1    1    2  504  502  0.17493229481E+02  0.27096822803E+02 -0.15020690208E+02  0.35579095239E+02  0.00000000000E+00 0.  1.
         21    1    1    2  505  503 -0.15650814920E+02 -0.70016018872E+02 -0.15743795039E+03  0.17301415875E+03  0.00000000000E+00 0. -1.
          1    1    1    2  501    0 -0.19316626475E+01  0.11469262396E+03 -0.15815076761E+04  0.15856622146E+04  0.00000000000E+00 0.  1.
<scales pt_clust_3="33.57699" pt_clust_4="32.25292" pt_clust_5="33.57699" pt_clust_6="117.27804"></scales>
<clustering>
<clus scale="   32.253">  1  4  2 -1</clus>
<clus scale="   33.577">  3  5 -1 -1</clus>
<clus scale="  117.278">  2  6  1 -1</clus>
<clus scale="   32.253">  1  3  2 -1</clus>
</clustering>
</event>
<event>
 6    0  0.3879634E+002  0.1938646E+03  0.7546771E-02  0.1155021E+00
          2   -1    0    0  505    0 -0.00000000000E+00  0.00000000000E+00  0.71470659915E+03  0.71470659915E+03  0.00000000000E+00 0. -1.
         21   -1    0    0  503  502  0.00000000000E+00 -0.00000000000E+00 -0.11085072943E+04  0.11085072943E+04  0.00000000000E+00 0. -1.
         21    1    1    2  503  504  0.30189536789E+02  0.10994398682E+02 -0.24328831898E+02  0.40301079334E+02  0.00000000000E+00 0. -1.
         21    1    1    2  504  501 -0.63223549031E+02 -0.33024141267E+01 -0.18819852741E+02  0.66047785340E+02  0.00000000000E+00 0.  1.
         21    1    1    2  505  502  0.12107358413E+03 -0.18008123994E+03 -0.10082667425E+04  0.10313534262E+04  0.00000000000E+00 0. -1.
          2    1    1    2  501    0 -0.88039571887E+02  0.17238925539E+03  0.65761473195E+03  0.68551160258E+03  0.00000000000E+00 0. -1.
<scales pt_clust_3="32.12919" pt_clust_4="62.09949" pt_clust_5="193.86464" pt_clust_6="14000.00000"></scales>
<clustering>
<clus scale="   32.129">  2  3  1 -1</clus>
<clus scale="   62.099">  2  4  1 -1</clus>
<clus scale="  193.865">  2  5  1 -1</clus>
<clus scale="   32.129">  2  3  1 -1</clus>
</clustering>
</event>
<event>
 6    0  0.2433432E+002  0.1301014E+03  0.7546771E-02  0.1227305E+00
         21   -1    0    0  504  502  0.00000000000E+00  0.00000000000E+00  0.39187192936E+03  0.39187192936E+03  0.00000000000E+00 0. -1.
          1   -1    0    0  503    0 -0.00000000000E+00 -0.00000000000E+00 -0.49196945797E+03  0.49196945797E+03  0.00000000000E+00 0.  1.
         21    1    1    2  503  505  0.96257256230E+02 -0.17262888867E+02  0.73976862970E+02  0.12262154364E+03  0.00000000000E+00 0. -1.
         21    1    1    2  504  501 -0.15627857241E+03 -0.90755908248E+02  0.53138979929E+01  0.18079785559E+03  0.00000000000E+00 0. -1.
         21    1    1    2  505  502  0.34765906299E+02  0.91531398060E+02  0.18790932290E+03  0.21188812780E+03  0.00000000000E+00 0. -1.
          1    1    1    2  501    0  0.25255409877E+02  0.16487399056E+02 -0.36729761247E+03  0.36853386029E+03  0.00000000000E+00 0.  1.
<scales pt_clust_3="14000.00000" pt_clust_4="130.10136" pt_clust_5="100.28251" pt_clust_6="30.16074"></scales>
<clustering>
<clus scale="   30.161">  2  6  1 -1</clus>
<clus scale="  100.283">  1  5  2 -1</clus>
<clus scale="  130.101">  2  4  1 -1</clus>
<clus scale="  100.283">  1  3  2 -1</clus>
</clustering>
</event>
<event>
 6    0  0.2433432E+002  0.1105855E+03  0.7546771E-02  0.1259489E+00
          2   -1    0    0  505    0 -0.00000000000E+00  0.00000000000E+00  0.33450362443E+03  0.33450362443E+03  0.00000000000E+00 0.  1.
         21   -1    0    0  501  502  0.00000000000E+00 -0.00000000000E+00 -0.21605083944E+03  0.21605083944E+03  0.00000000000E+00 0.  1.
         21    1    1    2  503  502 -0.33377758382E+02  0.62349091826E+02 -0.14546757248E+03  0.16174763878E+03  0.00000000000E+00 0.  1.
         21    1    1    2  504  503  0.45383180764E+02 -0.33612568424E+02  0.17805386661E+03  0.18679565645E+03  0.00000000000E+00 0.  1.
         21    1    1    2  505  504  0.59217171677E+02 -0.42552726231E+01  0.10823342480E+03  0.12344737750E+03  0.00000000000E+00 0.  1.
          2    1    1    2  501    0 -0.71222594059E+02 -0.24481250779E+02 -0.22366933944E+02  0.78563791139E+02  0.00000000000E+00 0.  1.
<scales pt_clust_3="70.72117" pt_clust_4="42.68187" pt_clust_5="42.68187" pt_clust_6="101.55806"></scales>
<clustering>
<clus scale="   42.682">  4  5 -1 -1</clus>
<clus scale="   70.721">  2  3  1 -1</clus>
<clus scale="  101.558">  2  6  1 -1</clus>
<clus scale="   70.721">  2  3  1 -1</clus>
</clustering>
</event>
<event>
 6    0  0.2433432E+002  0.1180752E+03  0.7546771E-02  0.1246307E+00
          2   -1    0    0  505    0 -0.00000000000E+00  0.00000000000E+00  0.93798962923E+03  0.93798962923E+03  0.00000000000E+00 0.  1.
         21   -1    0    0  503  502  0.00000000000E+00 -0.00000000000E+00 -0.18849460400E+03  0.18849460400E+03  0.00000000000E+00 0. -1.
         21    1    1    2  503  501 -0.36088247566E+01 -0.67354297147E+02 -0.89135340670E+02  0.11177984575E+03  0.00000000000E+00 0. -1.
         21    1    1    2  504  502  0.81667094724E+02 -0.44952055331E+02  0.19978663557E+01  0.93242657133E+02  0.00000000000E+00 0. -1.
         21    1    1    2  505  504 -0.13637484957E+03  0.19810165862E+01  0.87583788688E+02  0.16208930891E+03  0.00000000000E+00 0. -1.
          2    1    1    2  501    0  0.58316579607E+02  0.11032533589E+03  0.74904871085E+03  0.75937242143E+03  0.00000000000E+00 0.  1.
<scales pt_clust_3="67.45091" pt_clust_4="112.89189" pt_clust_5="14000.00000" pt_clust_6="118.07519"></scales>
<clustering>
<clus scale="   67.451">  2  3  1 -1</clus>
<clus scale="  112.892">  2  4  1 -1</clus>
<clus scale="  118.075">  1  6  2 -1</clus>
<clus scale="   67.451">  2  3  1 -1</clus>
</clustering>
</event>
<event>
 6    0  0.2433432E+002  0.9936587E+02  0.7546771E-02  0.1281635E+00
          2   -1    0    0  504    0 -0.00000000000E+00  0.00000000000E+00  0.12929702250E+04  0.12929702250E+04  0.00000000000E+00 0.  1.
         21   -1    0    0  503  502  0.00000000000E+00 -0.00000000000E+00 -0.54267652752E+02  0.54267652752E+02  0.00000000000E+00 0.  1.
         21    1    1    2  503  501  0.38417457817E+02  0.37780652062E+02  0.68844102376E+02  0.87423047117E+02  0.00000000000E+00 0. -1.
         21    1    1    2  504  505 -0.57812941210E+02 -0.12085614257E+03  0.14142539553E+03  0.19480679113E+03  0.00000000000E+00 0.  1.
         21    1    1    2  505  502 -0.30685430531E+02  0.59790778165E+00 -0.13434852573E+01  0.30720646042E+02  0.00000000000E+00 0. -1.
          2    1    1    2  501    0  0.50080913923E+02  0.82477582723E+02  0.10297765596E+04  0.10342873935E+04  0.00000000000E+00 0.  1.
<scales pt_clust_3="48.95958" pt_clust_4="99.36587" pt_clust_5="30.69126" pt_clust_6="14000.00000"></scales>
<clustering>
<clus scale="   30.691">  2  5  1 -1</clus>
<clus scale="   48.960">  2  3  1 -1</clus>
<clus scale="   99.366">  2  4  1 -1</clus>
<clus scale="   30.691">  2  3  1 -1</clus>
</clustering>
</event>
<event>
 6    0  0.2433432E+002  0.1300130E+03  0.7546771E-02  0.1227436E+00
          2   -1    0    0  503    0 -0.00000000000E+00  0.00000000000E+00  0.73541303930E+03  0.73541303930E+03  0.00000000000E+00 0. -1.
         21   -1    0    0  501  502  0.00000000000E+00 -0.00000000000E+00 -0.27854807491E+03  0.27854807491E+03  0.00000000000E+00 0. -1.
         21    1    1    2  503  504  0.35795426902E+02 -0.14516339256E+02  0.25568663950E+02  0.46322707916E+02  0.00000000000E+00 0. -1.
         21    1    1    2  504  505 -0.41161979472E+02 -0.79532823923E+02  0.30879561236E+03  0.32151906452E+03  0.00000000000E+00 0. -1.
         21    1    1    2  505  502  0.91403019089E+01  0.13224056658E+03 -0.24396431348E+03  0.27765031752E+03  0.00000000000E+00 0. -1.
          2    1    1    2  501    0 -0.37737493385E+01 -0.38191403401E+02  0.36646500155E+03  0.36846902426E+03  0.00000000000E+00 0. -1.
<scales pt_clust_3="39.84999" pt_clust_4="130.01302" pt_clust_5="14000.00000" pt_clust_6="38.37740"></scales>
<clustering>
<clus scale="   38.377">  1  6  2 -1</clus>
<clus scale="   39.850">  1  3  2 -1</clus>
<clus scale="  130.013">  1  4  2 -1</clus>
<clus scale="  130.013">  2  3  1 -1</clus>
</clustering>
</event>
<event>
 6    0  0.2433432E+002  0.6658668E+02  0.7546771E-02  0.1372101E+00
          1   -1    0    0  503    0 -0.00000000000E+00  0.00000000000E+00  0.13840369688E+04  0.13840369688E+04  0.00000000000E+00 0.  1.
         21   -1    0    0  505  502  0.00000000000E+00 -0.00000000000E+00 -0.12078758162E+04  0.12078758162E+04  0.00000000000E+00 0.  1.
         21    1    1    2  503  504  0.34313423621E+02 -0.11805208608E+02  0.20039015433E+03  0.20364917859E+03  0.00000000000E+00 0. -1.
         21    1    1    2  504  502  0.62730734890E+02 -0.76818261998E+01  0.62618835901E+02  0.88967826562E+02  0.00000000000E+00 0. -1.
         21    1    1    2  505  501 -0.15857495226E+02 -0.64674473056E+02 -0.11890472827E+04  0.11909104451E+04  0.00000000000E+00 0.  1.
          1    1    1    2  501    0 -0.81186663285E+02  0.84161507864E+02  0.11021994450E+04  0.11083853348E+04  0.00000000000E+00 0.  1.
<scales pt_clust_3="36.28738" pt_clust_4="65.47706" pt_clust_5="14000.00000" pt_clust_6="66.58668"></scales>
<clustering>
<clus scale="   36.287">  1  3  2 -1</clus>
<clus scale="   65.477">  1  4  2 -1</clus>
<clus scale="   66.587">  1  6  2 -1</clus>
<clus scale="   66.587">  2  3  1 -1</clus>
</clustering>
</event>
<event>
 6    0  0.2433432E+002  0.9268108E+02  0.7546771E-02  0.1296486E+00
         21   -1    0    0  503  502  0.00000000000E+00  0.00000000000E+00  0.79220909315E+03  0.79220909315E+03  0.00000000000E+00 0.  1.
          2   -1    0    0  504    0 -0.00000000000E+00 -0.00000000000E+00 -0.26664324437E+03  0.26664324437E+03  0.00000000000E+00 0. -1.
         21    1    1    2  503  501  0.46102716915E+02 -0.83171327803E+02  0.75567844477E+03  0.76163826201E+03  0.00000000000E+00 0.  1.
         21    1    1    2  504  505 -0.37794891244E+02  0.60340761735E+02 -0.11383709269E+03  0.13426967269E+03  0.00000000000E+00 0. -1.
         21    1    1    2  505  502 -0.24418177723E+02  0.53258816061E+02 -0.22009059965E+02  0.62587120177E+02  0.00000000000E+00 0.  1.
          2    1    1    2  501    0  0.16110352052E+02 -0.30428249993E+02 -0.94266443331E+02  0.10035728264E+03  0.00000000000E+00 0. -1.
<scales pt_clust_3="14000.00000" pt_clust_4="46.07942" pt_clust_5="92.68108" pt_clust_6="34.42996"></scales>
<clustering>
<clus scale="   34.430">  2  6  1 -1</clus>
<clus scale="   46.079">  2  4  1 -1</clus>
<clus scale="   92.681">  2  5  1 -1</clus>
<clus scale="   92.681">  1  3  2 -1</clus>
</clustering>
</event>
<event>
 6    0  0.2433432E+002  0.1208895E+03  0.7546771E-02  0.1241637E+00
          2   -1    0    0  502    0 -0.00000000000E+00  0.00000000000E+00  0.16230014022E+03  0.16230014022E+03  0.00000000000E+00 0.  1.
         21   -1    0    0  505  502  0.00000000000E+00 -0.00000000000E+00 -0.45402021771E+03  0.45402021771E+03  0.00000000000E+00 0. -1.
         21    1    1    2  503  504  0.42144963645E+02 -0.47896030580E+02 -0.11017839908E+03  0.12731656345E+03  0.00000000000E+00 0. -1.
         21    1    1    2  504  501  0.42669801037E+02 -0.20031479931E+02 -0.20633684917E+03  0.21165270476E+03  0.00000000000E+00 0. -1.
         21    1    1    2  505  503  0.21192024768E+02  0.43502917002E+02 -0.10042613065E+03  0.11147651510E+03  0.00000000000E+00 0. -1.
          2    1    1    2  501    0 -0.10600678945E+03  0.24424593509E+02  0.12522130141E+03  0.16587457461E+03  0.00000000000E+00 0.  1.
<scales pt_clust_3="46.37342" pt_clust_4="46.37342" pt_clust_5="48.39014" pt_clust_6="108.18366"></scales>
<clustering>
<clus scale="   46.373">  3  4 -1 -1</clus>
<clus scale="   48.390">  2  5  1 -1</clus>
<clus scale="  108.184">  1  6  2 -1</clus>
<clus scale="   48.390">  2  3  1 -1</clus>
</clustering>
</event>
<event>
 6    0  0.2433432E+002  0.9424918E+02  0.7546771E-02  0.1292876E+00
         21   -1    0    0  503  502  0.00000000000E+00  0.00000000000E+00  0.81679089733E+02  0.81679089733E+02  0.00000000000E+00 0. -1.
          2   -1    0    0  505    0 -0.00000000000E+00 -0.00000000000E+00 -0.17274747085E+04  0.17274747085E+04  0.00000000000E+00 0.  1.
         21    1    1    2  503  504  0.20625035445E+02  0.33680539892E+02  0.21240656232E+02  0.44843464760E+02  0.00000000000E+00 0. -1.
         21    1    1    2  504  501  0.67332101791E+02 -0.29605463782E+02 -0.34868028488E+02  0.81399476829E+02  0.00000000000E+00 0. -1.
         21    1    1    2  505  502 -0.33365435114E+01 -0.48344341896E+02 -0.51187928977E+00  0.48462046350E+02  0.00000000000E+00 0. -1.
          2    1    1    2  501    0 -0.84620593725E+02  0.44269265787E+02 -0.16316563672E+04  0.16344488103E+04  0.00000000000E+00 0.  1.
<scales pt_clust_3="39.49393" pt_clust_4="94.24918" pt_clust_5="32.46847" pt_clust_6="14000.00000"></scales>
<clustering>
<clus scale="   39.494">  1  3  2 -1</clus>
<clus scale="   32.468">  1  5  2 -1</clus>
<clus scale="   94.249">  1  4  2 -1</clus>
<clus scale="   39.494">  1  3  2 -1</clus>
</clustering>
</event>
<event>
 6    0  0.2433432E+002  0.1500015E+03  0.7546771E-02  0.1200471E+00
         21   -1    0    0  504  502  0.00000000000E+00  0.00000000000E+00  0.13970560404E+03  0.13970560404E+03  0.00000000000E+00 0.  1.
          2   -1    0    0  505    0 -0.00000000000E+00 -0.00000000000E+00 -0.15032594469E+04  0.15032594469E+04  0.00000000000E+00 0.  1.
         21    1    1    2  503  501  0.17153594327E+03 -0.11843517858E+03 -0.10328088711E+03  0.23263364546E+03  0.00000000000E+00 0.  1.
         21    1    1    2  504  503 -0.37399304136E+02 -0.48196811830E+02 -0.24043195902E+02  0.65572218886E+02  0.00000000000E+00 0. -1.
         21    1    1    2  505  502 -0.10555282568E+03  0.48804250433E+02 -0.14686187310E+02  0.11721321584E+03  0.00000000000E+00 0.  1.
          2    1    1    2  501    0 -0.28583813456E+02  0.11782773998E+03 -0.12215435725E+04  0.12275459707E+04  0.00000000000E+00 0.  1.
<scales pt_clust_3="14000.00000" pt_clust_4="61.00525" pt_clust_5="150.00153" pt_clust_6="120.29189"></scales>
<clustering>
<clus scale="   61.005">  1  4  2 -1</clus>
<clus scale="  120.292">  2  6  1 -1</clus>
<clus scale="  150.002">  1  5  2 -1</clus>
<clus scale="   61.005">  1  3  2 -1</clus>
</clustering>
</event>
<event>
 6    0  0.2433432E+002  0.9995750E+02  0.7546771E-02  0.1280385E+00
         -2   -1    0    0    0  501 -0.00000000000E+00  0.00000000000E+00  0.15164998738E+03  0.15164998738E+03  0.00000000000E+00 0.  1.
         21   -1    0    0  503  502  0.00000000000E+00 -0.00000000000E+00 -0.15278715371E+04  0.15278715371E+04  0.00000000000E+00 0. -1.
         21    1    1    2  503  504  0.40491271783E+02 -0.15173282019E+02 -0.11392215803E+04  0.11400419205E+04  0.00000000000E+00 0. -1.
         21    1    1    2  504  505  0.56909760787E+02 -0.30807235561E+02 -0.28975300292E+03  0.29689157842E+03  0.00000000000E+00 0. -1.
         21    1    1    2  505  501  0.35794893213E+02 -0.91885833532E+01 -0.52417212042E+02  0.64134768749E+02  0.00000000000E+00 0. -1.
         -2    1    1    2    0  502 -0.13319592578E+03  0.55169100933E+02  0.10517024548E+03  0.17845325684E+03  0.00000000000E+00 0.  1.
<scales pt_clust_3="43.34423" pt_clust_4="99.95750" pt_clust_5="36.95544" pt_clust_6="14000.00000"></scales>
<clustering>
<clus scale="   36.955">  1  5  2 -1</clus>
<clus scale="   43.344">  2  3  1 -1</clus>
<clus scale="   99.958">  2  4  1 -1</clus>
<clus scale="   43.344">  2  3  1 -1</clus>
</clustering>
</event>
<event>
 6    0  0.2433432E+002  0.2844468E+03  0.7546771E-02  0.1093285E+00
         21   -1    0    0  504  502  0.00000000000E+00  0.00000000000E+00  0.12192329490E+03  0.12192329490E+03  0.00000000000E+00 0. -1.
          1   -1    0    0  503    0 -0.00000000000E+00 -0.00000000000E+00 -0.22787378467E+04  0.22787378467E+04  0.00000000000E+00 0.  1.
         21    1    1    2  503  505  0.76786383191E+02 -0.13760003329E+03 -0.15120683838E+03  0.21838824551E+03  0.00000000000E+00 0. -1.
         21    1    1    2  504  501  0.35658377833E+02 -0.12577459355E+01  0.44773548217E+02  0.57251833634E+02  0.00000000000E+00 0. -1.
         21    1    1    2  505  502  0.10072230870E+03 -0.13469560124E+02 -0.61126721501E+02  0.11858705073E+03  0.00000000000E+00 0. -1.
          1    1    1    2  501    0 -0.21316706973E+03  0.15232733935E+03 -0.19892545402E+04  0.20064340117E+04  0.00000000000E+00 0.  1.
<scales pt_clust_3="99.10907" pt_clust_4="35.68055" pt_clust_5="99.10907" pt_clust_6="258.40771"></scales>
<clustering>
<clus scale="   35.681">  1  4  2 -1</clus>
<clus scale="   99.109">  3  5 -1 -1</clus>
<clus scale="  258.408">  2  6  1 -1</clus>
<clus scale="   35.681">  1  3  2 -1</clus>
</clustering>
</event>
<event>
 6    0  0.2433432E+002  0.2066481E+03  0.7546771E-02  0.1144248E+00
          2   -1    0    0  505    0 -0.00000000000E+00  0.00000000000E+00  0.15587218725E+04  0.15587218725E+04  0.00000000000E+00 0.  1.
         21   -1    0    0  504  502  0.00000000000E+00 -0.00000000000E+00 -0.61011409402E+03  0.61011409402E+03  0.00000000000E+00 0.  1.
         21    1    1    2  503  501 -0.70402714838E+02  0.43735663259E+02 -0.35994459378E+03  0.36936358928E+03  0.00000000000E+00 0.  1.
         21    1    1    2  504  503 -0.76870131156E+02  0.18162606649E+02 -0.20500077965E+03  0.21969118554E+03  0.00000000000E+00 0. -1.
         21    1    1    2  505  502 -0.14627452623E+02  0.58120948354E+02  0.76123338852E+01  0.60414854423E+02  0.00000000000E+00 0.  1.
          2    1    1    2  501    0  0.16190029862E+03 -0.12001921826E+03  0.15059408180E+04  0.15193663373E+04  0.00000000000E+00 0.  1.
<scales pt_clust_3="46.83384" pt_clust_4="46.83384" pt_clust_5="59.93335" pt_clust_6="201.00220"></scales>
<clustering>
<clus scale="   46.834">  3  4 -1 -1</clus>
<clus scale="   59.933">  2  5  1 -1</clus>
<clus scale="  201.002">  1  6  2 -1</clus>
<clus scale="   59.933">  2  3  1 -1</clus>
</clustering>
</event>
<event>
 6    0  0.2433432E+002  0.1361258E+03  0.7546771E-02  0.1218639E+00
         21   -1    0    0  501  502  0.00000000000E+00  0.00000000000E+00  0.69076099498E+03  0.69076099498E+03  0.00000000000E+00 0.  1.
          1   -1    0    0  503    0 -0.00000000000E+00 -0.00000000000E+00 -0.12278987280E+04  0.12278987280E+04  0.00000000000E+00 0. -1.
         21    1    1    2  503  505 -0.71838903060E+02 -0.34235749664E+02 -0.40206490589E+03  0.40986473756E+03  0.00000000000E+00 0. -1.
         21    1    1    2  504  502  0.69648981961E+02  0.10513852187E+03  0.67215939490E+03  0.68388839851E+03  0.00000000000E+00 0.  1.
         21    1    1    2  505  504 -0.61015326052E+02 -0.14050743445E+02 -0.15517112919E+03  0.16732714286E+03  0.00000000000E+00 0.  1.
          1    1    1    2  501    0  0.63205247151E+02 -0.56852028763E+02 -0.65206109281E+03  0.65757944403E+03  0.00000000000E+00 0. -1.
<scales pt_clust_3="45.71880" pt_clust_4="125.99051" pt_clust_5="45.71880" pt_clust_6="85.01210"></scales>
<clustering>
<clus scale="   45.719">  3  5 -1 -1</clus>
<clus scale="   85.012">  2  6  1 -1</clus>
<clus scale="  125.991">  1  4  2 -1</clus>
<clus scale="  125.991">  1  3  2 -1</clus>
</clustering>
</event>
<event>
 6    0  0.2433432E+002  0.1179750E+03  0.7546771E-02  0.1246476E+00
          2   -1    0    0  503    0 -0.00000000000E+00  0.00000000000E+00  0.90640764978E+03  0.90640764978E+03  0.00000000000E+00 0.  1.
         21   -1    0    0  504  502  0.00000000000E+00 -0.00000000000E+00 -0.42248834281E+03  0.42248834281E+03  0.00000000000E+00 0. -1.
         21    1    1    2  503  505 -0.76892674328E+02 -0.19810819983E+02 -0.13628241892E+03  0.15772713673E+03  0.00000000000E+00 0. -1.
         21    1    1    2  504  501  0.50629863129E+02 -0.57630439323E+02 -0.37765097728E+02  0.85503527316E+02  0.00000000000E+00 0. -1.
         21    1    1    2  505  502 -0.60052439932E+02  0.27184338761E+02 -0.20582240269E+03  0.21612067292E+03  0.00000000000E+00 0. -1.
          2    1    1    2  501    0  0.86315251131E+02  0.50256920545E+02  0.86378922630E+03  0.86954465562E+03  0.00000000000E+00 0.  1.
<scales pt_clust_3="57.03274" pt_clust_4="76.71148" pt_clust_5="57.03274" pt_clust_6="99.99981"></scales>
<clustering>
<clus scale="   57.033">  3  5 -1 -1</clus>
<clus scale="   76.711">  2  4  1 -1</clus>
<clus scale="  100.000">  1  6  2 -1</clus>
<clus scale="   76.711">  2  3  1 -1</clus>
</clustering>
</event>
<event>
 6    0  0.2433432E+002  0.3557689E+03  0.7546771E-02  0.1060272E+00
         21   -1    0    0  505  502  0.00000000000E+00  0.00000000000E+00  0.79836023843E+02  0.79836023843E+02  0.00000000000E+00 0.  1.
          1   -1    0    0  503    0 -0.00000000000E+00 -0.00000000000E+00 -0.23839700379E+04  0.23839700379E+04  0.00000000000E+00 0.  1.
         21    1    1    2  503  502 -0.45161427157E+02 -0.70780619340E+01 -0.26754785291E+02  0.52966706520E+02  0.00000000000E+00 0.  1.
         21    1    1    2  504  501  0.19155705598E+03 -0.23323794822E+03 -0.13301790829E+04  0.13639906300E+04  0.00000000000E+00 0.  1.
         21    1    1    2  505  504 -0.18094685063E+03  0.27903120654E+03 -0.52498969510E+03  0.62146146859E+03  0.00000000000E+00 0.  1.
          1    1    1    2  501    0  0.34551221805E+02 -0.38715196386E+02 -0.42221045075E+03  0.42538725660E+03  0.00000000000E+00 0.  1.
<scales pt_clust_3="45.71273" pt_clust_4="31.90497" pt_clust_5="347.34824" pt_clust_6="31.90497"></scales>
<clustering>
<clus scale="   31.905">  4  6 -1 -1</clus>
<clus scale="   45.713">  1  3  2 -1</clus>
<clus scale="  347.348">  1  5  2 -1</clus>
<clus scale="   45.713">  1  3  2 -1</clus>
</clustering>
</event>
<event>
 6    0  0.2433432E+002  0.7084305E+02  0.7546771E-02  0.1357249E+00
         21   -1    0    0  503  502  0.00000000000E+00  0.00000000000E+00  0.17720468715E+03  0.17720468715E+03  0.00000000000E+00 0. -1.
          2   -1    0    0  505    0 -0.00000000000E+00 -0.00000000000E+00 -0.10370793839E+04  0.10370793839E+04  0.00000000000E+00 0. -1.
         21    1    1    2  503  504 -0.10533610569E+03 -0.28447207639E+02  0.66523979679E+02  0.12779036997E+03  0.00000000000E+00 0. -1.
         21    1    1    2  504  501  0.34001409234E+02 -0.33575637090E+02 -0.95627472988E+02  0.10690197765E+03  0.00000000000E+00 0.  1.
         21    1    1    2  505  502  0.38794672675E+02  0.46002161761E+02  0.61815018173E+02  0.86268893503E+02  0.00000000000E+00 0. -1.
          2    1    1    2  501    0  0.32540023785E+02  0.16020682968E+02 -0.89258622161E+03  0.89332282991E+03  0.00000000000E+00 0. -1.
<scales pt_clust_3="70.84305" pt_clust_4="61.08790" pt_clust_5="14000.00000" pt_clust_6="36.27003"></scales>
<clustering>
<clus scale="   36.270">  2  6  1 -1</clus>
<clus scale="   61.088">  2  4  1 -1</clus>
<clus scale="   70.843">  2  3  1 -1</clus>
<clus scale="   70.843">  1  3  2 -1</clus>
</clustering>
</event>
<event>
 6    0  0.2433432E+002  0.9012529E+02  0.7546771E-02  0.1302549E+00
          1   -1    0    0  504    0 -0.00000000000E+00  0.00000000000E+00  0.74484863383E+03  0.74484863383E+03  0.00000000000E+00 0.  1.
         21   -1    0    0  505  502  0.00000000000E+00 -0.00000000000E+00 -0.95485961873E+03  0.95485961873E+03  0.00000000000E+00 0. -1.
         21    1    1    2  503  502  0.44133237243E+01 -0.66945933790E+02  0.88804025667E+02  0.11129865431E+03  0.00000000000E+00 0.  1.
         21    1    1    2  504  503 -0.30259103435E+02 -0.45106696499E+01  0.83715293983E+02  0.89130297475E+02  0.00000000000E+00 0. -1.
         21    1    1    2  505  501  0.90197817845E+02 -0.19697657525E+01 -0.93444753085E+03  0.93879268970E+03  0.00000000000E+00 0. -1.
          1    1    1    2  501    0 -0.64352038134E+02  0.73426369192E+02  0.55191722630E+03  0.56048661107E+03  0.00000000000E+00 0.  1.
<scales pt_clust_3="67.63161" pt_clust_4="30.59345" pt_clust_5="90.12529" pt_clust_6="14000.00000"></scales>
<clustering>
<clus scale="   30.593">  1  4  2 -1</clus>
<clus scale="   67.632">  1  3  2 -1</clus>
<clus scale="   90.125">  2  5  1 -1</clus>
<clus scale="   90.125">  2  3  1 -1</clus>
</clustering>
</event>
<event>
 6    0  0.2433432E+002  0.1108332E+03  0.7546771E-02  0.1259035E+00
          1   -1    0    0  503    0 -0.00000000000E+00  0.00000000000E+00  0.12412398742E+03  0.12412398742E+03  0.00000000000E+00 0.  1.
         21   -1    0    0  504  502  0.00000000000E+00 -0.00000000000E+00 -0.13873091264E+04  0.13873091264E+04  0.00000000000E+00 0.  1.
         21    1    1    2  503  505 -0.33801447738E+02  0.29999781593E+02 -0.44679848769E+02  0.63551661275E+02  0.00000000000E+00 0.  1.
         21    1    1    2  504  501  0.52703935664E+02 -0.17287791216E+02 -0.94032109810E+03  0.94195559349E+03  0.00000000000E+00 0.  1.
         21    1    1    2  505  502  0.34246404167E+02 -0.68114845847E+02 -0.37482551147E+03  0.38250047382E+03  0.00000000000E+00 0. -1.
          1    1    1    2  501    0 -0.53148892093E+02  0.55402855470E+02  0.96641319342E+02  0.12342538527E+03  0.00000000000E+00 0.  1.
<scales pt_clust_3="45.19430" pt_clust_4="55.17151" pt_clust_5="14000.00000" pt_clust_6="110.83316"></scales>
<clustering>
<clus scale="   45.194">  1  3  2 -1</clus>
<clus scale="   55.172">  2  4  1 -1</clus>
<clus scale="  110.833">  1  6  2 -1</clus>
<clus scale="   55.172">  2  3  1 -1</clus>
</clustering>
</event>
<event>
 6    0  0.2433432E+002  0.8076418E+02  0.7546771E-02  0.1326897E+00
         21   -1    0    0  503  502  0.00000000000E+00  0.00000000000E+00  0.33177894586E+03  0.33177894586E+03  0.00000000000E+00 0. -1.
          2   -1    0    0  505    0 -0.00000000000E+00 -0.00000000000E+00 -0.36586737917E+03  0.36586737917E+03  0.00000000000E+00 0.  1.
         21    1    1    2  503  501  0.29908266381E+02  0.49354677188E+02  0.21201615430E+02  0.61480867390E+02  0.00000000000E+00 0.  1.
         21    1    1    2  504  502 -0.55551080452E+02  0.66152597992E+02  0.22119580663E+03  0.23746509981E+03  0.00000000000E+00 0. -1.
         21    1    1    2  505  504 -0.15395462414E+00 -0.77722688302E+02  0.34019889160E+02  0.84842164266E+02  0.00000000000E+00 0.  1.
          2    1    1    2  501    0  0.25796768695E+02 -0.37784586878E+02 -0.31050574453E+03  0.31385819356E+03  0.00000000000E+00 0.  1.
<scales pt_clust_3="52.95912" pt_clust_4="80.76418" pt_clust_5="14000.00000" pt_clust_6="45.75094"></scales>
<clustering>
<clus scale="   45.751">  2  6  1 -1</clus>
<clus scale="   52.959">  2  3  1 -1</clus>
<clus scale="   80.764">  1  4  2 -1</clus>
<clus scale="   80.764">  1  3  2 -1</clus>
</clustering>
</event>
<event>
 6    0  0.2433432E+002  0.7958354E+02  0.7546771E-02  0.1330237E+00
         21   -1    0    0  505  502  0.00000000000E+00  0.00000000000E+00  0.50099280585E+02  0.50099280585E+02  0.00000000000E+00 0. -1.
          2   -1    0    0  503    0 -0.00000000000E+00 -0.00000000000E+00 -0.11241212209E+04  0.11241212209E+04  0.00000000000E+00 0.  1.
         21    1    1    2  503  504 -0.32278079663E+02  0.89430940902E+01 -0.34552504964E+03  0.34714465758E+03  0.00000000000E+00 0. -1.
         21    1    1    2  504  502 -0.91839290948E+02 -0.32978105207E+02 -0.21920016591E+03  0.23993899958E+03  0.00000000000E+00 0. -1.
         21    1    1    2  505  501  0.29448225541E+02  0.48375423363E+02  0.11038895485E+02  0.57699538877E+02  0.00000000000E+00 0. -1.
          2    1    1    2  501    0  0.94669145069E+02 -0.24340412246E+02 -0.52033562026E+03  0.52943730545E+03  0.00000000000E+00 0.  1.
<scales pt_clust_3="33.49408" pt_clust_4="14000.00000" pt_clust_5="56.36771" pt_clust_6="79.58354"></scales>
<clustering>
<clus scale="   33.494">  2  3  1 -1</clus>
<clus scale="   56.368">  1  5  2 -1</clus>
<clus scale="   79.584">  2  6  1 -1</clus>
<clus scale="   56.368">  1  3  2 -1</clus>
</clustering>
</event>
<event>
 6    0  0.2433432E+002  0.1264001E+03  0.7546771E-02  0.1232897E+00
         21   -1    0    0  503  502  0.00000000000E+00  0.00000000000E+00  0.55420752285E+03  0.55420752285E+03  0.00000000000E+00 0.  1.
         -4   -1    0    0    0  501 -0.00000000000E+00 -0.00000000000E+00 -0.10773971083E+04  0.10773971083E+04  0.00000000000E+00 0. -1.
         21    1    1    2  503  501  0.85921279663E+02 -0.22951422036E+02 -0.32314723463E+03  0.33516170623E+03  0.00000000000E+00 0. -1.
         21    1    1    2  504  505 -0.86866160666E+02 -0.65373389658E+02 -0.66231076379E+02  0.12730265285E+03  0.00000000000E+00 0. -1.
         21    1    1    2  505  502 -0.25748552597E+02  0.12588267652E+03  0.50885388495E+03  0.52482541138E+03  0.00000000000E+00 0.  1.
         -4    1    1    2    0  504  0.26693433600E+02 -0.37557864826E+02 -0.64266515943E+03  0.64431486073E+03  0.00000000000E+00 0. -1.
<scales pt_clust_3="14000.00000" pt_clust_4="109.48013" pt_clust_5="126.40008" pt_clust_6="46.07746"></scales>
<clustering>
<clus scale="   46.077">  2  6  1 -1</clus>
<clus scale="  109.480">  2  4  1 -1</clus>
<clus scale="  126.400">  1  5  2 -1</clus>
<clus scale="  126.400">  1  3  2 -1</clus>
</clustering>
</event>
<event>
 6    0  0.2433432E+002  0.1073721E+03  0.7546771E-02  0.1265515E+00
         21   -1    0    0  503  502  0.00000000000E+00  0.00000000000E+00  0.50499844986E+02  0.50499844986E+02  0.00000000000E+00 0.  1.
          1   -1    0    0  505    0 -0.00000000000E+00 -0.00000000000E+00 -0.22898811135E+04  0.22898811135E+04  0.00000000000E+00 0. -1.
         21    1    1    2  503  501  0.11803495084E+03 -0.62337189536E+01 -0.98338132478E+03  0.99045945844E+03  0.00000000000E+00 0. -1.
         21    1    1    2  504  502 -0.86910007563E+02  0.63861766154E+02 -0.18611222614E+02  0.10944428810E+03  0.00000000000E+00 0.  1.
         21    1    1    2  505  504  0.15962177335E+02 -0.26625651575E+02 -0.46164830708E+03  0.46269090747E+03  0.00000000000E+00 0.  1.
          1    1    1    2  501    0 -0.47087120608E+02 -0.31002395626E+02 -0.77574041405E+03  0.77778630449E+03  0.00000000000E+00 0. -1.
<scales pt_clust_3="107.37214" pt_clust_4="14000.00000" pt_clust_5="31.04378" pt_clust_6="58.43953"></scales>
<clustering>
<clus scale="   31.044">  2  5  1 -1</clus>
<clus scale="   58.440">  2  6  1 -1</clus>
<clus scale="  107.372">  2  3  1 -1</clus>
<clus scale="  107.372">  1  3  2 -1</clus>
</clustering>
</event>
<event>
 6    0  0.2433432E+002  0.1512532E+03  0.7546771E-02  0.1198942E+00
          2   -1    0    0  505    0 -0.00000000000E+00  0.00000000000E+00  0.20722547249E+04  0.20722547249E+04  0.00000000000E+00 0.  1.
         21   -1    0    0  504  502  0.00000000000E+00 -0.00000000000E+00 -0.19750047683E+02  0.19750047683E+02  0.00000000000E+00 0.  1.
         21    1    1    2  503  502 -0.42416237861E+02 -0.21005212861E+02  0.15035318811E+03  0.15762752735E+03  0.00000000000E+00 0.  1.
         21    1    1    2  504  501  0.22577292389E+02 -0.28525661850E+02  0.29226691808E+02  0.46665265773E+02  0.00000000000E+00 0.  1.
         21    1    1    2  505  503 -0.82689146925E+02 -0.46573117427E+02  0.70263465757E+03  0.70901481811E+03  0.00000000000E+00 0.  1.
          2    1    1    2  501    0  0.10252809240E+03  0.96103992137E+02  0.11702901397E+04  0.11786971614E+04  0.00000000000E+00 0.  1.
<scales pt_clust_3="40.14061" pt_clust_4="36.37922" pt_clust_5="40.14061" pt_clust_6="140.05365"></scales>
<clustering>
<clus scale="   36.379">  2  4  1 -1</clus>
<clus scale="   40.141">  3  5 -1 -1</clus>
<clus scale="  140.054">  1  6  2 -1</clus>
<clus scale="   36.379">  2  3  1 -1</clus>
</clustering>
</event>
<event>
 6    0  0.5579638E+002  0.6755350E+02  0.7546771E-02  0.1368616E+00
          2   -1    0    0  504    0 -0.00000000000E+00  0.00000000000E+00  0.29349761342E+04  0.29349761342E+04  0.00000000000E+00 0.  1.
         21   -1    0    0  503  502  0.00000000000E+00 -0.00000000000E+00 -0.30068886710E+03  0.30068886710E+03  0.00000000000E+00 0. -1.
         21    1    1    2  503  501 -0.11136713881E+03 -0.13566082767E+02 -0.17175334559E+03  0.20514845827E+03  0.00000000000E+00 0. -1.
         21    1    1    2  504  505  0.39555721587E+02  0.22894108912E+01  0.43462028194E+02  0.58811941026E+02  0.00000000000E+00 0. -1.
         21    1    1    2  505  502  0.18404828459E+02 -0.29990413299E+02 -0.10119377724E+03  0.10713702979E+03  0.00000000000E+00 0. -1.
          2    1    1    2  501    0  0.53406588764E+02  0.41267085174E+02  0.28637723618E+04  0.28645675722E+04  0.00000000000E+00 0.  1.
<scales pt_clust_3="67.55350" pt_clust_4="40.29002" pt_clust_5="35.18753" pt_clust_6="14000.00000"></scales>
<clustering>
<clus scale="   35.188">  2  5  1 -1</clus>
<clus scale="   40.290">  2  4  1 -1</clus>
<clus scale="   67.553">  2  3  1 -1</clus>
<clus scale="   35.188">  2  3  1 -1</clus>
</clustering>
</event>
<event>
 6    0  0.2433432E+002  0.1647911E+03  0.7546771E-02  0.1183391E+00
          2   -1    0    0  502    0 -0.00000000000E+00  0.00000000000E+00  0.25340056767E+04  0.25340056767E+04  0.00000000000E+00 0.  1.
         21   -1    0    0  505  502  0.00000000000E+00 -0.00000000000E+00 -0.12715968937E+04  0.12715968937E+04  0.00000000000E+00 0. -1.
         21    1    1    2  503  504  0.49569847947E+02  0.45488153083E+02 -0.20498161587E+03  0.21574013243E+03  0.00000000000E+00 0. -1.
         21    1    1    2  504  501  0.89037735613E+02  0.25428415142E+02 -0.25422533316E+03  0.27056393455E+03  0.00000000000E+00 0. -1.
         21    1    1    2  505  503 -0.18569174852E+02  0.35781827590E+02 -0.79577219481E+03  0.79679265776E+03  0.00000000000E+00 0. -1.
          2    1    1    2  501    0 -0.12003840871E+03 -0.10669839582E+03  0.25173879268E+04  0.25225058456E+04  0.00000000000E+00 0.  1.
<scales pt_clust_3="31.65791" pt_clust_4="31.65791" pt_clust_5="40.31319" pt_clust_6="160.55126"></scales>
<clustering>
<clus scale="   31.658">  3  4 -1 -1</clus>
<clus scale="   40.313">  2  5  1 -1</clus>
<clus scale="  160.551">  1  6  2 -1</clus>
<clus scale="   40.313">  2  3  1 -1</clus>
</clustering>
</event>
<event>
 6    0  0.2433432E+002  0.1003398E+03  0.7546771E-02  0.1279583E+00
         21   -1    0    0  501  502  0.00000000000E+00  0.00000000000E+00  0.41307377914E+03  0.41307377914E+03  0.00000000000E+00 0. -1.
          2   -1    0    0  505    0 -0.00000000000E+00 -0.00000000000E+00 -0.44379166352E+03  0.44379166352E+03  0.00000000000E+00 0. -1.
         21    1    1    2  503  504  0.34700691168E+02  0.69927310799E+01 -0.68089522831E+02  0.76741249500E+02  0.00000000000E+00 0. -1.
         21    1    1    2  504  502  0.43978533255E+01 -0.88683217575E+02  0.38794985572E+03  0.39798133718E+03  0.00000000000E+00 0. -1.
         21    1    1    2  505  503  0.28397058671E+02  0.64758982864E+02 -0.10275003950E+03  0.12473046709E+03  0.00000000000E+00 0. -1.
          2    1    1    2  501    0 -0.67495603164E+02  0.16931503632E+02 -0.24782817776E+03  0.25741238889E+03  0.00000000000E+00 0. -1.
<scales pt_clust_3="33.74757" pt_clust_4="88.27808" pt_clust_5="33.74757" pt_clust_6="69.58687"></scales>
<clustering>
<clus scale="   33.748">  3  5 -1 -1</clus>
<clus scale="   69.587">  2  6  1 -1</clus>
<clus scale="   88.278">  1  4  2 -1</clus>
<clus scale="   88.278">  1  3  2 -1</clus>
</clustering>
</event>
<event>
 6    0  0.2433432E+002  0.1924140E+03  0.7546771E-02  0.1156302E+00
         21   -1    0    0  505  502  0.00000000000E+00  0.00000000000E+00  0.30114148814E+03  0.30114148814E+03  0.00000000000E+00 0. -1.
          2   -1    0    0  503    0 -0.00000000000E+00 -0.00000000000E+00 -0.48057668546E+03  0.48057668546E+03  0.00000000000E+00 0.  1.
         21    1    1    2  503  504 -0.14770505864E+03 -0.36197949639E+02 -0.45227944191E+01  0.15214312859E+03  0.00000000000E+00 0.  1.
         21    1    1    2  504  502  0.22502086570E+03 -0.73966284690E+01  0.15991658289E+03  0.27615650200E+03  0.00000000000E+00 0. -1.
         21    1    1    2  505  501 -0.46901749517E+02  0.33217733175E+02 -0.92029904175E+02  0.10850205144E+03  0.00000000000E+00 0.  1.
          2    1    1    2  501    0 -0.30414057535E+02  0.10376844933E+02 -0.24279908162E+03  0.24491649156E+03  0.00000000000E+00 0.  1.
<scales pt_clust_3="14000.00000" pt_clust_4="192.41402" pt_clust_5="70.63198" pt_clust_6="32.13555"></scales>
<clustering>
<clus scale="   32.136">  2  6  1 -1</clus>
<clus scale="   70.632">  2  5  1 -1</clus>
<clus scale="  192.414">  1  4  2 -1</clus>
<clus scale="  192.414">  1  3  2 -1</clus>
</clustering>
</event>
<event>
 6    0  0.2433432E+002  0.1544993E+03  0.7546771E-02  0.1195051E+00
         21   -1    0    0  503  502  0.00000000000E+00  0.00000000000E+00  0.46740532134E+03  0.46740532134E+03  0.00000000000E+00 0.  1.
          2   -1    0    0  504    0 -0.00000000000E+00 -0.00000000000E+00 -0.88997818194E+03  0.88997818194E+03  0.00000000000E+00 0. -1.
         21    1    1    2  503  505  0.15163479516E+02  0.81693793960E+02  0.28391224234E+03  0.29582083840E+03  0.00000000000E+00 0.  1.
         21    1    1    2  504  502 -0.15978823086E+02  0.41709204127E+02  0.64803532561E+02  0.78705008280E+02  0.00000000000E+00 0. -1.
         21    1    1    2  505  501  0.33268629744E+02  0.19755064625E+02  0.95859146936E+02  0.10337330581E+03  0.00000000000E+00 0. -1.
          2    1    1    2  501    0 -0.32453286174E+02 -0.14315806271E+03 -0.86714778244E+03  0.87948435079E+03  0.00000000000E+00 0. -1.
<scales pt_clust_3="34.06608" pt_clust_4="44.66520" pt_clust_5="34.06608" pt_clust_6="146.21191"></scales>
<clustering>
<clus scale="   34.066">  3  5 -1 -1</clus>
<clus scale="   44.665">  1  4  2 -1</clus>
<clus scale="  146.212">  2  6  1 -1</clus>
<clus scale="   44.665">  1  3  2 -1</clus>
</clustering>
</event>
<event>
 6    0  0.2433432E+002  0.5830331E+02  0.7546771E-02  0.1405093E+00
          1   -1    0    0  504    0 -0.00000000000E+00  0.00000000000E+00  0.62200246893E+03  0.62200246893E+03  0.00000000000E+00 0.  1.
         21   -1    0    0  503  502  0.00000000000E+00 -0.00000000000E+00 -0.84497593969E+03  0.84497593969E+03  0.00000000000E+00 0.  1.
         21    1    1    2  503  505  0.41488227830E+02 -0.29989826322E+02 -0.91557775869E+02  0.10489751691E+03  0.00000000000E+00 0. -1.
         21    1    1    2  504  502 -0.54339738028E+02  0.88381138241E+02 -0.70252596935E+03  0.71014559799E+03  0.00000000000E+00 0.  1.
         21    1    1    2  505  501  0.57299218106E+02 -0.20623271197E+02 -0.15171735498E+02  0.62759073196E+02  0.00000000000E+00 0. -1.
          1    1    1    2  501    0 -0.44447707908E+02 -0.37768040722E+02  0.58628200996E+03  0.58917622053E+03  0.00000000000E+00 0.  1.
<scales pt_clust_3="51.19241" pt_clust_4="57.05525" pt_clust_5="14000.00000" pt_clust_6="58.30331"></scales>
<clustering>
<clus scale="   51.192">  2  3  1 -1</clus>
<clus scale="   58.303">  1  6  2 -1</clus>
<clus scale="   57.055">  2  4  1 -1</clus>
<clus scale="   51.192">  2  3  1 -1</clus>
</clustering>
</event>
<event>
 6    0  0.2433432E+002  0.1235761E+03  0.7546771E-02  0.1237311E+00
         21   -1    0    0  505  502  0.00000000000E+00  0.00000000000E+00  0.50565511378E+03  0.50565511378E+03  0.00000000000E+00 0. -1.
          2   -1    0    0  503    0 -0.00000000000E+00 -0.00000000000E+00 -0.97584518487E+03  0.97584518487E+03  0.00000000000E+00 0. -1.
         21    1    1    2  503  504  0.63720251332E+02  0.35920545993E+02  0.20129778320E+03  0.21417598739E+03  0.00000000000E+00 0. -1.
         21    1    1    2  504  502  0.25799522943E+02  0.16389066547E+02  0.24606821780E+03  0.24795923999E+03  0.00000000000E+00 0. -1.
         21    1    1    2  505  501  0.32497810193E+02 -0.26947362683E+02  0.37346000774E+02  0.56364809915E+02  0.00000000000E+00 0. -1.
          2    1    1    2  501    0 -0.12201758447E+03 -0.25362249858E+02 -0.95490207286E+03  0.96300026136E+03  0.00000000000E+00 0. -1.
<scales pt_clust_3="14000.00000" pt_clust_4="30.56496" pt_clust_5="44.23450" pt_clust_6="123.57614"></scales>
<clustering>
<clus scale="   30.565">  1  4  2 -1</clus>
<clus scale="   44.235">  1  5  2 -1</clus>
<clus scale="  123.576">  2  6  1 -1</clus>
<clus scale="   30.565">  1  3  2 -1</clus>
</clustering>
</event>
<event>
 6    0  0.2433432E+002  0.5981787E+02  0.7546771E-02  0.1398598E+00
          1   -1    0    0  504    0 -0.00000000000E+00  0.00000000000E+00  0.97432889399E+02  0.97432889399E+02  0.00000000000E+00 0.  1.
         21   -1    0    0  505  502  0.00000000000E+00 -0.00000000000E+00 -0.51753466251E+03  0.51753466251E+03  0.00000000000E+00 0.  1.
         21    1    1    2  503  501  0.39099223688E+02 -0.66566817496E+02 -0.21760706171E+01  0.77230989686E+02  0.00000000000E+00 0.  1.
         21    1    1    2  504  502 -0.29116948662E+02  0.56517252376E+02 -0.33559214197E+02  0.71890314876E+02  0.00000000000E+00 0.  1.
         21    1    1    2  505  503 -0.22437300301E+02 -0.48722259240E+02 -0.40015094489E+03  0.40373019417E+03  0.00000000000E+00 0.  1.
          1    1    1    2  501    0  0.12455025275E+02  0.58771824360E+02  0.15784456586E+02  0.62116053182E+02  0.00000000000E+00 0.  1.
<scales pt_clust_3="59.81787" pt_clust_4="14000.00000" pt_clust_5="53.64039" pt_clust_6="49.64956"></scales>
<clustering>
<clus scale="   53.640">  2  5  1 -1</clus>
<clus scale="   49.650">  1  6  2 -1</clus>
<clus scale="   59.818">  1  3  2 -1</clus>
<clus scale="   53.640">  2  3  1 -1</clus>
</clustering>
</event>
<event>
 6    0  0.2433432E+002  0.1290364E+03  0.7546771E-02  0.1228893E+00
          2   -1    0    0  504    0 -0.00000000000E+00  0.00000000000E+00  0.13127218017E+04  0.13127218017E+04  0.00000000000E+00 0. -1.
         21   -1    0    0  503  502  0.00000000000E+00 -0.00000000000E+00 -0.23802136046E+02  0.23802136046E+02  0.00000000000E+00 0.  1.
         21    1    1    2  503  501 -0.12819013467E+02  0.51471734389E+02  0.12167188241E+03  0.13273173515E+03  0.00000000000E+00 0.  1.
         21    1    1    2  504  505  0.48992110547E+02 -0.35563035093E+02  0.24444585418E+03  0.25183076060E+03  0.00000000000E+00 0.  1.
         21    1    1    2  505  502  0.70250964619E+02 -0.50953590709E+02  0.17003486348E+03  0.19090133901E+03  0.00000000000E+00 0.  1.
          2    1    1    2  501    0 -0.10642406170E+03  0.35044891413E+02  0.75276706559E+03  0.76106010299E+03  0.00000000000E+00 0. -1.
<scales pt_clust_3="53.04401" pt_clust_4="41.87250" pt_clust_5="41.87250" pt_clust_6="118.89906"></scales>
<clustering>
<clus scale="   41.873">  4  5 -1 -1</clus>
<clus scale="   53.044">  2  3  1 -1</clus>
<clus scale="  118.899">  1  6  2 -1</clus>
<clus scale="   53.044">  2  3  1 -1</clus>
</clustering>
</event>
<event>
 6    0  0.2433432E+002  0.1228951E+03  0.7546771E-02  0.1238396E+00
         21   -1    0    0  505  502  0.00000000000E+00  0.00000000000E+00  0.14315345488E+03  0.14315345488E+03  0.00000000000E+00 0.  1.
          1   -1    0    0  503    0 -0.00000000000E+00 -0.00000000000E+00 -0.15832582851E+04  0.15832582851E+04  0.00000000000E+00 0.  1.
         21    1    1    2  503  504  0.26273791575E+02  0.81946125565E+02  0.45635577142E+02  0.97406804279E+02  0.00000000000E+00 0.  1.
         21    1    1    2  504  502  0.60182199629E+02 -0.12714904035E+02  0.43717393895E+02  0.75463742723E+02  0.00000000000E+00 0.  1.
         21    1    1    2  505  501  0.29894912946E+02 -0.22578553307E+02 -0.27777467405E+02  0.46637802102E+02  0.00000000000E+00 0. -1.
          1    1    1    2  501    0 -0.11635090415E+03 -0.46652668222E+02 -0.15016803338E+04  0.15069033909E+04  0.00000000000E+00 0.  1.
<scales pt_clust_3="122.89514" pt_clust_4="76.95212" pt_clust_5="37.46327" pt_clust_6="14000.00000"></scales>
<clustering>
<clus scale="   37.463">  1  5  2 -1</clus>
<clus scale="   76.952">  1  4  2 -1</clus>
<clus scale="  122.895">  1  3  2 -1</clus>
<clus scale="   37.463">  1  3  2 -1</clus>
</clustering>
</event>
<event>
 6    0  0.2433432E+002  0.8663427E+02  0.7546771E-02  0.1311213E+00
         -2   -1    0    0    0  501 -0.00000000000E+00  0.00000000000E+00  0.42892535730E+03  0.42892535730E+03  0.00000000000E+00 0.  1.
         21   -1    0    0  504  502  0.00000000000E+00 -0.00000000000E+00 -0.19029330690E+03  0.19029330690E+03  0.00000000000E+00 0.  1.
         21    1    1    2  503  502  0.49762016534E+02 -0.46774983390E+02 -0.13212040408E+03  0.14872780014E+03  0.00000000000E+00 0.  1.
         21    1    1    2  504  505  0.78403836120E+01 -0.43300454321E+02 -0.97568064147E+00  0.44015371318E+02  0.00000000000E+00 0.  1.
         21    1    1    2  505  501  0.65168165092E+01  0.81038613261E+02  0.44062343325E+02  0.92472784299E+02  0.00000000000E+00 0.  1.
         -2    1    1    2    0  503 -0.64119216655E+02  0.90368244497E+01  0.32766579179E+03  0.33400270845E+03  0.00000000000E+00 0.  1.
<scales pt_clust_3="86.63427" pt_clust_4="44.00456" pt_clust_5="14000.00000" pt_clust_6="64.49702"></scales>
<clustering>
<clus scale="   44.005">  2  4  1 -1</clus>
<clus scale="   64.497">  1  6  2 -1</clus>
<clus scale="   86.634">  2  3  1 -1</clus>
<clus scale="   44.005">  2  3  1 -1</clus>
</clustering>
</event>
<event>
 6    0  0.2433432E+002  0.2126958E+03  0.7546771E-02  0.1139449E+00
         -4   -1    0    0    0  501 -0.00000000000E+00  0.00000000000E+00  0.88384782913E+03  0.88384782913E+03  0.00000000000E+00 0. -1.
         21   -1    0    0  503  502  0.00000000000E+00 -0.00000000000E+00 -0.57301808224E+03  0.57301808224E+03  0.00000000000E+00 0.  1.
         21    1    1    2  503  504 -0.14365242714E+03 -0.15606867303E+03 -0.18737685554E+03  0.28302568173E+03  0.00000000000E+00 0.  1.
         21    1    1    2  504  501  0.13892474735E+03  0.11926991221E+03  0.29023759388E+02  0.18538547946E+03  0.00000000000E+00 0. -1.
         21    1    1    2  505  502  0.17129686179E+02 -0.62248340516E+02 -0.25213143690E+03  0.26026629347E+03  0.00000000000E+00 0.  1.
         -4    1    1    2    0  505 -0.12402006387E+02  0.99047101336E+02  0.72131427995E+03  0.72818845672E+03  0.00000000000E+00 0. -1.
<scales pt_clust_3="14000.00000" pt_clust_4="212.69577" pt_clust_5="64.56223" pt_clust_6="99.12741"></scales>
<clustering>
<clus scale="   64.562">  2  5  1 -1</clus>
<clus scale="   99.127">  1  6  2 -1</clus>
<clus scale="  212.696">  1  4  2 -1</clus>
<clus scale="   64.562">  2  3  1 -1</clus>
</clustering>
</event>
<event>
 6    0  0.2433432E+002  0.1362778E+03  0.7546771E-02  0.1218427E+00
          1   -1    0    0  503    0 -0.00000000000E+00  0.00000000000E+00  0.80467180093E+02  0.80467180093E+02  0.00000000000E+00 0.  1.
         21   -1    0    0  505  502  0.00000000000E+00 -0.00000000000E+00 -0.11430137963E+04  0.11430137963E+04  0.00000000000E+00 0.  1.
         21    1    1    2  503  504  0.29176775242E+02  0.15910589912E+02  0.36100917406E+02  0.49068394333E+02  0.00000000000E+00 0.  1.
         21    1    1    2  504  502  0.12059203108E+03 -0.85929935296E+02 -0.21592456583E+03  0.26182018614E+03  0.00000000000E+00 0.  1.
         21    1    1    2  505  501 -0.20615273129E+02  0.62770645332E+02 -0.57503950341E+03  0.57882257548E+03  0.00000000000E+00 0.  1.
          1    1    1    2  501    0 -0.12915353320E+03  0.72487000517E+01 -0.30768346434E+03  0.33376982041E+03  0.00000000000E+00 0.  1.
<scales pt_clust_3="33.23298" pt_clust_4="136.27781" pt_clust_5="66.38950" pt_clust_6="14000.00000"></scales>
<clustering>
<clus scale="   33.233">  1  3  2 -1</clus>
<clus scale="   66.389">  2  5  1 -1</clus>
<clus scale="  136.278">  1  4  2 -1</clus>
<clus scale="   66.389">  2  3  1 -1</clus>
</clustering>
</event>
<event>
 6    0  0.2433432E+002  0.1184865E+03  0.7546771E-02  0.1245615E+00
         -3   -1    0    0    0  501 -0.00000000000E+00  0.00000000000E+00  0.79440400146E+02  0.79440400146E+02  0.00000000000E+00 0. -1.
         21   -1    0    0  501  502  0.00000000000E+00 -0.00000000000E+00 -0.12919361562E+04  0.12919361562E+04  0.00000000000E+00 0. -1.
         21    1    1    2  503  505 -0.55844981538E+02 -0.28492083902E+02 -0.25186477510E+03  0.25955023742E+03  0.00000000000E+00 0. -1.
         21    1    1    2  504  503 -0.30195300690E+02 -0.70293788707E+02 -0.16969560530E+03  0.18614395336E+03  0.00000000000E+00 0. -1.
         21    1    1    2  505  502  0.24332422880E+02  0.93842192162E+02 -0.84068957787E+03  0.84626082869E+03  0.00000000000E+00 0. -1.
         -3    1    1    2    0  504  0.61707859348E+02  0.49436804465E+01  0.49754202217E+02  0.79421536877E+02  0.00000000000E+00 0. -1.
<scales pt_clust_3="55.57194" pt_clust_4="55.57194" pt_clust_5="101.34332" pt_clust_6="61.90557"></scales>
<clustering>
<clus scale="   55.572">  3  4 -1 -1</clus>
<clus scale="   61.906">  1  6  2 -1</clus>
<clus scale="  101.343">  2  5  1 -1</clus>
<clus scale="  101.343">  2  3  1 -1</clus>
</clustering>
</event>
<event>
 6    0  0.2433432E+002  0.1808593E+03  0.7546771E-02  0.1166974E+00
         21   -1    0    0  504  502  0.00000000000E+00  0.00000000000E+00  0.80255080854E+03  0.80255080854E+03  0.00000000000E+00 0. -1.
          2   -1    0    0  505    0 -0.00000000000E+00 -0.00000000000E+00 -0.32473573971E+03  0.32473573971E+03  0.00000000000E+00 0. -1.
         21    1    1    2  503  501 -0.28726035708E+02  0.54831721483E+02 -0.48996524304E+01  0.62094358860E+02  0.00000000000E+00 0.  1.
         21    1    1    2  504  503  0.21418794660E+02  0.98822105745E+02  0.54583641383E+02  0.11490842987E+03  0.00000000000E+00 0.  1.
         21    1    1    2  505  502  0.59846246009E+02  0.89281025591E+01  0.65971915739E+03  0.66248822692E+03  0.00000000000E+00 0. -1.
          2    1    1    2  501    0 -0.52539004960E+02 -0.16258192979E+03 -0.23158807752E+03  0.28779553260E+03  0.00000000000E+00 0. -1.
<scales pt_clust_3="56.41305" pt_clust_4="56.41305" pt_clust_5="60.50855" pt_clust_6="165.86594"></scales>
<clustering>
<clus scale="   56.413">  3  4 -1 -1</clus>
<clus scale="   60.509">  1  5  2 -1</clus>
<clus scale="  165.866">  2  6  1 -1</clus>
<clus scale="   60.509">  1  3  2 -1</clus>
</clustering>
</event>
