<event>
 5    0  0.5590591E-005  0.2269495E+03  0.7546771E-02  0.1128805E+00
         21   -1    0    0  502  501  0.00000000000E+00  0.00000000000E+00  0.78554926207E+03  0.78554926207E+03  0.00000000000E+00 0. -1.
         21   -1    0    0  501  502 -0.00000000000E+00 -0.00000000000E+00 -0.65566986409E+02  0.65566986409E+02  0.00000000000E+00 0. -1.
         25    1    1    2    0    0 -0.65424140823E+02  0.22530469471E+02  0.23704682484E+03  0.27677452452E+03  0.12500000000E+03 0.  0.
         25    1    1    2    0    0  0.30322242610E+02  0.54300909298E+02  0.13108089829E+03  0.19150777802E+03  0.12500000000E+03 0.  0.
         25    1    1    2    0    0  0.35101898213E+02 -0.76831378769E+02  0.35185455254E+03  0.38283394594E+03  0.12500000000E+03 0.  0.
</event>
<event>
 5    0  0.5590591E-005  0.2313379E+03  0.7546771E-02  0.1125702E+00
         21   -1    0    0  502  501  0.00000000000E+00  0.00000000000E+00  0.91408350320E+02  0.91408350320E+02  0.00000000000E+00 0.  1.
         21   -1    0    0  501  502 -0.00000000000E+00 -0.00000000000E+00 -0.58547397990E+03  0.58547397990E+03  0.00000000000E+00 0.  1.
         25    1    1    2    0    0 -0.33498881704E+02 -0.14171046919E+02 -0.71355502860E+02  0.14845740613E+03  0.12500000000E+03 0.  0.
         25    1    1    2    0    0  0.39163643598E+02 -0.71043890489E+02 -0.29443985060E+03  0.33000128936E+03  0.12500000000E+03 0.  0.
         25    1    1    2    0    0 -0.56647618948E+01  0.85214937408E+02 -0.12827027612E+03  0.19842363473E+03  0.12500000000E+03 0.  0.
</event>
<event>
 5    0  0.5590591E-005  0.2224460E+03  0.7546771E-02  0.1132072E+00
         21   -1    0    0  502  501  0.00000000000E+00  0.00000000000E+00  0.30183570146E+03  0.30183570146E+03  0.00000000000E+00 0. -1.
         21   -1    0    0  501  502 -0.00000000000E+00 -0.00000000000E+00 -0.16393762228E+03  0.16393762228E+03  0.00000000000E+00 0. -1.
         25    1    1    2    0    0  0.99120479871E+01 -0.64573198634E+02 -0.96444422661E+01  0.14137171550E+03  0.12500000000E+03 0.  0.
         25    1    1    2    0    0 -0.25184593040E+02  0.31197713039E+02  0.51058167771E+01  0.13137210659E+03  0.12500000000E+03 0.  0.
         25    1    1    2    0    0  0.15272545053E+02  0.33375485595E+02  0.14243670467E+03  0.19302950165E+03  0.12500000000E+03 0.  0.
</event>
<event>
 5    0  0.5590591E-005  0.2925761E+03  0.7546771E-02  0.1089012E+00
         21   -1    0    0  502  501  0.00000000000E+00  0.00000000000E+00  0.91310294546E+02  0.91310294546E+02  0.00000000000E+00 0. -1.
         21   -1    0    0  501  502 -0.00000000000E+00 -0.00000000000E+00 -0.93747102290E+03  0.93747102290E+03  0.00000000000E+00 0. -1.
         25    1    1    2    0    0  0.90385787765E+02  0.64568196851E+02 -0.54202280425E+03  0.56723219496E+03  0.12500000000E+03 0.  0.
         25    1    1    2    0    0 -0.77169726261E+02 -0.13757053088E+03 -0.18935823356E+03  0.27633739927E+03  0.12500000000E+03 0.  0.
         25    1    1    2    0    0 -0.13216061504E+02  0.73002334028E+02 -0.11477969054E+03  0.18521172321E+03  0.12500000000E+03 0.  0.
</event>
<event>
 5    0  0.5590591E-005  0.3390576E+03  0.7546771E-02  0.1067198E+00
         21   -1    0    0  502  501  0.00000000000E+00  0.00000000000E+00  0.87155190979E+02  0.87155190979E+02  0.00000000000E+00 0. -1.
         21   -1    0    0  501  502 -0.00000000000E+00 -0.00000000000E+00 -0.13190269832E+04  0.13190269832E+04  0.00000000000E+00 0. -1.
         25    1    1    2    0    0  0.52505349665E+02 -0.18377993740E+03 -0.75097405818E+03  0.78493242588E+03  0.12500000000E+03 0.  0.
         25    1    1    2    0    0 -0.23493309666E+02  0.60641254889E+02 -0.40982076019E+02  0.14674408999E+03  0.12500000000E+03 0.  0.
         25    1    1    2    0    0 -0.29012040000E+02  0.12313868251E+03 -0.43991565804E+03  0.47450565833E+03  0.12500000000E+03 0.  0.
</event>
<event>
 5    0  0.5590591E-005  0.4176697E+03  0.7546771E-02  0.1037827E+00
         21   -1    0    0  502  501  0.00000000000E+00  0.00000000000E+00  0.30368911480E+03  0.30368911480E+03  0.00000000000E+00 0. -1.
         21   -1    0    0  501  502 -0.00000000000E+00 -0.00000000000E+00 -0.57442956752E+03  0.57442956752E+03  0.00000000000E+00 0. -1.
         25    1    1    2    0    0 -0.20607859132E+03  0.95807887957E+02 -0.33171625222E+03  0.42107981332E+03  0.12500000000E+03 0.  0.
         25    1    1    2    0    0  0.18113013453E+03 -0.13939727241E+02  0.16315203632E+03  0.27431009567E+03  0.12500000000E+03 0.  0.
         25    1    1    2    0    0  0.24948456793E+02 -0.81868160716E+02 -0.10217623682E+03  0.18272877334E+03  0.12500000000E+03 0.  0.
</event>
<event>
 5    0  0.5590591E-005  0.4131225E+03  0.7546771E-02  0.1039328E+00
         21   -1    0    0  502  501  0.00000000000E+00  0.00000000000E+00  0.60900390048E+03  0.60900390048E+03  0.00000000000E+00 0.  1.
         21   -1    0    0  501  502 -0.00000000000E+00 -0.00000000000E+00 -0.28024479712E+03  0.28024479712E+03  0.00000000000E+00 0. -1.
         25    1    1    2    0    0  0.36710407661E+02  0.10235833062E+03 -0.15986234480E+03  0.23022999623E+03  0.12500000000E+03 0.  0.
         25    1    1    2    0    0  0.14257438326E+03 -0.33439438324E+02  0.32385940147E+03  0.37676990686E+03  0.12500000000E+03 0.  0.
         25    1    1    2    0    0 -0.17928479092E+03 -0.68918892292E+02  0.16476204670E+03  0.28224879451E+03  0.12500000000E+03 0.  0.
</event>
<event>
 5    0  0.5590591E-005  0.2165664E+03  0.7546771E-02  0.1136469E+00
         21   -1    0    0  502  501  0.00000000000E+00  0.00000000000E+00  0.37239628113E+03  0.37239628113E+03  0.00000000000E+00 0. -1.
         21   -1    0    0  501  502 -0.00000000000E+00 -0.00000000000E+00 -0.12594378938E+03  0.12594378938E+03  0.00000000000E+00 0. -1.
         25    1    1    2    0    0  0.27664631204E+02  0.30182220621E+02  0.15790445832E+03  0.20551183961E+03  0.12500000000E+03 0.  0.
         25    1    1    2    0    0  0.97379941975E+01 -0.35319827768E+02 -0.78930758276E+01  0.13049758393E+03  0.12500000000E+03 0.  0.
         25    1    1    2    0    0 -0.37402625402E+02  0.51376071471E+01  0.96441109250E+02  0.16233064698E+03  0.12500000000E+03 0.  0.
</event>
<event>
 5    0  0.5590591E-005  0.3128085E+03  0.7546771E-02  0.1079007E+00
         21   -1    0    0  502  501  0.00000000000E+00  0.00000000000E+00  0.86195494623E+03  0.86195494623E+03  0.00000000000E+00 0.  1.
         21   -1    0    0  501  502 -0.00000000000E+00 -0.00000000000E+00 -0.11352003050E+03  0.11352003050E+03  0.00000000000E+00 0.  1.
         25    1    1    2    0    0  0.72194538476E+01  0.16743748373E+03  0.14831637873E+03  0.25633996893E+03  0.12500000000E+03 0.  0.
         25    1    1    2    0    0 -0.95867843861E+02 -0.41079396211E+02  0.12850916852E+03  0.20740724837E+03  0.12500000000E+03 0.  0.
         25    1    1    2    0    0  0.88648390013E+02 -0.12635808752E+03  0.47160936848E+03  0.51172775943E+03  0.12500000000E+03 0.  0.
</event>
<event>
 5    0  0.5590591E-005  0.3310550E+03  0.7546771E-02  0.1070671E+00
         21   -1    0    0  502  501  0.00000000000E+00  0.00000000000E+00  0.32686022825E+04  0.32686022825E+04  0.00000000000E+00 0. -1.
         21   -1    0    0  501  502 -0.00000000000E+00 -0.00000000000E+00 -0.33530364439E+02  0.33530364439E+02  0.00000000000E+00 0. -1.
         25    1    1    2    0    0 -0.11026363384E+03  0.26121394017E+02  0.50394789905E+03  0.53144038342E+03  0.12500000000E+03 0.  0.
         25    1    1    2    0    0  0.19783283138E+03  0.44251090575E+02  0.87044870399E+03  0.90244220562E+03  0.12500000000E+03 0.  0.
         25    1    1    2    0    0 -0.87569197546E+02 -0.70372484592E+02  0.18606753150E+04  0.18682500579E+04  0.12500000000E+03 0.  0.
</event>
<event>
 5    0  0.5590591E-005  0.2790292E+03  0.7546771E-02  0.1096220E+00
         21   -1    0    0  502  501  0.00000000000E+00  0.00000000000E+00  0.10574053342E+04  0.10574053342E+04  0.00000000000E+00 0.  1.
         21   -1    0    0  501  502 -0.00000000000E+00 -0.00000000000E+00 -0.73630523616E+02  0.73630523616E+02  0.00000000000E+00 0.  1.
         25    1    1    2    0    0 -0.15002737862E+02  0.87656519876E+02  0.35425176283E+03  0.38604152508E+03  0.12500000000E+03 0.  0.
         25    1    1    2    0    0 -0.40864480681E+02  0.36029135398E+02  0.64948498624E+02  0.15103414135E+03  0.12500000000E+03 0.  0.
         25    1    1    2    0    0  0.55867218543E+02 -0.12368565527E+03  0.56457454918E+03  0.59396019143E+03  0.12500000000E+03 0.  0.
</event>
<event>
 5    0  0.5590591E-005  0.4836241E+03  0.7546771E-02  0.1018144E+00
         21   -1    0    0  502  501  0.00000000000E+00  0.00000000000E+00  0.51780914011E+03  0.51780914011E+03  0.00000000000E+00 0. -1.
         21   -1    0    0  501  502 -0.00000000000E+00 -0.00000000000E+00 -0.45169590645E+03  0.45169590645E+03  0.00000000000E+00 0. -1.
         25    1    1    2    0    0  0.36442553901E+03  0.14817352136E+02 -0.11925858586E+03  0.40357544240E+03  0.12500000000E+03 0.  0.
         25    1    1    2    0    0 -0.25080735780E+03  0.92548430954E+02  0.21289283211E+03  0.36389270501E+03  0.12500000000E+03 0.  0.
         25    1    1    2    0    0 -0.11361818122E+03 -0.10736578309E+03 -0.27521012586E+02  0.20203689914E+03  0.12500000000E+03 0.  0.
</event>
<event>
 5    0  0.5590591E-005  0.3065740E+03  0.7546771E-02  0.1082000E+00
         21   -1    0    0  502  501  0.00000000000E+00  0.00000000000E+00  0.83256544400E+02  0.83256544400E+02  0.00000000000E+00 0.  1.
         21   -1    0    0  501  502 -0.00000000000E+00 -0.00000000000E+00 -0.11288918244E+04  0.11288918244E+04  0.00000000000E+00 0.  1.
         25    1    1    2    0    0 -0.11615612941E+03  0.93432360509E+02 -0.53941813267E+03  0.57342721791E+03  0.12500000000E+03 0.  0.
         25    1    1    2    0    0  0.75369568170E+02  0.79523913879E+02 -0.16502495353E+03  0.23422822198E+03  0.12500000000E+03 0.  0.
         25    1    1    2    0    0  0.40786561237E+02 -0.17295627439E+03 -0.34119219382E+03  0.40449292892E+03  0.12500000000E+03 0.  0.
</event>
<event>
 5    0  0.5590591E-005  0.3394913E+03  0.7546771E-02  0.1067013E+00
         21   -1    0    0  502  501  0.00000000000E+00  0.00000000000E+00  0.16027436485E+03  0.16027436485E+03  0.00000000000E+00 0.  1.
         21   -1    0    0  501  502 -0.00000000000E+00 -0.00000000000E+00 -0.71910638652E+03  0.71910638652E+03  0.00000000000E+00 0.  1.
         25    1    1    2    0    0 -0.59352262608E+02 -0.23548885394E+02 -0.76693883999E+02  0.15995059526E+03  0.12500000000E+03 0.  0.
         25    1    1    2    0    0  0.17777616309E+03  0.94678663851E+02 -0.47746096236E+03  0.53306883620E+03  0.12500000000E+03 0.  0.
         25    1    1    2    0    0 -0.11842390048E+03 -0.71129778457E+02 -0.46771753135E+01  0.18636131991E+03  0.12500000000E+03 0.  0.
</event>
<event>
 5    0  0.5590591E-005  0.3817370E+03  0.7546771E-02  0.1050294E+00
         21   -1    0    0  502  501  0.00000000000E+00  0.00000000000E+00  0.11085930485E+04  0.11085930485E+04  0.00000000000E+00 0. -1.
         21   -1    0    0  501  502 -0.00000000000E+00 -0.00000000000E+00 -0.13144870699E+03  0.13144870699E+03  0.00000000000E+00 0. -1.
         25    1    1    2    0    0  0.22937716337E+03  0.15086565581E+03  0.36773342097E+03  0.47563347030E+03  0.12500000000E+03 0.  0.
         25    1    1    2    0    0 -0.27002020484E+03 -0.11575971231E+03  0.48106830584E+03  0.57737590606E+03  0.12500000000E+03 0.  0.
         25    1    1    2    0    0  0.40643041466E+02 -0.35105943496E+02  0.12834261469E+03  0.18703237911E+03  0.12500000000E+03 0.  0.
</event>
<event>
 5    0  0.5590591E-005  0.3738185E+03  0.7546771E-02  0.1053242E+00
         21   -1    0    0  502  501  0.00000000000E+00  0.00000000000E+00  0.25823671882E+03  0.25823671882E+03  0.00000000000E+00 0. -1.
         21   -1    0    0  501  502 -0.00000000000E+00 -0.00000000000E+00 -0.54113244905E+03  0.54113244905E+03  0.00000000000E+00 0. -1.
         25    1    1    2    0    0 -0.17656147419E+03 -0.19760397986E+03 -0.12975836925E+03  0.32044269599E+03  0.12500000000E+03 0.  0.
         25    1    1    2    0    0  0.13005489310E+02 -0.35056066404E+02  0.45304154914E+01  0.13055112105E+03  0.12500000000E+03 0.  0.
         25    1    1    2    0    0  0.16355598488E+03  0.23266004626E+03 -0.15766777648E+03  0.34837535082E+03  0.12500000000E+03 0.  0.
</event>
<event>
 5    0  0.5590591E-005  0.3851300E+03  0.7546771E-02  0.1049054E+00
         21   -1    0    0  502  501  0.00000000000E+00  0.00000000000E+00  0.11585145365E+04  0.11585145365E+04  0.00000000000E+00 0. -1.
         21   -1    0    0  501  502 -0.00000000000E+00 -0.00000000000E+00 -0.12803043425E+03  0.12803043425E+03  0.00000000000E+00 0. -1.
         25    1    1    2    0    0  0.28143658842E+01 -0.16479253699E+03  0.33156394767E+02  0.20949665252E+03  0.12500000000E+03 0.  0.
         25    1    1    2    0    0 -0.10090643270E+03  0.23177874503E+02  0.64772613736E+03  0.66775255226E+03  0.12500000000E+03 0.  0.
         25    1    1    2    0    0  0.98092066819E+02  0.14161466249E+03  0.34960157015E+03  0.40929576599E+03  0.12500000000E+03 0.  0.
</event>
<event>
 5    0  0.5590591E-005  0.2666964E+03  0.7546771E-02  0.1103185E+00
         21   -1    0    0  502  501  0.00000000000E+00  0.00000000000E+00  0.38543142224E+02  0.38543142224E+02  0.00000000000E+00 0.  1.
         21   -1    0    0  501  502 -0.00000000000E+00 -0.00000000000E+00 -0.18453861030E+04  0.18453861030E+04  0.00000000000E+00 0.  1.
         25    1    1    2    0    0 -0.45894464863E+01 -0.37421651926E+02 -0.51662408163E+03  0.53286666697E+03  0.12500000000E+03 0.  0.
         25    1    1    2    0    0 -0.43782013274E+02 -0.89342876448E+02 -0.26543789103E+03  0.30980847027E+03  0.12500000000E+03 0.  0.
         25    1    1    2    0    0  0.48371459760E+02  0.12676452837E+03 -0.10247809881E+04  0.10412541079E+04  0.12500000000E+03 0.  0.
</event>
<event>
 5    0  0.5590591E-005  0.2662611E+03  0.7546771E-02  0.1103439E+00
         21   -1    0    0  502  501  0.00000000000E+00  0.00000000000E+00  0.46793515541E+02  0.46793515541E+02  0.00000000000E+00 0. -1.
         21   -1    0    0  501  502 -0.00000000000E+00 -0.00000000000E+00 -0.15150600347E+04  0.15150600347E+04  0.00000000000E+00 0. -1.
         25    1    1    2    0    0  0.46281312015E+02  0.37636225074E+02 -0.60097983829E+03  0.61673350104E+03  0.12500000000E+03 0.  0.
         25    1    1    2    0    0 -0.85224622974E+02  0.81413228111E+02 -0.25274764822E+03  0.30561041172E+03  0.12500000000E+03 0.  0.
         25    1    1    2    0    0  0.38943310959E+02 -0.11904945318E+03 -0.61453903264E+03  0.63950963746E+03  0.12500000000E+03 0.  0.
</event>
<event>
 5    0  0.6067234E-005  0.3461485E+03  0.7546771E-02  0.1064207E+00
         21   -1    0    0  502  501  0.00000000000E+00  0.00000000000E+00  0.25605921035E+03  0.25605921035E+03  0.00000000000E+00 0.  1.
         21   -1    0    0  501  502 -0.00000000000E+00 -0.00000000000E+00 -0.46793384767E+03  0.46793384767E+03  0.00000000000E+00 0.  1.
         25    1    1    2    0    0  0.10520082653E+03 -0.98724094021E+02 -0.26021721128E+02  0.19265458887E+03  0.12500000000E+03 0.  0.
         25    1    1    2    0    0 -0.17103275191E+03 -0.63310782786E+02  0.34172966800E+02  0.22372583468E+03  0.12500000000E+03 0.  0.
         25    1    1    2    0    0  0.65831925387E+02  0.16203487681E+03 -0.22002588299E+03  0.30761263447E+03  0.12500000000E+03 0.  0.
</event>
<event>
 5    0  0.5590591E-005  0.3824791E+03  0.7546771E-02  0.1050021E+00
         21   -1    0    0  502  501  0.00000000000E+00  0.00000000000E+00  0.13081749630E+03  0.13081749630E+03  0.00000000000E+00 0. -1.
         21   -1    0    0  501  502 -0.00000000000E+00 -0.00000000000E+00 -0.11182774306E+04  0.11182774306E+04  0.00000000000E+00 0. -1.
         25    1    1    2    0    0  0.16601391105E+03 -0.82477797010E+01 -0.28485480939E+03  0.35269803936E+03  0.12500000000E+03 0.  0.
         25    1    1    2    0    0 -0.16840268930E+01 -0.14542829670E+03 -0.58081091297E+03  0.61165230487E+03  0.12500000000E+03 0.  0.
         25    1    1    2    0    0 -0.16432988415E+03  0.15367607640E+03 -0.12179421189E+03  0.28474458263E+03  0.12500000000E+03 0.  0.
</event>
<event>
 5    0  0.5590591E-005  0.3270165E+03  0.7546771E-02  0.1072465E+00
         21   -1    0    0  502  501  0.00000000000E+00  0.00000000000E+00  0.54636893242E+03  0.54636893242E+03  0.00000000000E+00 0.  1.
         21   -1    0    0  501  502 -0.00000000000E+00 -0.00000000000E+00 -0.19572814645E+03  0.19572814645E+03  0.00000000000E+00 0.  1.
         25    1    1    2    0    0 -0.55607772820E+02  0.33849052795E+02  0.39188897192E+03  0.41646122158E+03  0.12500000000E+03 0.  0.
         25    1    1    2    0    0  0.43332602047E+02 -0.20874395984E+02 -0.11746451935E+03  0.17814704071E+03  0.12500000000E+03 0.  0.
         25    1    1    2    0    0  0.12275170773E+02 -0.12974656811E+02  0.76216333409E+02  0.14748881658E+03  0.12500000000E+03 0.  0.
</event>
<event>
 5    0  0.6135070E-005  0.3770211E+03  0.7546771E-02  0.1052040E+00
         21   -1    0    0  502  501  0.00000000000E+00  0.00000000000E+00  0.20914684734E+03  0.20914684734E+03  0.00000000000E+00 0.  1.
         21   -1    0    0  501  502 -0.00000000000E+00 -0.00000000000E+00 -0.67964157297E+03  0.67964157297E+03  0.00000000000E+00 0.  1.
         25    1    1    2    0    0  0.15952084158E+03 -0.84734857418E+02 -0.22612123516E+03  0.31525023069E+03  0.12500000000E+03 0.  0.
         25    1    1    2    0    0 -0.49015066438E+02  0.17029379644E+03 -0.30698822574E+03  0.37585798459E+03  0.12500000000E+03 0.  0.
         25    1    1    2    0    0 -0.11050577514E+03 -0.85558939021E+02  0.62614735272E+02  0.19768020503E+03  0.12500000000E+03 0.  0.
</event>
<event>
 5    0  0.5590591E-005  0.3832200E+03  0.7546771E-02  0.1049750E+00
         21   -1    0    0  502  501  0.00000000000E+00  0.00000000000E+00  0.96402122164E+03  0.96402122164E+03  0.00000000000E+00 0.  1.
         21   -1    0    0  501  502 -0.00000000000E+00 -0.00000000000E+00 -0.15233854747E+03  0.15233854747E+03  0.00000000000E+00 0.  1.
         25    1    1    2    0    0 -0.15969394839E+03 -0.53509904960E+02 -0.90683983336E+01  0.20993499692E+03  0.12500000000E+03 0.  0.
         25    1    1    2    0    0  0.11518823925E+03  0.12184073501E+03  0.63255773088E+03  0.66623402650E+03  0.12500000000E+03 0.  0.
         25    1    1    2    0    0  0.44505709139E+02 -0.68330830053E+02  0.18819334162E+03  0.24019074569E+03  0.12500000000E+03 0.  0.
</event>
<event>
 5    0  0.5590591E-005  0.3242566E+03  0.7546771E-02  0.1073707E+00
         21   -1    0    0  502  501  0.00000000000E+00  0.00000000000E+00  0.79385394922E+03  0.79385394922E+03  0.00000000000E+00 0. -1.
         21   -1    0    0  501  502 -0.00000000000E+00 -0.00000000000E+00 -0.13244547153E+03  0.13244547153E+03  0.00000000000E+00 0. -1.
         25    1    1    2    0    0  0.17497227506E+02 -0.18374904874E+03  0.81773621436E+02  0.23744850188E+03  0.12500000000E+03 0.  0.
         25    1    1    2    0    0 -0.11058810249E+03  0.10687900608E+03  0.32116546962E+03  0.37739251348E+03  0.12500000000E+03 0.  0.
         25    1    1    2    0    0  0.93090874985E+02  0.76870042660E+02  0.25846938663E+03  0.31145840539E+03  0.12500000000E+03 0.  0.
</event>
<event>
 5    0  0.5590591E-005  0.3360290E+03  0.7546771E-02  0.1068500E+00
         21   -1    0    0  502  501  0.00000000000E+00  0.00000000000E+00  0.17835390120E+04  0.17835390120E+04  0.00000000000E+00 0.  1.
         21   -1    0    0  501  502 -0.00000000000E+00 -0.00000000000E+00 -0.63309787729E+02  0.63309787729E+02  0.00000000000E+00 0.  1.
         25    1    1    2    0    0  0.10210294173E+03  0.13467128753E+03  0.35071128796E+03  0.40888234725E+03  0.12500000000E+03 0.  0.
         25    1    1    2    0    0  0.80747177334E+02 -0.13280669012E+03  0.45131672995E+03  0.49342630080E+03  0.12500000000E+03 0.  0.
         25    1    1    2    0    0 -0.18285011906E+03 -0.18645974072E+01  0.91820120633E+03  0.94454015164E+03  0.12500000000E+03 0.  0.
</event>
<event>
 5    0  0.5590591E-005  0.3092633E+03  0.7546771E-02  0.1080700E+00
         21   -1    0    0  502  501  0.00000000000E+00  0.00000000000E+00  0.14414723922E+03  0.14414723922E+03  0.00000000000E+00 0. -1.
         21   -1    0    0  501  502 -0.00000000000E+00 -0.00000000000E+00 -0.66351474701E+03  0.66351474701E+03  0.00000000000E+00 0. -1.
         25    1    1    2    0    0 -0.12135241588E+03 -0.11712935481E+03 -0.10721628019E+03  0.23572446911E+03  0.12500000000E+03 0.  0.
         25    1    1    2    0    0  0.96578415193E+02  0.16302437188E+03 -0.13669009488E+03  0.26497833524E+03  0.12500000000E+03 0.  0.
         25    1    1    2    0    0  0.24774000686E+02 -0.45895017073E+02 -0.27546113272E+03  0.30695918188E+03  0.12500000000E+03 0.  0.
</event>
<event>
 5    0  0.5590591E-005  0.2642355E+03  0.7546771E-02  0.1104625E+00
         21   -1    0    0  502  501  0.00000000000E+00  0.00000000000E+00  0.33094974942E+03  0.33094974942E+03  0.00000000000E+00 0. -1.
         21   -1    0    0  501  502 -0.00000000000E+00 -0.00000000000E+00 -0.21096974732E+03  0.21096974732E+03  0.00000000000E+00 0. -1.
         25    1    1    2    0    0 -0.31397049782E+02  0.33079615690E+02 -0.78694005750E+02  0.15458907546E+03  0.12500000000E+03 0.  0.
         25    1    1    2    0    0  0.59402325797E+01  0.89181955379E+02  0.70648473333E+02  0.16912987410E+03  0.12500000000E+03 0.  0.
         25    1    1    2    0    0  0.25456817202E+02 -0.12226157107E+03  0.12802553451E+03  0.21820054718E+03  0.12500000000E+03 0.  0.
</event>
<event>
 5    0  0.5590591E-005  0.3222511E+03  0.7546771E-02  0.1074618E+00
         21   -1    0    0  502  501  0.00000000000E+00  0.00000000000E+00  0.46840480026E+03  0.46840480026E+03  0.00000000000E+00 0. -1.
         21   -1    0    0  501  502 -0.00000000000E+00 -0.00000000000E+00 -0.22170085381E+03  0.22170085381E+03  0.00000000000E+00 0. -1.
         25    1    1    2    0    0  0.15258356533E+03 -0.15505767972E+02  0.25821132559E+03  0.32530026424E+03  0.12500000000E+03 0.  0.
         25    1    1    2    0    0  0.13314188620E+02 -0.21893852606E+02 -0.70336488631E+02  0.14570116689E+03  0.12500000000E+03 0.  0.
         25    1    1    2    0    0 -0.16589775395E+03  0.37399620578E+02  0.58829109485E+02  0.21910422293E+03  0.12500000000E+03 0.  0.
</event>
<event>
 5    0  0.5874733E-005  0.3385507E+03  0.7546771E-02  0.1067415E+00
         21   -1    0    0  502  501  0.00000000000E+00  0.00000000000E+00  0.37215951403E+03  0.37215951403E+03  0.00000000000E+00 0.  1.
         21   -1    0    0  501  502 -0.00000000000E+00 -0.00000000000E+00 -0.30797703030E+03  0.30797703030E+03  0.00000000000E+00 0.  1.
         25    1    1    2    0    0 -0.13372392528E+03  0.45185925909E+02  0.59028471276E+02  0.19756825786E+03  0.12500000000E+03 0.  0.
         25    1    1    2    0    0 -0.79063304444E+02 -0.69111430427E+01 -0.13137581686E+03  0.19794791048E+03  0.12500000000E+03 0.  0.
         25    1    1    2    0    0  0.21278722972E+03 -0.38274782866E+02  0.13652982931E+03  0.28462037599E+03  0.12500000000E+03 0.  0.
</event>
<event>
 5    0  0.5590591E-005  0.2686792E+03  0.7546771E-02  0.1102038E+00
         21   -1    0    0  502  501  0.00000000000E+00  0.00000000000E+00  0.45577877885E+02  0.45577877885E+02  0.00000000000E+00 0.  1.
         21   -1    0    0  501  502 -0.00000000000E+00 -0.00000000000E+00 -0.15838494262E+04  0.15838494262E+04  0.00000000000E+00 0.  1.
         25    1    1    2    0    0  0.63481626372E+02 -0.47197042516E+02 -0.40614689217E+03  0.43224735480E+03  0.12500000000E+03 0.  0.
         25    1    1    2    0    0 -0.15113594809E+03  0.99873988360E+02 -0.53265220695E+03  0.57633346418E+03  0.12500000000E+03 0.  0.
         25    1    1    2    0    0  0.87654321717E+02 -0.52676945844E+02 -0.59947244920E+03  0.62084648512E+03  0.12500000000E+03 0.  0.
</event>
<event>
 5    0  0.5590591E-005  0.2678747E+03  0.7546771E-02  0.1102502E+00
         21   -1    0    0  502  501  0.00000000000E+00  0.00000000000E+00  0.58275217914E+03  0.58275217914E+03  0.00000000000E+00 0. -1.
         21   -1    0    0  501  502 -0.00000000000E+00 -0.00000000000E+00 -0.12313438222E+03  0.12313438222E+03  0.00000000000E+00 0. -1.
         25    1    1    2    0    0 -0.29192243055E+02  0.29831489429E+02  0.20683795073E+03  0.24525301768E+03  0.12500000000E+03 0.  0.
         25    1    1    2    0    0 -0.72387793555E+01 -0.92233064089E+02  0.27364918808E+03  0.31475103840E+03  0.12500000000E+03 0.  0.
         25    1    1    2    0    0  0.36431022411E+02  0.62401574660E+02 -0.20869341895E+02  0.14588250527E+03  0.12500000000E+03 0.  0.
</event>
<event>
 5    0  0.5590591E-005  0.2647371E+03  0.7546771E-02  0.1104330E+00
         21   -1    0    0  502  501  0.00000000000E+00  0.00000000000E+00  0.14842928691E+03  0.14842928691E+03  0.00000000000E+00 0. -1.
         21   -1    0    0  501  502 -0.00000000000E+00 -0.00000000000E+00 -0.47218253923E+03  0.47218253923E+03  0.00000000000E+00 0. -1.
         25    1    1    2    0    0 -0.83152507807E+02  0.88749757602E+01 -0.12549685880E+02  0.15091586850E+03  0.12500000000E+03 0.  0.
         25    1    1    2    0    0  0.15522219359E+03 -0.20796708706E+02 -0.13486328848E+03  0.24153579249E+03  0.12500000000E+03 0.  0.
         25    1    1    2    0    0 -0.72069685782E+02  0.11921732946E+02 -0.17634027797E+03  0.22816016515E+03  0.12500000000E+03 0.  0.
</event>
<event>
 5    0  0.5590591E-005  0.3252617E+03  0.7546771E-02  0.1073253E+00
         21   -1    0    0  502  501  0.00000000000E+00  0.00000000000E+00  0.32632138736E+03  0.32632138736E+03  0.00000000000E+00 0. -1.
         21   -1    0    0  501  502 -0.00000000000E+00 -0.00000000000E+00 -0.32420550957E+03  0.32420550957E+03  0.00000000000E+00 0. -1.
         25    1    1    2    0    0 -0.15915877841E+03  0.16332972681E+02  0.14405614476E+03  0.24894870071E+03  0.12500000000E+03 0.  0.
         25    1    1    2    0    0  0.15428796267E+03  0.62814944118E+01  0.15442425184E+02  0.19926791285E+03  0.12500000000E+03 0.  0.
         25    1    1    2    0    0  0.48708157415E+01 -0.22614467093E+02 -0.15738269216E+03  0.20231028337E+03  0.12500000000E+03 0.  0.
</event>
<event>
 5    0  0.5590591E-005  0.2513313E+03  0.7546771E-02  0.1112466E+00
         21   -1    0    0  502  501  0.00000000000E+00  0.00000000000E+00  0.11832853983E+03  0.11832853983E+03  0.00000000000E+00 0.  1.
         21   -1    0    0  501  502 -0.00000000000E+00 -0.00000000000E+00 -0.53383067064E+03  0.53383067064E+03  0.00000000000E+00 0.  1.
         25    1    1    2    0    0 -0.11855413635E+03  0.63247662179E+02 -0.14653196790E+03  0.23484456058E+03  0.12500000000E+03 0.  0.
         25    1    1    2    0    0  0.12506937157E+02 -0.62614533227E+01 -0.44151032140E+02  0.13330394936E+03  0.12500000000E+03 0.  0.
         25    1    1    2    0    0  0.10604719919E+03 -0.56986208856E+02 -0.22481913077E+03  0.28401070053E+03  0.12500000000E+03 0.  0.
</event>
<event>
 5    0  0.5590591E-005  0.2625755E+03  0.7546771E-02  0.1105606E+00
         21   -1    0    0  502  501  0.00000000000E+00  0.00000000000E+00  0.99034177084E+02  0.99034177084E+02  0.00000000000E+00 0.  1.
         21   -1    0    0  501  502 -0.00000000000E+00 -0.00000000000E+00 -0.69618290606E+03  0.69618290606E+03  0.00000000000E+00 0.  1.
         25    1    1    2    0    0 -0.15305447198E+02  0.85289703906E+02 -0.19784758241E+03  0.24955411471E+03  0.12500000000E+03 0.  0.
         25    1    1    2    0    0  0.12426392100E+03 -0.10859449974E+02 -0.26993045989E+03  0.32256302158E+03  0.12500000000E+03 0.  0.
         25    1    1    2    0    0 -0.10895847380E+03 -0.74430253931E+02 -0.12937068668E+03  0.22309994685E+03  0.12500000000E+03 0.  0.
</event>
<event>
 5    0  0.5590591E-005  0.2610140E+03  0.7546771E-02  0.1106536E+00
         21   -1    0    0  502  501  0.00000000000E+00  0.00000000000E+00  0.12591121271E+04  0.12591121271E+04  0.00000000000E+00 0. -1.
         21   -1    0    0  501  502 -0.00000000000E+00 -0.00000000000E+00 -0.54108228494E+02  0.54108228494E+02  0.00000000000E+00 0. -1.
         25    1    1    2    0    0 -0.73476799312E+02 -0.94041842669E+02  0.19890515576E+03  0.26349756962E+03  0.12500000000E+03 0.  0.
         25    1    1    2    0    0  0.70890084239E+02  0.22673107769E+01  0.51870534440E+03  0.53824787881E+03  0.12500000000E+03 0.  0.
         25    1    1    2    0    0  0.25867150736E+01  0.91774531892E+02  0.48739339845E+03  0.51147490716E+03  0.12500000000E+03 0.  0.
</event>
<event>
 5    0  0.5590591E-005  0.1977693E+03  0.7546771E-02  0.1151635E+00
         21   -1    0    0  502  501  0.00000000000E+00  0.00000000000E+00  0.28717456064E+03  0.28717456064E+03  0.00000000000E+00 0. -1.
         21   -1    0    0  501  502 -0.00000000000E+00 -0.00000000000E+00 -0.13619828741E+03  0.13619828741E+03  0.00000000000E+00 0. -1.
         25    1    1    2    0    0 -0.51913562597E+02 -0.12483624951E+02  0.40996208592E+02  0.14197375811E+03  0.12500000000E+03 0.  0.
         25    1    1    2    0    0  0.37184200476E+02  0.67758337301E+01  0.75194924473E+02  0.15069125175E+03  0.12500000000E+03 0.  0.
         25    1    1    2    0    0  0.14729362121E+02  0.57077912214E+01  0.34785140161E+02  0.13070783819E+03  0.12500000000E+03 0.  0.
</event>
<event>
 5    0  0.5590591E-005  0.4633338E+03  0.7546771E-02  0.1023819E+00
         21   -1    0    0  502  501  0.00000000000E+00  0.00000000000E+00  0.69921793138E+03  0.69921793138E+03  0.00000000000E+00 0.  1.
         21   -1    0    0  501  502 -0.00000000000E+00 -0.00000000000E+00 -0.30702624050E+03  0.30702624050E+03  0.00000000000E+00 0.  1.
         25    1    1    2    0    0 -0.21108629922E+01 -0.32414412656E+03  0.11554072453E+03  0.36612638467E+03  0.12500000000E+03 0.  0.
         25    1    1    2    0    0  0.35584407345E+02 -0.61236185014E+02 -0.79193472408E+01  0.14388827771E+03  0.12500000000E+03 0.  0.
         25    1    1    2    0    0 -0.33473544353E+02  0.38538031157E+03  0.28457031360E+03  0.49622950950E+03  0.12500000000E+03 0.  0.
</event>
<event>
 5    0  0.5590591E-005  0.3856185E+03  0.7546771E-02  0.1048876E+00
         21   -1    0    0  502  501  0.00000000000E+00  0.00000000000E+00  0.27134237955E+03  0.27134237955E+03  0.00000000000E+00 0. -1.
         21   -1    0    0  501  502 -0.00000000000E+00 -0.00000000000E+00 -0.54802223970E+03  0.54802223970E+03  0.00000000000E+00 0. -1.
         25    1    1    2    0    0 -0.81000502442E+02 -0.36380440103E+00 -0.20656556431E+02  0.15037588594E+03  0.12500000000E+03 0.  0.
         25    1    1    2    0    0 -0.67609231522E+02  0.19699712104E+03 -0.30333608156E+03  0.38860861064E+03  0.12500000000E+03 0.  0.
         25    1    1    2    0    0  0.14860973396E+03 -0.19663331664E+03  0.47312777847E+02  0.28038012267E+03  0.12500000000E+03 0.  0.
</event>
<event>
 5    0  0.5590591E-005  0.3385787E+03  0.7546771E-02  0.1067403E+00
         21   -1    0    0  502  501  0.00000000000E+00  0.00000000000E+00  0.11700238857E+04  0.11700238857E+04  0.00000000000E+00 0.  1.
         21   -1    0    0  501  502 -0.00000000000E+00 -0.00000000000E+00 -0.97977080424E+02  0.97977080424E+02  0.00000000000E+00 0.  1.
         25    1    1    2    0    0 -0.67625798526E+02  0.21227393273E+03  0.21822044812E+03  0.33597415841E+03  0.12500000000E+03 0.  0.
         25    1    1    2    0    0  0.70180540868E+02 -0.33082741906E+02  0.44177539633E+03  0.46562890474E+03  0.12500000000E+03 0.  0.
         25    1    1    2    0    0 -0.25547423419E+01 -0.17919119083E+03  0.41205096084E+03  0.46639790299E+03  0.12500000000E+03 0.  0.
</event>
<event>
 5    0  0.5590591E-005  0.2785083E+03  0.7546771E-02  0.1096506E+00
         21   -1    0    0  502  501  0.00000000000E+00  0.00000000000E+00  0.74416042451E+03  0.74416042451E+03  0.00000000000E+00 0. -1.
         21   -1    0    0  501  502 -0.00000000000E+00 -0.00000000000E+00 -0.10423405876E+03  0.10423405876E+03  0.00000000000E+00 0. -1.
         25    1    1    2    0    0 -0.83793540490E+02  0.25207654344E+01  0.11046495477E+03  0.18669552196E+03  0.12500000000E+03 0.  0.
         25    1    1    2    0    0 -0.83729309148E+02  0.80534480819E+02  0.25533567841E+03  0.30711188268E+03  0.12500000000E+03 0.  0.
         25    1    1    2    0    0  0.16752284964E+03 -0.83055246253E+02  0.27412573256E+03  0.35458707863E+03  0.12500000000E+03 0.  0.
</event>
<event>
 5    0  0.5644585E-005  0.3319018E+03  0.7546771E-02  0.1070298E+00
         21   -1    0    0  502  501  0.00000000000E+00  0.00000000000E+00  0.67279112196E+02  0.67279112196E+02  0.00000000000E+00 0.  1.
         21   -1    0    0  501  502 -0.00000000000E+00 -0.00000000000E+00 -0.16373400981E+04  0.16373400981E+04  0.00000000000E+00 0.  1.
         25    1    1    2    0    0  0.34391171652E+02  0.40483726159E+02 -0.81168447090E+03  0.82296923701E+03  0.12500000000E+03 0.  0.
         25    1    1    2    0    0  0.26319955997E+02 -0.20032736546E+03 -0.38649065070E+03  0.45367809790E+03  0.12500000000E+03 0.  0.
         25    1    1    2    0    0 -0.60711127649E+02  0.15984363931E+03 -0.37188586431E+03  0.42797187538E+03  0.12500000000E+03 0.  0.
</event>
<event>
 5    0  0.5590591E-005  0.3065151E+03  0.7546771E-02  0.1082028E+00
         21   -1    0    0  502  501  0.00000000000E+00  0.00000000000E+00  0.18386606548E+04  0.18386606548E+04  0.00000000000E+00 0.  1.
         21   -1    0    0  501  502 -0.00000000000E+00 -0.00000000000E+00 -0.51097786128E+02  0.51097786128E+02  0.00000000000E+00 0.  1.
         25    1    1    2    0    0 -0.18979177516E+02  0.49462327951E+02  0.13842533151E+03  0.19388992616E+03  0.12500000000E+03 0.  0.
         25    1    1    2    0    0 -0.30568037503E+02 -0.13212331302E+03  0.12960628368E+04  0.13091198768E+04  0.12500000000E+03 0.  0.
         25    1    1    2    0    0  0.49547215020E+02  0.82660985064E+02  0.35307470035E+03  0.38674863800E+03  0.12500000000E+03 0.  0.
</event>
<event>
 5    0  0.5590591E-005  0.2284422E+03  0.7546771E-02  0.1127741E+00
         21   -1    0    0  502  501  0.00000000000E+00  0.00000000000E+00  0.59169191352E+03  0.59169191352E+03  0.00000000000E+00 0.  1.
         21   -1    0    0  501  502 -0.00000000000E+00 -0.00000000000E+00 -0.88197665530E+02  0.88197665530E+02  0.00000000000E+00 0.  1.
         25    1    1    2    0    0  0.28301154180E+02  0.47957493630E+02  0.53477992307E+02  0.14692097258E+03  0.12500000000E+03 0.  0.
         25    1    1    2    0    0 -0.13977008202E+02  0.16242865645E+02  0.12265048955E+03  0.17642939106E+03  0.12500000000E+03 0.  0.
         25    1    1    2    0    0 -0.14324145978E+02 -0.64200359276E+02  0.32736576614E+03  0.35653921541E+03  0.12500000000E+03 0.  0.
</event>
<event>
 5    0  0.5590591E-005  0.2636320E+03  0.7546771E-02  0.1104981E+00
         21   -1    0    0  502  501  0.00000000000E+00  0.00000000000E+00  0.16444377938E+03  0.16444377938E+03  0.00000000000E+00 0. -1.
         21   -1    0    0  501  502 -0.00000000000E+00 -0.00000000000E+00 -0.42264784830E+03  0.42264784830E+03  0.00000000000E+00 0. -1.
         25    1    1    2    0    0 -0.11102477299E+03  0.53977240922E+02 -0.90445915508E+02  0.19759935827E+03  0.12500000000E+03 0.  0.
         25    1    1    2    0    0  0.14434686710E+03 -0.30767650557E+02 -0.24301102092E+02  0.19493129539E+03  0.12500000000E+03 0.  0.
         25    1    1    2    0    0 -0.33322094107E+02 -0.23209590364E+02 -0.14345705131E+03  0.19456097402E+03  0.12500000000E+03 0.  0.
</event>
<event>
 5    0  0.5590591E-005  0.3696977E+03  0.7546771E-02  0.1054809E+00
         21   -1    0    0  502  501  0.00000000000E+00  0.00000000000E+00  0.66195719432E+03  0.66195719432E+03  0.00000000000E+00 0. -1.
         21   -1    0    0  501  502 -0.00000000000E+00 -0.00000000000E+00 -0.20647317845E+03  0.20647317845E+03  0.00000000000E+00 0. -1.
         25    1    1    2    0    0 -0.13988352317E+03  0.86558122610E+02  0.23018986597E+03  0.30930904131E+03  0.12500000000E+03 0.  0.
         25    1    1    2    0    0 -0.78827447933E+02 -0.18432336209E+03  0.65374226738E+02  0.24512783987E+03  0.12500000000E+03 0.  0.
         25    1    1    2    0    0  0.21871097110E+03  0.97765239480E+02  0.15991992316E+03  0.31399349158E+03  0.12500000000E+03 0.  0.
</event>
<event>
 5    0  0.5590591E-005  0.2992587E+03  0.7546771E-02  0.1085612E+00
         21   -1    0    0  502  501  0.00000000000E+00  0.00000000000E+00  0.36325799809E+03  0.36325799809E+03  0.00000000000E+00 0.  1.
         21   -1    0    0  501  502 -0.00000000000E+00 -0.00000000000E+00 -0.24653494393E+03  0.24653494393E+03  0.00000000000E+00 0.  1.
         25    1    1    2    0    0 -0.10857584199E+03  0.87783331404E+02  0.22947020006E+03  0.29627048360E+03  0.12500000000E+03 0.  0.
         25    1    1    2    0    0  0.23127372938E+02 -0.40781471435E+02 -0.60713203136E+02  0.14665979963E+03  0.12500000000E+03 0.  0.
         25    1    1    2    0    0  0.85448469050E+02 -0.47001859969E+02 -0.52033942762E+02  0.16686265880E+03  0.12500000000E+03 0.  0.
</event>
<event>
 5    0  0.5590591E-005  0.2659321E+03  0.7546771E-02  0.1103631E+00
         21   -1    0    0  502  501  0.00000000000E+00  0.00000000000E+00  0.32552621309E+03  0.32552621309E+03  0.00000000000E+00 0.  1.
         21   -1    0    0  501  502 -0.00000000000E+00 -0.00000000000E+00 -0.21724785324E+03  0.21724785324E+03  0.00000000000E+00 0.  1.
         25    1    1    2    0    0  0.38201940490E+02  0.12444014759E+03  0.11508192206E+03  0.21404108806E+03  0.12500000000E+03 0.  0.
         25    1    1    2    0    0 -0.75358237355E+02 -0.14284309857E+01  0.20494637664E+02  0.14739719986E+03  0.12500000000E+03 0.  0.
         25    1    1    2    0    0  0.37156296865E+02 -0.12301171661E+03 -0.27298199875E+02  0.18133577842E+03  0.12500000000E+03 0.  0.
</event>
<event>
 5    0  0.5590591E-005  0.3116300E+03  0.7546771E-02  0.1079567E+00
         21   -1    0    0  502  501  0.00000000000E+00  0.00000000000E+00  0.11903831438E+03  0.11903831438E+03  0.00000000000E+00 0.  1.
         21   -1    0    0  501  502 -0.00000000000E+00 -0.00000000000E+00 -0.81581523457E+03  0.81581523457E+03  0.00000000000E+00 0.  1.
         25    1    1    2    0    0 -0.14183541742E+02  0.16721715645E+03 -0.14419093427E+03  0.25412354435E+03  0.12500000000E+03 0.  0.
         25    1    1    2    0    0 -0.78740754600E+02 -0.16502760846E+02 -0.36492260487E+03  0.39403801224E+03  0.12500000000E+03 0.  0.
         25    1    1    2    0    0  0.92924296342E+02 -0.15071439561E+03 -0.18766338105E+03  0.28669199236E+03  0.12500000000E+03 0.  0.
</event>
<event>
 5    0  0.5590591E-005  0.2633805E+03  0.7546771E-02  0.1105129E+00
         21   -1    0    0  502  501  0.00000000000E+00  0.00000000000E+00  0.91128324099E+02  0.91128324099E+02  0.00000000000E+00 0. -1.
         21   -1    0    0  501  502 -0.00000000000E+00 -0.00000000000E+00 -0.76122613059E+03  0.76122613059E+03  0.00000000000E+00 0. -1.
         25    1    1    2    0    0  0.80664297577E+02 -0.65973085598E+01 -0.21023575144E+03  0.25763214972E+03  0.12500000000E+03 0.  0.
         25    1    1    2    0    0 -0.87359209575E+02 -0.11631190868E+03 -0.30725500423E+03  0.36220260798E+03  0.12500000000E+03 0.  0.
         25    1    1    2    0    0  0.66949119986E+01  0.12290921724E+03 -0.15260705081E+03  0.23251969699E+03  0.12500000000E+03 0.  0.
</event>
<event>
 5    0  0.6871412E-005  0.2932456E+03  0.7546771E-02  0.1088667E+00
         21   -1    0    0  502  501  0.00000000000E+00  0.00000000000E+00  0.60138646874E+03  0.60138646874E+03  0.00000000000E+00 0.  1.
         21   -1    0    0  501  502 -0.00000000000E+00 -0.00000000000E+00 -0.14299121290E+03  0.14299121290E+03  0.00000000000E+00 0.  1.
         25    1    1    2    0    0 -0.78318954669E+01  0.60675458278E+02  0.26153510983E+03  0.29625742775E+03  0.12500000000E+03 0.  0.
         25    1    1    2    0    0  0.10082933395E+03 -0.14787512784E+03  0.14544646039E+03  0.26232285615E+03  0.12500000000E+03 0.  0.
         25    1    1    2    0    0 -0.92997438485E+02  0.87199669561E+02  0.51413685629E+02  0.18579739774E+03  0.12500000000E+03 0.  0.
</event>
<event>
 5    0  0.5590591E-005  0.2524742E+03  0.7546771E-02  0.1111751E+00
         21   -1    0    0  502  501  0.00000000000E+00  0.00000000000E+00  0.10209857038E+04  0.10209857038E+04  0.00000000000E+00 0. -1.
         21   -1    0    0  501  502 -0.00000000000E+00 -0.00000000000E+00 -0.62433000043E+02  0.62433000043E+02  0.00000000000E+00 0. -1.
         25    1    1    2    0    0  0.42184413788E+02 -0.72094666039E+02  0.14985609294E+03  0.21227108665E+03  0.12500000000E+03 0.  0.
         25    1    1    2    0    0 -0.25921490533E+02  0.22394160160E+02  0.64853270693E+03  0.66135700952E+03  0.12500000000E+03 0.  0.
         25    1    1    2    0    0 -0.16262923255E+02  0.49700505879E+02  0.16016390387E+03  0.20979060766E+03  0.12500000000E+03 0.  0.
</event>
<event>
 5    0  0.5590591E-005  0.2996787E+03  0.7546771E-02  0.1085401E+00
         21   -1    0    0  502  501  0.00000000000E+00  0.00000000000E+00  0.86548749010E+03  0.86548749010E+03  0.00000000000E+00 0. -1.
         21   -1    0    0  501  502 -0.00000000000E+00 -0.00000000000E+00 -0.10376504474E+03  0.10376504474E+03  0.00000000000E+00 0. -1.
         25    1    1    2    0    0 -0.12481887346E+03 -0.14064443038E+03  0.42505901798E+03  0.48131151632E+03  0.12500000000E+03 0.  0.
         25    1    1    2    0    0  0.11478360255E+03  0.14318797114E+03  0.25569668105E+03  0.33865006008E+03  0.12500000000E+03 0.  0.
         25    1    1    2    0    0  0.10035270911E+02 -0.25435407649E+01  0.80966746328E+02  0.14929095844E+03  0.12500000000E+03 0.  0.
</event>
<event>
 5    0  0.5590591E-005  0.4022667E+03  0.7546771E-02  0.1042998E+00
         21   -1    0    0  502  501  0.00000000000E+00  0.00000000000E+00  0.14445942275E+03  0.14445942275E+03  0.00000000000E+00 0. -1.
         21   -1    0    0  501  502 -0.00000000000E+00 -0.00000000000E+00 -0.11201659295E+04  0.11201659295E+04  0.00000000000E+00 0. -1.
         25    1    1    2    0    0  0.34843060697E+01  0.15593588940E+02 -0.28862676805E+02  0.12928013969E+03  0.12500000000E+03 0.  0.
         25    1    1    2    0    0  0.32717277434E+02 -0.22495877241E+03 -0.81602484039E+03  0.85627005650E+03  0.12500000000E+03 0.  0.
         25    1    1    2    0    0 -0.36201583504E+02  0.20936518347E+03 -0.13081898951E+03  0.27907515603E+03  0.12500000000E+03 0.  0.
</event>
<event>
 5    0  0.5590591E-005  0.2702345E+03  0.7546771E-02  0.1101145E+00
         21   -1    0    0  502  501  0.00000000000E+00  0.00000000000E+00  0.29389450952E+03  0.29389450952E+03  0.00000000000E+00 0. -1.
         21   -1    0    0  501  502 -0.00000000000E+00 -0.00000000000E+00 -0.24847927401E+03  0.24847927401E+03  0.00000000000E+00 0. -1.
         25    1    1    2    0    0 -0.14250365411E+03 -0.10824630885E+02  0.11679798729E+02  0.19022587040E+03  0.12500000000E+03 0.  0.
         25    1    1    2    0    0  0.36103908645E+02  0.92314157238E+02 -0.20938929193E+02  0.16090007645E+03  0.12500000000E+03 0.  0.
         25    1    1    2    0    0  0.10639974547E+03 -0.81489526353E+02  0.54674365967E+02  0.19124783668E+03  0.12500000000E+03 0.  0.
</event>
<event>
 5    0  0.5590591E-005  0.2273413E+03  0.7546771E-02  0.1128525E+00
         21   -1    0    0  502  501  0.00000000000E+00  0.00000000000E+00  0.38784744186E+03  0.38784744186E+03  0.00000000000E+00 0.  1.
         21   -1    0    0  501  502 -0.00000000000E+00 -0.00000000000E+00 -0.13325879998E+03  0.13325879998E+03  0.00000000000E+00 0.  1.
         25    1    1    2    0    0 -0.33052242943E+02  0.46999347503E+02  0.69511675422E+01  0.13774871382E+03  0.12500000000E+03 0.  0.
         25    1    1    2    0    0 -0.42336634324E+02 -0.28592761356E+01  0.16015302975E+03  0.20754411339E+03  0.12500000000E+03 0.  0.
         25    1    1    2    0    0  0.75388877267E+02 -0.44140071367E+02  0.87484444583E+02  0.17581341462E+03  0.12500000000E+03 0.  0.
</event>
<event>
 5    0  0.5590591E-005  0.2584803E+03  0.7546771E-02  0.1108060E+00
         21   -1    0    0  502  501  0.00000000000E+00  0.00000000000E+00  0.27224816131E+03  0.27224816131E+03  0.00000000000E+00 0.  1.
         21   -1    0    0  501  502 -0.00000000000E+00 -0.00000000000E+00 -0.24540870544E+03  0.24540870544E+03  0.00000000000E+00 0.  1.
         25    1    1    2    0    0  0.12499086193E+03 -0.38743331505E+02  0.88890374219E+02  0.20161909615E+03  0.12500000000E+03 0.  0.
         25    1    1    2    0    0 -0.69445354661E+02  0.69814662103E+02 -0.73536894691E+02  0.17529808673E+03  0.12500000000E+03 0.  0.
         25    1    1    2    0    0 -0.55545507273E+02 -0.31071330599E+02  0.11485976346E+02  0.14073968387E+03  0.12500000000E+03 0.  0.
</event>
<event>
 5    0  0.5590591E-005  0.2727588E+03  0.7546771E-02  0.1099711E+00
         21   -1    0    0  502  501  0.00000000000E+00  0.00000000000E+00  0.10451026051E+03  0.10451026051E+03  0.00000000000E+00 0.  1.
         21   -1    0    0  501  502 -0.00000000000E+00 -0.00000000000E+00 -0.71186663196E+03  0.71186663196E+03  0.00000000000E+00 0.  1.
         25    1    1    2    0    0  0.12337621739E+03  0.63757510097E+02 -0.21735871627E+03  0.28662959137E+03  0.12500000000E+03 0.  0.
         25    1    1    2    0    0 -0.14423230324E+03 -0.95014779108E+02 -0.31136972828E+03  0.37736835219E+03  0.12500000000E+03 0.  0.
         25    1    1    2    0    0  0.20856085850E+02  0.31257269011E+02 -0.78627926900E+02  0.15237894891E+03  0.12500000000E+03 0.  0.
</event>
<event>
 5    0  0.5590591E-005  0.2997975E+03  0.7546771E-02  0.1085342E+00
         21   -1    0    0  502  501  0.00000000000E+00  0.00000000000E+00  0.60404309808E+02  0.60404309808E+02  0.00000000000E+00 0. -1.
         21   -1    0    0  501  502 -0.00000000000E+00 -0.00000000000E+00 -0.14879490645E+04  0.14879490645E+04  0.00000000000E+00 0. -1.
         25    1    1    2    0    0 -0.47282050898E+02  0.20058566596E+02 -0.66921530146E+02  0.15080261811E+03  0.12500000000E+03 0.  0.
         25    1    1    2    0    0 -0.27141053891E+02 -0.71339723895E+02 -0.43070882943E+03  0.45492976245E+03  0.12500000000E+03 0.  0.
         25    1    1    2    0    0  0.74423104789E+02  0.51281157300E+02 -0.92991439514E+03  0.94262099377E+03  0.12500000000E+03 0.  0.
</event>
<event>
 5    0  0.5590591E-005  0.3246884E+03  0.7546771E-02  0.1073512E+00
         21   -1    0    0  502  501  0.00000000000E+00  0.00000000000E+00  0.68170241524E+03  0.68170241524E+03  0.00000000000E+00 0. -1.
         21   -1    0    0  501  502 -0.00000000000E+00 -0.00000000000E+00 -0.15464603155E+03  0.15464603155E+03  0.00000000000E+00 0. -1.
         25    1    1    2    0    0 -0.11451676210E+03 -0.10002794691E+03 -0.27886679278E+02  0.19880227827E+03  0.12500000000E+03 0.  0.
         25    1    1    2    0    0  0.39710995588E+01  0.14280728231E+02  0.23803521897E+03  0.26926840569E+03  0.12500000000E+03 0.  0.
         25    1    1    2    0    0  0.11054566254E+03  0.85747218675E+02  0.31690784399E+03  0.36827776284E+03  0.12500000000E+03 0.  0.
</event>
<event>
 5    0  0.5590591E-005  0.3394027E+03  0.7546771E-02  0.1067051E+00
         21   -1    0    0  502  501  0.00000000000E+00  0.00000000000E+00  0.35921762879E+03  0.35921762879E+03  0.00000000000E+00 0.  1.
         21   -1    0    0  501  502 -0.00000000000E+00 -0.00000000000E+00 -0.32068076090E+03  0.32068076090E+03  0.00000000000E+00 0.  1.
         25    1    1    2    0    0 -0.89131378831E+01  0.49820000215E+00  0.39497125446E+01  0.12538059044E+03  0.12500000000E+03 0.  0.
         25    1    1    2    0    0 -0.10618715434E+03  0.40657888952E+02 -0.20007575916E+03  0.26188563359E+03  0.12500000000E+03 0.  0.
         25    1    1    2    0    0  0.11510029222E+03 -0.41156088955E+02  0.23466291451E+03  0.29263216565E+03  0.12500000000E+03 0.  0.
</event>
<event>
 5    0  0.5590591E-005  0.2577053E+03  0.7546771E-02  0.1108530E+00
         21   -1    0    0  502  501  0.00000000000E+00  0.00000000000E+00  0.13227101073E+03  0.13227101073E+03  0.00000000000E+00 0. -1.
         21   -1    0    0  501  502 -0.00000000000E+00 -0.00000000000E+00 -0.50209058350E+03  0.50209058350E+03  0.00000000000E+00 0. -1.
         25    1    1    2    0    0 -0.42359190684E+02 -0.11966880512E+03 -0.92038081984E+02  0.20052663785E+03  0.12500000000E+03 0.  0.
         25    1    1    2    0    0  0.40836844648E+02 -0.21391055874E+02 -0.17244422546E+03  0.21791566269E+03  0.12500000000E+03 0.  0.
         25    1    1    2    0    0  0.15223460357E+01  0.14105986099E+03 -0.10533726532E+03  0.21591929369E+03  0.12500000000E+03 0.  0.
</event>
<event>
 5    0  0.5590591E-005  0.4100703E+03  0.7546771E-02  0.1040347E+00
         21   -1    0    0  502  501  0.00000000000E+00  0.00000000000E+00  0.14499464680E+03  0.14499464680E+03  0.00000000000E+00 0. -1.
         21   -1    0    0  501  502 -0.00000000000E+00 -0.00000000000E+00 -0.11597509493E+04  0.11597509493E+04  0.00000000000E+00 0. -1.
         25    1    1    2    0    0  0.30237826671E+02 -0.21070532635E+03 -0.49408365651E+03  0.55231759011E+03  0.12500000000E+03 0.  0.
         25    1    1    2    0    0 -0.18442947052E+03  0.13393493449E+03 -0.46453452275E+03  0.53232520051E+03  0.12500000000E+03 0.  0.
         25    1    1    2    0    0  0.15419164385E+03  0.76770391854E+02 -0.56138123250E+02  0.22010280548E+03  0.12500000000E+03 0.  0.
</event>
<event>
 5    0  0.5590591E-005  0.3242670E+03  0.7546771E-02  0.1073702E+00
         21   -1    0    0  502  501  0.00000000000E+00  0.00000000000E+00  0.70601988154E+03  0.70601988154E+03  0.00000000000E+00 0. -1.
         21   -1    0    0  501  502 -0.00000000000E+00 -0.00000000000E+00 -0.14893214671E+03  0.14893214671E+03  0.00000000000E+00 0. -1.
         25    1    1    2    0    0 -0.48493907336E+02 -0.15682055759E+02  0.30204815874E+03  0.33084086223E+03  0.12500000000E+03 0.  0.
         25    1    1    2    0    0  0.14982975264E+03 -0.13244681765E+03  0.10073949734E+03  0.25644601889E+03  0.12500000000E+03 0.  0.
         25    1    1    2    0    0 -0.10133584530E+03  0.14812887341E+03  0.15430007875E+03  0.26766514712E+03  0.12500000000E+03 0.  0.
</event>
<event>
 5    0  0.5590591E-005  0.3279125E+03  0.7546771E-02  0.1072064E+00
         21   -1    0    0  502  501  0.00000000000E+00  0.00000000000E+00  0.19978228221E+03  0.19978228221E+03  0.00000000000E+00 0. -1.
         21   -1    0    0  501  502 -0.00000000000E+00 -0.00000000000E+00 -0.53821890376E+03  0.53821890376E+03  0.00000000000E+00 0. -1.
         25    1    1    2    0    0  0.25190896273E+02 -0.55888803831E+02 -0.15629589905E+03  0.20931208209E+03  0.12500000000E+03 0.  0.
         25    1    1    2    0    0  0.11099142956E+03 -0.94313154361E+02  0.47614589205E+02  0.19775292065E+03  0.12500000000E+03 0.  0.
         25    1    1    2    0    0 -0.13618232583E+03  0.15020195819E+03 -0.22975531170E+03  0.33093618323E+03  0.12500000000E+03 0.  0.
</event>
<event>
 5    0  0.5590591E-005  0.3304006E+03  0.7546771E-02  0.1070960E+00
         21   -1    0    0  502  501  0.00000000000E+00  0.00000000000E+00  0.87777754046E+03  0.87777754046E+03  0.00000000000E+00 0.  1.
         21   -1    0    0  501  502 -0.00000000000E+00 -0.00000000000E+00 -0.12436470704E+03  0.12436470704E+03  0.00000000000E+00 0.  1.
         25    1    1    2    0    0  0.78567811748E+02  0.93455721930E+02  0.13034591784E+03  0.21799525523E+03  0.12500000000E+03 0.  0.
         25    1    1    2    0    0 -0.90365227787E+02 -0.23609781728E+03  0.42133128701E+03  0.50700405041E+03  0.12500000000E+03 0.  0.
         25    1    1    2    0    0  0.11797416039E+02  0.14264209535E+03  0.20173562857E+03  0.27714294187E+03  0.12500000000E+03 0.  0.
</event>
<event>
 5    0  0.5590591E-005  0.2851650E+03  0.7546771E-02  0.1092901E+00
         21   -1    0    0  502  501  0.00000000000E+00  0.00000000000E+00  0.17353097121E+03  0.17353097121E+03  0.00000000000E+00 0.  1.
         21   -1    0    0  501  502 -0.00000000000E+00 -0.00000000000E+00 -0.46861416444E+03  0.46861416444E+03  0.00000000000E+00 0.  1.
         25    1    1    2    0    0  0.10058163557E+03 -0.98421466870E+01 -0.17492731650E+03  0.23756704174E+03  0.12500000000E+03 0.  0.
         25    1    1    2    0    0  0.13412280861E+02 -0.63816404727E+02  0.53884998303E+02  0.15093381275E+03  0.12500000000E+03 0.  0.
         25    1    1    2    0    0 -0.11399391643E+03  0.73658551414E+02 -0.17404087503E+03  0.25364428115E+03  0.12500000000E+03 0.  0.
</event>
<event>
 5    0  0.5590591E-005  0.4073530E+03  0.7546771E-02  0.1041263E+00
         21   -1    0    0  502  501  0.00000000000E+00  0.00000000000E+00  0.14037883313E+03  0.14037883313E+03  0.00000000000E+00 0. -1.
         21   -1    0    0  501  502 -0.00000000000E+00 -0.00000000000E+00 -0.11820617027E+04  0.11820617027E+04  0.00000000000E+00 0. -1.
         25    1    1    2    0    0  0.22943735750E+03  0.13159834960E+03 -0.20347110409E+03  0.35634971143E+03  0.12500000000E+03 0.  0.
         25    1    1    2    0    0 -0.78869203154E+01 -0.99441977663E+00 -0.63785420080E+02  0.14055878556E+03  0.12500000000E+03 0.  0.
         25    1    1    2    0    0 -0.22155043718E+03 -0.13060392982E+03 -0.77442634536E+03  0.82553203880E+03  0.12500000000E+03 0.  0.
</event>
<event>
 5    0  0.5590591E-005  0.3842047E+03  0.7546771E-02  0.1049391E+00
         21   -1    0    0  502  501  0.00000000000E+00  0.00000000000E+00  0.26906811100E+03  0.26906811100E+03  0.00000000000E+00 0.  1.
         21   -1    0    0  501  502 -0.00000000000E+00 -0.00000000000E+00 -0.54860914850E+03  0.54860914850E+03  0.00000000000E+00 0.  1.
         25    1    1    2    0    0 -0.13260155197E+03 -0.11922267387E+03 -0.18713172235E+03  0.28712453580E+03  0.12500000000E+03 0.  0.
         25    1    1    2    0    0 -0.14240702084E+03  0.76766312637E+02  0.20060579236E+02  0.20542700207E+03  0.12500000000E+03 0.  0.
         25    1    1    2    0    0  0.27500857280E+03  0.42456361236E+02 -0.11246989438E+03  0.32512572163E+03  0.12500000000E+03 0.  0.
</event>
<event>
 5    0  0.5590591E-005  0.3823158E+03  0.7546771E-02  0.1050081E+00
         21   -1    0    0  502  501  0.00000000000E+00  0.00000000000E+00  0.25001790291E+03  0.25001790291E+03  0.00000000000E+00 0. -1.
         21   -1    0    0  501  502 -0.00000000000E+00 -0.00000000000E+00 -0.58461950647E+03  0.58461950647E+03  0.00000000000E+00 0. -1.
         25    1    1    2    0    0 -0.34259640408E+02 -0.19996347667E+03 -0.67386360882E+02  0.24763892383E+03  0.12500000000E+03 0.  0.
         25    1    1    2    0    0  0.17926890297E+03  0.17847282159E+03 -0.33539880496E+02  0.28414751662E+03  0.12500000000E+03 0.  0.
         25    1    1    2    0    0 -0.14500926256E+03  0.21490655076E+02 -0.23367536219E+03  0.30285096892E+03  0.12500000000E+03 0.  0.
</event>
<event>
 5    0  0.5590591E-005  0.2064622E+03  0.7546771E-02  0.1144399E+00
         21   -1    0    0  502  501  0.00000000000E+00  0.00000000000E+00  0.13839903449E+04  0.13839903449E+04  0.00000000000E+00 0.  1.
         21   -1    0    0  501  502 -0.00000000000E+00 -0.00000000000E+00 -0.30799824465E+02  0.30799824465E+02  0.00000000000E+00 0.  1.
         25    1    1    2    0    0 -0.62854538526E+02 -0.75426135091E+01  0.45468063027E+03  0.47578047414E+03  0.12500000000E+03 0.  0.
         25    1    1    2    0    0  0.54933729094E+02 -0.22651439888E+01  0.33699609010E+03  0.36361272009E+03  0.12500000000E+03 0.  0.
         25    1    1    2    0    0  0.79208094324E+01  0.98077574979E+01  0.56151380011E+03  0.57539697517E+03  0.12500000000E+03 0.  0.
</event>
<event>
 5    0  0.5590591E-005  0.2686837E+03  0.7546771E-02  0.1102035E+00
         21   -1    0    0  502  501  0.00000000000E+00  0.00000000000E+00  0.79994652168E+03  0.79994652168E+03  0.00000000000E+00 0.  1.
         21   -1    0    0  501  502 -0.00000000000E+00 -0.00000000000E+00 -0.90244665622E+02  0.90244665622E+02  0.00000000000E+00 0.  1.
         25    1    1    2    0    0  0.25215253085E+02 -0.63141653286E+02  0.12099507117E+03  0.18678191726E+03  0.12500000000E+03 0.  0.
         25    1    1    2    0    0 -0.38084597108E+02 -0.53245211404E+02  0.70711357720E+02  0.15783087526E+03  0.12500000000E+03 0.  0.
         25    1    1    2    0    0  0.12869344023E+02  0.11638686469E+03  0.51799542716E+03  0.54557839478E+03  0.12500000000E+03 0.  0.
</event>
<event>
 5    0  0.5590591E-005  0.2251252E+03  0.7546771E-02  0.1130119E+00
         21   -1    0    0  502  501  0.00000000000E+00  0.00000000000E+00  0.31998146116E+03  0.31998146116E+03  0.00000000000E+00 0.  1.
         21   -1    0    0  501  502 -0.00000000000E+00 -0.00000000000E+00 -0.15838840922E+03  0.15838840922E+03  0.00000000000E+00 0.  1.
         25    1    1    2    0    0 -0.18211395401E+02 -0.30050110791E+02  0.48249812616E+01  0.12993438546E+03  0.12500000000E+03 0.  0.
         25    1    1    2    0    0  0.26917293145E+02  0.62295695545E+02  0.16614487103E+03  0.21871079654E+03  0.12500000000E+03 0.  0.
         25    1    1    2    0    0 -0.87058977442E+01 -0.32245584753E+02 -0.93768003524E+01  0.12972468838E+03  0.12500000000E+03 0.  0.
</event>
<event>
 5    0  0.5590591E-005  0.2975607E+03  0.7546771E-02  0.1086466E+00
         21   -1    0    0  502  501  0.00000000000E+00  0.00000000000E+00  0.61427497250E+02  0.61427497250E+02  0.00000000000E+00 0. -1.
         21   -1    0    0  501  502 -0.00000000000E+00 -0.00000000000E+00 -0.14414126600E+04  0.14414126600E+04  0.00000000000E+00 0. -1.
         25    1    1    2    0    0  0.20583498719E+02  0.15357588716E+03 -0.26479905469E+03  0.33128956050E+03  0.12500000000E+03 0.  0.
         25    1    1    2    0    0 -0.56614007760E+02 -0.13647563843E+03 -0.39918181365E+03  0.44362356352E+03  0.12500000000E+03 0.  0.
         25    1    1    2    0    0  0.36030509040E+02 -0.17100248728E+02 -0.71600429442E+03  0.72792703324E+03  0.12500000000E+03 0.  0.
</event>
<event>
 5    0  0.5590591E-005  0.2608474E+03  0.7546771E-02  0.1106635E+00
         21   -1    0    0  502  501  0.00000000000E+00  0.00000000000E+00  0.70773051301E+03  0.70773051301E+03  0.00000000000E+00 0. -1.
         21   -1    0    0  501  502 -0.00000000000E+00 -0.00000000000E+00 -0.96140234772E+02  0.96140234772E+02  0.00000000000E+00 0. -1.
         25    1    1    2    0    0  0.37917023889E+02  0.60990455209E+02  0.38407619744E+02  0.14919008540E+03  0.12500000000E+03 0.  0.
         25    1    1    2    0    0  0.70291974827E+02 -0.18836713068E+02  0.29001813642E+03  0.32408533280E+03  0.12500000000E+03 0.  0.
         25    1    1    2    0    0 -0.10820899872E+03 -0.42153742140E+02  0.28316452207E+03  0.33059532958E+03  0.12500000000E+03 0.  0.
</event>
<event>
 5    0  0.5590591E-005  0.2271973E+03  0.7546771E-02  0.1128628E+00
         21   -1    0    0  502  501  0.00000000000E+00  0.00000000000E+00  0.24151735647E+03  0.24151735647E+03  0.00000000000E+00 0. -1.
         21   -1    0    0  501  502 -0.00000000000E+00 -0.00000000000E+00 -0.21372638504E+03  0.21372638504E+03  0.00000000000E+00 0. -1.
         25    1    1    2    0    0 -0.50972207247E+02 -0.55063118218E+01  0.10742976811E+03  0.17261124082E+03  0.12500000000E+03 0.  0.
         25    1    1    2    0    0 -0.35628214246E+01  0.22285923739E+02 -0.69648702224E+02  0.14486303122E+03  0.12500000000E+03 0.  0.
         25    1    1    2    0    0  0.54535028671E+02 -0.16779611917E+02 -0.99900944595E+01  0.13776946946E+03  0.12500000000E+03 0.  0.
</event>
<event>
 5    0  0.5590591E-005  0.3894224E+03  0.7546771E-02  0.1047505E+00
         21   -1    0    0  502  501  0.00000000000E+00  0.00000000000E+00  0.10383304570E+04  0.10383304570E+04  0.00000000000E+00 0.  1.
         21   -1    0    0  501  502 -0.00000000000E+00 -0.00000000000E+00 -0.14605155604E+03  0.14605155604E+03  0.00000000000E+00 0.  1.
         25    1    1    2    0    0  0.56595326112E+02  0.20378908357E+03  0.14896111610E+03  0.28731069529E+03  0.12500000000E+03 0.  0.
         25    1    1    2    0    0  0.34550939982E+02  0.51082835065E+02  0.47819344075E+03  0.49809355574E+03  0.12500000000E+03 0.  0.
         25    1    1    2    0    0 -0.91146266094E+02 -0.25487191864E+03  0.26512434408E+03  0.39897776198E+03  0.12500000000E+03 0.  0.
</event>
<event>
 5    0  0.5590591E-005  0.4067570E+03  0.7546771E-02  0.1041465E+00
         21   -1    0    0  502  501  0.00000000000E+00  0.00000000000E+00  0.23227361610E+04  0.23227361610E+04  0.00000000000E+00 0. -1.
         21   -1    0    0  501  502 -0.00000000000E+00 -0.00000000000E+00 -0.71231176155E+02  0.71231176155E+02  0.00000000000E+00 0. -1.
         25    1    1    2    0    0 -0.14734763075E+02  0.85615006112E+02  0.71622397742E+03  0.73222184367E+03  0.12500000000E+03 0.  0.
         25    1    1    2    0    0  0.20137893723E+03  0.16634678436E+03  0.84729496441E+03  0.89540967481E+03  0.12500000000E+03 0.  0.
         25    1    1    2    0    0 -0.18664417415E+03 -0.25196179047E+03  0.68798604300E+03  0.76633581867E+03  0.12500000000E+03 0.  0.
</event>
<event>
 5    0  0.5590591E-005  0.2341834E+03  0.7546771E-02  0.1123729E+00
         21   -1    0    0  502  501  0.00000000000E+00  0.00000000000E+00  0.72731176227E+02  0.72731176227E+02  0.00000000000E+00 0. -1.
         21   -1    0    0  501  502 -0.00000000000E+00 -0.00000000000E+00 -0.75403548752E+03  0.75403548752E+03  0.00000000000E+00 0. -1.
         25    1    1    2    0    0  0.57212742815E+02  0.75353390929E+02 -0.20904136530E+03  0.26129432423E+03  0.12500000000E+03 0.  0.
         25    1    1    2    0    0  0.18471091983E+02 -0.82374266416E+02 -0.15592042521E+03  0.21693980733E+03  0.12500000000E+03 0.  0.
         25    1    1    2    0    0 -0.75683834798E+02  0.70208754869E+01 -0.31634252078E+03  0.34853253219E+03  0.12500000000E+03 0.  0.
</event>
<event>
 5    0  0.5590591E-005  0.3383304E+03  0.7546771E-02  0.1067509E+00
         21   -1    0    0  502  501  0.00000000000E+00  0.00000000000E+00  0.56829904738E+03  0.56829904738E+03  0.00000000000E+00 0.  1.
         21   -1    0    0  501  502 -0.00000000000E+00 -0.00000000000E+00 -0.20142121047E+03  0.20142121047E+03  0.00000000000E+00 0.  1.
         25    1    1    2    0    0  0.98872854451E+02 -0.19665541995E+03  0.24839047073E+02  0.25434459657E+03  0.12500000000E+03 0.  0.
         25    1    1    2    0    0 -0.59015950404E+02 -0.12109434427E+02  0.11555648239E+03  0.18057635899E+03  0.12500000000E+03 0.  0.
         25    1    1    2    0    0 -0.39856904047E+02  0.20876485438E+03  0.22648230745E+03  0.33479930229E+03  0.12500000000E+03 0.  0.
</event>
<event>
 5    0  0.5590591E-005  0.3714730E+03  0.7546771E-02  0.1054131E+00
         21   -1    0    0  502  501  0.00000000000E+00  0.00000000000E+00  0.24211722879E+03  0.24211722879E+03  0.00000000000E+00 0. -1.
         21   -1    0    0  501  502 -0.00000000000E+00 -0.00000000000E+00 -0.56993943268E+03  0.56993943268E+03  0.00000000000E+00 0. -1.
         25    1    1    2    0    0  0.13686119233E+03  0.42615470662E+02 -0.41250758507E+03  0.45424065434E+03  0.12500000000E+03 0.  0.
         25    1    1    2    0    0 -0.86123798888E+00  0.54921064218E+02  0.53357108081E+02  0.14659142543E+03  0.12500000000E+03 0.  0.
         25    1    1    2    0    0 -0.13599995435E+03 -0.97536534880E+02  0.31328273103E+02  0.21122458170E+03  0.12500000000E+03 0.  0.
</event>
<event>
 5    0  0.5590591E-005  0.3085413E+03  0.7546771E-02  0.1081047E+00
         21   -1    0    0  502  501  0.00000000000E+00  0.00000000000E+00  0.11560075698E+03  0.11560075698E+03  0.00000000000E+00 0. -1.
         21   -1    0    0  501  502 -0.00000000000E+00 -0.00000000000E+00 -0.82350428974E+03  0.82350428974E+03  0.00000000000E+00 0. -1.
         25    1    1    2    0    0 -0.70845091758E+02 -0.78053336687E+02 -0.13464061217E+03  0.21181228680E+03  0.12500000000E+03 0.  0.
         25    1    1    2    0    0  0.91184720247E+02  0.16483643109E+03 -0.51614620232E+03  0.56348700463E+03  0.12500000000E+03 0.  0.
         25    1    1    2    0    0 -0.20339628490E+02 -0.86783094402E+02 -0.57116718270E+02  0.16380575529E+03  0.12500000000E+03 0.  0.
</event>
<event>
 5    0  0.5590591E-005  0.2545214E+03  0.7546771E-02  0.1110480E+00
         21   -1    0    0  502  501  0.00000000000E+00  0.00000000000E+00  0.40074569861E+03  0.40074569861E+03  0.00000000000E+00 0. -1.
         21   -1    0    0  501  502 -0.00000000000E+00 -0.00000000000E+00 -0.16165145325E+03  0.16165145325E+03  0.00000000000E+00 0. -1.
         25    1    1    2    0    0 -0.46663125616E+02 -0.63155451645E+01  0.24181222633E+02  0.13574632566E+03  0.12500000000E+03 0.  0.
         25    1    1    2    0    0  0.13577440120E+03 -0.64920205339E+02  0.14513675056E+03  0.24359597173E+03  0.12500000000E+03 0.  0.
         25    1    1    2    0    0 -0.89111275581E+02  0.71235750504E+02  0.69776272166E+02  0.18305485446E+03  0.12500000000E+03 0.  0.
</event>
<event>
 5    0  0.5590591E-005  0.3118837E+03  0.7546771E-02  0.1079446E+00
         21   -1    0    0  502  501  0.00000000000E+00  0.00000000000E+00  0.13538412315E+04  0.13538412315E+04  0.00000000000E+00 0.  1.
         21   -1    0    0  501  502 -0.00000000000E+00 -0.00000000000E+00 -0.71848467552E+02  0.71848467552E+02  0.00000000000E+00 0.  1.
         25    1    1    2    0    0 -0.18835270717E+02 -0.46761251130E+02  0.67519644604E+03  0.68851769968E+03  0.12500000000E+03 0.  0.
         25    1    1    2    0    0  0.11514031282E+03 -0.30927238193E+02  0.50550967038E+03  0.53420858524E+03  0.12500000000E+03 0.  0.
         25    1    1    2    0    0 -0.96305042102E+02  0.77688489322E+02  0.10128664753E+03  0.20296341413E+03  0.12500000000E+03 0.  0.
</event>
<event>
 5    0  0.5590591E-005  0.3936521E+03  0.7546771E-02  0.1046000E+00
         21   -1    0    0  502  501  0.00000000000E+00  0.00000000000E+00  0.24552624549E+03  0.24552624549E+03  0.00000000000E+00 0.  1.
         21   -1    0    0  501  502 -0.00000000000E+00 -0.00000000000E+00 -0.63114218238E+03  0.63114218238E+03  0.00000000000E+00 0.  1.
         25    1    1    2    0    0  0.49087952488E+02 -0.64252789697E+01 -0.10798042642E+03  0.17244037746E+03  0.12500000000E+03 0.  0.
         25    1    1    2    0    0 -0.61475883182E+02 -0.15459250828E+03 -0.41075100682E+03  0.46045577142E+03  0.12500000000E+03 0.  0.
         25    1    1    2    0    0  0.12387930694E+02  0.16101778725E+03  0.13311549635E+03  0.24377227899E+03  0.12500000000E+03 0.  0.
</event>
<event>
 5    0  0.5590591E-005  0.2398458E+03  0.7546771E-02  0.1119896E+00
         21   -1    0    0  502  501  0.00000000000E+00  0.00000000000E+00  0.77043309895E+02  0.77043309895E+02  0.00000000000E+00 0.  1.
         21   -1    0    0  501  502 -0.00000000000E+00 -0.00000000000E+00 -0.74667126618E+03  0.74667126618E+03  0.00000000000E+00 0.  1.
         25    1    1    2    0    0 -0.23219256683E+02  0.36978571892E+02 -0.17768023422E+03  0.22158929192E+03  0.12500000000E+03 0.  0.
         25    1    1    2    0    0 -0.85814528337E+02  0.43013150617E+02 -0.28036667225E+03  0.32162825639E+03  0.12500000000E+03 0.  0.
         25    1    1    2    0    0  0.10903378502E+03 -0.79991722509E+02 -0.21158104981E+03  0.28049702777E+03  0.12500000000E+03 0.  0.
</event>
<event>
 5    0  0.5590591E-005  0.3403045E+03  0.7546771E-02  0.1066666E+00
         21   -1    0    0  502  501  0.00000000000E+00  0.00000000000E+00  0.74804621019E+03  0.74804621019E+03  0.00000000000E+00 0.  1.
         21   -1    0    0  501  502 -0.00000000000E+00 -0.00000000000E+00 -0.15481287073E+03  0.15481287073E+03  0.00000000000E+00 0.  1.
         25    1    1    2    0    0  0.15093258654E+03 -0.64671325576E+02  0.60157885788E+02  0.21495812907E+03  0.12500000000E+03 0.  0.
         25    1    1    2    0    0 -0.23922365335E+03  0.38571076931E+01  0.34030194212E+03  0.43436533634E+03  0.12500000000E+03 0.  0.
         25    1    1    2    0    0  0.88291066811E+02  0.60814217883E+02  0.19277351155E+03  0.25353561551E+03  0.12500000000E+03 0.  0.
</event>
<event>
 5    0  0.5590591E-005  0.2117694E+03  0.7546771E-02  0.1140172E+00
         21   -1    0    0  502  501  0.00000000000E+00  0.00000000000E+00  0.27357039175E+02  0.27357039175E+02  0.00000000000E+00 0.  1.
         21   -1    0    0  501  502 -0.00000000000E+00 -0.00000000000E+00 -0.16392965274E+04  0.16392965274E+04  0.00000000000E+00 0.  1.
         25    1    1    2    0    0  0.70050294384E+01  0.77923152419E+02 -0.52195252479E+03  0.54238411320E+03  0.12500000000E+03 0.  0.
         25    1    1    2    0    0  0.31326726537E+02 -0.44415207814E+02 -0.44932791595E+03  0.46954728253E+03  0.12500000000E+03 0.  0.
         25    1    1    2    0    0 -0.38331755975E+02 -0.33507944605E+02 -0.64065904752E+03  0.65472217088E+03  0.12500000000E+03 0.  0.
</event>
<event>
 5    0  0.5590591E-005  0.2750627E+03  0.7546771E-02  0.1098417E+00
         21   -1    0    0  502  501  0.00000000000E+00  0.00000000000E+00  0.18174938110E+04  0.18174938110E+04  0.00000000000E+00 0.  1.
         21   -1    0    0  501  502 -0.00000000000E+00 -0.00000000000E+00 -0.41628456419E+02  0.41628456419E+02  0.00000000000E+00 0.  1.
         25    1    1    2    0    0 -0.96020190616E+02 -0.36520326065E+02  0.30132416306E+03  0.34201588043E+03  0.12500000000E+03 0.  0.
         25    1    1    2    0    0  0.46134248326E+02 -0.79857653702E+02  0.42305965099E+03  0.45067735911E+03  0.12500000000E+03 0.  0.
         25    1    1    2    0    0  0.49885942290E+02  0.11637797977E+03  0.10514815405E+04  0.10664290279E+04  0.12500000000E+03 0.  0.
</event>
<event>
 5    0  0.5590591E-005  0.2730313E+03  0.7546771E-02  0.1099557E+00
         21   -1    0    0  502  501  0.00000000000E+00  0.00000000000E+00  0.17637846953E+03  0.17637846953E+03  0.00000000000E+00 0.  1.
         21   -1    0    0  501  502 -0.00000000000E+00 -0.00000000000E+00 -0.42264850622E+03  0.42264850622E+03  0.00000000000E+00 0.  1.
         25    1    1    2    0    0  0.90255962353E+02  0.11586958054E+03  0.10094140949E+02  0.19312894686E+03  0.12500000000E+03 0.  0.
         25    1    1    2    0    0 -0.92267889988E+01 -0.10163844823E+03 -0.10199127908E+03  0.19089978733E+03  0.12500000000E+03 0.  0.
         25    1    1    2    0    0 -0.81029173354E+02 -0.14231132309E+02 -0.15437289856E+03  0.21499824155E+03  0.12500000000E+03 0.  0.
</event>
<event>
 5    0  0.5590591E-005  0.2795663E+03  0.7546771E-02  0.1095926E+00
         21   -1    0    0  502  501  0.00000000000E+00  0.00000000000E+00  0.32971344954E+02  0.32971344954E+02  0.00000000000E+00 0.  1.
         21   -1    0    0  501  502 -0.00000000000E+00 -0.00000000000E+00 -0.23704615327E+04  0.23704615327E+04  0.00000000000E+00 0.  1.
         25    1    1    2    0    0  0.39205083721E+02 -0.75650563229E+02 -0.24442516833E+03  0.28745209900E+03  0.12500000000E+03 0.  0.
         25    1    1    2    0    0  0.65266730982E+01  0.46311651776E+02 -0.15624597081E+04  0.15681494526E+04  0.12500000000E+03 0.  0.
         25    1    1    2    0    0 -0.45731756819E+02  0.29338911453E+02 -0.53060531139E+03  0.54783132603E+03  0.12500000000E+03 0.  0.
</event>
<event>
 5    0  0.5590591E-005  0.2682390E+03  0.7546771E-02  0.1102292E+00
         21   -1    0    0  502  501  0.00000000000E+00  0.00000000000E+00  0.44749345888E+03  0.44749345888E+03  0.00000000000E+00 0.  1.
         21   -1    0    0  501  502 -0.00000000000E+00 -0.00000000000E+00 -0.16078932093E+03  0.16078932093E+03  0.00000000000E+00 0.  1.
         25    1    1    2    0    0 -0.52433240848E+02 -0.41366879379E+02  0.50149640825E+02  0.15033446022E+03  0.12500000000E+03 0.  0.
         25    1    1    2    0    0 -0.42331510151E+02 -0.86437079466E+02  0.15884239303E+02  0.15855798471E+03  0.12500000000E+03 0.  0.
         25    1    1    2    0    0  0.94764750999E+02  0.12780395884E+03  0.22067025782E+03  0.29939033487E+03  0.12500000000E+03 0.  0.
</event>
<event>
 5    0  0.5590591E-005  0.3629085E+03  0.7546771E-02  0.1057438E+00
         21   -1    0    0  502  501  0.00000000000E+00  0.00000000000E+00  0.15974805559E+03  0.15974805559E+03  0.00000000000E+00 0.  1.
         21   -1    0    0  501  502 -0.00000000000E+00 -0.00000000000E+00 -0.82443930426E+03  0.82443930426E+03  0.00000000000E+00 0.  1.
         25    1    1    2    0    0  0.14865092722E+03 -0.20104440285E+03 -0.18903327167E+03  0.33745300099E+03  0.12500000000E+03 0.  0.
         25    1    1    2    0    0 -0.20115046915E+03  0.15192164441E+03 -0.38332454254E+03  0.47550436611E+03  0.12500000000E+03 0.  0.
         25    1    1    2    0    0  0.52499541930E+02  0.49122758444E+02 -0.92333434457E+02  0.17122999275E+03  0.12500000000E+03 0.  0.
</event>
<event>
 5    0  0.5590591E-005  0.4918582E+03  0.7546771E-02  0.1015926E+00
         21   -1    0    0  502  501  0.00000000000E+00  0.00000000000E+00  0.12460712202E+04  0.12460712202E+04  0.00000000000E+00 0.  1.
         21   -1    0    0  501  502 -0.00000000000E+00 -0.00000000000E+00 -0.19414977773E+03  0.19414977773E+03  0.00000000000E+00 0.  1.
         25    1    1    2    0    0 -0.12446922864E+03 -0.73115075012E+02 -0.74433870731E+02  0.20494829637E+03  0.12500000000E+03 0.  0.
         25    1    1    2    0    0 -0.75284924324E+02  0.12893515784E+03  0.20547843423E+03  0.28308740998E+03  0.12500000000E+03 0.  0.
         25    1    1    2    0    0  0.19975415297E+03 -0.55820082831E+02  0.92087687895E+03  0.95218529155E+03  0.12500000000E+03 0.  0.
</event>
<event>
 5    0  0.5590591E-005  0.2545493E+03  0.7546771E-02  0.1110463E+00
         21   -1    0    0  502  501  0.00000000000E+00  0.00000000000E+00  0.63457748723E+03  0.63457748723E+03  0.00000000000E+00 0. -1.
         21   -1    0    0  501  502 -0.00000000000E+00 -0.00000000000E+00 -0.10210784701E+03  0.10210784701E+03  0.00000000000E+00 0. -1.
         25    1    1    2    0    0 -0.12771011710E+03 -0.68163342649E+02  0.28615211056E+03  0.34418620784E+03  0.12500000000E+03 0.  0.
         25    1    1    2    0    0  0.75869833359E+02  0.34274786512E+02  0.64804188192E+02  0.16357131598E+03  0.12500000000E+03 0.  0.
         25    1    1    2    0    0  0.51840283739E+02  0.33888556136E+02  0.18151334146E+03  0.22892781042E+03  0.12500000000E+03 0.  0.
</event>
<event>
 5    0  0.5590591E-005  0.3271501E+03  0.7546771E-02  0.1072405E+00
         21   -1    0    0  502  501  0.00000000000E+00  0.00000000000E+00  0.16353212204E+03  0.16353212204E+03  0.00000000000E+00 0.  1.
         21   -1    0    0  501  502 -0.00000000000E+00 -0.00000000000E+00 -0.65447187609E+03  0.65447187609E+03  0.00000000000E+00 0.  1.
         25    1    1    2    0    0 -0.87325288296E+02 -0.48885083816E+02 -0.31226189641E+03  0.35092442113E+03  0.12500000000E+03 0.  0.
         25    1    1    2    0    0  0.62411175873E+01 -0.41087747181E+01 -0.26049403106E+03  0.28902936494E+03  0.12500000000E+03 0.  0.
         25    1    1    2    0    0  0.81084170709E+02  0.52993858534E+02  0.81816173427E+02  0.17805021206E+03  0.12500000000E+03 0.  0.
</event>
<event>
 5    0  0.5633946E-005  0.2483883E+03  0.7546771E-02  0.1114328E+00
         21   -1    0    0  502  501  0.00000000000E+00  0.00000000000E+00  0.25674601912E+03  0.25674601912E+03  0.00000000000E+00 0.  1.
         21   -1    0    0  501  502 -0.00000000000E+00 -0.00000000000E+00 -0.24030263803E+03  0.24030263803E+03  0.00000000000E+00 0.  1.
         25    1    1    2    0    0  0.69884415063E+02 -0.11539991690E+03 -0.31261631280E+02  0.18655632361E+03  0.12500000000E+03 0.  0.
         25    1    1    2    0    0 -0.32894076026E+02  0.38010106683E+02  0.78310267870E+02  0.15583416346E+03  0.12500000000E+03 0.  0.
         25    1    1    2    0    0 -0.36990339037E+02  0.77389810217E+02 -0.30605255492E+02  0.15465817008E+03  0.12500000000E+03 0.  0.
</event>
<event>
 5    0  0.5590591E-005  0.2413640E+04  0.7546771E-02  0.8434415E-01
         21   -1    0    0  502  501  0.00000000000E+00  0.00000000000E+00  0.28426803822E+04  0.28426803822E+04  0.00000000000E+00 0.  1.
         21   -1    0    0  501  502 -0.00000000000E+00 -0.00000000000E+00 -0.20493532654E+04  0.20493532654E+04  0.00000000000E+00 0.  1.
         25    1    1    2    0    0  0.14124157719E+04  0.30141321223E+03  0.23203113206E+04  0.27359162746E+04  0.12500000000E+03 0.  0.
         25    1    1    2    0    0 -0.97188534428E+03 -0.26562931157E+03 -0.12827367216E+04  0.16358968643E+04  0.12500000000E+03 0.  0.
         25    1    1    2    0    0 -0.44053042761E+03 -0.35783900666E+02 -0.24424748217E+03  0.52022050877E+03  0.12500000000E+03 0.  0.
</event>
<event>
 5    0  0.6051401E-005  0.3522741E+03  0.7546771E-02  0.1061685E+00
         21   -1    0    0  502  501  0.00000000000E+00  0.00000000000E+00  0.19431469379E+03  0.19431469379E+03  0.00000000000E+00 0.  1.
         21   -1    0    0  501  502 -0.00000000000E+00 -0.00000000000E+00 -0.63863965640E+03  0.63863965640E+03  0.00000000000E+00 0.  1.
         25    1    1    2    0    0 -0.72191357292E+02 -0.80379953799E+02 -0.25331011449E+03  0.30242940192E+03  0.12500000000E+03 0.  0.
         25    1    1    2    0    0 -0.60309651086E+02  0.11269484567E+03  0.85227637041E+02  0.19805588194E+03  0.12500000000E+03 0.  0.
         25    1    1    2    0    0  0.13250100838E+03 -0.32314891874E+02 -0.27624248516E+03  0.33246906633E+03  0.12500000000E+03 0.  0.
</event>
<event>
 5    0  0.5590591E-005  0.3369426E+03  0.7546771E-02  0.1068106E+00
         21   -1    0    0  502  501  0.00000000000E+00  0.00000000000E+00  0.27613793310E+04  0.27613793310E+04  0.00000000000E+00 0. -1.
         21   -1    0    0  501  502 -0.00000000000E+00 -0.00000000000E+00 -0.41113632905E+02  0.41113632905E+02  0.00000000000E+00 0. -1.
         25    1    1    2    0    0  0.13786249691E+03  0.14554111445E+03  0.13986984793E+04  0.14185100352E+04  0.12500000000E+03 0.  0.
         25    1    1    2    0    0 -0.44465558538E+01 -0.17767014872E+03  0.84640326311E+03  0.87384777703E+03  0.12500000000E+03 0.  0.
         25    1    1    2    0    0 -0.13341594106E+03  0.32129034266E+02  0.47516395571E+03  0.51013515168E+03  0.12500000000E+03 0.  0.
</event>
<event>
 5    0  0.5590591E-005  0.5208904E+03  0.7546771E-02  0.1008466E+00
         21   -1    0    0  502  501  0.00000000000E+00  0.00000000000E+00  0.75835606031E+03  0.75835606031E+03  0.00000000000E+00 0.  1.
         21   -1    0    0  501  502 -0.00000000000E+00 -0.00000000000E+00 -0.35778282000E+03  0.35778282000E+03  0.00000000000E+00 0.  1.
         25    1    1    2    0    0  0.11717141244E+03 -0.26049121557E+03  0.46426870071E+03  0.55924524115E+03  0.12500000000E+03 0.  0.
         25    1    1    2    0    0 -0.17302244338E+03  0.33038836090E+02 -0.16597021999E+03  0.27239574983E+03  0.12500000000E+03 0.  0.
         25    1    1    2    0    0  0.55851030941E+02  0.22745237948E+03  0.10227475958E+03  0.28449788933E+03  0.12500000000E+03 0.  0.
</event>
<event>
 5    0  0.5590591E-005  0.3510944E+03  0.7546771E-02  0.1062167E+00
         21   -1    0    0  502  501  0.00000000000E+00  0.00000000000E+00  0.16253349970E+03  0.16253349970E+03  0.00000000000E+00 0. -1.
         21   -1    0    0  501  502 -0.00000000000E+00 -0.00000000000E+00 -0.75841166918E+03  0.75841166918E+03  0.00000000000E+00 0. -1.
         25    1    1    2    0    0  0.32542903893E+02  0.11098054996E+03 -0.18209357369E+03  0.24931665135E+03  0.12500000000E+03 0.  0.
         25    1    1    2    0    0  0.87051017197E+02 -0.20739427575E+03 -0.56998606502E+02  0.26356044155E+03  0.12500000000E+03 0.  0.
         25    1    1    2    0    0 -0.11959392109E+03  0.96413725789E+02 -0.35678598929E+03  0.40806807598E+03  0.12500000000E+03 0.  0.
</event>
<event>
 5    0  0.5590591E-005  0.3817824E+03  0.7546771E-02  0.1050277E+00
         21   -1    0    0  502  501  0.00000000000E+00  0.00000000000E+00  0.10312365116E+04  0.10312365116E+04  0.00000000000E+00 0.  1.
         21   -1    0    0  501  502 -0.00000000000E+00 -0.00000000000E+00 -0.14134273910E+03  0.14134273910E+03  0.00000000000E+00 0.  1.
         25    1    1    2    0    0 -0.44656635581E+02 -0.41209429765E+01 -0.65296602705E+02  0.14798595743E+03  0.12500000000E+03 0.  0.
         25    1    1    2    0    0 -0.50945216499E+02 -0.11063555961E+03  0.40747186189E+03  0.44327639275E+03  0.12500000000E+03 0.  0.
         25    1    1    2    0    0  0.95601852079E+02  0.11475650259E+03  0.54771851333E+03  0.58131690054E+03  0.12500000000E+03 0.  0.
</event>
<event>
 5    0  0.5590591E-005  0.3900853E+03  0.7546771E-02  0.1047268E+00
         21   -1    0    0  502  501  0.00000000000E+00  0.00000000000E+00  0.10295668440E+04  0.10295668440E+04  0.00000000000E+00 0. -1.
         21   -1    0    0  501  502 -0.00000000000E+00 -0.00000000000E+00 -0.14779665371E+03  0.14779665371E+03  0.00000000000E+00 0. -1.
         25    1    1    2    0    0  0.14136342197E+03 -0.57145811610E+02  0.47993149999E+02  0.20292265350E+03  0.12500000000E+03 0.  0.
         25    1    1    2    0    0  0.17778389933E+02  0.22439732720E+02  0.13600600393E+02  0.12895576406E+03  0.12500000000E+03 0.  0.
         25    1    1    2    0    0 -0.15914181190E+03  0.34706078890E+02  0.82017643988E+03  0.84548508014E+03  0.12500000000E+03 0.  0.
</event>
<event>
 5    0  0.5590591E-005  0.2772238E+03  0.7546771E-02  0.1097215E+00
         21   -1    0    0  502  501  0.00000000000E+00  0.00000000000E+00  0.21887259697E+03  0.21887259697E+03  0.00000000000E+00 0.  1.
         21   -1    0    0  501  502 -0.00000000000E+00 -0.00000000000E+00 -0.35113134696E+03  0.35113134696E+03  0.00000000000E+00 0.  1.
         25    1    1    2    0    0  0.64353633774E+02  0.53836385097E+02 -0.17226862884E+03  0.22878205136E+03  0.12500000000E+03 0.  0.
         25    1    1    2    0    0 -0.71832600859E+01  0.56085031527E+02  0.82601780766E+02  0.16014113829E+03  0.12500000000E+03 0.  0.
         25    1    1    2    0    0 -0.57170373689E+02 -0.10992141662E+03 -0.42591901910E+02  0.18108075427E+03  0.12500000000E+03 0.  0.
</event>
<event>
 5    0  0.5590591E-005  0.5005430E+03  0.7546771E-02  0.1013637E+00
         21   -1    0    0  502  501  0.00000000000E+00  0.00000000000E+00  0.71273719890E+03  0.71273719890E+03  0.00000000000E+00 0.  1.
         21   -1    0    0  501  502 -0.00000000000E+00 -0.00000000000E+00 -0.35152265722E+03  0.35152265722E+03  0.00000000000E+00 0.  1.
         25    1    1    2    0    0  0.68313507968E+02 -0.17486286539E+03  0.31123530014E+02  0.22767835027E+03  0.12500000000E+03 0.  0.
         25    1    1    2    0    0 -0.20458156661E+03  0.28622526476E+03  0.45390303318E+03  0.58773419428E+03  0.12500000000E+03 0.  0.
         25    1    1    2    0    0  0.13626805864E+03 -0.11136239938E+03 -0.12381202152E+03  0.24884731157E+03  0.12500000000E+03 0.  0.
</event>
<event>
 5    0  0.5590591E-005  0.4281874E+03  0.7546771E-02  0.1034434E+00
         21   -1    0    0  502  501  0.00000000000E+00  0.00000000000E+00  0.41559609903E+03  0.41559609903E+03  0.00000000000E+00 0. -1.
         21   -1    0    0  501  502 -0.00000000000E+00 -0.00000000000E+00 -0.44116011569E+03  0.44116011569E+03  0.00000000000E+00 0. -1.
         25    1    1    2    0    0  0.11760263310E+03  0.99554190907E+02  0.15440255306E+03  0.25140915781E+03  0.12500000000E+03 0.  0.
         25    1    1    2    0    0 -0.30082490776E+03 -0.13157272295E+03 -0.82009293523E+02  0.36077351729E+03  0.12500000000E+03 0.  0.
         25    1    1    2    0    0  0.18322227466E+03  0.32018532040E+02 -0.97957276194E+02  0.24457353962E+03  0.12500000000E+03 0.  0.
</event>
<event>
 5    0  0.5590591E-005  0.3144235E+03  0.7546771E-02  0.1078245E+00
         21   -1    0    0  502  501  0.00000000000E+00  0.00000000000E+00  0.44691054902E+03  0.44691054902E+03  0.00000000000E+00 0. -1.
         21   -1    0    0  501  502 -0.00000000000E+00 -0.00000000000E+00 -0.22121234584E+03  0.22121234584E+03  0.00000000000E+00 0. -1.
         25    1    1    2    0    0 -0.19663892595E+03 -0.84472086618E+02  0.71184699556E+02  0.25786558915E+03  0.12500000000E+03 0.  0.
         25    1    1    2    0    0  0.91478121184E+00  0.65998619517E+02  0.24494231882E+02  0.14346296386E+03  0.12500000000E+03 0.  0.
         25    1    1    2    0    0  0.19572414474E+03  0.18473467101E+02  0.13001927174E+03  0.26679434185E+03  0.12500000000E+03 0.  0.
</event>
<event>
 5    0  0.5590591E-005  0.3173274E+03  0.7546771E-02  0.1076886E+00
         21   -1    0    0  502  501  0.00000000000E+00  0.00000000000E+00  0.21955624116E+03  0.21955624116E+03  0.00000000000E+00 0. -1.
         21   -1    0    0  501  502 -0.00000000000E+00 -0.00000000000E+00 -0.45863718771E+03  0.45863718771E+03  0.00000000000E+00 0. -1.
         25    1    1    2    0    0 -0.11608234208E+03  0.17896516664E+03 -0.22053232103E+03  0.33130521522E+03  0.12500000000E+03 0.  0.
         25    1    1    2    0    0  0.41088338716E+02 -0.24861786511E+02  0.50904901587E+00  0.13390899573E+03  0.12500000000E+03 0.  0.
         25    1    1    2    0    0  0.74994003368E+02 -0.15410338013E+03 -0.19057674535E+02  0.21297921792E+03  0.12500000000E+03 0.  0.
</event>
<event>
 5    0  0.5590591E-005  0.3217545E+03  0.7546771E-02  0.1074845E+00
         21   -1    0    0  502  501  0.00000000000E+00  0.00000000000E+00  0.71267730678E+03  0.71267730678E+03  0.00000000000E+00 0.  1.
         21   -1    0    0  501  502 -0.00000000000E+00 -0.00000000000E+00 -0.14526342159E+03  0.14526342159E+03  0.00000000000E+00 0.  1.
         25    1    1    2    0    0 -0.17376834624E+03 -0.43308924155E+02  0.35146434269E+02  0.22120436910E+03  0.12500000000E+03 0.  0.
         25    1    1    2    0    0  0.15513990353E+03 -0.22679212533E+02  0.36914822536E+03  0.42009302379E+03  0.12500000000E+03 0.  0.
         25    1    1    2    0    0  0.18628442703E+02  0.65988136688E+02  0.16311922556E+03  0.21664333548E+03  0.12500000000E+03 0.  0.
</event>
<event>
 5    0  0.5590591E-005  0.2888339E+03  0.7546771E-02  0.1090960E+00
         21   -1    0    0  502  501  0.00000000000E+00  0.00000000000E+00  0.43668430504E+02  0.43668430504E+02  0.00000000000E+00 0.  1.
         21   -1    0    0  501  502 -0.00000000000E+00 -0.00000000000E+00 -0.19104193188E+04  0.19104193188E+04  0.00000000000E+00 0.  1.
         25    1    1    2    0    0  0.10825921327E+03 -0.59159601114E+02 -0.62816724180E+03  0.65225685074E+03  0.12500000000E+03 0.  0.
         25    1    1    2    0    0  0.90417767223E+02  0.45636051699E+02 -0.40686222987E+03  0.43751559508E+03  0.12500000000E+03 0.  0.
         25    1    1    2    0    0 -0.19867698049E+03  0.13523549415E+02 -0.83172141662E+03  0.86431530348E+03  0.12500000000E+03 0.  0.
</event>
<event>
 5    0  0.5590591E-005  0.3216283E+03  0.7546771E-02  0.1074902E+00
         21   -1    0    0  502  501  0.00000000000E+00  0.00000000000E+00  0.20474216108E+04  0.20474216108E+04  0.00000000000E+00 0.  1.
         21   -1    0    0  501  502 -0.00000000000E+00 -0.00000000000E+00 -0.50524398338E+02  0.50524398338E+02  0.00000000000E+00 0.  1.
         25    1    1    2    0    0  0.36637475482E+02 -0.16111338607E+03  0.68395728109E+03  0.71464843814E+03  0.12500000000E+03 0.  0.
         25    1    1    2    0    0  0.87096166485E+02  0.14391285264E+03  0.10189579818E+04  0.10402869892E+04  0.12500000000E+03 0.  0.
         25    1    1    2    0    0 -0.12373364197E+03  0.17200533428E+02  0.29398194960E+03  0.34301058176E+03  0.12500000000E+03 0.  0.
</event>
<event>
 5    0  0.5590591E-005  0.2449354E+03  0.7546771E-02  0.1116548E+00
         21   -1    0    0  502  501  0.00000000000E+00  0.00000000000E+00  0.77658839655E+02  0.77658839655E+02  0.00000000000E+00 0.  1.
         21   -1    0    0  501  502 -0.00000000000E+00 -0.00000000000E+00 -0.77252456137E+03  0.77252456137E+03  0.00000000000E+00 0.  1.
         25    1    1    2    0    0 -0.40937967255E+02 -0.36405037434E+02 -0.58671111865E+02  0.14855484940E+03  0.12500000000E+03 0.  0.
         25    1    1    2    0    0  0.40826172679E+02 -0.77144491035E-01 -0.15568680141E+03  0.20378950527E+03  0.12500000000E+03 0.  0.
         25    1    1    2    0    0  0.11179457567E+00  0.36482181925E+02 -0.48050780844E+03  0.49783904635E+03  0.12500000000E+03 0.  0.
</event>
<event>
 5    0  0.5590591E-005  0.3583902E+03  0.7546771E-02  0.1059223E+00
         21   -1    0    0  502  501  0.00000000000E+00  0.00000000000E+00  0.14001300660E+04  0.14001300660E+04  0.00000000000E+00 0. -1.
         21   -1    0    0  501  502 -0.00000000000E+00 -0.00000000000E+00 -0.91736885083E+02  0.91736885083E+02  0.00000000000E+00 0. -1.
         25    1    1    2    0    0  0.88763065673E+02  0.23221875100E+03  0.58856160489E+03  0.65102549328E+03  0.12500000000E+03 0.  0.
         25    1    1    2    0    0 -0.33169445767E+02  0.34746032017E+02  0.24445171973E+03  0.27872772046E+03  0.12500000000E+03 0.  0.
         25    1    1    2    0    0 -0.55593619906E+02 -0.26696478302E+03  0.47537985632E+03  0.56211373737E+03  0.12500000000E+03 0.  0.
</event>
<event>
 5    0  0.5590591E-005  0.4799988E+03  0.7546771E-02  0.1019135E+00
         21   -1    0    0  502  501  0.00000000000E+00  0.00000000000E+00  0.31306971806E+03  0.31306971806E+03  0.00000000000E+00 0.  1.
         21   -1    0    0  501  502 -0.00000000000E+00 -0.00000000000E+00 -0.73593473484E+03  0.73593473484E+03  0.00000000000E+00 0.  1.
         25    1    1    2    0    0 -0.85101293587E+02 -0.10962954423E+03 -0.15771806756E+02  0.18744230320E+03  0.12500000000E+03 0.  0.
         25    1    1    2    0    0 -0.23079771008E+03 -0.16282328779E+03 -0.25416645421E+03  0.40000574055E+03  0.12500000000E+03 0.  0.
         25    1    1    2    0    0  0.31589900367E+03  0.27245283202E+03 -0.15292675581E+03  0.46155640916E+03  0.12500000000E+03 0.  0.
</event>
<event>
 5    0  0.5590591E-005  0.3772958E+03  0.7546771E-02  0.1051938E+00
         21   -1    0    0  502  501  0.00000000000E+00  0.00000000000E+00  0.21678173184E+04  0.21678173184E+04  0.00000000000E+00 0. -1.
         21   -1    0    0  501  502 -0.00000000000E+00 -0.00000000000E+00 -0.65666117354E+02  0.65666117354E+02  0.00000000000E+00 0. -1.
         25    1    1    2    0    0 -0.74164069142E+02  0.87414885341E+02  0.19577636968E+03  0.25902713807E+03  0.12500000000E+03 0.  0.
         25    1    1    2    0    0 -0.12788582959E+03 -0.18464444707E+03  0.92279990947E+03  0.95793164169E+03  0.12500000000E+03 0.  0.
         25    1    1    2    0    0  0.20204989873E+03  0.97229561730E+02  0.98357492186E+03  0.10165246560E+04  0.12500000000E+03 0.  0.
</event>
<event>
 5    0  0.5590591E-005  0.3651752E+03  0.7546771E-02  0.1056553E+00
         21   -1    0    0  502  501  0.00000000000E+00  0.00000000000E+00  0.47893583422E+03  0.47893583422E+03  0.00000000000E+00 0. -1.
         21   -1    0    0  501  502 -0.00000000000E+00 -0.00000000000E+00 -0.27843596865E+03  0.27843596865E+03  0.00000000000E+00 0. -1.
         25    1    1    2    0    0 -0.16489265866E+02 -0.19896821297E+03  0.22245852929E+02  0.23660119111E+03  0.12500000000E+03 0.  0.
         25    1    1    2    0    0 -0.81361372647E+02 -0.72312945933E+02  0.14574115429E+02  0.16639182657E+03  0.12500000000E+03 0.  0.
         25    1    1    2    0    0  0.97850638513E+02  0.27128115891E+03  0.16367989721E+03  0.35437878518E+03  0.12500000000E+03 0.  0.
</event>
<event>
 5    0  0.5590591E-005  0.4129296E+03  0.7546771E-02  0.1039392E+00
         21   -1    0    0  502  501  0.00000000000E+00  0.00000000000E+00  0.25700643610E+03  0.25700643610E+03  0.00000000000E+00 0. -1.
         21   -1    0    0  501  502 -0.00000000000E+00 -0.00000000000E+00 -0.66344967403E+03  0.66344967403E+03  0.00000000000E+00 0. -1.
         25    1    1    2    0    0  0.10852480739E+03  0.82671454241E+02 -0.89928737736E+02  0.20572890180E+03  0.12500000000E+03 0.  0.
         25    1    1    2    0    0  0.15124336475E+03  0.16788363367E+03 -0.14344853017E+03  0.29540133825E+03  0.12500000000E+03 0.  0.
         25    1    1    2    0    0 -0.25976817214E+03 -0.25055508791E+03 -0.17306597003E+03  0.41932587008E+03  0.12500000000E+03 0.  0.
</event>
<event>
 5    0  0.6157427E-005  0.4105074E+03  0.7546771E-02  0.1040201E+00
         21   -1    0    0  502  501  0.00000000000E+00  0.00000000000E+00  0.41629387792E+03  0.41629387792E+03  0.00000000000E+00 0.  1.
         21   -1    0    0  501  502 -0.00000000000E+00 -0.00000000000E+00 -0.40480139620E+03  0.40480139620E+03  0.00000000000E+00 0.  1.
         25    1    1    2    0    0 -0.29493074014E+02 -0.19454912099E+03  0.13539336149E+03  0.26958405782E+03  0.12500000000E+03 0.  0.
         25    1    1    2    0    0  0.44991094580E+02  0.23624713376E+03  0.10194404770E+03  0.28957640730E+03  0.12500000000E+03 0.  0.
         25    1    1    2    0    0 -0.15498020566E+02 -0.41698012769E+02 -0.22584492746E+03  0.26193480901E+03  0.12500000000E+03 0.  0.
</event>
<event>
 5    0  0.5590591E-005  0.3388341E+03  0.7546771E-02  0.1067294E+00
         21   -1    0    0  502  501  0.00000000000E+00  0.00000000000E+00  0.13629787475E+03  0.13629787475E+03  0.00000000000E+00 0. -1.
         21   -1    0    0  501  502 -0.00000000000E+00 -0.00000000000E+00 -0.84233542476E+03  0.84233542476E+03  0.00000000000E+00 0. -1.
         25    1    1    2    0    0  0.17619174250E+03  0.34504903539E+02 -0.55539153381E+03  0.59692451308E+03  0.12500000000E+03 0.  0.
         25    1    1    2    0    0 -0.16159304470E+03  0.22725472660E+02 -0.52480463168E+02  0.21215079122E+03  0.12500000000E+03 0.  0.
         25    1    1    2    0    0 -0.14598697802E+02 -0.57230376199E+02 -0.98165553034E+02  0.16955799521E+03  0.12500000000E+03 0.  0.
</event>
<event>
 5    0  0.5590591E-005  0.2691871E+03  0.7546771E-02  0.1101746E+00
         21   -1    0    0  502  501  0.00000000000E+00  0.00000000000E+00  0.51703385367E+03  0.51703385367E+03  0.00000000000E+00 0.  1.
         21   -1    0    0  501  502 -0.00000000000E+00 -0.00000000000E+00 -0.14014885906E+03  0.14014885906E+03  0.00000000000E+00 0.  1.
         25    1    1    2    0    0  0.95531367885E+02 -0.34715584836E+02  0.11495042577E+03  0.19791415933E+03  0.12500000000E+03 0.  0.
         25    1    1    2    0    0  0.65251800881E+02 -0.18718432746E+02  0.28799714119E+02  0.14512959993E+03  0.12500000000E+03 0.  0.
         25    1    1    2    0    0 -0.16078316877E+03  0.53434017581E+02  0.23313485473E+03  0.31413895346E+03  0.12500000000E+03 0.  0.
</event>
<event>
 5    0  0.5590591E-005  0.2337120E+03  0.7546771E-02  0.1124054E+00
         21   -1    0    0  502  501  0.00000000000E+00  0.00000000000E+00  0.56981464848E+03  0.56981464848E+03  0.00000000000E+00 0. -1.
         21   -1    0    0  501  502 -0.00000000000E+00 -0.00000000000E+00 -0.95858045851E+02  0.95858045851E+02  0.00000000000E+00 0. -1.
         25    1    1    2    0    0 -0.52437543343E+02  0.47924120209E+02  0.22954112737E+03  0.27085152095E+03  0.12500000000E+03 0.  0.
         25    1    1    2    0    0 -0.30892763127E+02 -0.15709733429E+02  0.19350780588E+03  0.23296229196E+03  0.12500000000E+03 0.  0.
         25    1    1    2    0    0  0.83330306469E+02 -0.32214386780E+02  0.50907669378E+02  0.16185888142E+03  0.12500000000E+03 0.  0.
</event>
<event>
 5    0  0.5590591E-005  0.3247906E+03  0.7546771E-02  0.1073465E+00
         21   -1    0    0  502  501  0.00000000000E+00  0.00000000000E+00  0.94398335327E+02  0.94398335327E+02  0.00000000000E+00 0. -1.
         21   -1    0    0  501  502 -0.00000000000E+00 -0.00000000000E+00 -0.11174871248E+04  0.11174871248E+04  0.00000000000E+00 0. -1.
         25    1    1    2    0    0  0.72125471090E+01  0.77528640276E+02 -0.91630482448E+02  0.17344698387E+03  0.12500000000E+03 0.  0.
         25    1    1    2    0    0  0.13598631430E+03 -0.13201989629E+03 -0.29674187264E+03  0.37363387116E+03  0.12500000000E+03 0.  0.
         25    1    1    2    0    0 -0.14319886141E+03  0.54491256015E+02 -0.63471643435E+03  0.66480460507E+03  0.12500000000E+03 0.  0.
</event>
<event>
 5    0  0.5590591E-005  0.3549669E+03  0.7546771E-02  0.1060595E+00
         21   -1    0    0  502  501  0.00000000000E+00  0.00000000000E+00  0.69596675911E+02  0.69596675911E+02  0.00000000000E+00 0. -1.
         21   -1    0    0  501  502 -0.00000000000E+00 -0.00000000000E+00 -0.18104529488E+04  0.18104529488E+04  0.00000000000E+00 0. -1.
         25    1    1    2    0    0 -0.62734338619E+02 -0.15732804102E+03 -0.34440338319E+03  0.40364142514E+03  0.12500000000E+03 0.  0.
         25    1    1    2    0    0  0.13039309992E+03  0.12432341495E+03 -0.12520880123E+04  0.12711443909E+04  0.12500000000E+03 0.  0.
         25    1    1    2    0    0 -0.67658761298E+02  0.33004626076E+02 -0.14436487743E+03  0.20526380869E+03  0.12500000000E+03 0.  0.
</event>
<event>
 5    0  0.5590591E-005  0.2928258E+03  0.7546771E-02  0.1088883E+00
         21   -1    0    0  502  501  0.00000000000E+00  0.00000000000E+00  0.19174151807E+03  0.19174151807E+03  0.00000000000E+00 0.  1.
         21   -1    0    0  501  502 -0.00000000000E+00 -0.00000000000E+00 -0.44720076671E+03  0.44720076671E+03  0.00000000000E+00 0.  1.
         25    1    1    2    0    0 -0.33985642268E+02  0.55857310450E+02  0.63585966967E+02  0.15473602750E+03  0.12500000000E+03 0.  0.
         25    1    1    2    0    0 -0.47643222903E+02 -0.85092536754E+02 -0.28827774575E+03  0.32899798661E+03  0.12500000000E+03 0.  0.
         25    1    1    2    0    0  0.81628865171E+02  0.29235226304E+02 -0.30767469861E+02  0.15520827068E+03  0.12500000000E+03 0.  0.
</event>
<event>
 5    0  0.5590591E-005  0.4383115E+03  0.7546771E-02  0.1031266E+00
         21   -1    0    0  502  501  0.00000000000E+00  0.00000000000E+00  0.34278440864E+03  0.34278440864E+03  0.00000000000E+00 0. -1.
         21   -1    0    0  501  502 -0.00000000000E+00 -0.00000000000E+00 -0.56045998234E+03  0.56045998234E+03  0.00000000000E+00 0. -1.
         25    1    1    2    0    0  0.25117819617E+03  0.42607698248E+02  0.18596665338E+03  0.33928527576E+03  0.12500000000E+03 0.  0.
         25    1    1    2    0    0 -0.39613242477E+02  0.13292140357E+02 -0.20205640758E+03  0.24124195701E+03  0.12500000000E+03 0.  0.
         25    1    1    2    0    0 -0.21156495369E+03 -0.55899838605E+02 -0.20158581949E+03  0.32271715822E+03  0.12500000000E+03 0.  0.
</event>
<event>
 5    0  0.5590591E-005  0.2575163E+03  0.7546771E-02  0.1108645E+00
         21   -1    0    0  502  501  0.00000000000E+00  0.00000000000E+00  0.82137766049E+03  0.82137766049E+03  0.00000000000E+00 0.  1.
         21   -1    0    0  501  502 -0.00000000000E+00 -0.00000000000E+00 -0.80735853435E+02  0.80735853435E+02  0.00000000000E+00 0.  1.
         25    1    1    2    0    0  0.81472729465E+02 -0.77695455634E+02  0.19499123574E+03  0.25752858383E+03  0.12500000000E+03 0.  0.
         25    1    1    2    0    0  0.54840994827E+02 -0.91418322021E+01  0.25375796547E+03  0.28828668518E+03  0.12500000000E+03 0.  0.
         25    1    1    2    0    0 -0.13631372429E+03  0.86837287836E+02  0.29189260585E+03  0.35629824493E+03  0.12500000000E+03 0.  0.
</event>
<event>
 5    0  0.5590591E-005  0.2322003E+03  0.7546771E-02  0.1125101E+00
         21   -1    0    0  502  501  0.00000000000E+00  0.00000000000E+00  0.16629392763E+03  0.16629392763E+03  0.00000000000E+00 0. -1.
         21   -1    0    0  501  502 -0.00000000000E+00 -0.00000000000E+00 -0.32422699239E+03  0.32422699239E+03  0.00000000000E+00 0. -1.
         25    1    1    2    0    0  0.65543010923E+02 -0.24812361574E+02 -0.49200736221E+02  0.15151650739E+03  0.12500000000E+03 0.  0.
         25    1    1    2    0    0 -0.11264513606E+03 -0.12627779990E+02 -0.10787170791E+03  0.20027404443E+03  0.12500000000E+03 0.  0.
         25    1    1    2    0    0  0.47102125132E+02  0.37440141565E+02 -0.86062063157E+00  0.13873036820E+03  0.12500000000E+03 0.  0.
</event>
<event>
 5    0  0.5590591E-005  0.2557127E+03  0.7546771E-02  0.1109747E+00
         21   -1    0    0  502  501  0.00000000000E+00  0.00000000000E+00  0.20224156577E+03  0.20224156577E+03  0.00000000000E+00 0. -1.
         21   -1    0    0  501  502 -0.00000000000E+00 -0.00000000000E+00 -0.32332129478E+03  0.32332129478E+03  0.00000000000E+00 0. -1.
         25    1    1    2    0    0 -0.11457247562E+03  0.46906845746E+02 -0.10224123239E+03  0.20348310482E+03  0.12500000000E+03 0.  0.
         25    1    1    2    0    0  0.17039655780E+02  0.26892320810E+02 -0.60239284226E+02  0.14236333149E+03  0.12500000000E+03 0.  0.
         25    1    1    2    0    0  0.97532819837E+02 -0.73799166556E+02  0.41400787606E+02  0.17971642425E+03  0.12500000000E+03 0.  0.
</event>
<event>
 5    0  0.5590591E-005  0.3933033E+03  0.7546771E-02  0.1046123E+00
         21   -1    0    0  502  501  0.00000000000E+00  0.00000000000E+00  0.11790607969E+04  0.11790607969E+04  0.00000000000E+00 0. -1.
         21   -1    0    0  501  502 -0.00000000000E+00 -0.00000000000E+00 -0.13119551872E+03  0.13119551872E+03  0.00000000000E+00 0. -1.
         25    1    1    2    0    0  0.18202161523E+03  0.15885853171E+03  0.37227522062E+03  0.46106587533E+03  0.12500000000E+03 0.  0.
         25    1    1    2    0    0  0.94458567752E+02 -0.14059006617E+03  0.27355262526E+03  0.34517245909E+03  0.12500000000E+03 0.  0.
         25    1    1    2    0    0 -0.27648018298E+03 -0.18268465537E+02  0.40203743232E+03  0.50401798123E+03  0.12500000000E+03 0.  0.
</event>
<event>
 5    0  0.5590591E-005  0.7934058E+03  0.7546771E-02  0.9569611E-01
         21   -1    0    0  502  501  0.00000000000E+00  0.00000000000E+00  0.73525044838E+03  0.73525044838E+03  0.00000000000E+00 0.  1.
         21   -1    0    0  501  502 -0.00000000000E+00 -0.00000000000E+00 -0.85616105425E+03  0.85616105425E+03  0.00000000000E+00 0.  1.
         25    1    1    2    0    0  0.14065833091E+03  0.47253004927E+03  0.28714791431E+03  0.58407905134E+03  0.12500000000E+03 0.  0.
         25    1    1    2    0    0  0.49501328321E+02 -0.44798009748E+03 -0.56224686292E+03  0.73135701549E+03  0.12500000000E+03 0.  0.
         25    1    1    2    0    0 -0.19015965923E+03 -0.24549951789E+02  0.15418834273E+03  0.27597543580E+03  0.12500000000E+03 0.  0.
</event>
<event>
 5    0  0.5590591E-005  0.3437144E+03  0.7546771E-02  0.1065225E+00
         21   -1    0    0  502  501  0.00000000000E+00  0.00000000000E+00  0.47344815872E+03  0.47344815872E+03  0.00000000000E+00 0. -1.
         21   -1    0    0  501  502 -0.00000000000E+00 -0.00000000000E+00 -0.24953010084E+03  0.24953010084E+03  0.00000000000E+00 0. -1.
         25    1    1    2    0    0 -0.10422151745E+03  0.18929352598E+03 -0.27125731456E+02  0.25110748492E+03  0.12500000000E+03 0.  0.
         25    1    1    2    0    0 -0.33125768682E+02 -0.50143805440E+02  0.12798353516E+02  0.13928573375E+03  0.12500000000E+03 0.  0.
         25    1    1    2    0    0  0.13734728613E+03 -0.13914972054E+03  0.23824543582E+03  0.33258504089E+03  0.12500000000E+03 0.  0.
</event>
<event>
 5    0  0.6221741E-005  0.5912099E+03  0.7546771E-02  0.9923812E-01
         21   -1    0    0  502  501  0.00000000000E+00  0.00000000000E+00  0.21709697570E+03  0.21709697570E+03  0.00000000000E+00 0. -1.
         21   -1    0    0  501  502 -0.00000000000E+00 -0.00000000000E+00 -0.16100139103E+04  0.16100139103E+04  0.00000000000E+00 0. -1.
         25    1    1    2    0    0  0.19104746537E+03  0.17419589834E+03 -0.65646266767E+03  0.71652744474E+03  0.12500000000E+03 0.  0.
         25    1    1    2    0    0  0.15089999159E+03 -0.36928248664E+03 -0.35884628197E+03  0.55094102813E+03  0.12500000000E+03 0.  0.
         25    1    1    2    0    0 -0.34194745696E+03  0.19508658830E+03 -0.37760798497E+03  0.55964241312E+03  0.12500000000E+03 0.  0.
</event>
<event>
 5    0  0.5590591E-005  0.4188193E+03  0.7546771E-02  0.1037451E+00
         21   -1    0    0  502  501  0.00000000000E+00  0.00000000000E+00  0.12515498680E+04  0.12515498680E+04  0.00000000000E+00 0.  1.
         21   -1    0    0  501  502 -0.00000000000E+00 -0.00000000000E+00 -0.14015390500E+03  0.14015390500E+03  0.00000000000E+00 0.  1.
         25    1    1    2    0    0 -0.66312902070E+02 -0.15111607109E+03  0.57501748010E+03  0.61114938463E+03  0.12500000000E+03 0.  0.
         25    1    1    2    0    0  0.13757499041E+03  0.22058319826E+03  0.54911364189E+03  0.62026979376E+03  0.12500000000E+03 0.  0.
         25    1    1    2    0    0 -0.71262088336E+02 -0.69467127172E+02 -0.12735159001E+02  0.16028459460E+03  0.12500000000E+03 0.  0.
</event>
<event>
 5    0  0.5590591E-005  0.3413131E+03  0.7546771E-02  0.1066238E+00
         21   -1    0    0  502  501  0.00000000000E+00  0.00000000000E+00  0.19197234151E+03  0.19197234151E+03  0.00000000000E+00 0.  1.
         21   -1    0    0  501  502 -0.00000000000E+00 -0.00000000000E+00 -0.60683025015E+03  0.60683025015E+03  0.00000000000E+00 0.  1.
         25    1    1    2    0    0 -0.25360199790E+03  0.71439172544E+01 -0.17177187239E+03  0.33090117110E+03  0.12500000000E+03 0.  0.
         25    1    1    2    0    0  0.20685459737E+03 -0.56892488819E+02 -0.20080310900E+03  0.31933128303E+03  0.12500000000E+03 0.  0.
         25    1    1    2    0    0  0.46747400528E+02  0.49748571564E+02 -0.42282927258E+02  0.14857013753E+03  0.12500000000E+03 0.  0.
</event>
<event>
 5    0  0.5590591E-005  0.2664683E+03  0.7546771E-02  0.1103318E+00
         21   -1    0    0  502  501  0.00000000000E+00  0.00000000000E+00  0.35466297291E+03  0.35466297291E+03  0.00000000000E+00 0.  1.
         21   -1    0    0  501  502 -0.00000000000E+00 -0.00000000000E+00 -0.20020509477E+03  0.20020509477E+03  0.00000000000E+00 0.  1.
         25    1    1    2    0    0  0.13047063788E+03 -0.20419738787E+02  0.94801760293E+02  0.20506566469E+03  0.12500000000E+03 0.  0.
         25    1    1    2    0    0 -0.30623000158E+01 -0.26536747276E+02  0.98286896013E+02  0.16124171472E+03  0.12500000000E+03 0.  0.
         25    1    1    2    0    0 -0.12740833786E+03  0.46956486063E+02 -0.38630778160E+02  0.18856068827E+03  0.12500000000E+03 0.  0.
</event>
<event>
 5    0  0.5590591E-005  0.2995637E+03  0.7546771E-02  0.1085459E+00
         21   -1    0    0  502  501  0.00000000000E+00  0.00000000000E+00  0.39855839941E+02  0.39855839941E+02  0.00000000000E+00 0.  1.
         21   -1    0    0  501  502 -0.00000000000E+00 -0.00000000000E+00 -0.22515754296E+04  0.22515754296E+04  0.00000000000E+00 0.  1.
         25    1    1    2    0    0 -0.78119348643E+02 -0.11060920143E+03 -0.67239542379E+03  0.69719268069E+03  0.12500000000E+03 0.  0.
         25    1    1    2    0    0  0.16605886174E+03 -0.26461524543E+02 -0.77908033247E+03  0.80676323806E+03  0.12500000000E+03 0.  0.
         25    1    1    2    0    0 -0.87939513096E+02  0.13707072597E+03 -0.76024383340E+03  0.78747535080E+03  0.12500000000E+03 0.  0.
</event>
<event>
 5    0  0.5590591E-005  0.2726269E+03  0.7546771E-02  0.1099785E+00
         21   -1    0    0  502  501  0.00000000000E+00  0.00000000000E+00  0.14748364934E+04  0.14748364934E+04  0.00000000000E+00 0.  1.
         21   -1    0    0  501  502 -0.00000000000E+00 -0.00000000000E+00 -0.50395717596E+02  0.50395717596E+02  0.00000000000E+00 0.  1.
         25    1    1    2    0    0 -0.32063149009E+02  0.74238574278E+02  0.25010031564E+03  0.29105769071E+03  0.12500000000E+03 0.  0.
         25    1    1    2    0    0  0.94465489966E+02  0.56705536563E+02  0.34656489702E+03  0.38454060191E+03  0.12500000000E+03 0.  0.
         25    1    1    2    0    0 -0.62402340956E+02 -0.13094411084E+03  0.82777556311E+03  0.84963391834E+03  0.12500000000E+03 0.  0.
</event>
<event>
 5    0  0.5590591E-005  0.3719123E+03  0.7546771E-02  0.1053964E+00
         21   -1    0    0  502  501  0.00000000000E+00  0.00000000000E+00  0.55817037957E+03  0.55817037957E+03  0.00000000000E+00 0. -1.
         21   -1    0    0  501  502 -0.00000000000E+00 -0.00000000000E+00 -0.24780741637E+03  0.24780741637E+03  0.00000000000E+00 0. -1.
         25    1    1    2    0    0 -0.25004294643E+02 -0.23688877216E+03  0.66849318393E+02  0.27719187668E+03  0.12500000000E+03 0.  0.
         25    1    1    2    0    0  0.45023173427E+02  0.33964034620E+02 -0.53713709956E+02  0.14727798352E+03  0.12500000000E+03 0.  0.
         25    1    1    2    0    0 -0.20018878784E+02  0.20292473754E+03  0.29722735476E+03  0.38150793574E+03  0.12500000000E+03 0.  0.
</event>
<event>
 5    0  0.5590591E-005  0.3970376E+03  0.7546771E-02  0.1044810E+00
         21   -1    0    0  502  501  0.00000000000E+00  0.00000000000E+00  0.19330796549E+04  0.19330796549E+04  0.00000000000E+00 0. -1.
         21   -1    0    0  501  502 -0.00000000000E+00 -0.00000000000E+00 -0.81548029836E+02  0.81548029836E+02  0.00000000000E+00 0. -1.
         25    1    1    2    0    0  0.96593327955E+02 -0.26969645219E+03  0.67774325998E+03  0.74634266512E+03  0.12500000000E+03 0.  0.
         25    1    1    2    0    0 -0.18680894143E+03  0.11177262624E+03  0.50363513601E+03  0.56272910961E+03  0.12500000000E+03 0.  0.
         25    1    1    2    0    0  0.90215613470E+02  0.15792382595E+03  0.67015322906E+03  0.70555591000E+03  0.12500000000E+03 0.  0.
</event>
<event>
 5    0  0.5590591E-005  0.2551906E+03  0.7546771E-02  0.1110068E+00
         21   -1    0    0  502  501  0.00000000000E+00  0.00000000000E+00  0.41634601707E+03  0.41634601707E+03  0.00000000000E+00 0.  1.
         21   -1    0    0  501  502 -0.00000000000E+00 -0.00000000000E+00 -0.15641376728E+03  0.15641376728E+03  0.00000000000E+00 0.  1.
         25    1    1    2    0    0  0.81966790686E+02  0.36332048312E+02  0.38359764734E+02  0.15854035467E+03  0.12500000000E+03 0.  0.
         25    1    1    2    0    0 -0.10399882387E+03  0.66475248215E+02  0.16597749895E+03  0.24167797614E+03  0.12500000000E+03 0.  0.
         25    1    1    2    0    0  0.22032033186E+02 -0.10280729653E+03  0.55594986104E+02  0.17254145353E+03  0.12500000000E+03 0.  0.
</event>
<event>
 5    0  0.5590591E-005  0.4947862E+03  0.7546771E-02  0.1015149E+00
         21   -1    0    0  502  501  0.00000000000E+00  0.00000000000E+00  0.32246692290E+03  0.32246692290E+03  0.00000000000E+00 0. -1.
         21   -1    0    0  501  502 -0.00000000000E+00 -0.00000000000E+00 -0.75918923768E+03  0.75918923768E+03  0.00000000000E+00 0. -1.
         25    1    1    2    0    0  0.18314276869E+03 -0.36208810696E+03 -0.11964521840E+03  0.44112248777E+03  0.12500000000E+03 0.  0.
         25    1    1    2    0    0  0.56144001783E+02  0.77745690520E+02 -0.46930440291E+02  0.16438980369E+03  0.12500000000E+03 0.  0.
         25    1    1    2    0    0 -0.23928677048E+03  0.28434241644E+03 -0.27014665608E+03  0.47614386912E+03  0.12500000000E+03 0.  0.
</event>
<event>
 5    0  0.5936604E-005  0.2596309E+03  0.7546771E-02  0.1107365E+00
         21   -1    0    0  502  501  0.00000000000E+00  0.00000000000E+00  0.19872313915E+03  0.19872313915E+03  0.00000000000E+00 0.  1.
         21   -1    0    0  501  502 -0.00000000000E+00 -0.00000000000E+00 -0.33920666942E+03  0.33920666942E+03  0.00000000000E+00 0.  1.
         25    1    1    2    0    0 -0.44487330051E+02  0.42364836851E+01 -0.14242749747E+03  0.19469890181E+03  0.12500000000E+03 0.  0.
         25    1    1    2    0    0  0.58059599013E+02  0.56555359042E+02 -0.91833120212E+02  0.17500785023E+03  0.12500000000E+03 0.  0.
         25    1    1    2    0    0 -0.13572268963E+02 -0.60791842727E+02  0.93777087407E+02  0.16822305653E+03  0.12500000000E+03 0.  0.
</event>
<event>
 5    0  0.5590591E-005  0.3547590E+03  0.7546771E-02  0.1060679E+00
         21   -1    0    0  502  501  0.00000000000E+00  0.00000000000E+00  0.84548146629E+03  0.84548146629E+03  0.00000000000E+00 0.  1.
         21   -1    0    0  501  502 -0.00000000000E+00 -0.00000000000E+00 -0.14885478095E+03  0.14885478095E+03  0.00000000000E+00 0.  1.
         25    1    1    2    0    0 -0.30410633636E+02  0.91767988921E+02  0.15079965568E+03  0.21843009541E+03  0.12500000000E+03 0.  0.
         25    1    1    2    0    0 -0.79663474914E+02 -0.26508641356E+03  0.24106211856E+03  0.38775381481E+03  0.12500000000E+03 0.  0.
         25    1    1    2    0    0  0.11007410855E+03  0.17331842464E+03  0.30476491110E+03  0.38815233702E+03  0.12500000000E+03 0.  0.
</event>
<event>
 5    0  0.5590591E-005  0.3698326E+03  0.7546771E-02  0.1054757E+00
         21   -1    0    0  502  501  0.00000000000E+00  0.00000000000E+00  0.26686106446E+03  0.26686106446E+03  0.00000000000E+00 0. -1.
         21   -1    0    0  501  502 -0.00000000000E+00 -0.00000000000E+00 -0.51253704179E+03  0.51253704179E+03  0.00000000000E+00 0. -1.
         25    1    1    2    0    0 -0.20940735266E+03 -0.18696971833E+03 -0.19005734323E+03  0.36132521173E+03  0.12500000000E+03 0.  0.
         25    1    1    2    0    0  0.12781734176E+03  0.19054038094E+02  0.20266866653E+02  0.18093113360E+03  0.12500000000E+03 0.  0.
         25    1    1    2    0    0  0.81590010894E+02  0.16791568023E+03 -0.75885500743E+02  0.23714176091E+03  0.12500000000E+03 0.  0.
</event>
<event>
 5    0  0.5590591E-005  0.3412748E+03  0.7546771E-02  0.1066254E+00
         21   -1    0    0  502  501  0.00000000000E+00  0.00000000000E+00  0.39707619581E+03  0.39707619581E+03  0.00000000000E+00 0. -1.
         21   -1    0    0  501  502 -0.00000000000E+00 -0.00000000000E+00 -0.29331523590E+03  0.29331523590E+03  0.00000000000E+00 0. -1.
         25    1    1    2    0    0 -0.61051119308E+02 -0.22400748674E+03  0.15898571086E+03  0.30790915794E+03  0.12500000000E+03 0.  0.
         25    1    1    2    0    0  0.89622122400E+02  0.87612949279E+02 -0.78879025680E+02  0.19379126502E+03  0.12500000000E+03 0.  0.
         25    1    1    2    0    0 -0.28571003093E+02  0.13639453747E+03  0.23654274732E+02  0.18869100875E+03  0.12500000000E+03 0.  0.
</event>
<event>
 5    0  0.5662660E-005  0.3618824E+03  0.7546771E-02  0.1057841E+00
         21   -1    0    0  502  501  0.00000000000E+00  0.00000000000E+00  0.73770655750E+03  0.73770655750E+03  0.00000000000E+00 0.  1.
         21   -1    0    0  501  502 -0.00000000000E+00 -0.00000000000E+00 -0.17752161465E+03  0.17752161465E+03  0.00000000000E+00 0.  1.
         25    1    1    2    0    0  0.83479662429E+02  0.14091178890E+03  0.36493047040E+03  0.41907545206E+03  0.12500000000E+03 0.  0.
         25    1    1    2    0    0  0.43225529879E+02 -0.21245107157E+03  0.49187726209E+02  0.25504575404E+03  0.12500000000E+03 0.  0.
         25    1    1    2    0    0 -0.12670519231E+03  0.71539282673E+02  0.14606674624E+03  0.24110696605E+03  0.12500000000E+03 0.  0.
</event>
<event>
 5    0  0.5590591E-005  0.2725822E+03  0.7546771E-02  0.1099811E+00
         21   -1    0    0  502  501  0.00000000000E+00  0.00000000000E+00  0.60561257696E+02  0.60561257696E+02  0.00000000000E+00 0.  1.
         21   -1    0    0  501  502 -0.00000000000E+00 -0.00000000000E+00 -0.12268745311E+04  0.12268745311E+04  0.00000000000E+00 0.  1.
         25    1    1    2    0    0 -0.11379120215E+03  0.71605544829E+02 -0.36398929175E+03  0.40766284629E+03  0.12500000000E+03 0.  0.
         25    1    1    2    0    0 -0.76984903572E+01  0.49263527979E+02 -0.19888644036E+03  0.24013949717E+03  0.12500000000E+03 0.  0.
         25    1    1    2    0    0  0.12148969250E+03 -0.12086907281E+03 -0.60343754127E+03  0.63963344531E+03  0.12500000000E+03 0.  0.
</event>
<event>
 5    0  0.5590591E-005  0.2455599E+03  0.7546771E-02  0.1116143E+00
         21   -1    0    0  502  501  0.00000000000E+00  0.00000000000E+00  0.30237439433E+02  0.30237439433E+02  0.00000000000E+00 0.  1.
         21   -1    0    0  501  502 -0.00000000000E+00 -0.00000000000E+00 -0.19942054284E+04  0.19942054284E+04  0.00000000000E+00 0.  1.
         25    1    1    2    0    0 -0.56040570944E+02  0.33587296020E+00 -0.54812470320E+03  0.56498349415E+03  0.12500000000E+03 0.  0.
         25    1    1    2    0    0  0.12938072421E+03 -0.58153906332E+02 -0.60923775466E+03  0.63790037649E+03  0.12500000000E+03 0.  0.
         25    1    1    2    0    0 -0.73340153264E+02  0.57818033372E+02 -0.80660553113E+03  0.82155899722E+03  0.12500000000E+03 0.  0.
</event>
<event>
 5    0  0.5590591E-005  0.2301755E+03  0.7546771E-02  0.1126516E+00
         21   -1    0    0  502  501  0.00000000000E+00  0.00000000000E+00  0.21777358847E+03  0.21777358847E+03  0.00000000000E+00 0.  1.
         21   -1    0    0  501  502 -0.00000000000E+00 -0.00000000000E+00 -0.24328372679E+03  0.24328372679E+03  0.00000000000E+00 0.  1.
         25    1    1    2    0    0 -0.29465563004E+02  0.72991192910E+02 -0.38556010809E+02  0.15266793905E+03  0.12500000000E+03 0.  0.
         25    1    1    2    0    0 -0.29009423641E+01  0.44745118442E+02  0.14951900156E+02  0.13363794525E+03  0.12500000000E+03 0.  0.
         25    1    1    2    0    0  0.32366505368E+02 -0.11773631135E+03 -0.19060276661E+01  0.17475143096E+03  0.12500000000E+03 0.  0.
</event>
<event>
 5    0  0.5590591E-005  0.3551492E+03  0.7546771E-02  0.1060521E+00
         21   -1    0    0  502  501  0.00000000000E+00  0.00000000000E+00  0.60492391053E+03  0.60492391053E+03  0.00000000000E+00 0.  1.
         21   -1    0    0  501  502 -0.00000000000E+00 -0.00000000000E+00 -0.20850709209E+03  0.20850709209E+03  0.00000000000E+00 0.  1.
         25    1    1    2    0    0 -0.14705061079E+03  0.10638339610E+03  0.16295216617E+03  0.27407976496E+03  0.12500000000E+03 0.  0.
         25    1    1    2    0    0  0.33025900142E+02 -0.23845811942E+03  0.12073780004E+03  0.29691008935E+03  0.12500000000E+03 0.  0.
         25    1    1    2    0    0  0.11402471065E+03  0.13207472333E+03  0.11272685223E+03  0.24244114831E+03  0.12500000000E+03 0.  0.
</event>
<event>
 5    0  0.5590591E-005  0.3279601E+03  0.7546771E-02  0.1072043E+00
         21   -1    0    0  502  501  0.00000000000E+00  0.00000000000E+00  0.10084724260E+04  0.10084724260E+04  0.00000000000E+00 0. -1.
         21   -1    0    0  501  502 -0.00000000000E+00 -0.00000000000E+00 -0.10665421367E+03  0.10665421367E+03  0.00000000000E+00 0. -1.
         25    1    1    2    0    0  0.49148132205E+02  0.65450158929E+02  0.35417164467E+03  0.38439799179E+03  0.12500000000E+03 0.  0.
         25    1    1    2    0    0 -0.29202861114E+02 -0.10234779439E+03 -0.33186680381E+01  0.16420685635E+03  0.12500000000E+03 0.  0.
         25    1    1    2    0    0 -0.19945271091E+02  0.36897635459E+02  0.55096523570E+03  0.56652179155E+03  0.12500000000E+03 0.  0.
</event>
<event>
 5    0  0.5590591E-005  0.2388442E+03  0.7546771E-02  0.1120565E+00
         21   -1    0    0  502  501  0.00000000000E+00  0.00000000000E+00  0.11521149448E+03  0.11521149448E+03  0.00000000000E+00 0. -1.
         21   -1    0    0  501  502 -0.00000000000E+00 -0.00000000000E+00 -0.49514623518E+03  0.49514623518E+03  0.00000000000E+00 0. -1.
         25    1    1    2    0    0  0.31444996542E+02  0.45729862354E+02 -0.11293366704E+03  0.17736691143E+03  0.12500000000E+03 0.  0.
         25    1    1    2    0    0 -0.10812166956E+03  0.34996847856E+02 -0.98897763549E+02  0.19575710057E+03  0.12500000000E+03 0.  0.
         25    1    1    2    0    0  0.76676673020E+02 -0.80726710210E+02 -0.16810331011E+03  0.23723371767E+03  0.12500000000E+03 0.  0.
</event>
<event>
 5    0  0.5590591E-005  0.3292558E+03  0.7546771E-02  0.1071467E+00
         21   -1    0    0  502  501  0.00000000000E+00  0.00000000000E+00  0.33141372079E+03  0.33141372079E+03  0.00000000000E+00 0.  1.
         21   -1    0    0  501  502 -0.00000000000E+00 -0.00000000000E+00 -0.32711193934E+03  0.32711193934E+03  0.00000000000E+00 0.  1.
         25    1    1    2    0    0 -0.20538171932E+03 -0.75138781993E+02 -0.40374433570E+02  0.25511288105E+03  0.12500000000E+03 0.  0.
         25    1    1    2    0    0  0.44852216528E+02  0.12575991449E+03  0.61791423569E+02  0.19305558123E+03  0.12500000000E+03 0.  0.
         25    1    1    2    0    0  0.16052950279E+03 -0.50621132492E+02 -0.17115208549E+02  0.21035719784E+03  0.12500000000E+03 0.  0.
</event>
<event>
 5    0  0.5590591E-005  0.2850520E+03  0.7546771E-02  0.1092961E+00
         21   -1    0    0  502  501  0.00000000000E+00  0.00000000000E+00  0.58577378381E+03  0.58577378381E+03  0.00000000000E+00 0. -1.
         21   -1    0    0  501  502 -0.00000000000E+00 -0.00000000000E+00 -0.13871337275E+03  0.13871337275E+03  0.00000000000E+00 0. -1.
         25    1    1    2    0    0  0.42810816020E+02  0.22150517403E+02  0.13189107902E+03  0.18799911733E+03  0.12500000000E+03 0.  0.
         25    1    1    2    0    0  0.63211853126E+02 -0.16274414290E+03  0.12323787103E+03  0.24757618480E+03  0.12500000000E+03 0.  0.
         25    1    1    2    0    0 -0.10602266915E+03  0.14059362550E+03  0.19193146100E+03  0.28891185442E+03  0.12500000000E+03 0.  0.
</event>
<event>
 5    0  0.5590591E-005  0.2984304E+03  0.7546771E-02  0.1086028E+00
         21   -1    0    0  502  501  0.00000000000E+00  0.00000000000E+00  0.18121121002E+03  0.18121121002E+03  0.00000000000E+00 0.  1.
         21   -1    0    0  501  502 -0.00000000000E+00 -0.00000000000E+00 -0.49147473048E+03  0.49147473048E+03  0.00000000000E+00 0.  1.
         25    1    1    2    0    0  0.22832057753E+02 -0.37120450180E+02 -0.11747727262E+03  0.17698909645E+03  0.12500000000E+03 0.  0.
         25    1    1    2    0    0 -0.93622017236E+02 -0.11987318258E+03 -0.20282491545E+03  0.28266164992E+03  0.12500000000E+03 0.  0.
         25    1    1    2    0    0  0.70789959483E+02  0.15699363276E+03  0.10038667600E+02  0.21303519413E+03  0.12500000000E+03 0.  0.
</event>
<event>
 5    0  0.5590591E-005  0.2433174E+03  0.7546771E-02  0.1117602E+00
         21   -1    0    0  502  501  0.00000000000E+00  0.00000000000E+00  0.38426212842E+02  0.38426212842E+02  0.00000000000E+00 0. -1.
         21   -1    0    0  501  502 -0.00000000000E+00 -0.00000000000E+00 -0.15407017849E+04  0.15407017849E+04  0.00000000000E+00 0. -1.
         25    1    1    2    0    0  0.22906062955E+02  0.65368725736E+02 -0.25969698877E+03  0.29642078874E+03  0.12500000000E+03 0.  0.
         25    1    1    2    0    0  0.19140101931E+02 -0.35856208832E+02 -0.26474617840E+03  0.29558002333E+03  0.12500000000E+03 0.  0.
         25    1    1    2    0    0 -0.42046164886E+02 -0.29512516904E+02 -0.97783240491E+03  0.98712718569E+03  0.12500000000E+03 0.  0.
</event>
<event>
 5    0  0.5590591E-005  0.4289230E+03  0.7546771E-02  0.1034201E+00
         21   -1    0    0  502  501  0.00000000000E+00  0.00000000000E+00  0.78864152329E+03  0.78864152329E+03  0.00000000000E+00 0.  1.
         21   -1    0    0  501  502 -0.00000000000E+00 -0.00000000000E+00 -0.23328082853E+03  0.23328082853E+03  0.00000000000E+00 0.  1.
         25    1    1    2    0    0 -0.27058640777E+03 -0.75177546459E+02  0.19560459702E+02  0.30801993303E+03  0.12500000000E+03 0.  0.
         25    1    1    2    0    0 -0.29470669745E+02  0.27124165453E+02  0.86221980515E+02  0.15704607811E+03  0.12500000000E+03 0.  0.
         25    1    1    2    0    0  0.30005707751E+03  0.48053381005E+02  0.44957825454E+03  0.55685634067E+03  0.12500000000E+03 0.  0.
</event>
<event>
 5    0  0.5590591E-005  0.2463556E+03  0.7546771E-02  0.1115630E+00
         21   -1    0    0  502  501  0.00000000000E+00  0.00000000000E+00  0.39445435172E+02  0.39445435172E+02  0.00000000000E+00 0.  1.
         21   -1    0    0  501  502 -0.00000000000E+00 -0.00000000000E+00 -0.15386079910E+04  0.15386079910E+04  0.00000000000E+00 0.  1.
         25    1    1    2    0    0 -0.68567265515E+02 -0.10999811966E+03 -0.50338643701E+03  0.53462506600E+03  0.12500000000E+03 0.  0.
         25    1    1    2    0    0  0.77071106207E+02  0.14090709187E+02 -0.58709995693E+03  0.60535102455E+03  0.12500000000E+03 0.  0.
         25    1    1    2    0    0 -0.85038406929E+01  0.95907410475E+02 -0.40867616191E+03  0.43807733564E+03  0.12500000000E+03 0.  0.
</event>
<event>
 5    0  0.5590591E-005  0.2248522E+03  0.7546771E-02  0.1130316E+00
         21   -1    0    0  502  501  0.00000000000E+00  0.00000000000E+00  0.27106375805E+03  0.27106375805E+03  0.00000000000E+00 0.  1.
         21   -1    0    0  501  502 -0.00000000000E+00 -0.00000000000E+00 -0.18651884230E+03  0.18651884230E+03  0.00000000000E+00 0.  1.
         25    1    1    2    0    0 -0.43735152635E+02  0.81356256378E+01 -0.16744794952E+02  0.13373234515E+03  0.12500000000E+03 0.  0.
         25    1    1    2    0    0 -0.20226286127E+02  0.19069493491E+02 -0.27966785764E+02  0.13107207688E+03  0.12500000000E+03 0.  0.
         25    1    1    2    0    0  0.63961438761E+02 -0.27205119129E+02  0.12925649646E+03  0.19277817831E+03  0.12500000000E+03 0.  0.
</event>
<event>
 5    0  0.5590591E-005  0.4375885E+03  0.7546771E-02  0.1031489E+00
         21   -1    0    0  502  501  0.00000000000E+00  0.00000000000E+00  0.10120944814E+04  0.10120944814E+04  0.00000000000E+00 0. -1.
         21   -1    0    0  501  502 -0.00000000000E+00 -0.00000000000E+00 -0.18919544782E+03  0.18919544782E+03  0.00000000000E+00 0. -1.
         25    1    1    2    0    0  0.30704340210E+02 -0.15561216412E+03 -0.36302862657E+02  0.20518479468E+03  0.12500000000E+03 0.  0.
         25    1    1    2    0    0  0.74787793319E+02 -0.79330040087E+01  0.49556488847E+02  0.15406814132E+03  0.12500000000E+03 0.  0.
         25    1    1    2    0    0 -0.10549213353E+03  0.16354516813E+03  0.80964540735E+03  0.84203699318E+03  0.12500000000E+03 0.  0.
</event>
<event>
 5    0  0.5590591E-005  0.2479867E+03  0.7546771E-02  0.1114584E+00
         21   -1    0    0  502  501  0.00000000000E+00  0.00000000000E+00  0.69717076807E+03  0.69717076807E+03  0.00000000000E+00 0. -1.
         21   -1    0    0  501  502 -0.00000000000E+00 -0.00000000000E+00 -0.88209971991E+02  0.88209971991E+02  0.00000000000E+00 0. -1.
         25    1    1    2    0    0 -0.63440390728E+02 -0.51565326454E+02  0.28501766562E+03  0.32178212471E+03  0.12500000000E+03 0.  0.
         25    1    1    2    0    0  0.80200585280E+02 -0.62763112350E+02  0.16520106404E+03  0.23084136049E+03  0.12500000000E+03 0.  0.
         25    1    1    2    0    0 -0.16760194553E+02  0.11432843880E+03  0.15874206642E+03  0.23275725486E+03  0.12500000000E+03 0.  0.
</event>
<event>
 5    0  0.5590591E-005  0.3345792E+03  0.7546771E-02  0.1069128E+00
         21   -1    0    0  502  501  0.00000000000E+00  0.00000000000E+00  0.47805609126E+03  0.47805609126E+03  0.00000000000E+00 0. -1.
         21   -1    0    0  501  502 -0.00000000000E+00 -0.00000000000E+00 -0.23416344560E+03  0.23416344560E+03  0.00000000000E+00 0. -1.
         25    1    1    2    0    0  0.86717222048E+00 -0.15594476407E+03  0.29046564859E+03  0.35258306034E+03  0.12500000000E+03 0.  0.
         25    1    1    2    0    0  0.27470053878E+01  0.16502884128E+03 -0.91617961672E+02  0.22640873524E+03  0.12500000000E+03 0.  0.
         25    1    1    2    0    0 -0.36141776082E+01 -0.90840772091E+01  0.45044958751E+02  0.13322774128E+03  0.12500000000E+03 0.  0.
</event>
<event>
 5    0  0.5590591E-005  0.4386735E+03  0.7546771E-02  0.1031155E+00
         21   -1    0    0  502  501  0.00000000000E+00  0.00000000000E+00  0.42680561664E+03  0.42680561664E+03  0.00000000000E+00 0.  1.
         21   -1    0    0  501  502 -0.00000000000E+00 -0.00000000000E+00 -0.45087132583E+03  0.45087132583E+03  0.00000000000E+00 0.  1.
         25    1    1    2    0    0  0.28669268599E+03  0.36253210070E+02  0.10491224640E+03  0.33187131675E+03  0.12500000000E+03 0.  0.
         25    1    1    2    0    0  0.47894982009E+02 -0.48168353352E+01  0.52585887613E+02  0.14390068374E+03  0.12500000000E+03 0.  0.
         25    1    1    2    0    0 -0.33458766799E+03 -0.31436374734E+02 -0.18156384320E+03  0.40190494198E+03  0.12500000000E+03 0.  0.
</event>
<event>
 5    0  0.5590591E-005  0.3101347E+03  0.7546771E-02  0.1080281E+00
         21   -1    0    0  502  501  0.00000000000E+00  0.00000000000E+00  0.42939676113E+03  0.42939676113E+03  0.00000000000E+00 0.  1.
         21   -1    0    0  501  502 -0.00000000000E+00 -0.00000000000E+00 -0.22399686729E+03  0.22399686729E+03  0.00000000000E+00 0.  1.
         25    1    1    2    0    0 -0.13719009803E+03 -0.93606632330E+00  0.23155385067E+03  0.29675610353E+03  0.12500000000E+03 0.  0.
         25    1    1    2    0    0 -0.43722115089E+01  0.81296442396E+02  0.38090796604E+01  0.14922378117E+03  0.12500000000E+03 0.  0.
         25    1    1    2    0    0  0.14156230954E+03 -0.80360376073E+02 -0.29963036495E+02  0.20741374372E+03  0.12500000000E+03 0.  0.
</event>
<event>
 5    0  0.5590591E-005  0.2854494E+03  0.7546771E-02  0.1092749E+00
         21   -1    0    0  502  501  0.00000000000E+00  0.00000000000E+00  0.10127854075E+04  0.10127854075E+04  0.00000000000E+00 0. -1.
         21   -1    0    0  501  502 -0.00000000000E+00 -0.00000000000E+00 -0.80452753628E+02  0.80452753628E+02  0.00000000000E+00 0. -1.
         25    1    1    2    0    0 -0.67345916604E+02  0.13994596787E+03  0.38906930113E+03  0.43717304067E+03  0.12500000000E+03 0.  0.
         25    1    1    2    0    0 -0.51378608205E+02  0.14749744749E+02  0.18967809287E+03  0.23336686840E+03  0.12500000000E+03 0.  0.
         25    1    1    2    0    0  0.11872452481E+03 -0.15469571262E+03  0.35358525985E+03  0.42269825204E+03  0.12500000000E+03 0.  0.
</event>
<event>
 5    0  0.5590591E-005  0.3276307E+03  0.7546771E-02  0.1072190E+00
         21   -1    0    0  502  501  0.00000000000E+00  0.00000000000E+00  0.39844616151E+03  0.39844616151E+03  0.00000000000E+00 0. -1.
         21   -1    0    0  501  502 -0.00000000000E+00 -0.00000000000E+00 -0.26940114892E+03  0.26940114892E+03  0.00000000000E+00 0. -1.
         25    1    1    2    0    0 -0.64932236358E+02 -0.11338909454E+03 -0.14344338333E+03  0.23081223170E+03  0.12500000000E+03 0.  0.
         25    1    1    2    0    0  0.48272913868E+02  0.44798820682E+02  0.14801314295E+02  0.14206085827E+03  0.12500000000E+03 0.  0.
         25    1    1    2    0    0  0.16659322490E+02  0.68590273862E+02  0.25768708163E+03  0.29497422046E+03  0.12500000000E+03 0.  0.
</event>
<event>
 5    0  0.5590591E-005  0.2729684E+03  0.7546771E-02  0.1099593E+00
         21   -1    0    0  502  501  0.00000000000E+00  0.00000000000E+00  0.31634633038E+02  0.31634633038E+02  0.00000000000E+00 0.  1.
         21   -1    0    0  501  502 -0.00000000000E+00 -0.00000000000E+00 -0.23553847453E+04  0.23553847453E+04  0.00000000000E+00 0.  1.
         25    1    1    2    0    0  0.12898108915E+03 -0.49387148114E+02 -0.12875014781E+04  0.13009074786E+04  0.12500000000E+03 0.  0.
         25    1    1    2    0    0 -0.48042924023E+02  0.39479656581E+00 -0.72880818148E+03  0.74100920628E+03  0.12500000000E+03 0.  0.
         25    1    1    2    0    0 -0.80938165126E+02  0.48992351548E+02 -0.30744045270E+03  0.34510269347E+03  0.12500000000E+03 0.  0.
</event>
<event>
 5    0  0.5590591E-005  0.2736280E+03  0.7546771E-02  0.1099221E+00
         21   -1    0    0  502  501  0.00000000000E+00  0.00000000000E+00  0.10922645171E+04  0.10922645171E+04  0.00000000000E+00 0.  1.
         21   -1    0    0  501  502 -0.00000000000E+00 -0.00000000000E+00 -0.68547768567E+02  0.68547768567E+02  0.00000000000E+00 0.  1.
         25    1    1    2    0    0 -0.44658869157E+02  0.75145701241E+02  0.64584903948E+03  0.66361681173E+03  0.12500000000E+03 0.  0.
         25    1    1    2    0    0  0.97225239360E+02 -0.96557159897E+02  0.20513679871E+03  0.27655404261E+03  0.12500000000E+03 0.  0.
         25    1    1    2    0    0 -0.52566370203E+02  0.21411458657E+02  0.17273091038E+03  0.22064143138E+03  0.12500000000E+03 0.  0.
</event>
<event>
 5    0  0.5590591E-005  0.7163272E+03  0.7546771E-02  0.9689711E-01
         21   -1    0    0  502  501  0.00000000000E+00  0.00000000000E+00  0.51850099029E+03  0.51850099029E+03  0.00000000000E+00 0.  1.
         21   -1    0    0  501  502 -0.00000000000E+00 -0.00000000000E+00 -0.98963111152E+03  0.98963111152E+03  0.00000000000E+00 0.  1.
         25    1    1    2    0    0  0.51675176605E+02  0.35567816752E+03 -0.71627545656E+03  0.81108126128E+03  0.12500000000E+03 0.  0.
         25    1    1    2    0    0  0.19711034320E+02  0.80921222590E+02 -0.40813908202E+02  0.15565199723E+03  0.12500000000E+03 0.  0.
         25    1    1    2    0    0 -0.71386210925E+02 -0.43659939011E+03  0.28595924354E+03  0.54139884330E+03  0.12500000000E+03 0.  0.
</event>
<event>
 5    0  0.5590591E-005  0.3180119E+03  0.7546771E-02  0.1076568E+00
         21   -1    0    0  502  501  0.00000000000E+00  0.00000000000E+00  0.11401421657E+04  0.11401421657E+04  0.00000000000E+00 0.  1.
         21   -1    0    0  501  502 -0.00000000000E+00 -0.00000000000E+00 -0.88700814002E+02  0.88700814002E+02  0.00000000000E+00 0.  1.
         25    1    1    2    0    0 -0.27739984686E+02 -0.97643865901E+02  0.45572759662E+03  0.48333888073E+03  0.12500000000E+03 0.  0.
         25    1    1    2    0    0 -0.21756543650E+02 -0.12540355122E+03  0.31911458788E+03  0.36559337801E+03  0.12500000000E+03 0.  0.
         25    1    1    2    0    0  0.49496528336E+02  0.22304741712E+03  0.27659916717E+03  0.37991072094E+03  0.12500000000E+03 0.  0.
</event>
<event>
 5    0  0.5590591E-005  0.2746840E+03  0.7546771E-02  0.1098628E+00
         21   -1    0    0  502  501  0.00000000000E+00  0.00000000000E+00  0.11366230279E+03  0.11366230279E+03  0.00000000000E+00 0.  1.
         21   -1    0    0  501  502 -0.00000000000E+00 -0.00000000000E+00 -0.66381974001E+03  0.66381974001E+03  0.00000000000E+00 0.  1.
         25    1    1    2    0    0  0.99666673110E+02  0.12680764531E+02 -0.33177667336E+03  0.36850374286E+03  0.12500000000E+03 0.  0.
         25    1    1    2    0    0 -0.20595818460E+02 -0.88300367197E+02 -0.29100558461E+02  0.15714001746E+03  0.12500000000E+03 0.  0.
         25    1    1    2    0    0 -0.79070854650E+02  0.75619602666E+02 -0.18928020540E+03  0.25183828247E+03  0.12500000000E+03 0.  0.
</event>
<event>
 5    0  0.5590591E-005  0.2025414E+03  0.7546771E-02  0.1147612E+00
         21   -1    0    0  502  501  0.00000000000E+00  0.00000000000E+00  0.16472151907E+03  0.16472151907E+03  0.00000000000E+00 0. -1.
         21   -1    0    0  501  502 -0.00000000000E+00 -0.00000000000E+00 -0.24904473944E+03  0.24904473944E+03  0.00000000000E+00 0. -1.
         25    1    1    2    0    0  0.69106357812E+02  0.14282521612E+01 -0.27020888059E+02  0.14537144488E+03  0.12500000000E+03 0.  0.
         25    1    1    2    0    0 -0.34872954175E+02 -0.33464287680E+00 -0.48315423260E+02  0.13847604502E+03  0.12500000000E+03 0.  0.
         25    1    1    2    0    0 -0.34233403637E+02 -0.10936092844E+01 -0.89869090533E+01  0.12991876862E+03  0.12500000000E+03 0.  0.
</event>
<event>
 5    0  0.5590591E-005  0.3269844E+03  0.7546771E-02  0.1072479E+00
         21   -1    0    0  502  501  0.00000000000E+00  0.00000000000E+00  0.11762044003E+04  0.11762044003E+04  0.00000000000E+00 0. -1.
         21   -1    0    0  501  502 -0.00000000000E+00 -0.00000000000E+00 -0.90901564813E+02  0.90901564813E+02  0.00000000000E+00 0. -1.
         25    1    1    2    0    0  0.19966996263E+02  0.95347410866E+02  0.34495928039E+03  0.37962048789E+03  0.12500000000E+03 0.  0.
         25    1    1    2    0    0  0.24649920472E+02 -0.24291899402E+03  0.31226872011E+03  0.41563687252E+03  0.12500000000E+03 0.  0.
         25    1    1    2    0    0 -0.44616916735E+02  0.14757158315E+03  0.42807483495E+03  0.47184860467E+03  0.12500000000E+03 0.  0.
</event>
<event>
 5    0  0.5590591E-005  0.3559739E+03  0.7546771E-02  0.1060189E+00
         21   -1    0    0  502  501  0.00000000000E+00  0.00000000000E+00  0.16091234972E+04  0.16091234972E+04  0.00000000000E+00 0. -1.
         21   -1    0    0  501  502 -0.00000000000E+00 -0.00000000000E+00 -0.78749326543E+02  0.78749326543E+02  0.00000000000E+00 0. -1.
         25    1    1    2    0    0  0.73477439604E+02  0.32146425125E+01  0.23372610663E+03  0.27506755712E+03  0.12500000000E+03 0.  0.
         25    1    1    2    0    0  0.57673710184E+02 -0.80361779374E+02  0.76392471006E+02  0.17676278471E+03  0.12500000000E+03 0.  0.
         25    1    1    2    0    0 -0.13115114979E+03  0.77147136861E+02  0.12202555930E+04  0.12360424819E+04  0.12500000000E+03 0.  0.
</event>
<event>
 5    0  0.5590591E-005  0.3362122E+03  0.7546771E-02  0.1068421E+00
         21   -1    0    0  502  501  0.00000000000E+00  0.00000000000E+00  0.30436308798E+03  0.30436308798E+03  0.00000000000E+00 0.  1.
         21   -1    0    0  501  502 -0.00000000000E+00 -0.00000000000E+00 -0.37139403227E+03  0.37139403227E+03  0.00000000000E+00 0.  1.
         25    1    1    2    0    0  0.37056282992E+02  0.15331856581E+03  0.58990324418E+02  0.20972507982E+03  0.12500000000E+03 0.  0.
         25    1    1    2    0    0 -0.74231274421E+01 -0.17637201163E+03 -0.21742398766E+03  0.30669264699E+03  0.12500000000E+03 0.  0.
         25    1    1    2    0    0 -0.29633155550E+02  0.23053445815E+02  0.91402718949E+02  0.15933939344E+03  0.12500000000E+03 0.  0.
</event>
<event>
 5    0  0.5798874E-005  0.9918294E+03  0.7546771E-02  0.9317552E-01
         21   -1    0    0  502  501  0.00000000000E+00  0.00000000000E+00  0.12980161422E+04  0.12980161422E+04  0.00000000000E+00 0. -1.
         21   -1    0    0  501  502 -0.00000000000E+00 -0.00000000000E+00 -0.75786845099E+03  0.75786845099E+03  0.00000000000E+00 0.  1.
         25    1    1    2    0    0  0.25151176998E+03 -0.14863782437E+03 -0.47887158851E+02  0.32135580477E+03  0.12500000000E+03 0.  0.
         25    1    1    2    0    0  0.48530787027E+03  0.14958993852E+03  0.80172568088E+03  0.95723035161E+03  0.12500000000E+03 0.  0.
         25    1    1    2    0    0 -0.73681964025E+03 -0.95211415249E+00 -0.21369083077E+03  0.77729843686E+03  0.12500000000E+03 0.  0.
</event>
<event>
 5    0  0.5590591E-005  0.4151217E+03  0.7546771E-02  0.1038666E+00
         21   -1    0    0  502  501  0.00000000000E+00  0.00000000000E+00  0.11400912590E+04  0.11400912590E+04  0.00000000000E+00 0. -1.
         21   -1    0    0  501  502 -0.00000000000E+00 -0.00000000000E+00 -0.15115105135E+03  0.15115105135E+03  0.00000000000E+00 0. -1.
         25    1    1    2    0    0 -0.79476214845E+02 -0.24564404537E+03  0.78907184710E+02  0.29750430173E+03  0.12500000000E+03 0.  0.
         25    1    1    2    0    0 -0.28444676706E+02  0.42341904056E+02  0.26108391204E+03  0.29392472778E+03  0.12500000000E+03 0.  0.
         25    1    1    2    0    0  0.10792089155E+03  0.20330214131E+03  0.64894911088E+03  0.69981328081E+03  0.12500000000E+03 0.  0.
</event>
<event>
 5    0  0.5590591E-005  0.3389649E+03  0.7546771E-02  0.1067238E+00
         21   -1    0    0  502  501  0.00000000000E+00  0.00000000000E+00  0.92729844562E+03  0.92729844562E+03  0.00000000000E+00 0.  1.
         21   -1    0    0  501  502 -0.00000000000E+00 -0.00000000000E+00 -0.12390528015E+03  0.12390528015E+03  0.00000000000E+00 0.  1.
         25    1    1    2    0    0  0.15634019753E+03  0.32750118721E+02  0.24162568103E+03  0.31547234011E+03  0.12500000000E+03 0.  0.
         25    1    1    2    0    0 -0.11283384924E+02 -0.58517441013E+02  0.51991295331E+03  0.53803911075E+03  0.12500000000E+03 0.  0.
         25    1    1    2    0    0 -0.14505681261E+03  0.25767322292E+02  0.41854531137E+02  0.19769227491E+03  0.12500000000E+03 0.  0.
</event>
<event>
 5    0  0.5590591E-005  0.4288810E+03  0.7546771E-02  0.1034214E+00
         21   -1    0    0  502  501  0.00000000000E+00  0.00000000000E+00  0.11742051726E+03  0.11742051726E+03  0.00000000000E+00 0.  1.
         21   -1    0    0  501  502 -0.00000000000E+00 -0.00000000000E+00 -0.15664974419E+04  0.15664974419E+04  0.00000000000E+00 0.  1.
         25    1    1    2    0    0 -0.17021442010E+02 -0.57849335116E+02 -0.14119609305E+03  0.19798386741E+03  0.12500000000E+03 0.  0.
         25    1    1    2    0    0 -0.24760189778E+03  0.12671951685E+03 -0.10381779703E+04  0.10820365215E+04  0.12500000000E+03 0.  0.
         25    1    1    2    0    0  0.26462333979E+03 -0.68870181738E+02 -0.26970286127E+03  0.40389757027E+03  0.12500000000E+03 0.  0.
</event>
<event>
 5    0  0.5590591E-005  0.3499714E+03  0.7546771E-02  0.1062627E+00
         21   -1    0    0  502  501  0.00000000000E+00  0.00000000000E+00  0.16595962600E+04  0.16595962600E+04  0.00000000000E+00 0. -1.
         21   -1    0    0  501  502 -0.00000000000E+00 -0.00000000000E+00 -0.73801068042E+02  0.73801068042E+02  0.00000000000E+00 0. -1.
         25    1    1    2    0    0 -0.11887378372E+03  0.10175884660E+03  0.55173013997E+03  0.58695569396E+03  0.12500000000E+03 0.  0.
         25    1    1    2    0    0  0.44369018428E+02  0.90293865646E+02  0.77981233311E+03  0.79614939982E+03  0.12500000000E+03 0.  0.
         25    1    1    2    0    0  0.74504765296E+02 -0.19205271225E+03  0.25425271891E+03  0.35029223430E+03  0.12500000000E+03 0.  0.
</event>
<event>
 5    0  0.5590591E-005  0.2567455E+03  0.7546771E-02  0.1109115E+00
         21   -1    0    0  502  501  0.00000000000E+00  0.00000000000E+00  0.51510781041E+03  0.51510781041E+03  0.00000000000E+00 0. -1.
         21   -1    0    0  501  502 -0.00000000000E+00 -0.00000000000E+00 -0.12796982716E+03  0.12796982716E+03  0.00000000000E+00 0. -1.
         25    1    1    2    0    0 -0.49658631183E+02  0.17998594739E+02  0.83475676095E+02  0.15932080079E+03  0.12500000000E+03 0.  0.
         25    1    1    2    0    0 -0.49107663483E+02  0.10850488363E+03  0.15177501906E+03  0.22988155384E+03  0.12500000000E+03 0.  0.
         25    1    1    2    0    0  0.98766294665E+02 -0.12650347837E+03  0.15188728810E+03  0.25387528294E+03  0.12500000000E+03 0.  0.
</event>
<event>
 5    0  0.5590591E-005  0.3062240E+03  0.7546771E-02  0.1082170E+00
         21   -1    0    0  502  501  0.00000000000E+00  0.00000000000E+00  0.11275556217E+03  0.11275556217E+03  0.00000000000E+00 0.  1.
         21   -1    0    0  501  502 -0.00000000000E+00 -0.00000000000E+00 -0.83164997208E+03  0.83164997208E+03  0.00000000000E+00 0.  1.
         25    1    1    2    0    0 -0.76333431295E+02 -0.54492686770E+02 -0.26788737419E+03  0.31013689058E+03  0.12500000000E+03 0.  0.
         25    1    1    2    0    0  0.16660591689E+03  0.72693714098E+02 -0.42219819026E+03  0.47635933860E+03  0.12500000000E+03 0.  0.
         25    1    1    2    0    0 -0.90272485597E+02 -0.18201027328E+02 -0.28808845462E+02  0.15790930507E+03  0.12500000000E+03 0.  0.
</event>
<event>
 5    0  0.5590591E-005  0.4207553E+03  0.7546771E-02  0.1036821E+00
         21   -1    0    0  502  501  0.00000000000E+00  0.00000000000E+00  0.12894705790E+03  0.12894705790E+03  0.00000000000E+00 0. -1.
         21   -1    0    0  501  502 -0.00000000000E+00 -0.00000000000E+00 -0.13729277788E+04  0.13729277788E+04  0.00000000000E+00 0. -1.
         25    1    1    2    0    0  0.21834863524E+03  0.16306761563E+03 -0.60962449563E+03  0.67936308367E+03  0.12500000000E+03 0.  0.
         25    1    1    2    0    0 -0.30632060122E+03 -0.11684942785E+03 -0.34532688613E+03  0.49230250640E+03  0.12500000000E+03 0.  0.
         25    1    1    2    0    0  0.87971965976E+02 -0.46218187774E+02 -0.28902933913E+03  0.33020924663E+03  0.12500000000E+03 0.  0.
</event>
<event>
 5    0  0.5590591E-005  0.2789667E+03  0.7546771E-02  0.1096255E+00
         21   -1    0    0  502  501  0.00000000000E+00  0.00000000000E+00  0.86182696708E+03  0.86182696708E+03  0.00000000000E+00 0. -1.
         21   -1    0    0  501  502 -0.00000000000E+00 -0.00000000000E+00 -0.90299383594E+02  0.90299383594E+02  0.00000000000E+00 0. -1.
         25    1    1    2    0    0 -0.11820888539E+03  0.12044315763E+03  0.25912862814E+03  0.33354541029E+03  0.12500000000E+03 0.  0.
         25    1    1    2    0    0  0.14412084873E+03 -0.10111750404E+03  0.34801484185E+03  0.40955451262E+03  0.12500000000E+03 0.  0.
         25    1    1    2    0    0 -0.25911963339E+02 -0.19325653586E+02  0.16438411350E+03  0.20902642776E+03  0.12500000000E+03 0.  0.
</event>
<event>
 5    0  0.5590591E-005  0.3644627E+03  0.7546771E-02  0.1056831E+00
         21   -1    0    0  502  501  0.00000000000E+00  0.00000000000E+00  0.70638817119E+03  0.70638817119E+03  0.00000000000E+00 0. -1.
         21   -1    0    0  501  502 -0.00000000000E+00 -0.00000000000E+00 -0.18804538826E+03  0.18804538826E+03  0.00000000000E+00 0. -1.
         25    1    1    2    0    0  0.58908718900E+02 -0.58484575258E-01  0.69445749489E+02  0.15465430064E+03  0.12500000000E+03 0.  0.
         25    1    1    2    0    0 -0.31956239548E+02 -0.21290090846E+03  0.42196019457E+03  0.48992183445E+03  0.12500000000E+03 0.  0.
         25    1    1    2    0    0 -0.26952479352E+02  0.21295939303E+03  0.26936838866E+02  0.24985742437E+03  0.12500000000E+03 0.  0.
</event>
<event>
 5    0  0.5590591E-005  0.5260510E+03  0.7546771E-02  0.1007194E+00
         21   -1    0    0  502  501  0.00000000000E+00  0.00000000000E+00  0.95777842219E+03  0.95777842219E+03  0.00000000000E+00 0. -1.
         21   -1    0    0  501  502 -0.00000000000E+00 -0.00000000000E+00 -0.28892873220E+03  0.28892873220E+03  0.00000000000E+00 0. -1.
         25    1    1    2    0    0  0.85172020254E+02 -0.23878890519E+03  0.40018624744E+03  0.48994739199E+03  0.12500000000E+03 0.  0.
         25    1    1    2    0    0  0.19775304890E+03 -0.67030267461E+02 -0.40048994458E+01  0.24339343525E+03  0.12500000000E+03 0.  0.
         25    1    1    2    0    0 -0.28292506915E+03  0.30581917265E+03  0.27266834200E+03  0.51336632715E+03  0.12500000000E+03 0.  0.
</event>
<event>
 5    0  0.5590591E-005  0.3122813E+03  0.7546771E-02  0.1079258E+00
         21   -1    0    0  502  501  0.00000000000E+00  0.00000000000E+00  0.10728823678E+04  0.10728823678E+04  0.00000000000E+00 0. -1.
         21   -1    0    0  501  502 -0.00000000000E+00 -0.00000000000E+00 -0.90894992190E+02  0.90894992190E+02  0.00000000000E+00 0. -1.
         25    1    1    2    0    0  0.13363777341E+03  0.12313337887E+02  0.62743776645E+03  0.65369245333E+03  0.12500000000E+03 0.  0.
         25    1    1    2    0    0 -0.16732918623E+01 -0.51558823652E+02  0.27769984771E+03  0.30887427478E+03  0.12500000000E+03 0.  0.
         25    1    1    2    0    0 -0.13196448155E+03  0.39245485765E+02  0.76849761438E+02  0.20121063187E+03  0.12500000000E+03 0.  0.
</event>
<event>
 5    0  0.6042898E-005  0.4129190E+03  0.7546771E-02  0.1039396E+00
         21   -1    0    0  502  501  0.00000000000E+00  0.00000000000E+00  0.18001131760E+03  0.18001131760E+03  0.00000000000E+00 0. -1.
         21   -1    0    0  501  502 -0.00000000000E+00 -0.00000000000E+00 -0.94717456582E+03  0.94717456582E+03  0.00000000000E+00 0. -1.
         25    1    1    2    0    0 -0.74258092264E+02  0.17141127248E+03 -0.42175277520E+03  0.47790845566E+03  0.12500000000E+03 0.  0.
         25    1    1    2    0    0 -0.12843468582E+03 -0.18205712970E+03 -0.32012175051E+03  0.40956464953E+03  0.12500000000E+03 0.  0.
         25    1    1    2    0    0  0.20269277809E+03  0.10645857218E+02 -0.25288722511E+02  0.23971277824E+03  0.12500000000E+03 0.  0.
</event>
<event>
 5    0  0.5590591E-005  0.2791809E+03  0.7546771E-02  0.1096137E+00
         21   -1    0    0  502  501  0.00000000000E+00  0.00000000000E+00  0.22408846171E+03  0.22408846171E+03  0.00000000000E+00 0.  1.
         21   -1    0    0  501  502 -0.00000000000E+00 -0.00000000000E+00 -0.34781798409E+03  0.34781798409E+03  0.00000000000E+00 0.  1.
         25    1    1    2    0    0 -0.82902218810E+02 -0.85229541469E+01 -0.12783972743E+03  0.19726483351E+03  0.12500000000E+03 0.  0.
         25    1    1    2    0    0  0.80106299006E+01 -0.95393916195E+02  0.84218829569E+02  0.17855525949E+03  0.12500000000E+03 0.  0.
         25    1    1    2    0    0  0.74891588909E+02  0.10391687034E+03 -0.80108624523E+02  0.19608635280E+03  0.12500000000E+03 0.  0.
</event>
<event>
 5    0  0.5590591E-005  0.2641734E+03  0.7546771E-02  0.1104661E+00
         21   -1    0    0  502  501  0.00000000000E+00  0.00000000000E+00  0.30191449886E+03  0.30191449886E+03  0.00000000000E+00 0.  1.
         21   -1    0    0  501  502 -0.00000000000E+00 -0.00000000000E+00 -0.23115016343E+03  0.23115016343E+03  0.00000000000E+00 0.  1.
         25    1    1    2    0    0  0.70653935964E+02 -0.49413120987E+02 -0.34686110243E+02  0.15576187414E+03  0.12500000000E+03 0.  0.
         25    1    1    2    0    0 -0.10686979086E+03  0.29108471996E+02  0.16317475446E+03  0.23349401670E+03  0.12500000000E+03 0.  0.
         25    1    1    2    0    0  0.36215854900E+02  0.20304648991E+02 -0.57724308793E+02  0.14380877144E+03  0.12500000000E+03 0.  0.
</event>
<event>
 5    0  0.5590591E-005  0.2965993E+03  0.7546771E-02  0.1086953E+00
         21   -1    0    0  502  501  0.00000000000E+00  0.00000000000E+00  0.48829420836E+03  0.48829420836E+03  0.00000000000E+00 0. -1.
         21   -1    0    0  501  502 -0.00000000000E+00 -0.00000000000E+00 -0.18016009532E+03  0.18016009532E+03  0.00000000000E+00 0. -1.
         25    1    1    2    0    0 -0.51863071437E+02 -0.79870339507E+02  0.19604678627E+03  0.25125364021E+03  0.12500000000E+03 0.  0.
         25    1    1    2    0    0  0.63583538959E+02  0.84119119905E+01 -0.91430200307E+02  0.16762490333E+03  0.12500000000E+03 0.  0.
         25    1    1    2    0    0 -0.11720467522E+02  0.71458427517E+02  0.20351752707E+03  0.24957576013E+03  0.12500000000E+03 0.  0.
</event>
<event>
 5    0  0.5590591E-005  0.3741043E+03  0.7546771E-02  0.1053135E+00
         21   -1    0    0  502  501  0.00000000000E+00  0.00000000000E+00  0.41683593276E+03  0.41683593276E+03  0.00000000000E+00 0.  1.
         21   -1    0    0  501  502 -0.00000000000E+00 -0.00000000000E+00 -0.33575324243E+03  0.33575324243E+03  0.00000000000E+00 0.  1.
         25    1    1    2    0    0 -0.24479935965E+02 -0.53717424037E+02 -0.10965760537E+03  0.17645004768E+03  0.12500000000E+03 0.  0.
         25    1    1    2    0    0 -0.54886230532E+02 -0.15445170393E+03  0.23957905556E+03  0.31605529740E+03  0.12500000000E+03 0.  0.
         25    1    1    2    0    0  0.79366166497E+02  0.20816912797E+03 -0.48838759863E+02  0.26008383012E+03  0.12500000000E+03 0.  0.
</event>
<event>
 5    0  0.5590591E-005  0.4224198E+03  0.7546771E-02  0.1036282E+00
         21   -1    0    0  502  501  0.00000000000E+00  0.00000000000E+00  0.50937197788E+03  0.50937197788E+03  0.00000000000E+00 0.  1.
         21   -1    0    0  501  502 -0.00000000000E+00 -0.00000000000E+00 -0.35031068307E+03  0.35031068307E+03  0.00000000000E+00 0.  1.
         25    1    1    2    0    0  0.43901279319E+02 -0.80664575250E+02  0.22369999034E+02  0.15671475005E+03  0.12500000000E+03 0.  0.
         25    1    1    2    0    0  0.12757150472E+03 -0.11698469457E+03  0.30148247772E+03  0.36942738387E+03  0.12500000000E+03 0.  0.
         25    1    1    2    0    0 -0.17147278404E+03  0.19764926982E+03 -0.16479118194E+03  0.33354052703E+03  0.12500000000E+03 0.  0.
</event>
<event>
 5    0  0.5590591E-005  0.2328023E+03  0.7546771E-02  0.1124683E+00
         21   -1    0    0  502  501  0.00000000000E+00  0.00000000000E+00  0.65290344204E+03  0.65290344204E+03  0.00000000000E+00 0. -1.
         21   -1    0    0  501  502 -0.00000000000E+00 -0.00000000000E+00 -0.83009045618E+02  0.83009045618E+02  0.00000000000E+00 0. -1.
         25    1    1    2    0    0 -0.49467502021E+02 -0.10892383241E+02  0.17341666738E+03  0.21969073329E+03  0.12500000000E+03 0.  0.
         25    1    1    2    0    0 -0.19058233549E+01  0.61494736833E+02  0.63085688648E+02  0.15293802318E+03  0.12500000000E+03 0.  0.
         25    1    1    2    0    0  0.51373325376E+02 -0.50602353592E+02  0.33339204040E+03  0.36328373119E+03  0.12500000000E+03 0.  0.
</event>
<event>
 5    0  0.5590591E-005  0.2540090E+03  0.7546771E-02  0.1110797E+00
         21   -1    0    0  502  501  0.00000000000E+00  0.00000000000E+00  0.23082045305E+03  0.23082045305E+03  0.00000000000E+00 0. -1.
         21   -1    0    0  501  502 -0.00000000000E+00 -0.00000000000E+00 -0.27952709428E+03  0.27952709428E+03  0.00000000000E+00 0. -1.
         25    1    1    2    0    0  0.38493123307E+02  0.50773892959E+02  0.56389416884E+02  0.15121003632E+03  0.12500000000E+03 0.  0.
         25    1    1    2    0    0 -0.87704474959E+02 -0.19458038506E+01 -0.14515714788E+03  0.21069280638E+03  0.12500000000E+03 0.  0.
         25    1    1    2    0    0  0.49211351652E+02 -0.48828089108E+02  0.40061089767E+02  0.14844470462E+03  0.12500000000E+03 0.  0.
</event>
<event>
 5    0  0.5590591E-005  0.2793159E+03  0.7546771E-02  0.1096063E+00
         21   -1    0    0  502  501  0.00000000000E+00  0.00000000000E+00  0.15711940353E+03  0.15711940353E+03  0.00000000000E+00 0. -1.
         21   -1    0    0  501  502 -0.00000000000E+00 -0.00000000000E+00 -0.49654828002E+03  0.49654828002E+03  0.00000000000E+00 0. -1.
         25    1    1    2    0    0  0.90776004001E+02 -0.54560183204E+02 -0.25735600538E+02  0.16584455863E+03  0.12500000000E+03 0.  0.
         25    1    1    2    0    0 -0.17506336889E+03  0.53915327404E+02 -0.20460052945E+03  0.30172905446E+03  0.12500000000E+03 0.  0.
         25    1    1    2    0    0  0.84287364885E+02  0.64485580024E+00 -0.10909274650E+03  0.18609407045E+03  0.12500000000E+03 0.  0.
</event>
<event>
 5    0  0.5590591E-005  0.2855517E+03  0.7546771E-02  0.1092695E+00
         21   -1    0    0  502  501  0.00000000000E+00  0.00000000000E+00  0.40117178236E+02  0.40117178236E+02  0.00000000000E+00 0. -1.
         21   -1    0    0  501  502 -0.00000000000E+00 -0.00000000000E+00 -0.20325406984E+04  0.20325406984E+04  0.00000000000E+00 0. -1.
         25    1    1    2    0    0 -0.82245290553E+02 -0.77441129590E+02 -0.79801774250E+03  0.81560942474E+03  0.12500000000E+03 0.  0.
         25    1    1    2    0    0 -0.52556963427E+02 -0.72794517823E+02 -0.43750045852E+03  0.46378112018E+03  0.12500000000E+03 0.  0.
         25    1    1    2    0    0  0.13480225398E+03  0.15023564741E+03 -0.75690531918E+03  0.79326733176E+03  0.12500000000E+03 0.  0.
</event>
<event>
 5    0  0.5590591E-005  0.2827084E+03  0.7546771E-02  0.1094219E+00
         21   -1    0    0  502  501  0.00000000000E+00  0.00000000000E+00  0.41053824121E+03  0.41053824121E+03  0.00000000000E+00 0. -1.
         21   -1    0    0  501  502 -0.00000000000E+00 -0.00000000000E+00 -0.19468112036E+03  0.19468112036E+03  0.00000000000E+00 0. -1.
         25    1    1    2    0    0 -0.45973583999E+02 -0.42876547980E+02  0.20282236181E+03  0.24640186534E+03  0.12500000000E+03 0.  0.
         25    1    1    2    0    0  0.11910772665E+03  0.82745895063E+02  0.61308873361E+02  0.20104057215E+03  0.12500000000E+03 0.  0.
         25    1    1    2    0    0 -0.73134142654E+02 -0.39869347083E+02 -0.48274114321E+02  0.15777692408E+03  0.12500000000E+03 0.  0.
</event>
<event>
 5    0  0.5590591E-005  0.3211292E+03  0.7546771E-02  0.1075131E+00
         21   -1    0    0  502  501  0.00000000000E+00  0.00000000000E+00  0.79490734258E+02  0.79490734258E+02  0.00000000000E+00 0.  1.
         21   -1    0    0  501  502 -0.00000000000E+00 -0.00000000000E+00 -0.12973081875E+04  0.12973081875E+04  0.00000000000E+00 0.  1.
         25    1    1    2    0    0 -0.11425800831E+03 -0.12431981352E+03 -0.20456454970E+03  0.29322681237E+03  0.12500000000E+03 0.  0.
         25    1    1    2    0    0  0.14924356971E+03  0.11696449961E+03 -0.81839353838E+03  0.84932168283E+03  0.12500000000E+03 0.  0.
         25    1    1    2    0    0 -0.34985561393E+02  0.73553139141E+01 -0.19485936513E+03  0.23425042653E+03  0.12500000000E+03 0.  0.
</event>
<event>
 5    0  0.5590591E-005  0.3830561E+03  0.7546771E-02  0.1049810E+00
         21   -1    0    0  502  501  0.00000000000E+00  0.00000000000E+00  0.49701400328E+03  0.49701400328E+03  0.00000000000E+00 0.  1.
         21   -1    0    0  501  502 -0.00000000000E+00 -0.00000000000E+00 -0.29522706078E+03  0.29522706078E+03  0.00000000000E+00 0.  1.
         25    1    1    2    0    0  0.98376986455E+02 -0.22580944186E+03 -0.32897752269E+02  0.27816397611E+03  0.12500000000E+03 0.  0.
         25    1    1    2    0    0  0.93836709935E+02  0.12205032636E+03  0.14962234019E+03  0.24842192934E+03  0.12500000000E+03 0.  0.
         25    1    1    2    0    0 -0.19221369639E+03  0.10375911551E+03  0.85062354583E+02  0.26565515861E+03  0.12500000000E+03 0.  0.
</event>
<event>
 5    0  0.6799629E-005  0.4432253E+03  0.7546771E-02  0.1029762E+00
         21   -1    0    0  502  501  0.00000000000E+00  0.00000000000E+00  0.24937351535E+03  0.24937351535E+03  0.00000000000E+00 0.  1.
         21   -1    0    0  501  502 -0.00000000000E+00 -0.00000000000E+00 -0.78776867597E+03  0.78776867597E+03  0.00000000000E+00 0.  1.
         25    1    1    2    0    0 -0.10902356787E+03 -0.22097427724E+03 -0.14885312172E+03  0.31384394434E+03  0.12500000000E+03 0.  0.
         25    1    1    2    0    0 -0.57953349044E+02  0.25051713751E+03 -0.42242527040E+03  0.51008385186E+03  0.12500000000E+03 0.  0.
         25    1    1    2    0    0  0.16697691691E+03 -0.29542860265E+02  0.32883231500E+02  0.21321439512E+03  0.12500000000E+03 0.  0.
</event>
<event>
 5    0  0.5590591E-005  0.2312419E+03  0.7546771E-02  0.1125769E+00
         21   -1    0    0  502  501  0.00000000000E+00  0.00000000000E+00  0.81071629952E+03  0.81071629952E+03  0.00000000000E+00 0. -1.
         21   -1    0    0  501  502 -0.00000000000E+00 -0.00000000000E+00 -0.65957474141E+02  0.65957474141E+02  0.00000000000E+00 0. -1.
         25    1    1    2    0    0  0.29207343381E+02 -0.34492610069E+02  0.32586017364E+03  0.35192706890E+03  0.12500000000E+03 0.  0.
         25    1    1    2    0    0  0.49043194232E+02 -0.15180490111E+02  0.94322773324E+02  0.16479522975E+03  0.12500000000E+03 0.  0.
         25    1    1    2    0    0 -0.78250537613E+02  0.49673100180E+02  0.32457587842E+03  0.35995147502E+03  0.12500000000E+03 0.  0.
</event>
<event>
 5    0  0.5590591E-005  0.2738014E+03  0.7546771E-02  0.1099123E+00
         21   -1    0    0  502  501  0.00000000000E+00  0.00000000000E+00  0.54836626502E+03  0.54836626502E+03  0.00000000000E+00 0.  1.
         21   -1    0    0  501  502 -0.00000000000E+00 -0.00000000000E+00 -0.13671011895E+03  0.13671011895E+03  0.00000000000E+00 0.  1.
         25    1    1    2    0    0  0.68207895791E+02 -0.21315137976E+02  0.13129361062E+03  0.19485806205E+03  0.12500000000E+03 0.  0.
         25    1    1    2    0    0 -0.13495562530E+02 -0.13176173889E+03  0.19858073281E+03  0.26944868433E+03  0.12500000000E+03 0.  0.
         25    1    1    2    0    0 -0.54712333261E+02  0.15307687687E+03  0.81781802632E+02  0.22076963760E+03  0.12500000000E+03 0.  0.
</event>
<event>
 5    0  0.5590591E-005  0.2253968E+03  0.7546771E-02  0.1129922E+00
         21   -1    0    0  502  501  0.00000000000E+00  0.00000000000E+00  0.31950838808E+03  0.31950838808E+03  0.00000000000E+00 0. -1.
         21   -1    0    0  501  502 -0.00000000000E+00 -0.00000000000E+00 -0.15900584528E+03  0.15900584528E+03  0.00000000000E+00 0. -1.
         25    1    1    2    0    0  0.29144407881E+02 -0.99321832353E+01  0.76957808704E+02  0.14998516292E+03  0.12500000000E+03 0.  0.
         25    1    1    2    0    0 -0.41253580401E+02  0.87934836610E+02 -0.83886866354E+00  0.15830381261E+03  0.12500000000E+03 0.  0.
         25    1    1    2    0    0  0.12109172520E+02 -0.78002653375E+02  0.84383602756E+02  0.17022525784E+03  0.12500000000E+03 0.  0.
</event>
<event>
 5    0  0.5590591E-005  0.2603989E+03  0.7546771E-02  0.1106904E+00
         21   -1    0    0  502  501  0.00000000000E+00  0.00000000000E+00  0.14192893964E+04  0.14192893964E+04  0.00000000000E+00 0.  1.
         21   -1    0    0  501  502 -0.00000000000E+00 -0.00000000000E+00 -0.47775732229E+02  0.47775732229E+02  0.00000000000E+00 0.  1.
         25    1    1    2    0    0 -0.53803144058E+02 -0.76002328581E+02  0.51087015842E+03  0.53412025895E+03  0.12500000000E+03 0.  0.
         25    1    1    2    0    0 -0.32546478831E+02 -0.56724835102E+02  0.50211140718E+03  0.52155330066E+03  0.12500000000E+03 0.  0.
         25    1    1    2    0    0  0.86349622889E+02  0.13272716368E+03  0.35853209853E+03  0.41139156898E+03  0.12500000000E+03 0.  0.
</event>
<event>
 5    0  0.5590591E-005  0.2729859E+03  0.7546771E-02  0.1099583E+00
         21   -1    0    0  502  501  0.00000000000E+00  0.00000000000E+00  0.24885970183E+03  0.24885970183E+03  0.00000000000E+00 0.  1.
         21   -1    0    0  501  502 -0.00000000000E+00 -0.00000000000E+00 -0.29945102338E+03  0.29945102338E+03  0.00000000000E+00 0.  1.
         25    1    1    2    0    0  0.37500288321E+02  0.42408225922E+02  0.79668334087E+02  0.15867190270E+03  0.12500000000E+03 0.  0.
         25    1    1    2    0    0 -0.40489540434E+02  0.10615535746E+03 -0.89747289819E+02  0.19127973973E+03  0.12500000000E+03 0.  0.
         25    1    1    2    0    0  0.29892521125E+01 -0.14856358339E+03 -0.40512365812E+02  0.19835908278E+03  0.12500000000E+03 0.  0.
</event>
<event>
 5    0  0.5590591E-005  0.2196681E+03  0.7546771E-02  0.1134131E+00
         21   -1    0    0  502  501  0.00000000000E+00  0.00000000000E+00  0.37606708377E+02  0.37606708377E+02  0.00000000000E+00 0. -1.
         21   -1    0    0  501  502 -0.00000000000E+00 -0.00000000000E+00 -0.12831242977E+04  0.12831242977E+04  0.00000000000E+00 0. -1.
         25    1    1    2    0    0  0.15448184450E+02 -0.68996549921E+02 -0.64445170995E+03  0.66025917393E+03  0.12500000000E+03 0.  0.
         25    1    1    2    0    0 -0.17494919096E+02 -0.21050368128E+00 -0.34299351962E+03  0.36548005555E+03  0.12500000000E+03 0.  0.
         25    1    1    2    0    0  0.20467346464E+01  0.69207053602E+02 -0.25807235980E+03  0.29499177664E+03  0.12500000000E+03 0.  0.
</event>
<event>
 5    0  0.5590591E-005  0.4137721E+03  0.7546771E-02  0.1039113E+00
         21   -1    0    0  502  501  0.00000000000E+00  0.00000000000E+00  0.38468893018E+03  0.38468893018E+03  0.00000000000E+00 0. -1.
         21   -1    0    0  501  502 -0.00000000000E+00 -0.00000000000E+00 -0.44505408078E+03  0.44505408078E+03  0.00000000000E+00 0. -1.
         25    1    1    2    0    0  0.20398457046E+03  0.15049667045E+03 -0.45869912235E+02  0.28633547047E+03  0.12500000000E+03 0.  0.
         25    1    1    2    0    0 -0.72194324028E+02 -0.20958122304E+03  0.14646579162E+03  0.29362141881E+03  0.12500000000E+03 0.  0.
         25    1    1    2    0    0 -0.13179024643E+03  0.59084552587E+02 -0.16096102999E+03  0.24978612168E+03  0.12500000000E+03 0.  0.
</event>
<event>
 5    0  0.5733968E-005  0.2874624E+03  0.7546771E-02  0.1091682E+00
         21   -1    0    0  502  501  0.00000000000E+00  0.00000000000E+00  0.31742102365E+03  0.31742102365E+03  0.00000000000E+00 0.  1.
         21   -1    0    0  501  502 -0.00000000000E+00 -0.00000000000E+00 -0.26033126316E+03  0.26033126316E+03  0.00000000000E+00 0.  1.
         25    1    1    2    0    0 -0.33238863484E+02 -0.11527666160E+02 -0.10119261918E+03  0.16462884106E+03  0.12500000000E+03 0.  0.
         25    1    1    2    0    0 -0.25125582104E+02  0.13089375738E+03  0.13918446882E+03  0.22969934035E+03  0.12500000000E+03 0.  0.
         25    1    1    2    0    0  0.58364445588E+02 -0.11936609122E+03  0.19097910853E+02  0.18342410540E+03  0.12500000000E+03 0.  0.
</event>
<event>
 5    0  0.5590591E-005  0.2487591E+03  0.7546771E-02  0.1114092E+00
         21   -1    0    0  502  501  0.00000000000E+00  0.00000000000E+00  0.30077581135E+03  0.30077581135E+03  0.00000000000E+00 0.  1.
         21   -1    0    0  501  502 -0.00000000000E+00 -0.00000000000E+00 -0.20573824526E+03  0.20573824526E+03  0.00000000000E+00 0.  1.
         25    1    1    2    0    0 -0.49389362342E+02  0.32008852862E+02 -0.85972762162E+02  0.16272735359E+03  0.12500000000E+03 0.  0.
         25    1    1    2    0    0  0.55340147742E+02  0.46270659993E+02  0.81126868009E+02  0.16555988234E+03  0.12500000000E+03 0.  0.
         25    1    1    2    0    0 -0.59507854000E+01 -0.78279512855E+02  0.99883460238E+02  0.17822682068E+03  0.12500000000E+03 0.  0.
</event>
<event>
 5    0  0.5590591E-005  0.3979758E+03  0.7546771E-02  0.1044483E+00
         21   -1    0    0  502  501  0.00000000000E+00  0.00000000000E+00  0.11754969633E+04  0.11754969633E+04  0.00000000000E+00 0.  1.
         21   -1    0    0  501  502 -0.00000000000E+00 -0.00000000000E+00 -0.13473850784E+03  0.13473850784E+03  0.00000000000E+00 0.  1.
         25    1    1    2    0    0 -0.15766791554E+03 -0.12405633194E+03  0.22078682701E+03  0.32345164718E+03  0.12500000000E+03 0.  0.
         25    1    1    2    0    0  0.20330587346E+03  0.21992789019E+01  0.12629657303E+03  0.27002581242E+03  0.12500000000E+03 0.  0.
         25    1    1    2    0    0 -0.45637957924E+02  0.12185705304E+03  0.69367505544E+03  0.71675801155E+03  0.12500000000E+03 0.  0.
</event>
<event>
 5    0  0.5590591E-005  0.3011974E+03  0.7546771E-02  0.1084644E+00
         21   -1    0    0  502  501  0.00000000000E+00  0.00000000000E+00  0.38739094853E+03  0.38739094853E+03  0.00000000000E+00 0.  1.
         21   -1    0    0  501  502 -0.00000000000E+00 -0.00000000000E+00 -0.23418163045E+03  0.23418163045E+03  0.00000000000E+00 0.  1.
         25    1    1    2    0    0  0.12921876274E+03 -0.15803041175E+03  0.29361041273E+02  0.24116005147E+03  0.12500000000E+03 0.  0.
         25    1    1    2    0    0 -0.10577595926E+02 -0.50975277906E+00  0.46780112732E+02  0.13388623652E+03  0.12500000000E+03 0.  0.
         25    1    1    2    0    0 -0.11864116682E+03  0.15854016453E+03  0.77068164070E+02  0.24652629098E+03  0.12500000000E+03 0.  0.
</event>
<event>
 5    0  0.5590591E-005  0.4669392E+03  0.7546771E-02  0.1022788E+00
         21   -1    0    0  502  501  0.00000000000E+00  0.00000000000E+00  0.16363829817E+03  0.16363829817E+03  0.00000000000E+00 0.  1.
         21   -1    0    0  501  502 -0.00000000000E+00 -0.00000000000E+00 -0.13324032817E+04  0.13324032817E+04  0.00000000000E+00 0.  1.
         25    1    1    2    0    0  0.23653929562E+02 -0.28694865424E+03 -0.30282371914E+03  0.43614933615E+03  0.12500000000E+03 0.  0.
         25    1    1    2    0    0  0.28092744514E+02 -0.12387995897E+03 -0.27068573149E+03  0.32408519214E+03  0.12500000000E+03 0.  0.
         25    1    1    2    0    0 -0.51746674076E+02  0.41082861321E+03 -0.59525553294E+03  0.73580705161E+03  0.12500000000E+03 0.  0.
</event>
<event>
 5    0  0.5590591E-005  0.1064935E+04  0.7546771E-02  0.9240059E-01
         21   -1    0    0  502  501  0.00000000000E+00  0.00000000000E+00  0.85832006012E+03  0.85832006012E+03  0.00000000000E+00 0.  1.
         21   -1    0    0  501  502 -0.00000000000E+00 -0.00000000000E+00 -0.13212856947E+04  0.13212856947E+04  0.00000000000E+00 0.  1.
         25    1    1    2    0    0  0.19701637170E+03  0.52873902919E+03 -0.11279921017E+04  0.12674271550E+04  0.12500000000E+03 0.  0.
         25    1    1    2    0    0 -0.10860189042E+03 -0.18652615288E+03  0.26186115775E+03  0.36163882846E+03  0.12500000000E+03 0.  0.
         25    1    1    2    0    0 -0.88414481274E+02 -0.34221287631E+03  0.40316530936E+03  0.55053977139E+03  0.12500000000E+03 0.  0.
</event>
<event>
 5    0  0.5590591E-005  0.4075035E+03  0.7546771E-02  0.1041212E+00
         21   -1    0    0  502  501  0.00000000000E+00  0.00000000000E+00  0.87638828897E+02  0.87638828897E+02  0.00000000000E+00 0.  1.
         21   -1    0    0  501  502 -0.00000000000E+00 -0.00000000000E+00 -0.18948118813E+04  0.18948118813E+04  0.00000000000E+00 0.  1.
         25    1    1    2    0    0 -0.13903157769E+03 -0.24767554712E+02 -0.46868931479E+03  0.50521073342E+03  0.12500000000E+03 0.  0.
         25    1    1    2    0    0 -0.21241382805E+03  0.27387742717E+02 -0.61853682718E+03  0.66639517509E+03  0.12500000000E+03 0.  0.
         25    1    1    2    0    0  0.35144540574E+03 -0.26201880054E+01 -0.71994691048E+03  0.81084480174E+03  0.12500000000E+03 0.  0.
</event>
<event>
 5    0  0.5590591E-005  0.3226665E+03  0.7546771E-02  0.1074429E+00
         21   -1    0    0  502  501  0.00000000000E+00  0.00000000000E+00  0.15326537159E+04  0.15326537159E+04  0.00000000000E+00 0. -1.
         21   -1    0    0  501  502 -0.00000000000E+00 -0.00000000000E+00 -0.67930339133E+02  0.67930339133E+02  0.00000000000E+00 0. -1.
         25    1    1    2    0    0 -0.17743521111E+03 -0.30440034863E+02  0.32746549050E+03  0.39404123811E+03  0.12500000000E+03 0.  0.
         25    1    1    2    0    0  0.21204581995E+03  0.50421381714E+02  0.54810646354E+03  0.60295227080E+03  0.12500000000E+03 0.  0.
         25    1    1    2    0    0 -0.34610608840E+02 -0.19981346851E+02  0.58915142277E+03  0.60359054617E+03  0.12500000000E+03 0.  0.
</event>
<event>
 5    0  0.5590591E-005  0.2554085E+03  0.7546771E-02  0.1109934E+00
         21   -1    0    0  502  501  0.00000000000E+00  0.00000000000E+00  0.43071703096E+03  0.43071703096E+03  0.00000000000E+00 0. -1.
         21   -1    0    0  501  502 -0.00000000000E+00 -0.00000000000E+00 -0.15145330093E+03  0.15145330093E+03  0.00000000000E+00 0. -1.
         25    1    1    2    0    0 -0.13158062666E+03 -0.12246179130E+02  0.70706827668E+01  0.18203962417E+03  0.12500000000E+03 0.  0.
         25    1    1    2    0    0  0.25023416786E+02 -0.33393710865E+01  0.10440231672E+03  0.16480948554E+03  0.12500000000E+03 0.  0.
         25    1    1    2    0    0  0.10655720987E+03  0.15585550216E+02  0.16779073055E+03  0.23532122218E+03  0.12500000000E+03 0.  0.
</event>
<event>
 5    0  0.5590591E-005  0.5324981E+03  0.7546771E-02  0.1005628E+00
         21   -1    0    0  502  501  0.00000000000E+00  0.00000000000E+00  0.69812001367E+03  0.69812001367E+03  0.00000000000E+00 0. -1.
         21   -1    0    0  501  502 -0.00000000000E+00 -0.00000000000E+00 -0.40616833478E+03  0.40616833478E+03  0.00000000000E+00 0. -1.
         25    1    1    2    0    0 -0.26904163194E+02  0.99618712490E+01  0.44355854787E+03  0.46172747185E+03  0.12500000000E+03 0.  0.
         25    1    1    2    0    0  0.66651036110E+02  0.25997457898E+03 -0.17085494843E+03  0.34182679201E+03  0.12500000000E+03 0.  0.
         25    1    1    2    0    0 -0.39746872916E+02 -0.26993645023E+03  0.19248079450E+02  0.30073408459E+03  0.12500000000E+03 0.  0.
</event>
<event>
 5    0  0.6786816E-005  0.2974612E+03  0.7546771E-02  0.1086517E+00
         21   -1    0    0  502  501  0.00000000000E+00  0.00000000000E+00  0.27247714333E+03  0.27247714333E+03  0.00000000000E+00 0. -1.
         21   -1    0    0  501  502 -0.00000000000E+00 -0.00000000000E+00 -0.32473607793E+03  0.32473607793E+03  0.00000000000E+00 0. -1.
         25    1    1    2    0    0  0.11919053163E+03  0.44894441469E+02 -0.31955408025E+01  0.17848558817E+03  0.12500000000E+03 0.  0.
         25    1    1    2    0    0  0.16542852122E+02  0.10798985618E+02  0.11088687718E+03  0.16825927486E+03  0.12500000000E+03 0.  0.
         25    1    1    2    0    0 -0.13573338375E+03 -0.55693427088E+02 -0.15995027098E+03  0.25046835822E+03  0.12500000000E+03 0.  0.
</event>
<event>
 5    0  0.5590591E-005  0.2878071E+03  0.7546771E-02  0.1091500E+00
         21   -1    0    0  502  501  0.00000000000E+00  0.00000000000E+00  0.38148974941E+03  0.38148974941E+03  0.00000000000E+00 0.  1.
         21   -1    0    0  501  502 -0.00000000000E+00 -0.00000000000E+00 -0.21713016549E+03  0.21713016549E+03  0.00000000000E+00 0.  1.
         25    1    1    2    0    0  0.99920228734E+01 -0.15224773193E+03  0.17055133947E+03  0.26075270238E+03  0.12500000000E+03 0.  0.
         25    1    1    2    0    0 -0.64814561487E+02  0.14130479857E+03  0.11416234647E+02  0.19980816773E+03  0.12500000000E+03 0.  0.
         25    1    1    2    0    0  0.54822538613E+02  0.10942933368E+02 -0.17607990196E+02  0.13805904479E+03  0.12500000000E+03 0.  0.
</event>
<event>
 5    0  0.5590591E-005  0.2811650E+03  0.7546771E-02  0.1095054E+00
         21   -1    0    0  502  501  0.00000000000E+00  0.00000000000E+00  0.85682426285E+03  0.85682426285E+03  0.00000000000E+00 0.  1.
         21   -1    0    0  501  502 -0.00000000000E+00 -0.00000000000E+00 -0.92263663329E+02  0.92263663329E+02  0.00000000000E+00 0.  1.
         25    1    1    2    0    0 -0.36998136823E+02 -0.95761059374E+01  0.15849804261E+03  0.20544389367E+03  0.12500000000E+03 0.  0.
         25    1    1    2    0    0 -0.45774618486E+02 -0.90277965530E+01  0.57387641200E+03  0.58918244462E+03  0.12500000000E+03 0.  0.
         25    1    1    2    0    0  0.82772755310E+02  0.18603902490E+02  0.32186144919E+02  0.15446158789E+03  0.12500000000E+03 0.  0.
</event>
<event>
 5    0  0.5590591E-005  0.3369559E+03  0.7546771E-02  0.1068100E+00
         21   -1    0    0  502  501  0.00000000000E+00  0.00000000000E+00  0.19187523339E+04  0.19187523339E+04  0.00000000000E+00 0.  1.
         21   -1    0    0  501  502 -0.00000000000E+00 -0.00000000000E+00 -0.59173506079E+02  0.59173506079E+02  0.00000000000E+00 0.  1.
         25    1    1    2    0    0 -0.12454683186E+03  0.55107323073E+02  0.38586367308E+03  0.42786037978E+03  0.12500000000E+03 0.  0.
         25    1    1    2    0    0  0.89698262696E+02  0.16336264873E+03  0.62141667047E+03  0.66069418922E+03  0.12500000000E+03 0.  0.
         25    1    1    2    0    0  0.34848569160E+02 -0.21846997181E+03  0.85229848428E+03  0.88937127099E+03  0.12500000000E+03 0.  0.
</event>
<event>
 5    0  0.5590591E-005  0.3504825E+03  0.7546771E-02  0.1062417E+00
         21   -1    0    0  502  501  0.00000000000E+00  0.00000000000E+00  0.10268420158E+03  0.10268420158E+03  0.00000000000E+00 0. -1.
         21   -1    0    0  501  502 -0.00000000000E+00 -0.00000000000E+00 -0.11962698752E+04  0.11962698752E+04  0.00000000000E+00 0. -1.
         25    1    1    2    0    0  0.93727731154E+02 -0.76295117778E+02 -0.50199810394E+03  0.53125599191E+03  0.12500000000E+03 0.  0.
         25    1    1    2    0    0 -0.70178737852E+02 -0.14477122871E+03 -0.39934110478E+03  0.44831025181E+03  0.12500000000E+03 0.  0.
         25    1    1    2    0    0 -0.23548993302E+02  0.22106634649E+03 -0.19224646489E+03  0.31938783305E+03  0.12500000000E+03 0.  0.
</event>
<event>
 5    0  0.5590591E-005  0.2567503E+03  0.7546771E-02  0.1109112E+00
         21   -1    0    0  502  501  0.00000000000E+00  0.00000000000E+00  0.40211511308E+03  0.40211511308E+03  0.00000000000E+00 0.  1.
         21   -1    0    0  501  502 -0.00000000000E+00 -0.00000000000E+00 -0.16393489491E+03  0.16393489491E+03  0.00000000000E+00 0.  1.
         25    1    1    2    0    0  0.43833917264E+02  0.24188315988E+02  0.18530493243E+03  0.22906201107E+03  0.12500000000E+03 0.  0.
         25    1    1    2    0    0 -0.89245006418E+02  0.66369616036E+02  0.54855129305E+02  0.17607862538E+03  0.12500000000E+03 0.  0.
         25    1    1    2    0    0  0.45411089154E+02 -0.90557932023E+02 -0.19798435632E+01  0.16090937154E+03  0.12500000000E+03 0.  0.
</event>
<event>
 5    0  0.5590591E-005  0.3516535E+03  0.7546771E-02  0.1061938E+00
         21   -1    0    0  502  501  0.00000000000E+00  0.00000000000E+00  0.12143170199E+04  0.12143170199E+04  0.00000000000E+00 0.  1.
         21   -1    0    0  501  502 -0.00000000000E+00 -0.00000000000E+00 -0.10183516322E+03  0.10183516322E+03  0.00000000000E+00 0.  1.
         25    1    1    2    0    0 -0.90350810349E+02 -0.12338915374E+03  0.24237116601E+03  0.31266105339E+03  0.12500000000E+03 0.  0.
         25    1    1    2    0    0 -0.11644323716E+03  0.14020761026E+03  0.22947213277E+03  0.31859011468E+03  0.12500000000E+03 0.  0.
         25    1    1    2    0    0  0.20679404751E+03 -0.16818456517E+02  0.64063855793E+03  0.68490101509E+03  0.12500000000E+03 0.  0.
</event>
<event>
 5    0  0.5590591E-005  0.3275235E+03  0.7546771E-02  0.1072238E+00
         21   -1    0    0  502  501  0.00000000000E+00  0.00000000000E+00  0.27237334569E+04  0.27237334569E+04  0.00000000000E+00 0. -1.
         21   -1    0    0  501  502 -0.00000000000E+00 -0.00000000000E+00 -0.39384042747E+02  0.39384042747E+02  0.00000000000E+00 0. -1.
         25    1    1    2    0    0  0.88894636040E+01  0.65277318212E+02  0.12422747864E+04  0.12502846859E+04  0.12500000000E+03 0.  0.
         25    1    1    2    0    0  0.60621528742E+02 -0.17120817073E+03  0.40999789643E+03  0.46552173156E+03  0.12500000000E+03 0.  0.
         25    1    1    2    0    0 -0.69510992346E+02  0.10593085252E+03  0.10320767313E+04  0.10473110822E+04  0.12500000000E+03 0.  0.
</event>
<event>
 5    0  0.5590591E-005  0.3131494E+03  0.7546771E-02  0.1078846E+00
         21   -1    0    0  502  501  0.00000000000E+00  0.00000000000E+00  0.23456109386E+03  0.23456109386E+03  0.00000000000E+00 0.  1.
         21   -1    0    0  501  502 -0.00000000000E+00 -0.00000000000E+00 -0.41806821251E+03  0.41806821251E+03  0.00000000000E+00 0.  1.
         25    1    1    2    0    0  0.12498475920E+03  0.49850411055E+02  0.79198394311E+02  0.20000909773E+03  0.12500000000E+03 0.  0.
         25    1    1    2    0    0 -0.17040110546E+03 -0.32874576004E+02 -0.23108274682E+03  0.31486744888E+03  0.12500000000E+03 0.  0.
         25    1    1    2    0    0  0.45416346260E+02 -0.16975835051E+02 -0.31622766147E+02  0.13775275976E+03  0.12500000000E+03 0.  0.
</event>
<event>
 5    0  0.5796006E-005  0.3566794E+03  0.7546771E-02  0.1059906E+00
         21   -1    0    0  502  501  0.00000000000E+00  0.00000000000E+00  0.50529305268E+03  0.50529305268E+03  0.00000000000E+00 0.  1.
         21   -1    0    0  501  502 -0.00000000000E+00 -0.00000000000E+00 -0.25177504983E+03  0.25177504983E+03  0.00000000000E+00 0.  1.
         25    1    1    2    0    0  0.32512548212E+01  0.74912572024E+02 -0.43571407827E+02  0.15213787065E+03  0.12500000000E+03 0.  0.
         25    1    1    2    0    0  0.14006890770E+03 -0.19965920351E+03  0.25356290624E+03  0.37336609898E+03  0.12500000000E+03 0.  0.
         25    1    1    2    0    0 -0.14332016252E+03  0.12474663148E+03  0.43526504436E+02  0.23156413289E+03  0.12500000000E+03 0.  0.
</event>
<event>
 5    0  0.5590591E-005  0.2477784E+03  0.7546771E-02  0.1114717E+00
         21   -1    0    0  502  501  0.00000000000E+00  0.00000000000E+00  0.99004105329E+02  0.99004105329E+02  0.00000000000E+00 0.  1.
         21   -1    0    0  501  502 -0.00000000000E+00 -0.00000000000E+00 -0.62011684529E+03  0.62011684529E+03  0.00000000000E+00 0.  1.
         25    1    1    2    0    0 -0.88914323286E+02  0.17232326447E+02 -0.29257668428E+03  0.33080028136E+03  0.12500000000E+03 0.  0.
         25    1    1    2    0    0  0.62261357969E+02  0.72741040049E+02 -0.10794432202E+03  0.19090498228E+03  0.12500000000E+03 0.  0.
         25    1    1    2    0    0  0.26652965317E+02 -0.89973366496E+02 -0.12059173366E+03  0.19741568698E+03  0.12500000000E+03 0.  0.
</event>
<event>
 5    0  0.5590591E-005  0.3405042E+03  0.7546771E-02  0.1066581E+00
         21   -1    0    0  502  501  0.00000000000E+00  0.00000000000E+00  0.11536224437E+04  0.11536224437E+04  0.00000000000E+00 0.  1.
         21   -1    0    0  501  502 -0.00000000000E+00 -0.00000000000E+00 -0.10050352650E+03  0.10050352650E+03  0.00000000000E+00 0.  1.
         25    1    1    2    0    0 -0.65582269967E+02 -0.82874297188E+02  0.34031140149E+03  0.37763214012E+03  0.12500000000E+03 0.  0.
         25    1    1    2    0    0 -0.18291148987E+03  0.50748471861E+02  0.27452820668E+03  0.35640252074E+03  0.12500000000E+03 0.  0.
         25    1    1    2    0    0  0.24849375984E+03  0.32125825328E+02  0.43827930898E+03  0.52009130930E+03  0.12500000000E+03 0.  0.
</event>
<event>
 5    0  0.5590591E-005  0.2722518E+03  0.7546771E-02  0.1099998E+00
         21   -1    0    0  502  501  0.00000000000E+00  0.00000000000E+00  0.27882338896E+03  0.27882338896E+03  0.00000000000E+00 0. -1.
         21   -1    0    0  501  502 -0.00000000000E+00 -0.00000000000E+00 -0.26583510274E+03  0.26583510274E+03  0.00000000000E+00 0. -1.
         25    1    1    2    0    0 -0.34387178204E+02  0.13485444409E+03  0.12143514397E+03  0.22302397474E+03  0.12500000000E+03 0.  0.
         25    1    1    2    0    0  0.33590429731E+02 -0.96818983991E+02 -0.17816400713E+02  0.16261813172E+03  0.12500000000E+03 0.  0.
         25    1    1    2    0    0  0.79674847344E+00 -0.38035460104E+02 -0.90630457035E+02  0.15901638524E+03  0.12500000000E+03 0.  0.
</event>
<event>
 5    0  0.5590591E-005  0.2657416E+03  0.7546771E-02  0.1103742E+00
         21   -1    0    0  502  501  0.00000000000E+00  0.00000000000E+00  0.36574106115E+03  0.36574106115E+03  0.00000000000E+00 0.  1.
         21   -1    0    0  501  502 -0.00000000000E+00 -0.00000000000E+00 -0.19308355851E+03  0.19308355851E+03  0.00000000000E+00 0.  1.
         25    1    1    2    0    0 -0.11780856712E+03 -0.12319492456E+03  0.18601468709E+02  0.21219534058E+03  0.12500000000E+03 0.  0.
         25    1    1    2    0    0  0.94717235374E+02  0.64693350173E+02  0.97729541071E+02  0.19578725043E+03  0.12500000000E+03 0.  0.
         25    1    1    2    0    0  0.23091331749E+02  0.58501574388E+02  0.56326492861E+02  0.15084202865E+03  0.12500000000E+03 0.  0.
</event>
<event>
 5    0  0.5590591E-005  0.3880847E+03  0.7546771E-02  0.1047985E+00
         21   -1    0    0  502  501  0.00000000000E+00  0.00000000000E+00  0.16799755909E+03  0.16799755909E+03  0.00000000000E+00 0. -1.
         21   -1    0    0  501  502 -0.00000000000E+00 -0.00000000000E+00 -0.89649959209E+03  0.89649959209E+03  0.00000000000E+00 0. -1.
         25    1    1    2    0    0 -0.10562607813E+03  0.97967252254E+02 -0.65702657573E+02  0.20173321518E+03  0.12500000000E+03 0.  0.
         25    1    1    2    0    0  0.78734134151E+01  0.15877919815E+03 -0.45032634364E+03  0.49365133463E+03  0.12500000000E+03 0.  0.
         25    1    1    2    0    0  0.97752664713E+02 -0.25674645040E+03 -0.21247303179E+03  0.36911260137E+03  0.12500000000E+03 0.  0.
</event>
<event>
 5    0  0.5590591E-005  0.4074928E+03  0.7546771E-02  0.1041216E+00
         21   -1    0    0  502  501  0.00000000000E+00  0.00000000000E+00  0.30390293835E+03  0.30390293835E+03  0.00000000000E+00 0. -1.
         21   -1    0    0  501  502 -0.00000000000E+00 -0.00000000000E+00 -0.54639293297E+03  0.54639293297E+03  0.00000000000E+00 0. -1.
         25    1    1    2    0    0  0.14332141816E+03  0.72915047894E+02 -0.10160974184E+03  0.22761189062E+03  0.12500000000E+03 0.  0.
         25    1    1    2    0    0  0.19508470927E+03  0.23595997169E+02 -0.61948560953E+02  0.24099261208E+03  0.12500000000E+03 0.  0.
         25    1    1    2    0    0 -0.33840612743E+03 -0.96511045063E+02 -0.78931691827E+02  0.38169136862E+03  0.12500000000E+03 0.  0.
</event>
<event>
 5    0  0.5590591E-005  0.3610532E+03  0.7546771E-02  0.1058168E+00
         21   -1    0    0  502  501  0.00000000000E+00  0.00000000000E+00  0.50576321977E+03  0.50576321977E+03  0.00000000000E+00 0.  1.
         21   -1    0    0  501  502 -0.00000000000E+00 -0.00000000000E+00 -0.25774792495E+03  0.25774792495E+03  0.00000000000E+00 0.  1.
         25    1    1    2    0    0  0.18883786438E+03 -0.20321594557E+03  0.43989000440E+02  0.30743534559E+03  0.12500000000E+03 0.  0.
         25    1    1    2    0    0 -0.14306958875E+03  0.19833103452E+03  0.13415640069E+03  0.30565838173E+03  0.12500000000E+03 0.  0.
         25    1    1    2    0    0 -0.45768275634E+02  0.48849110552E+01  0.69869893698E+02  0.15041741740E+03  0.12500000000E+03 0.  0.
</event>
<event>
 5    0  0.6020279E-005  0.3380929E+03  0.7546771E-02  0.1067611E+00
         21   -1    0    0  502  501  0.00000000000E+00  0.00000000000E+00  0.40040158838E+03  0.40040158838E+03  0.00000000000E+00 0.  1.
         21   -1    0    0  501  502 -0.00000000000E+00 -0.00000000000E+00 -0.28548032488E+03  0.28548032488E+03  0.00000000000E+00 0.  1.
         25    1    1    2    0    0 -0.91860916084E+02  0.86425015373E+02 -0.61599162038E+02  0.18795522858E+03  0.12500000000E+03 0.  0.
         25    1    1    2    0    0  0.22139792548E+03 -0.36674518460E+02  0.17559938981E+03  0.31116267034E+03  0.12500000000E+03 0.  0.
         25    1    1    2    0    0 -0.12953700939E+03 -0.49750496913E+02  0.92103572872E+00  0.18676401434E+03  0.12500000000E+03 0.  0.
</event>
<event>
 5    0  0.5590591E-005  0.5322177E+03  0.7546771E-02  0.1005696E+00
         21   -1    0    0  502  501  0.00000000000E+00  0.00000000000E+00  0.13094531771E+04  0.13094531771E+04  0.00000000000E+00 0.  1.
         21   -1    0    0  501  502 -0.00000000000E+00 -0.00000000000E+00 -0.21631601850E+03  0.21631601850E+03  0.00000000000E+00 0.  1.
         25    1    1    2    0    0 -0.20776312338E+03 -0.10489215297E+03 -0.92972383372E+02  0.28006560529E+03  0.12500000000E+03 0.  0.
         25    1    1    2    0    0  0.61303557526E+02 -0.14360617854E+02  0.29897883903E+03  0.33011770582E+03  0.12500000000E+03 0.  0.
         25    1    1    2    0    0  0.14645956586E+03  0.11925277083E+03  0.88713070295E+03  0.91558588451E+03  0.12500000000E+03 0.  0.
</event>
<event>
 5    0  0.5590591E-005  0.3411771E+03  0.7546771E-02  0.1066296E+00
         21   -1    0    0  502  501  0.00000000000E+00  0.00000000000E+00  0.40608270919E+03  0.40608270919E+03  0.00000000000E+00 0.  1.
         21   -1    0    0  501  502 -0.00000000000E+00 -0.00000000000E+00 -0.28664557783E+03  0.28664557783E+03  0.00000000000E+00 0.  1.
         25    1    1    2    0    0  0.11250116655E+03 -0.12658125523E+03  0.26136971032E+02  0.21210249387E+03  0.12500000000E+03 0.  0.
         25    1    1    2    0    0 -0.18893011541E+03 -0.59865805052E+02  0.49569165624E+02  0.23950074176E+03  0.12500000000E+03 0.  0.
         25    1    1    2    0    0  0.76428948859E+02  0.18644706028E+03  0.43730994701E+02  0.24112505139E+03  0.12500000000E+03 0.  0.
</event>
<event>
 5    0  0.5590591E-005  0.3468277E+03  0.7546771E-02  0.1063925E+00
         21   -1    0    0  502  501  0.00000000000E+00  0.00000000000E+00  0.17891869759E+03  0.17891869759E+03  0.00000000000E+00 0.  1.
         21   -1    0    0  501  502 -0.00000000000E+00 -0.00000000000E+00 -0.67231355642E+03  0.67231355642E+03  0.00000000000E+00 0.  1.
         25    1    1    2    0    0  0.23419253764E+03  0.12701344313E+03 -0.21324526504E+03  0.36342413580E+03  0.12500000000E+03 0.  0.
         25    1    1    2    0    0 -0.76252955884E+02 -0.92289158237E+02 -0.50331661825E+02  0.18025004353E+03  0.12500000000E+03 0.  0.
         25    1    1    2    0    0 -0.15793958176E+03 -0.34724284891E+02 -0.22981793197E+03  0.30755807468E+03  0.12500000000E+03 0.  0.
</event>
<event>
 5    0  0.5590591E-005  0.2137280E+03  0.7546771E-02  0.1138647E+00
         21   -1    0    0  502  501  0.00000000000E+00  0.00000000000E+00  0.10055648229E+04  0.10055648229E+04  0.00000000000E+00 0.  1.
         21   -1    0    0  501  502 -0.00000000000E+00 -0.00000000000E+00 -0.45426852186E+02  0.45426852186E+02  0.00000000000E+00 0.  1.
         25    1    1    2    0    0 -0.57392300409E+02 -0.35792086097E+01  0.32266140422E+03  0.35077352901E+03  0.12500000000E+03 0.  0.
         25    1    1    2    0    0  0.42415285401E+02  0.36643940394E+02  0.46105014598E+03  0.48097200741E+03  0.12500000000E+03 0.  0.
         25    1    1    2    0    0  0.14977015009E+02 -0.33064731785E+02  0.17642642053E+03  0.21924613868E+03  0.12500000000E+03 0.  0.
</event>
<event>
 5    0  0.5590591E-005  0.2634434E+03  0.7546771E-02  0.1105092E+00
         21   -1    0    0  502  501  0.00000000000E+00  0.00000000000E+00  0.21885503622E+03  0.21885503622E+03  0.00000000000E+00 0.  1.
         21   -1    0    0  501  502 -0.00000000000E+00 -0.00000000000E+00 -0.31711604417E+03  0.31711604417E+03  0.00000000000E+00 0.  1.
         25    1    1    2    0    0  0.27011016493E+02 -0.94090190577E+02 -0.42759765409E+02  0.16442614303E+03  0.12500000000E+03 0.  0.
         25    1    1    2    0    0  0.66643970391E+02  0.37354481118E+02  0.70903545600E+02  0.16275468911E+03  0.12500000000E+03 0.  0.
         25    1    1    2    0    0 -0.93654986885E+02  0.56735709459E+02 -0.12640478814E+03  0.20879024824E+03  0.12500000000E+03 0.  0.
</event>
<event>
 5    0  0.5590591E-005  0.3918686E+03  0.7546771E-02  0.1046632E+00
         21   -1    0    0  502  501  0.00000000000E+00  0.00000000000E+00  0.14945992735E+04  0.14945992735E+04  0.00000000000E+00 0.  1.
         21   -1    0    0  501  502 -0.00000000000E+00 -0.00000000000E+00 -0.10274395285E+03  0.10274395285E+03  0.00000000000E+00 0.  1.
         25    1    1    2    0    0 -0.17806567562E+03  0.45241246016E+02  0.20183983674E+03  0.30019739317E+03  0.12500000000E+03 0.  0.
         25    1    1    2    0    0 -0.11970386597E+03 -0.59236642849E+02  0.55874941726E+03  0.58793188948E+03  0.12500000000E+03 0.  0.
         25    1    1    2    0    0  0.29776954159E+03  0.13995396833E+02  0.63126606669E+03  0.70921394374E+03  0.12500000000E+03 0.  0.
</event>
<event>
 5    0  0.5590591E-005  0.3614604E+03  0.7546771E-02  0.1058007E+00
         21   -1    0    0  502  501  0.00000000000E+00  0.00000000000E+00  0.15582274076E+04  0.15582274076E+04  0.00000000000E+00 0. -1.
         21   -1    0    0  501  502 -0.00000000000E+00 -0.00000000000E+00 -0.83847588004E+02  0.83847588004E+02  0.00000000000E+00 0. -1.
         25    1    1    2    0    0 -0.11594985806E+03  0.13022855179E+03  0.18054872426E+03  0.28040450624E+03  0.12500000000E+03 0.  0.
         25    1    1    2    0    0  0.18009247525E+03 -0.13399077520E+03  0.58338662573E+03  0.63745727901E+03  0.12500000000E+03 0.  0.
         25    1    1    2    0    0 -0.64142617189E+02  0.37622234074E+01  0.71044446962E+03  0.72421321038E+03  0.12500000000E+03 0.  0.
</event>
<event>
 5    0  0.5590591E-005  0.2519994E+03  0.7546771E-02  0.1112048E+00
         21   -1    0    0  502  501  0.00000000000E+00  0.00000000000E+00  0.37578260145E+03  0.37578260145E+03  0.00000000000E+00 0. -1.
         21   -1    0    0  501  502 -0.00000000000E+00 -0.00000000000E+00 -0.16899048705E+03  0.16899048705E+03  0.00000000000E+00 0. -1.
         25    1    1    2    0    0 -0.14343365285E+03 -0.49099102504E+02  0.77823333957E+02  0.21134191715E+03  0.12500000000E+03 0.  0.
         25    1    1    2    0    0  0.94941416143E+02  0.28601745868E+02  0.11582671108E+03  0.19716175939E+03  0.12500000000E+03 0.  0.
         25    1    1    2    0    0  0.48492236710E+02  0.20497356636E+02  0.13142069362E+02  0.13626941197E+03  0.12500000000E+03 0.  0.
</event>
<event>
 5    0  0.5590591E-005  0.4212379E+03  0.7546771E-02  0.1036664E+00
         21   -1    0    0  502  501  0.00000000000E+00  0.00000000000E+00  0.53074486754E+03  0.53074486754E+03  0.00000000000E+00 0. -1.
         21   -1    0    0  501  502 -0.00000000000E+00 -0.00000000000E+00 -0.33432513888E+03  0.33432513888E+03  0.00000000000E+00 0. -1.
         25    1    1    2    0    0  0.77088171751E+02  0.19959274549E+03  0.96886899667E+02  0.26606751325E+03  0.12500000000E+03 0.  0.
         25    1    1    2    0    0 -0.17885867814E+03  0.93967618511E+02 -0.30926924317E+02  0.23958675824E+03  0.12500000000E+03 0.  0.
         25    1    1    2    0    0  0.10177050639E+03 -0.29356036400E+03  0.13045975332E+03  0.35941573494E+03  0.12500000000E+03 0.  0.
</event>
<event>
 5    0  0.5590591E-005  0.3368059E+03  0.7546771E-02  0.1068165E+00
         21   -1    0    0  502  501  0.00000000000E+00  0.00000000000E+00  0.20684299092E+04  0.20684299092E+04  0.00000000000E+00 0. -1.
         21   -1    0    0  501  502 -0.00000000000E+00 -0.00000000000E+00 -0.54842652745E+02  0.54842652745E+02  0.00000000000E+00 0. -1.
         25    1    1    2    0    0 -0.17708415936E+03  0.11745118585E+02  0.49822012504E+03  0.54345656708E+03  0.12500000000E+03 0.  0.
         25    1    1    2    0    0  0.10320598931E+03  0.15147041732E+03  0.63092627669E+03  0.66879573127E+03  0.12500000000E+03 0.  0.
         25    1    1    2    0    0  0.73878170043E+02 -0.16321553590E+03  0.88444085469E+03  0.91102026356E+03  0.12500000000E+03 0.  0.
</event>
<event>
 5    0  0.5590591E-005  0.3396989E+03  0.7546771E-02  0.1066924E+00
         21   -1    0    0  502  501  0.00000000000E+00  0.00000000000E+00  0.99060880861E+03  0.99060880861E+03  0.00000000000E+00 0.  1.
         21   -1    0    0  501  502 -0.00000000000E+00 -0.00000000000E+00 -0.11648931661E+03  0.11648931661E+03  0.00000000000E+00 0.  1.
         25    1    1    2    0    0 -0.36881887071E+01  0.17297263497E+03  0.44741571622E+03  0.49572064543E+03  0.12500000000E+03 0.  0.
         25    1    1    2    0    0  0.12166585486E+02  0.75162284771E+02  0.79340109213E+02  0.16648497765E+03  0.12500000000E+03 0.  0.
         25    1    1    2    0    0 -0.84783967791E+01 -0.24813491975E+03  0.34736366657E+03  0.44489250214E+03  0.12500000000E+03 0.  0.
</event>
<event>
 5    0  0.5590591E-005  0.3887500E+03  0.7546771E-02  0.1047746E+00
         21   -1    0    0  502  501  0.00000000000E+00  0.00000000000E+00  0.69020478694E+03  0.69020478694E+03  0.00000000000E+00 0. -1.
         21   -1    0    0  501  502 -0.00000000000E+00 -0.00000000000E+00 -0.21895903928E+03  0.21895903928E+03  0.00000000000E+00 0. -1.
         25    1    1    2    0    0 -0.16756524530E+03 -0.16577448050E+03  0.37379179043E+03  0.45924350013E+03  0.12500000000E+03 0.  0.
         25    1    1    2    0    0  0.15242243174E+03  0.72551871258E+02 -0.69231014370E+02  0.22116578639E+03  0.12500000000E+03 0.  0.
         25    1    1    2    0    0  0.15142813557E+02  0.93222609242E+02  0.16668497160E+03  0.22875453970E+03  0.12500000000E+03 0.  0.
</event>
<event>
 5    0  0.5936425E-005  0.3487905E+03  0.7546771E-02  0.1063113E+00
         21   -1    0    0  502  501  0.00000000000E+00  0.00000000000E+00  0.25656541626E+03  0.25656541626E+03  0.00000000000E+00 0. -1.
         21   -1    0    0  501  502 -0.00000000000E+00 -0.00000000000E+00 -0.47416676016E+03  0.47416676016E+03  0.00000000000E+00 0. -1.
         25    1    1    2    0    0 -0.38684686479E+02 -0.95641268781E+02 -0.18520688642E+03  0.24611043870E+03  0.12500000000E+03 0.  0.
         25    1    1    2    0    0  0.21534703045E+03  0.29353770185E+02 -0.56487921770E+02  0.25700558876E+03  0.12500000000E+03 0.  0.
         25    1    1    2    0    0 -0.17666234397E+03  0.66287498596E+02  0.24093464281E+02  0.22761614896E+03  0.12500000000E+03 0.  0.
</event>
<event>
 5    0  0.5590591E-005  0.3127721E+03  0.7546771E-02  0.1079025E+00
         21   -1    0    0  502  501  0.00000000000E+00  0.00000000000E+00  0.10527475063E+04  0.10527475063E+04  0.00000000000E+00 0. -1.
         21   -1    0    0  501  502 -0.00000000000E+00 -0.00000000000E+00 -0.92924854824E+02  0.92924854824E+02  0.00000000000E+00 0. -1.
         25    1    1    2    0    0 -0.11101483774E+03  0.34467539505E+02  0.66022861849E+03  0.68193777880E+03  0.12500000000E+03 0.  0.
         25    1    1    2    0    0  0.15361709818E+03 -0.51410888820E+02  0.24659740452E+03  0.32043185275E+03  0.12500000000E+03 0.  0.
         25    1    1    2    0    0 -0.42602260439E+02  0.16943349315E+02  0.52996628494E+02  0.14330272960E+03  0.12500000000E+03 0.  0.
</event>
<event>
 5    0  0.5590591E-005  0.4515339E+03  0.7546771E-02  0.1027266E+00
         21   -1    0    0  502  501  0.00000000000E+00  0.00000000000E+00  0.14613282769E+04  0.14613282769E+04  0.00000000000E+00 0.  1.
         21   -1    0    0  501  502 -0.00000000000E+00 -0.00000000000E+00 -0.13951883974E+03  0.13951883974E+03  0.00000000000E+00 0.  1.
         25    1    1    2    0    0 -0.22800471554E+03  0.50116850419E+02  0.30830999741E+03  0.40642084532E+03  0.12500000000E+03 0.  0.
         25    1    1    2    0    0 -0.59910482798E+02  0.61426984250E+02  0.28037345740E+02  0.15418700691E+03  0.12500000000E+03 0.  0.
         25    1    1    2    0    0  0.28791519834E+03 -0.11154383467E+03  0.98546209401E+03  0.10402392644E+04  0.12500000000E+03 0.  0.
</event>
<event>
 5    0  0.5590591E-005  0.3849253E+03  0.7546771E-02  0.1049128E+00
         21   -1    0    0  502  501  0.00000000000E+00  0.00000000000E+00  0.95753360400E+03  0.95753360400E+03  0.00000000000E+00 0.  1.
         21   -1    0    0  501  502 -0.00000000000E+00 -0.00000000000E+00 -0.15473866124E+03  0.15473866124E+03  0.00000000000E+00 0.  1.
         25    1    1    2    0    0  0.31749482711E+02  0.31471085376E+03  0.48366828926E+03  0.59127909245E+03  0.12500000000E+03 0.  0.
         25    1    1    2    0    0 -0.33212619573E+02 -0.14662727772E+03  0.20144105068E+03  0.28072430171E+03  0.12500000000E+03 0.  0.
         25    1    1    2    0    0  0.14631368618E+01 -0.16808357604E+03  0.11768560281E+03  0.24026887109E+03  0.12500000000E+03 0.  0.
</event>
<event>
 5    0  0.5590591E-005  0.3421939E+03  0.7546771E-02  0.1065865E+00
         21   -1    0    0  502  501  0.00000000000E+00  0.00000000000E+00  0.48198232172E+03  0.48198232172E+03  0.00000000000E+00 0. -1.
         21   -1    0    0  501  502 -0.00000000000E+00 -0.00000000000E+00 -0.24294798641E+03  0.24294798641E+03  0.00000000000E+00 0. -1.
         25    1    1    2    0    0  0.29169781861E+02  0.23127078073E+03  0.18758682894E+03  0.32426974663E+03  0.12500000000E+03 0.  0.
         25    1    1    2    0    0 -0.76311126184E+02 -0.99668159739E+02  0.10462509110E+03  0.20573900878E+03  0.12500000000E+03 0.  0.
         25    1    1    2    0    0  0.47141344323E+02 -0.13160262099E+03 -0.53177584728E+02  0.19492155271E+03  0.12500000000E+03 0.  0.
</event>
<event>
 5    0  0.5590591E-005  0.3050323E+03  0.7546771E-02  0.1082752E+00
         21   -1    0    0  502  501  0.00000000000E+00  0.00000000000E+00  0.81988077502E+02  0.81988077502E+02  0.00000000000E+00 0.  1.
         21   -1    0    0  501  502 -0.00000000000E+00 -0.00000000000E+00 -0.11348563536E+04  0.11348563536E+04  0.00000000000E+00 0.  1.
         25    1    1    2    0    0 -0.84095527621E+02 -0.63375838476E+02 -0.39813488478E+03  0.43037767269E+03  0.12500000000E+03 0.  0.
         25    1    1    2    0    0  0.49536338795E+02  0.15374678124E+03 -0.57341699903E+03  0.60870680658E+03  0.12500000000E+03 0.  0.
         25    1    1    2    0    0  0.34559188826E+02 -0.90370942763E+02 -0.81316392325E+02  0.17775995187E+03  0.12500000000E+03 0.  0.
</event>
<event>
 5    0  0.5590591E-005  0.1973691E+03  0.7546771E-02  0.1151978E+00
         21   -1    0    0  502  501  0.00000000000E+00  0.00000000000E+00  0.29125581096E+03  0.29125581096E+03  0.00000000000E+00 0.  1.
         21   -1    0    0  501  502 -0.00000000000E+00 -0.00000000000E+00 -0.13374685886E+03  0.13374685886E+03  0.00000000000E+00 0.  1.
         25    1    1    2    0    0  0.12475417184E+02 -0.86601679260E+01  0.42483406922E+02  0.13289271766E+03  0.12500000000E+03 0.  0.
         25    1    1    2    0    0  0.10552872567E+02 -0.35833042616E+02  0.79726647622E+02  0.15289443549E+03  0.12500000000E+03 0.  0.
         25    1    1    2    0    0 -0.23028289752E+02  0.44493210542E+02  0.35298897562E+02  0.13921551667E+03  0.12500000000E+03 0.  0.
</event>
<event>
 5    0  0.5590591E-005  0.2939721E+03  0.7546771E-02  0.1088293E+00
         21   -1    0    0  502  501  0.00000000000E+00  0.00000000000E+00  0.64160530706E+03  0.64160530706E+03  0.00000000000E+00 0.  1.
         21   -1    0    0  501  502 -0.00000000000E+00 -0.00000000000E+00 -0.13469275469E+03  0.13469275469E+03  0.00000000000E+00 0.  1.
         25    1    1    2    0    0 -0.35928813405E+02  0.25901095221E+01  0.17291530875E+03  0.21638459349E+03  0.12500000000E+03 0.  0.
         25    1    1    2    0    0 -0.41373975478E+02 -0.14842859473E+02 -0.55327643606E+02  0.14359061415E+03  0.12500000000E+03 0.  0.
         25    1    1    2    0    0  0.77302788883E+02  0.12252749951E+02  0.38932488722E+03  0.41632285411E+03  0.12500000000E+03 0.  0.
</event>
<event>
 5    0  0.5590591E-005  0.2996957E+03  0.7546771E-02  0.1085393E+00
         21   -1    0    0  502  501  0.00000000000E+00  0.00000000000E+00  0.78862582766E+03  0.78862582766E+03  0.00000000000E+00 0. -1.
         21   -1    0    0  501  502 -0.00000000000E+00 -0.00000000000E+00 -0.11389114484E+03  0.11389114484E+03  0.00000000000E+00 0. -1.
         25    1    1    2    0    0  0.13751064003E+03 -0.13787905197E+02  0.39687585129E+03  0.43844580484E+03  0.12500000000E+03 0.  0.
         25    1    1    2    0    0 -0.16420687806E+03  0.29367608939E+02  0.26127998446E+03  0.33424330291E+03  0.12500000000E+03 0.  0.
         25    1    1    2    0    0  0.26696238034E+02 -0.15579703742E+02  0.16578847075E+02  0.12982786474E+03  0.12500000000E+03 0.  0.
</event>
<event>
 5    0  0.5590591E-005  0.2874641E+03  0.7546771E-02  0.1091681E+00
         21   -1    0    0  502  501  0.00000000000E+00  0.00000000000E+00  0.40910073992E+02  0.40910073992E+02  0.00000000000E+00 0.  1.
         21   -1    0    0  501  502 -0.00000000000E+00 -0.00000000000E+00 -0.20199324593E+04  0.20199324593E+04  0.00000000000E+00 0.  1.
         25    1    1    2    0    0  0.45321482805E+01 -0.52611938492E+02 -0.42451617354E+03  0.44567649482E+03  0.12500000000E+03 0.  0.
         25    1    1    2    0    0 -0.63320816344E+01  0.20343972405E+03 -0.74814793072E+03  0.78535224124E+03  0.12500000000E+03 0.  0.
         25    1    1    2    0    0  0.17999333539E+01 -0.15082778556E+03 -0.80635828107E+03  0.82981379725E+03  0.12500000000E+03 0.  0.
</event>
<event>
 5    0  0.5590591E-005  0.2813481E+03  0.7546771E-02  0.1094955E+00
         21   -1    0    0  502  501  0.00000000000E+00  0.00000000000E+00  0.18002425653E+03  0.18002425653E+03  0.00000000000E+00 0. -1.
         21   -1    0    0  501  502 -0.00000000000E+00 -0.00000000000E+00 -0.43970041196E+03  0.43970041196E+03  0.00000000000E+00 0. -1.
         25    1    1    2    0    0 -0.13431791950E+03  0.46788462765E+02  0.39084422017E+02  0.19334698289E+03  0.12500000000E+03 0.  0.
         25    1    1    2    0    0  0.97394066623E+02 -0.61048196266E+02 -0.19910402646E+03  0.26168664436E+03  0.12500000000E+03 0.  0.
         25    1    1    2    0    0  0.36923852881E+02  0.14259733501E+02 -0.99656550983E+02  0.16469104124E+03  0.12500000000E+03 0.  0.
</event>
<event>
 5    0  0.5590591E-005  0.2558550E+03  0.7546771E-02  0.1109660E+00
         21   -1    0    0  502  501  0.00000000000E+00  0.00000000000E+00  0.61418671717E+02  0.61418671717E+02  0.00000000000E+00 0.  1.
         21   -1    0    0  501  502 -0.00000000000E+00 -0.00000000000E+00 -0.10658286737E+04  0.10658286737E+04  0.00000000000E+00 0.  1.
         25    1    1    2    0    0  0.55713221529E+02 -0.87205279123E+02 -0.27408619773E+03  0.31852310363E+03  0.12500000000E+03 0.  0.
         25    1    1    2    0    0 -0.68411951633E+02  0.92267172611E+02 -0.19368782611E+03  0.25755271354E+03  0.12500000000E+03 0.  0.
         25    1    1    2    0    0  0.12698730104E+02 -0.50618934878E+01 -0.53663597814E+03  0.55117152824E+03  0.12500000000E+03 0.  0.
</event>
<event>
 5    0  0.5590591E-005  0.3731526E+03  0.7546771E-02  0.1053494E+00
         21   -1    0    0  502  501  0.00000000000E+00  0.00000000000E+00  0.30029605505E+04  0.30029605505E+04  0.00000000000E+00 0. -1.
         21   -1    0    0  501  502 -0.00000000000E+00 -0.00000000000E+00 -0.46368516699E+02  0.46368516699E+02  0.00000000000E+00 0. -1.
         25    1    1    2    0    0 -0.18208968895E+03  0.11319032036E+03  0.90639921154E+03  0.93976232853E+03  0.12500000000E+03 0.  0.
         25    1    1    2    0    0  0.41043803603E+02 -0.14812623425E+03  0.16897833339E+04  0.17013578961E+04  0.12500000000E+03 0.  0.
         25    1    1    2    0    0  0.14104588535E+03  0.34935913894E+02  0.36040948837E+03  0.40820884258E+03  0.12500000000E+03 0.  0.
</event>
<event>
 5    0  0.5590591E-005  0.3485459E+03  0.7546771E-02  0.1063213E+00
         21   -1    0    0  502  501  0.00000000000E+00  0.00000000000E+00  0.23414776128E+04  0.23414776128E+04  0.00000000000E+00 0. -1.
         21   -1    0    0  501  502 -0.00000000000E+00 -0.00000000000E+00 -0.51883578028E+02  0.51883578028E+02  0.00000000000E+00 0. -1.
         25    1    1    2    0    0  0.58204885623E+02  0.42496895359E+02  0.13756388014E+04  0.13831850588E+04  0.12500000000E+03 0.  0.
         25    1    1    2    0    0  0.13376677256E+03  0.14264689017E+02  0.29194797413E+03  0.34489947868E+03  0.12500000000E+03 0.  0.
         25    1    1    2    0    0 -0.19197165819E+03 -0.56761584375E+02  0.62200725923E+03  0.66527665338E+03  0.12500000000E+03 0.  0.
</event>
<event>
 5    0  0.5590591E-005  0.3605842E+03  0.7546771E-02  0.1058353E+00
         21   -1    0    0  502  501  0.00000000000E+00  0.00000000000E+00  0.49816275670E+02  0.49816275670E+02  0.00000000000E+00 0.  1.
         21   -1    0    0  501  502 -0.00000000000E+00 -0.00000000000E+00 -0.26100092108E+04  0.26100092108E+04  0.00000000000E+00 0.  1.
         25    1    1    2    0    0  0.12611455528E+03  0.71856550898E+02 -0.14197143465E+04  0.14325788183E+04  0.12500000000E+03 0.  0.
         25    1    1    2    0    0 -0.15345840885E+03 -0.11460658805E+03 -0.10233199918E+04  0.10485670979E+04  0.12500000000E+03 0.  0.
         25    1    1    2    0    0  0.27343853572E+02  0.42750037150E+02 -0.11715859680E+03  0.17867957021E+03  0.12500000000E+03 0.  0.
</event>
<event>
 5    0  0.5590591E-005  0.3251917E+03  0.7546771E-02  0.1073284E+00
         21   -1    0    0  502  501  0.00000000000E+00  0.00000000000E+00  0.51120566893E+02  0.51120566893E+02  0.00000000000E+00 0.  1.
         21   -1    0    0  501  502 -0.00000000000E+00 -0.00000000000E+00 -0.20686317638E+04  0.20686317638E+04  0.00000000000E+00 0.  1.
         25    1    1    2    0    0 -0.65500053565E+02  0.14937238918E+03 -0.84432493782E+03  0.86897178797E+03  0.12500000000E+03 0.  0.
         25    1    1    2    0    0  0.55216101377E+02  0.24557036051E+02 -0.86050803355E+03  0.87163693226E+03  0.12500000000E+03 0.  0.
         25    1    1    2    0    0  0.10283952188E+02 -0.17392942523E+03 -0.31267822557E+03  0.37914361049E+03  0.12500000000E+03 0.  0.
</event>
<event>
 5    0  0.5590591E-005  0.5148378E+03  0.7546771E-02  0.1009977E+00
         21   -1    0    0  502  501  0.00000000000E+00  0.00000000000E+00  0.20237795493E+03  0.20237795493E+03  0.00000000000E+00 0.  1.
         21   -1    0    0  501  502 -0.00000000000E+00 -0.00000000000E+00 -0.13097175817E+04  0.13097175817E+04  0.00000000000E+00 0.  1.
         25    1    1    2    0    0  0.19088803353E+01 -0.43418880007E+03 -0.73256924674E+03  0.86070102777E+03  0.12500000000E+03 0.  0.
         25    1    1    2    0    0  0.24806636552E+01  0.19549659500E+03 -0.65357903759E+02  0.24108448298E+03  0.12500000000E+03 0.  0.
         25    1    1    2    0    0 -0.43895439905E+01  0.23869220507E+03 -0.30941247625E+03  0.41031002585E+03  0.12500000000E+03 0.  0.
</event>
<event>
 5    0  0.5590591E-005  0.2663721E+03  0.7546771E-02  0.1103374E+00
         21   -1    0    0  502  501  0.00000000000E+00  0.00000000000E+00  0.24217793301E+03  0.24217793301E+03  0.00000000000E+00 0.  1.
         21   -1    0    0  501  502 -0.00000000000E+00 -0.00000000000E+00 -0.29298333200E+03  0.29298333200E+03  0.00000000000E+00 0.  1.
         25    1    1    2    0    0  0.20145459727E+02 -0.18934080492E+02 -0.13218993614E+03  0.18402042867E+03  0.12500000000E+03 0.  0.
         25    1    1    2    0    0 -0.11794959653E+02  0.12503804233E+03  0.48389737369E+02  0.18368505596E+03  0.12500000000E+03 0.  0.
         25    1    1    2    0    0 -0.83505000740E+01 -0.10610396183E+03  0.32994799787E+02  0.16745578038E+03  0.12500000000E+03 0.  0.
</event>
<event>
 5    0  0.5590591E-005  0.2511534E+03  0.7546771E-02  0.1112578E+00
         21   -1    0    0  502  501  0.00000000000E+00  0.00000000000E+00  0.22081088314E+03  0.22081088314E+03  0.00000000000E+00 0. -1.
         21   -1    0    0  501  502 -0.00000000000E+00 -0.00000000000E+00 -0.28566529932E+03  0.28566529932E+03  0.00000000000E+00 0. -1.
         25    1    1    2    0    0  0.18145275255E+02 -0.13606559276E+02 -0.11300838356E+03  0.17003024502E+03  0.12500000000E+03 0.  0.
         25    1    1    2    0    0 -0.62212834286E+02 -0.38912149686E+02  0.10908103860E+03  0.18140635360E+03  0.12500000000E+03 0.  0.
         25    1    1    2    0    0  0.44067559031E+02  0.52518708961E+02 -0.60927071219E+02  0.15503958384E+03  0.12500000000E+03 0.  0.
</event>
<event>
 5    0  0.5590591E-005  0.3002492E+03  0.7546771E-02  0.1085116E+00
         21   -1    0    0  502  501  0.00000000000E+00  0.00000000000E+00  0.34647840331E+03  0.34647840331E+03  0.00000000000E+00 0.  1.
         21   -1    0    0  501  502 -0.00000000000E+00 -0.00000000000E+00 -0.26018820331E+03  0.26018820331E+03  0.00000000000E+00 0.  1.
         25    1    1    2    0    0 -0.62750762672E+02  0.11650624571E+03 -0.24934358614E+02  0.18373373600E+03  0.12500000000E+03 0.  0.
         25    1    1    2    0    0  0.14519084498E+03 -0.13973993001E+03  0.37587209250E+01  0.23716398860E+03  0.12500000000E+03 0.  0.
         25    1    1    2    0    0 -0.82440082309E+02  0.23233684294E+02  0.10746583768E+03  0.18576888202E+03  0.12500000000E+03 0.  0.
</event>
<event>
 5    0  0.5590591E-005  0.3412405E+03  0.7546771E-02  0.1066269E+00
         21   -1    0    0  502  501  0.00000000000E+00  0.00000000000E+00  0.45037081443E+03  0.45037081443E+03  0.00000000000E+00 0. -1.
         21   -1    0    0  501  502 -0.00000000000E+00 -0.00000000000E+00 -0.25855375492E+03  0.25855375492E+03  0.00000000000E+00 0. -1.
         25    1    1    2    0    0 -0.13622319966E+03  0.39001445717E+02  0.11004017755E+03  0.21865889776E+03  0.12500000000E+03 0.  0.
         25    1    1    2    0    0 -0.70076332348E+02  0.10912483181E+03  0.10107549097E+03  0.20654340015E+03  0.12500000000E+03 0.  0.
         25    1    1    2    0    0  0.20629953201E+03 -0.14812627753E+03 -0.19298609013E+02  0.28372227144E+03  0.12500000000E+03 0.  0.
</event>
<event>
 5    0  0.5590591E-005  0.2192068E+03  0.7546771E-02  0.1134476E+00
         21   -1    0    0  502  501  0.00000000000E+00  0.00000000000E+00  0.49028540214E+02  0.49028540214E+02  0.00000000000E+00 0. -1.
         21   -1    0    0  501  502 -0.00000000000E+00 -0.00000000000E+00 -0.98007459660E+03  0.98007459660E+03  0.00000000000E+00 0. -1.
         25    1    1    2    0    0 -0.22861117536E+02 -0.34201755160E+02 -0.26110686068E+03  0.29239388408E+03  0.12500000000E+03 0.  0.
         25    1    1    2    0    0 -0.16273342014E+02  0.13291174998E+01 -0.51937666514E+03  0.53445646082E+03  0.12500000000E+03 0.  0.
         25    1    1    2    0    0  0.39134459550E+02  0.32872637661E+02 -0.15056253057E+03  0.20225279193E+03  0.12500000000E+03 0.  0.
</event>
<event>
 5    0  0.5590591E-005  0.2382329E+03  0.7546771E-02  0.1120976E+00
         21   -1    0    0  502  501  0.00000000000E+00  0.00000000000E+00  0.78063781505E+02  0.78063781505E+02  0.00000000000E+00 0.  1.
         21   -1    0    0  501  502 -0.00000000000E+00 -0.00000000000E+00 -0.72703274451E+03  0.72703274451E+03  0.00000000000E+00 0.  1.
         25    1    1    2    0    0  0.12906584882E+01  0.74873822420E+02 -0.25697179699E+03  0.29541032401E+03  0.12500000000E+03 0.  0.
         25    1    1    2    0    0 -0.85090419145E+02 -0.74901154155E+02 -0.15610955989E+03  0.22988205022E+03  0.12500000000E+03 0.  0.
         25    1    1    2    0    0  0.83799760656E+02  0.27331735569E-01 -0.23588760612E+03  0.27980415178E+03  0.12500000000E+03 0.  0.
</event>
<event>
 5    0  0.5590591E-005  0.3313504E+03  0.7546771E-02  0.1070541E+00
         21   -1    0    0  502  501  0.00000000000E+00  0.00000000000E+00  0.43884877912E+03  0.43884877912E+03  0.00000000000E+00 0.  1.
         21   -1    0    0  501  502 -0.00000000000E+00 -0.00000000000E+00 -0.25018432983E+03  0.25018432983E+03  0.00000000000E+00 0.  1.
         25    1    1    2    0    0  0.16614994427E+02 -0.59120844093E+02  0.15055297023E+02  0.14008209812E+03  0.12500000000E+03 0.  0.
         25    1    1    2    0    0  0.17863783904E+03 -0.88314979453E+02  0.24926645316E+02  0.23655306123E+03  0.12500000000E+03 0.  0.
         25    1    1    2    0    0 -0.19525283346E+03  0.14743582355E+03  0.14868250695E+03  0.31239794960E+03  0.12500000000E+03 0.  0.
</event>
<event>
 5    0  0.5590591E-005  0.3476595E+03  0.7546771E-02  0.1063580E+00
         21   -1    0    0  502  501  0.00000000000E+00  0.00000000000E+00  0.25080505384E+03  0.25080505384E+03  0.00000000000E+00 0. -1.
         21   -1    0    0  501  502 -0.00000000000E+00 -0.00000000000E+00 -0.48191659358E+03  0.48191659358E+03  0.00000000000E+00 0. -1.
         25    1    1    2    0    0 -0.14654810717E+02  0.46253814149E+02 -0.19862313756E+03  0.23964625926E+03  0.12500000000E+03 0.  0.
         25    1    1    2    0    0  0.41800248232E+02  0.16544107033E+03 -0.10385576562E+03  0.23564598142E+03  0.12500000000E+03 0.  0.
         25    1    1    2    0    0 -0.27145437515E+02 -0.21169488448E+03  0.71367363442E+02  0.25742940675E+03  0.12500000000E+03 0.  0.
</event>
<event>
 5    0  0.5590591E-005  0.2846204E+03  0.7546771E-02  0.1093192E+00
         21   -1    0    0  502  501  0.00000000000E+00  0.00000000000E+00  0.41879947102E+03  0.41879947102E+03  0.00000000000E+00 0.  1.
         21   -1    0    0  501  502 -0.00000000000E+00 -0.00000000000E+00 -0.19343096987E+03  0.19343096987E+03  0.00000000000E+00 0.  1.
         25    1    1    2    0    0 -0.69783508972E+02 -0.17464405001E+03  0.21691203521E+02  0.22686072961E+03  0.12500000000E+03 0.  0.
         25    1    1    2    0    0 -0.92556550820E+01  0.54879052023E+02  0.86886150383E+02  0.16208510305E+03  0.12500000000E+03 0.  0.
         25    1    1    2    0    0  0.79039164054E+02  0.11976499799E+03  0.11679114724E+03  0.22328460823E+03  0.12500000000E+03 0.  0.
</event>
<event>
 5    0  0.5590591E-005  0.2406024E+03  0.7546771E-02  0.1119392E+00
         21   -1    0    0  502  501  0.00000000000E+00  0.00000000000E+00  0.44912921645E+02  0.44912921645E+02  0.00000000000E+00 0. -1.
         21   -1    0    0  501  502 -0.00000000000E+00 -0.00000000000E+00 -0.12889278800E+04  0.12889278800E+04  0.00000000000E+00 0. -1.
         25    1    1    2    0    0  0.58282888322E+02 -0.11671874143E+03 -0.53203609027E+03  0.56187859990E+03  0.12500000000E+03 0.  0.
         25    1    1    2    0    0 -0.33759841690E+02  0.54905425940E+02 -0.48007773472E+03  0.50025389962E+03  0.12500000000E+03 0.  0.
         25    1    1    2    0    0 -0.24523046633E+02  0.61813315487E+02 -0.23190113331E+03  0.27170830208E+03  0.12500000000E+03 0.  0.
</event>
<event>
 5    0  0.6255016E-005  0.3256912E+03  0.7546771E-02  0.1073059E+00
         21   -1    0    0  502  501  0.00000000000E+00  0.00000000000E+00  0.25880883505E+03  0.25880883505E+03  0.00000000000E+00 0. -1.
         21   -1    0    0  501  502 -0.00000000000E+00 -0.00000000000E+00 -0.40985752671E+03  0.40985752671E+03  0.00000000000E+00 0. -1.
         25    1    1    2    0    0 -0.11006750739E+02  0.21358756389E+01  0.14170791835E+03  0.18929301268E+03  0.12500000000E+03 0.  0.
         25    1    1    2    0    0 -0.67636292728E+02 -0.12254539827E+03 -0.16573228626E+03  0.25036819574E+03  0.12500000000E+03 0.  0.
         25    1    1    2    0    0  0.78643043467E+02  0.12040952264E+03 -0.12702432376E+03  0.22900515333E+03  0.12500000000E+03 0.  0.
</event>
<event>
 5    0  0.5590591E-005  0.3268757E+03  0.7546771E-02  0.1072528E+00
         21   -1    0    0  502  501  0.00000000000E+00  0.00000000000E+00  0.23692201682E+03  0.23692201682E+03  0.00000000000E+00 0. -1.
         21   -1    0    0  501  502 -0.00000000000E+00 -0.00000000000E+00 -0.45098277870E+03  0.45098277870E+03  0.00000000000E+00 0. -1.
         25    1    1    2    0    0  0.43158428454E+01 -0.32750861836E+02 -0.42708005672E+02  0.13616247353E+03  0.12500000000E+03 0.  0.
         25    1    1    2    0    0  0.22352201260E+03  0.12656594014E+02 -0.38827548547E+02  0.25933541604E+03  0.12500000000E+03 0.  0.
         25    1    1    2    0    0 -0.22783785545E+03  0.20094267822E+02 -0.13252520766E+03  0.29240690594E+03  0.12500000000E+03 0.  0.
</event>
<event>
 5    0  0.5590591E-005  0.4525788E+03  0.7546771E-02  0.1026956E+00
         21   -1    0    0  502  501  0.00000000000E+00  0.00000000000E+00  0.10880315776E+04  0.10880315776E+04  0.00000000000E+00 0. -1.
         21   -1    0    0  501  502 -0.00000000000E+00 -0.00000000000E+00 -0.18825518029E+03  0.18825518029E+03  0.00000000000E+00 0. -1.
         25    1    1    2    0    0 -0.15770767132E+03  0.13113756097E+01  0.56582691086E+03  0.60054851790E+03  0.12500000000E+03 0.  0.
         25    1    1    2    0    0  0.89337180094E+02  0.87026715547E+01  0.46011433993E+03  0.48516705787E+03  0.12500000000E+03 0.  0.
         25    1    1    2    0    0  0.68370491229E+02 -0.10014047164E+02 -0.12616485346E+03  0.19057118214E+03  0.12500000000E+03 0.  0.
</event>
<event>
 5    0  0.5590591E-005  0.3978035E+03  0.7546771E-02  0.1044543E+00
         21   -1    0    0  502  501  0.00000000000E+00  0.00000000000E+00  0.76659732490E+03  0.76659732490E+03  0.00000000000E+00 0. -1.
         21   -1    0    0  501  502 -0.00000000000E+00 -0.00000000000E+00 -0.20642865657E+03  0.20642865657E+03  0.00000000000E+00 0. -1.
         25    1    1    2    0    0 -0.22587342323E+03 -0.16321151163E+03  0.26792268374E+03  0.40628114073E+03  0.12500000000E+03 0.  0.
         25    1    1    2    0    0  0.12821817718E+03  0.21223636544E+02 -0.27708322248E+02  0.18243655015E+03  0.12500000000E+03 0.  0.
         25    1    1    2    0    0  0.97655246055E+02  0.14198787509E+03  0.31995430683E+03  0.38430829059E+03  0.12500000000E+03 0.  0.
</event>
<event>
 5    0  0.5590591E-005  0.2239566E+03  0.7546771E-02  0.1130967E+00
         21   -1    0    0  502  501  0.00000000000E+00  0.00000000000E+00  0.11924912286E+04  0.11924912286E+04  0.00000000000E+00 0.  1.
         21   -1    0    0  501  502 -0.00000000000E+00 -0.00000000000E+00 -0.42060324708E+02  0.42060324708E+02  0.00000000000E+00 0.  1.
         25    1    1    2    0    0 -0.64593883904E+02  0.26866056002E+02  0.55144331364E+03  0.56974457695E+03  0.12500000000E+03 0.  0.
         25    1    1    2    0    0  0.26346805796E+02 -0.68376917497E+02  0.23793182670E+03  0.27857873425E+03  0.12500000000E+03 0.  0.
         25    1    1    2    0    0  0.38247078108E+02  0.41510861495E+02  0.36105576354E+03  0.38622824210E+03  0.12500000000E+03 0.  0.
</event>
<event>
 5    0  0.5590591E-005  0.2854301E+03  0.7546771E-02  0.1092760E+00
         21   -1    0    0  502  501  0.00000000000E+00  0.00000000000E+00  0.45580333512E+03  0.45580333512E+03  0.00000000000E+00 0. -1.
         21   -1    0    0  501  502 -0.00000000000E+00 -0.00000000000E+00 -0.17874016380E+03  0.17874016380E+03  0.00000000000E+00 0. -1.
         25    1    1    2    0    0  0.10032299567E+03  0.20109747672E+02  0.19059750762E+03  0.24984298134E+03  0.12500000000E+03 0.  0.
         25    1    1    2    0    0 -0.18289572257E+03 -0.21084255675E+02  0.73371236674E+02  0.23431544879E+03  0.12500000000E+03 0.  0.
         25    1    1    2    0    0  0.82572726901E+02  0.97450800270E+00  0.13094427025E+02  0.15038506878E+03  0.12500000000E+03 0.  0.
</event>
<event>
 5    0  0.5590591E-005  0.2760991E+03  0.7546771E-02  0.1097839E+00
         21   -1    0    0  502  501  0.00000000000E+00  0.00000000000E+00  0.38453574983E+02  0.38453574983E+02  0.00000000000E+00 0.  1.
         21   -1    0    0  501  502 -0.00000000000E+00 -0.00000000000E+00 -0.19824094485E+04  0.19824094485E+04  0.00000000000E+00 0.  1.
         25    1    1    2    0    0  0.35082743858E+02  0.94448559368E+02 -0.55478629360E+03  0.57755013709E+03  0.12500000000E+03 0.  0.
         25    1    1    2    0    0 -0.82766579413E+02 -0.79172378442E+02 -0.11953212148E+04  0.12072847132E+04  0.12500000000E+03 0.  0.
         25    1    1    2    0    0  0.47683835554E+02 -0.15276180927E+02 -0.19384836504E+03  0.23602817312E+03  0.12500000000E+03 0.  0.
</event>
<event>
 5    0  0.5590591E-005  0.3340984E+03  0.7546771E-02  0.1069338E+00
         21   -1    0    0  502  501  0.00000000000E+00  0.00000000000E+00  0.14331826798E+04  0.14331826798E+04  0.00000000000E+00 0.  1.
         21   -1    0    0  501  502 -0.00000000000E+00 -0.00000000000E+00 -0.77883799802E+02  0.77883799802E+02  0.00000000000E+00 0.  1.
         25    1    1    2    0    0 -0.21522533381E+03  0.10351574541E+03  0.53596024700E+03  0.59992986276E+03  0.12500000000E+03 0.  0.
         25    1    1    2    0    0  0.15399113357E+03 -0.12090407861E+03  0.65556459406E+03  0.69550054093E+03  0.12500000000E+03 0.  0.
         25    1    1    2    0    0  0.61234200239E+02  0.17388333200E+02  0.16377403897E+03  0.21563607595E+03  0.12500000000E+03 0.  0.
</event>
<event>
 5    0  0.5590591E-005  0.2186531E+03  0.7546771E-02  0.1134891E+00
         21   -1    0    0  502  501  0.00000000000E+00  0.00000000000E+00  0.52278234420E+03  0.52278234420E+03  0.00000000000E+00 0. -1.
         21   -1    0    0  501  502 -0.00000000000E+00 -0.00000000000E+00 -0.91451395832E+02  0.91451395832E+02  0.00000000000E+00 0. -1.
         25    1    1    2    0    0  0.30020416388E+02 -0.58972704454E+02  0.14465980539E+03  0.20231278894E+03  0.12500000000E+03 0.  0.
         25    1    1    2    0    0  0.51536871543E+02  0.26413155994E+02  0.97524810922E+02  0.16878919599E+03  0.12500000000E+03 0.  0.
         25    1    1    2    0    0 -0.81557287932E+02  0.32559548460E+02  0.18914633205E+03  0.24313175510E+03  0.12500000000E+03 0.  0.
</event>
<event>
 5    0  0.5590591E-005  0.3619860E+03  0.7546771E-02  0.1057800E+00
         21   -1    0    0  502  501  0.00000000000E+00  0.00000000000E+00  0.64925164675E+03  0.64925164675E+03  0.00000000000E+00 0.  1.
         21   -1    0    0  501  502 -0.00000000000E+00 -0.00000000000E+00 -0.20182293340E+03  0.20182293340E+03  0.00000000000E+00 0.  1.
         25    1    1    2    0    0  0.19815433533E+03  0.11095659753E+03  0.55658229148E+02  0.26514023764E+03  0.12500000000E+03 0.  0.
         25    1    1    2    0    0 -0.74319985963E+02 -0.78684787804E+02  0.37057950744E+03  0.40579419350E+03  0.12500000000E+03 0.  0.
         25    1    1    2    0    0 -0.12383434937E+03 -0.32271809730E+02  0.21190976754E+02  0.18014014900E+03  0.12500000000E+03 0.  0.
</event>
<event>
 5    0  0.1386426E-004  0.1294870E+04  0.7546771E-02  0.9033643E-01
         21   -1    0    0  502  501  0.00000000000E+00  0.00000000000E+00  0.26166902339E+04  0.26166902339E+04  0.00000000000E+00 0.  1.
         21   -1    0    0  501  502 -0.00000000000E+00 -0.00000000000E+00 -0.64076721498E+03  0.64076721498E+03  0.00000000000E+00 0.  1.
         25    1    1    2    0    0  0.29147381756E+03  0.19629611980E+03  0.19701372186E+04  0.20051321186E+04  0.12500000000E+03 0.  0.
         25    1    1    2    0    0 -0.12832213067E+03  0.47400736250E+03  0.16584924014E+03  0.53317963144E+03  0.12500000000E+03 0.  0.
         25    1    1    2    0    0 -0.16315168688E+03 -0.67030348230E+03 -0.16006343985E+03  0.71914569879E+03  0.12500000000E+03 0.  0.
</event>
<event>
 5    0  0.5590591E-005  0.3157227E+03  0.7546771E-02  0.1077635E+00
         21   -1    0    0  502  501  0.00000000000E+00  0.00000000000E+00  0.22745795514E+03  0.22745795514E+03  0.00000000000E+00 0.  1.
         21   -1    0    0  501  502 -0.00000000000E+00 -0.00000000000E+00 -0.43823831882E+03  0.43823831882E+03  0.00000000000E+00 0.  1.
         25    1    1    2    0    0  0.17280545492E+03  0.40422670733E+02 -0.97791924527E+02  0.23808397271E+03  0.12500000000E+03 0.  0.
         25    1    1    2    0    0 -0.22268496436E+03  0.17178382907E+01 -0.12823402384E+03  0.28576302978E+03  0.12500000000E+03 0.  0.
         25    1    1    2    0    0  0.49879509441E+02 -0.42140509024E+02  0.15245584685E+02  0.14184927147E+03  0.12500000000E+03 0.  0.
</event>
<event>
 5    0  0.5590591E-005  0.2634563E+03  0.7546771E-02  0.1105084E+00
         21   -1    0    0  502  501  0.00000000000E+00  0.00000000000E+00  0.70625971178E+03  0.70625971178E+03  0.00000000000E+00 0.  1.
         21   -1    0    0  501  502 -0.00000000000E+00 -0.00000000000E+00 -0.98277196626E+02  0.98277196626E+02  0.00000000000E+00 0.  1.
         25    1    1    2    0    0 -0.30441202906E+02 -0.76549755949E+02  0.17690298722E+03  0.23174597916E+03  0.12500000000E+03 0.  0.
         25    1    1    2    0    0  0.37386010928E+02  0.99839178871E+02  0.41261446098E+03  0.44411853019E+03  0.12500000000E+03 0.  0.
         25    1    1    2    0    0 -0.69448080211E+01 -0.23289422922E+02  0.18465066947E+02  0.12867239904E+03  0.12500000000E+03 0.  0.
</event>
<event>
 5    0  0.6459352E-005  0.3558125E+03  0.7546771E-02  0.1060254E+00
         21   -1    0    0  502  501  0.00000000000E+00  0.00000000000E+00  0.65646439382E+03  0.65646439382E+03  0.00000000000E+00 0. -1.
         21   -1    0    0  501  502 -0.00000000000E+00 -0.00000000000E+00 -0.19285514759E+03  0.19285514759E+03  0.00000000000E+00 0. -1.
         25    1    1    2    0    0  0.11436784256E+03 -0.21873993954E+02 -0.10980170163E+02  0.17118422579E+03  0.12500000000E+03 0.  0.
         25    1    1    2    0    0  0.10213770916E+03 -0.11392338170E+03  0.16235094336E+03  0.25572148393E+03  0.12500000000E+03 0.  0.
         25    1    1    2    0    0 -0.21650555173E+03  0.13579737566E+03  0.31223847304E+03  0.42241383169E+03  0.12500000000E+03 0.  0.
</event>
<event>
 5    0  0.5590591E-005  0.3333099E+03  0.7546771E-02  0.1069682E+00
         21   -1    0    0  502  501  0.00000000000E+00  0.00000000000E+00  0.63246456101E+03  0.63246456101E+03  0.00000000000E+00 0. -1.
         21   -1    0    0  501  502 -0.00000000000E+00 -0.00000000000E+00 -0.17565489528E+03  0.17565489528E+03  0.00000000000E+00 0. -1.
         25    1    1    2    0    0 -0.88263301394E+02 -0.13886083836E+03  0.17823728452E+03  0.27288509009E+03  0.12500000000E+03 0.  0.
         25    1    1    2    0    0  0.45992034197E+02 -0.10952664039E+03  0.75078855650E+02  0.18807760827E+03  0.12500000000E+03 0.  0.
         25    1    1    2    0    0  0.42271267197E+02  0.24838747875E+03  0.20349352555E+03  0.34715675792E+03  0.12500000000E+03 0.  0.
</event>
<event>
 5    0  0.5590591E-005  0.2434688E+03  0.7546771E-02  0.1117503E+00
         21   -1    0    0  502  501  0.00000000000E+00  0.00000000000E+00  0.25635035479E+03  0.25635035479E+03  0.00000000000E+00 0.  1.
         21   -1    0    0  501  502 -0.00000000000E+00 -0.00000000000E+00 -0.23123446936E+03  0.23123446936E+03  0.00000000000E+00 0.  1.
         25    1    1    2    0    0  0.29402239178E+02 -0.27191705923E+02  0.12066157430E+02  0.13181226307E+03  0.12500000000E+03 0.  0.
         25    1    1    2    0    0 -0.41436362818E+02  0.12319657149E+03 -0.47529878178E+02  0.18648983004E+03  0.12500000000E+03 0.  0.
         25    1    1    2    0    0  0.12034123640E+02 -0.96004865564E+02  0.60579606177E+02  0.16928273104E+03  0.12500000000E+03 0.  0.
</event>
<event>
 5    0  0.5590591E-005  0.3099623E+03  0.7546771E-02  0.1080364E+00
         21   -1    0    0  502  501  0.00000000000E+00  0.00000000000E+00  0.31235559330E+03  0.31235559330E+03  0.00000000000E+00 0. -1.
         21   -1    0    0  501  502 -0.00000000000E+00 -0.00000000000E+00 -0.30758732440E+03  0.30758732440E+03  0.00000000000E+00 0. -1.
         25    1    1    2    0    0  0.10724456795E+02 -0.63796256903E+02  0.81725623558E+02  0.16275458185E+03  0.12500000000E+03 0.  0.
         25    1    1    2    0    0  0.88338063095E+01 -0.11627579276E+03  0.78131099911E+02  0.18795628451E+03  0.12500000000E+03 0.  0.
         25    1    1    2    0    0 -0.19558263104E+02  0.18007204966E+03 -0.15508845457E+03  0.26923205133E+03  0.12500000000E+03 0.  0.
</event>
<event>
 5    0  0.5590591E-005  0.2488560E+03  0.7546771E-02  0.1114030E+00
         21   -1    0    0  502  501  0.00000000000E+00  0.00000000000E+00  0.76459415232E+02  0.76459415232E+02  0.00000000000E+00 0. -1.
         21   -1    0    0  501  502 -0.00000000000E+00 -0.00000000000E+00 -0.80996328360E+03  0.80996328360E+03  0.00000000000E+00 0. -1.
         25    1    1    2    0    0  0.21105814065E+02  0.40501524524E+02 -0.82394610252E+02  0.15652380226E+03  0.12500000000E+03 0.  0.
         25    1    1    2    0    0  0.80177535858E+02  0.17385736665E+02 -0.39112945033E+03  0.41873374357E+03  0.12500000000E+03 0.  0.
         25    1    1    2    0    0 -0.10128334992E+03 -0.57887261189E+02 -0.25997980779E+03  0.31116515299E+03  0.12500000000E+03 0.  0.
</event>
<event>
 5    0  0.5590591E-005  0.3308158E+03  0.7546771E-02  0.1070776E+00
         21   -1    0    0  502  501  0.00000000000E+00  0.00000000000E+00  0.71964773477E+02  0.71964773477E+02  0.00000000000E+00 0.  1.
         21   -1    0    0  501  502 -0.00000000000E+00 -0.00000000000E+00 -0.15207310951E+04  0.15207310951E+04  0.00000000000E+00 0.  1.
         25    1    1    2    0    0  0.92145820210E+02 -0.49993850604E+02 -0.62246401943E+03  0.64348791191E+03  0.12500000000E+03 0.  0.
         25    1    1    2    0    0  0.13578488844E+02  0.18466227098E+03 -0.59449467515E+03  0.63508538675E+03  0.12500000000E+03 0.  0.
         25    1    1    2    0    0 -0.10572430905E+03 -0.13466842038E+03 -0.23180762700E+03  0.31412256988E+03  0.12500000000E+03 0.  0.
</event>
<event>
 5    0  0.5590591E-005  0.3995201E+03  0.7546771E-02  0.1043946E+00
         21   -1    0    0  502  501  0.00000000000E+00  0.00000000000E+00  0.58753969571E+03  0.58753969571E+03  0.00000000000E+00 0.  1.
         21   -1    0    0  501  502 -0.00000000000E+00 -0.00000000000E+00 -0.27166903467E+03  0.27166903467E+03  0.00000000000E+00 0.  1.
         25    1    1    2    0    0 -0.12940709722E+03  0.11067996570E+03  0.23164339258E+03  0.31349627261E+03  0.12500000000E+03 0.  0.
         25    1    1    2    0    0  0.19566747017E+03 -0.14318762908E+03  0.21731989968E+03  0.34877126430E+03  0.12500000000E+03 0.  0.
         25    1    1    2    0    0 -0.66260372954E+02  0.32507663386E+02 -0.13309263121E+03  0.19694119347E+03  0.12500000000E+03 0.  0.
</event>
<event>
 5    0  0.5590591E-005  0.2843621E+03  0.7546771E-02  0.1093330E+00
         21   -1    0    0  502  501  0.00000000000E+00  0.00000000000E+00  0.53411366269E+02  0.53411366269E+02  0.00000000000E+00 0.  1.
         21   -1    0    0  501  502 -0.00000000000E+00 -0.00000000000E+00 -0.15139440656E+04  0.15139440656E+04  0.00000000000E+00 0.  1.
         25    1    1    2    0    0  0.10148621854E+03  0.48861960396E+02 -0.68233058997E+03  0.70277092835E+03  0.12500000000E+03 0.  0.
         25    1    1    2    0    0 -0.16632540213E+03  0.27162912534E+02 -0.35824218678E+03  0.41516795107E+03  0.12500000000E+03 0.  0.
         25    1    1    2    0    0  0.64839183591E+02 -0.76024872930E+02 -0.41995992254E+03  0.44941655240E+03  0.12500000000E+03 0.  0.
</event>
<event>
 5    0  0.5590591E-005  0.4273520E+03  0.7546771E-02  0.1034700E+00
         21   -1    0    0  502  501  0.00000000000E+00  0.00000000000E+00  0.13636475838E+03  0.13636475838E+03  0.00000000000E+00 0. -1.
         21   -1    0    0  501  502 -0.00000000000E+00 -0.00000000000E+00 -0.13392737513E+04  0.13392737513E+04  0.00000000000E+00 0. -1.
         25    1    1    2    0    0  0.20653834387E+03 -0.28618753615E+03 -0.35741303013E+03  0.51762000294E+03  0.12500000000E+03 0.  0.
         25    1    1    2    0    0 -0.98702453398E+02  0.18816681038E+03 -0.36369378232E+03  0.43937124409E+03  0.12500000000E+03 0.  0.
         25    1    1    2    0    0 -0.10783589047E+03  0.98020725769E+02 -0.48180218051E+03  0.51864726270E+03  0.12500000000E+03 0.  0.
</event>
<event>
 5    0  0.5590591E-005  0.5626029E+03  0.7546771E-02  0.9986182E-01
         21   -1    0    0  502  501  0.00000000000E+00  0.00000000000E+00  0.41926154991E+03  0.41926154991E+03  0.00000000000E+00 0. -1.
         21   -1    0    0  501  502 -0.00000000000E+00 -0.00000000000E+00 -0.75495133794E+03  0.75495133794E+03  0.00000000000E+00 0. -1.
         25    1    1    2    0    0  0.25546261247E+03  0.32860392833E+02 -0.20038912679E+03  0.34945923070E+03  0.12500000000E+03 0.  0.
         25    1    1    2    0    0 -0.51145586867E+03 -0.40077225818E+02 -0.73060692529E+02  0.53306299291E+03  0.12500000000E+03 0.  0.
         25    1    1    2    0    0  0.25599325619E+03  0.72168329853E+01 -0.62239968720E+02  0.29169066424E+03  0.12500000000E+03 0.  0.
</event>
<event>
 5    0  0.5590591E-005  0.4540955E+03  0.7546771E-02  0.1026508E+00
         21   -1    0    0  502  501  0.00000000000E+00  0.00000000000E+00  0.34945363719E+03  0.34945363719E+03  0.00000000000E+00 0. -1.
         21   -1    0    0  501  502 -0.00000000000E+00 -0.00000000000E+00 -0.59007168279E+03  0.59007168279E+03  0.00000000000E+00 0. -1.
         25    1    1    2    0    0 -0.39665838780E+02  0.85781035940E+02 -0.18268438311E+03  0.24068724255E+03  0.12500000000E+03 0.  0.
         25    1    1    2    0    0  0.59130652210E+02  0.23151521613E+02  0.28489312752E+03  0.31752404805E+03  0.12500000000E+03 0.  0.
         25    1    1    2    0    0 -0.19464813430E+02 -0.10893255755E+03 -0.34282679001E+03  0.38131402939E+03  0.12500000000E+03 0.  0.
</event>
<event>
 5    0  0.5590591E-005  0.3170692E+03  0.7546771E-02  0.1077006E+00
         21   -1    0    0  502  501  0.00000000000E+00  0.00000000000E+00  0.88028257505E+03  0.88028257505E+03  0.00000000000E+00 0. -1.
         21   -1    0    0  501  502 -0.00000000000E+00 -0.00000000000E+00 -0.11420524244E+03  0.11420524244E+03  0.00000000000E+00 0. -1.
         25    1    1    2    0    0 -0.76414809199E+02 -0.46888909589E+02  0.36378763652E+03  0.39497371734E+03  0.12500000000E+03 0.  0.
         25    1    1    2    0    0 -0.39590041465E+02 -0.40932535205E+02 -0.17021034662E+02  0.13841083571E+03  0.12500000000E+03 0.  0.
         25    1    1    2    0    0  0.11600485066E+03  0.87821444794E+02  0.41931073076E+03  0.46110326443E+03  0.12500000000E+03 0.  0.
</event>
<event>
 5    0  0.6777569E-005  0.2870667E+03  0.7546771E-02  0.1091891E+00
         21   -1    0    0  502  501  0.00000000000E+00  0.00000000000E+00  0.34544134000E+03  0.34544134000E+03  0.00000000000E+00 0.  1.
         21   -1    0    0  501  502 -0.00000000000E+00 -0.00000000000E+00 -0.23855647035E+03  0.23855647035E+03  0.00000000000E+00 0.  1.
         25    1    1    2    0    0  0.15595689573E+01  0.98767606080E+02 -0.68187134414E-02  0.15931877577E+03  0.12500000000E+03 0.  0.
         25    1    1    2    0    0 -0.11343337293E+03  0.55143425319E+02  0.82217981035E+02  0.19568526734E+03  0.12500000000E+03 0.  0.
         25    1    1    2    0    0  0.11187380397E+03 -0.15391103140E+03  0.24673707326E+02  0.22899376724E+03  0.12500000000E+03 0.  0.
</event>
<event>
 5    0  0.5590591E-005  0.5079168E+03  0.7546771E-02  0.1011733E+00
         21   -1    0    0  502  501  0.00000000000E+00  0.00000000000E+00  0.25593517082E+03  0.25593517082E+03  0.00000000000E+00 0.  1.
         21   -1    0    0  501  502 -0.00000000000E+00 -0.00000000000E+00 -0.10079875319E+04  0.10079875319E+04  0.00000000000E+00 0.  1.
         25    1    1    2    0    0  0.31748328376E+03  0.73393359792E+02  0.17281620864E+02  0.34943651090E+03  0.12500000000E+03 0.  0.
         25    1    1    2    0    0  0.16691996020E+02 -0.33010535696E+02 -0.15125557088E+03  0.19967865665E+03  0.12500000000E+03 0.  0.
         25    1    1    2    0    0 -0.33417527978E+03 -0.40382824097E+02 -0.61807841102E+03  0.71480753512E+03  0.12500000000E+03 0.  0.
</event>
<event>
 5    0  0.6202828E-005  0.6415349E+03  0.7546771E-02  0.9822794E-01
         21   -1    0    0  502  501  0.00000000000E+00  0.00000000000E+00  0.11084171807E+04  0.11084171807E+04  0.00000000000E+00 0.  1.
         21   -1    0    0  501  502 -0.00000000000E+00 -0.00000000000E+00 -0.37131053719E+03  0.37131053719E+03  0.00000000000E+00 0.  1.
         25    1    1    2    0    0  0.25629796452E+03  0.88916161236E+02  0.81544336766E+03  0.86842824470E+03  0.12500000000E+03 0.  0.
         25    1    1    2    0    0 -0.13384951202E+03  0.17303819307E+03 -0.14299936461E+03  0.28970972784E+03  0.12500000000E+03 0.  0.
         25    1    1    2    0    0 -0.12244845249E+03 -0.26195435430E+03  0.64662640491E+02  0.32158974538E+03  0.12500000000E+03 0.  0.
</event>
<event>
 5    0  0.5590591E-005  0.4560292E+03  0.7546771E-02  0.1025939E+00
         21   -1    0    0  502  501  0.00000000000E+00  0.00000000000E+00  0.23672839830E+03  0.23672839830E+03  0.00000000000E+00 0. -1.
         21   -1    0    0  501  502 -0.00000000000E+00 -0.00000000000E+00 -0.87848638964E+03  0.87848638964E+03  0.00000000000E+00 0. -1.
         25    1    1    2    0    0 -0.15017648357E+03 -0.99825111960E+02 -0.41986718009E+03  0.47374199530E+03  0.12500000000E+03 0.  0.
         25    1    1    2    0    0  0.26896540859E+03  0.13982247880E+03  0.34715875177E+02  0.32973157050E+03  0.12500000000E+03 0.  0.
         25    1    1    2    0    0 -0.11878892502E+03 -0.39997366842E+02 -0.25660668643E+03  0.31174122214E+03  0.12500000000E+03 0.  0.
</event>
<event>
 5    0  0.5590591E-005  0.2519797E+03  0.7546771E-02  0.1112060E+00
         21   -1    0    0  502  501  0.00000000000E+00  0.00000000000E+00  0.25906165249E+03  0.25906165249E+03  0.00000000000E+00 0. -1.
         21   -1    0    0  501  502 -0.00000000000E+00 -0.00000000000E+00 -0.24509142688E+03  0.24509142688E+03  0.00000000000E+00 0. -1.
         25    1    1    2    0    0 -0.29618305956E+02 -0.11124436687E+03 -0.21591905318E+02  0.17130021478E+03  0.12500000000E+03 0.  0.
         25    1    1    2    0    0 -0.66883565537E+02  0.90509448877E+02 -0.58013833378E+01  0.16829743826E+03  0.12500000000E+03 0.  0.
         25    1    1    2    0    0  0.96501871493E+02  0.20734917994E+02  0.41363514268E+02  0.16455542634E+03  0.12500000000E+03 0.  0.
</event>
<event>
 5    0  0.5590591E-005  0.3913837E+03  0.7546771E-02  0.1046805E+00
         21   -1    0    0  502  501  0.00000000000E+00  0.00000000000E+00  0.12853284937E+04  0.12853284937E+04  0.00000000000E+00 0. -1.
         21   -1    0    0  501  502 -0.00000000000E+00 -0.00000000000E+00 -0.11917670178E+03  0.11917670178E+03  0.00000000000E+00 0. -1.
         25    1    1    2    0    0  0.20283784727E+03 -0.29698460770E+02  0.34249473285E+03  0.41827363399E+03  0.12500000000E+03 0.  0.
         25    1    1    2    0    0  0.12016235335E+01 -0.70726160723E+02  0.24123085025E+02  0.14563844596E+03  0.12500000000E+03 0.  0.
         25    1    1    2    0    0 -0.20403947081E+03  0.10042462149E+03  0.79953397403E+03  0.84059311553E+03  0.12500000000E+03 0.  0.
</event>
<event>
 5    0  0.5590591E-005  0.3029104E+03  0.7546771E-02  0.1083795E+00
         21   -1    0    0  502  501  0.00000000000E+00  0.00000000000E+00  0.38423857634E+02  0.38423857634E+02  0.00000000000E+00 0. -1.
         21   -1    0    0  501  502 -0.00000000000E+00 -0.00000000000E+00 -0.23879616989E+04  0.23879616989E+04  0.00000000000E+00 0. -1.
         25    1    1    2    0    0  0.92924742554E+01 -0.70430418145E+02 -0.10212152029E+04  0.10312867130E+04  0.12500000000E+03 0.  0.
         25    1    1    2    0    0  0.35431726106E+02 -0.33647489269E+02 -0.13661399268E+03  0.19150964400E+03  0.12500000000E+03 0.  0.
         25    1    1    2    0    0 -0.44724200361E+02  0.10407790741E+03 -0.11917086457E+04  0.12035891995E+04  0.12500000000E+03 0.  0.
</event>
<event>
 5    0  0.5590591E-005  0.3965699E+03  0.7546771E-02  0.1044974E+00
         21   -1    0    0  502  501  0.00000000000E+00  0.00000000000E+00  0.15818878186E+03  0.15818878186E+03  0.00000000000E+00 0. -1.
         21   -1    0    0  501  502 -0.00000000000E+00 -0.00000000000E+00 -0.99417720297E+03  0.99417720297E+03  0.00000000000E+00 0. -1.
         25    1    1    2    0    0 -0.27780566237E+02 -0.13295808810E+03 -0.82883587554E+02  0.20234698450E+03  0.12500000000E+03 0.  0.
         25    1    1    2    0    0  0.24578300539E+03  0.12162322883E+03 -0.26678889283E+03  0.40249572528E+03  0.12500000000E+03 0.  0.
         25    1    1    2    0    0 -0.21800243915E+03  0.11334859266E+02 -0.48631594073E+03  0.54752327505E+03  0.12500000000E+03 0.  0.
</event>
<event>
 5    0  0.5590591E-005  0.3362335E+03  0.7546771E-02  0.1068412E+00
         21   -1    0    0  502  501  0.00000000000E+00  0.00000000000E+00  0.90356212284E+02  0.90356212284E+02  0.00000000000E+00 0.  1.
         21   -1    0    0  501  502 -0.00000000000E+00 -0.00000000000E+00 -0.12511919146E+04  0.12511919146E+04  0.00000000000E+00 0.  1.
         25    1    1    2    0    0 -0.63747598521E+02 -0.85502464382E+02 -0.78317116760E+03  0.80022278492E+03  0.12500000000E+03 0.  0.
         25    1    1    2    0    0  0.60328367681E+02  0.17577254842E+03 -0.28090295358E+03  0.35925891785E+03  0.12500000000E+03 0.  0.
         25    1    1    2    0    0  0.34192308399E+01 -0.90270084040E+02 -0.96761581159E+02  0.18206642414E+03  0.12500000000E+03 0.  0.
</event>
<event>
 5    0  0.5590591E-005  0.3285910E+03  0.7546771E-02  0.1071762E+00
         21   -1    0    0  502  501  0.00000000000E+00  0.00000000000E+00  0.27892056620E+03  0.27892056620E+03  0.00000000000E+00 0.  1.
         21   -1    0    0  501  502 -0.00000000000E+00 -0.00000000000E+00 -0.38710681686E+03  0.38710681686E+03  0.00000000000E+00 0.  1.
         25    1    1    2    0    0  0.68032245357E+02 -0.56294729889E+02  0.16659081522E+03  0.22621888236E+03  0.12500000000E+03 0.  0.
         25    1    1    2    0    0 -0.11763230207E+03  0.93506034188E+02 -0.11149078571E+03  0.22502429251E+03  0.12500000000E+03 0.  0.
         25    1    1    2    0    0  0.49600056713E+02 -0.37211304300E+02 -0.16328628018E+03  0.21478420819E+03  0.12500000000E+03 0.  0.
</event>
<event>
 5    0  0.5590591E-005  0.2585070E+03  0.7546771E-02  0.1108044E+00
         21   -1    0    0  502  501  0.00000000000E+00  0.00000000000E+00  0.11400038237E+03  0.11400038237E+03  0.00000000000E+00 0. -1.
         21   -1    0    0  501  502 -0.00000000000E+00 -0.00000000000E+00 -0.58619008451E+03  0.58619008451E+03  0.00000000000E+00 0. -1.
         25    1    1    2    0    0 -0.93997240289E+02  0.67271503196E+02 -0.70691326042E+02  0.18434532785E+03  0.12500000000E+03 0.  0.
         25    1    1    2    0    0  0.11547265675E+03 -0.22013607622E+02 -0.13902686204E+03  0.22084384019E+03  0.12500000000E+03 0.  0.
         25    1    1    2    0    0 -0.21475416464E+02 -0.45257895574E+02 -0.26247151405E+03  0.29500129883E+03  0.12500000000E+03 0.  0.
</event>
<event>
 5    0  0.5590591E-005  0.2792219E+03  0.7546771E-02  0.1096115E+00
         21   -1    0    0  502  501  0.00000000000E+00  0.00000000000E+00  0.12495730080E+03  0.12495730080E+03  0.00000000000E+00 0.  1.
         21   -1    0    0  501  502 -0.00000000000E+00 -0.00000000000E+00 -0.62393196549E+03  0.62393196549E+03  0.00000000000E+00 0.  1.
         25    1    1    2    0    0  0.11192532212E+03  0.28760919753E+02 -0.86117027181E+02  0.19077633660E+03  0.12500000000E+03 0.  0.
         25    1    1    2    0    0  0.53050829202E+02 -0.89190903030E+01 -0.28011624746E+03  0.31142262722E+03  0.12500000000E+03 0.  0.
         25    1    1    2    0    0 -0.16497615132E+03 -0.19841829450E+02 -0.13274139005E+03  0.24669030247E+03  0.12500000000E+03 0.  0.
</event>
<event>
 5    0  0.5590591E-005  0.2814688E+03  0.7546771E-02  0.1094889E+00
         21   -1    0    0  502  501  0.00000000000E+00  0.00000000000E+00  0.13768190607E+04  0.13768190607E+04  0.00000000000E+00 0.  1.
         21   -1    0    0  501  502 -0.00000000000E+00 -0.00000000000E+00 -0.57541848000E+02  0.57541848000E+02  0.00000000000E+00 0.  1.
         25    1    1    2    0    0  0.43275759216E+02  0.84830504432E+02  0.35334786637E+03  0.38671529642E+03  0.12500000000E+03 0.  0.
         25    1    1    2    0    0 -0.14608018003E+03 -0.81272231580E+02  0.74542044475E+03  0.77409381478E+03  0.12500000000E+03 0.  0.
         25    1    1    2    0    0  0.10280442082E+03 -0.35582728521E+01  0.22050890162E+03  0.27355179754E+03  0.12500000000E+03 0.  0.
</event>
<event>
 5    0  0.5590591E-005  0.2628120E+03  0.7546771E-02  0.1105465E+00
         21   -1    0    0  502  501  0.00000000000E+00  0.00000000000E+00  0.68301003041E+02  0.68301003041E+02  0.00000000000E+00 0. -1.
         21   -1    0    0  501  502 -0.00000000000E+00 -0.00000000000E+00 -0.10112612232E+04  0.10112612232E+04  0.00000000000E+00 0. -1.
         25    1    1    2    0    0  0.26356729630E+02  0.11882971428E+03 -0.22310140031E+03  0.28322149108E+03  0.12500000000E+03 0.  0.
         25    1    1    2    0    0  0.32186681154E+02 -0.54083963724E+02 -0.55249734416E+03  0.56994681584E+03  0.12500000000E+03 0.  0.
         25    1    1    2    0    0 -0.58543410784E+02 -0.64745750555E+02 -0.16736147569E+03  0.22639391933E+03  0.12500000000E+03 0.  0.
</event>
<event>
 5    0  0.5590591E-005  0.3251509E+03  0.7546771E-02  0.1073303E+00
         21   -1    0    0  502  501  0.00000000000E+00  0.00000000000E+00  0.48203393967E+02  0.48203393967E+02  0.00000000000E+00 0.  1.
         21   -1    0    0  501  502 -0.00000000000E+00 -0.00000000000E+00 -0.21932710560E+04  0.21932710560E+04  0.00000000000E+00 0.  1.
         25    1    1    2    0    0  0.17197622376E+03 -0.10435115049E+03 -0.55326056728E+03  0.60181993939E+03  0.12500000000E+03 0.  0.
         25    1    1    2    0    0 -0.14479986002E+03  0.65672835673E+00 -0.11921929937E+04  0.12074421581E+04  0.12500000000E+03 0.  0.
         25    1    1    2    0    0 -0.27176363737E+02  0.10369442214E+03 -0.39961410103E+03  0.43221235252E+03  0.12500000000E+03 0.  0.
</event>
<event>
 5    0  0.5590591E-005  0.3239419E+03  0.7546771E-02  0.1073849E+00
         21   -1    0    0  502  501  0.00000000000E+00  0.00000000000E+00  0.92289495735E+03  0.92289495735E+03  0.00000000000E+00 0.  1.
         21   -1    0    0  501  502 -0.00000000000E+00 -0.00000000000E+00 -0.11370565553E+03  0.11370565553E+03  0.00000000000E+00 0.  1.
         25    1    1    2    0    0 -0.14865434836E+03 -0.37197777662E+02  0.14909310615E+03  0.24766013860E+03  0.12500000000E+03 0.  0.
         25    1    1    2    0    0  0.20938351000E+03  0.10977077336E+03  0.34051408986E+03  0.43297335061E+03  0.12500000000E+03 0.  0.
         25    1    1    2    0    0 -0.60729161634E+02 -0.72572995701E+02  0.31958210581E+03  0.35596712367E+03  0.12500000000E+03 0.  0.
</event>
<event>
 5    0  0.5590591E-005  0.2709021E+03  0.7546771E-02  0.1100764E+00
         21   -1    0    0  502  501  0.00000000000E+00  0.00000000000E+00  0.32195366462E+03  0.32195366462E+03  0.00000000000E+00 0.  1.
         21   -1    0    0  501  502 -0.00000000000E+00 -0.00000000000E+00 -0.22794561619E+03  0.22794561619E+03  0.00000000000E+00 0.  1.
         25    1    1    2    0    0 -0.71682561960E+02 -0.13692451347E+03  0.89837699727E+02  0.21813418891E+03  0.12500000000E+03 0.  0.
         25    1    1    2    0    0  0.10169226663E+03  0.28690167330E+02  0.36712689917E+01  0.16371597665E+03  0.12500000000E+03 0.  0.
         25    1    1    2    0    0 -0.30009704675E+02  0.10823434614E+03  0.49907971265E+00  0.16804911526E+03  0.12500000000E+03 0.  0.
</event>
<event>
 5    0  0.7225616E-005  0.3739197E+03  0.7546771E-02  0.1053204E+00
         21   -1    0    0  502  501  0.00000000000E+00  0.00000000000E+00  0.60598616515E+03  0.60598616515E+03  0.00000000000E+00 0. -1.
         21   -1    0    0  501  502 -0.00000000000E+00 -0.00000000000E+00 -0.23072462701E+03  0.23072462701E+03  0.00000000000E+00 0. -1.
         25    1    1    2    0    0  0.82366751502E+02  0.58850607737E+02  0.34033585070E+03  0.37643215466E+03  0.12500000000E+03 0.  0.
         25    1    1    2    0    0 -0.20075361935E+03  0.55245574473E+02  0.65388948558E+02  0.25150507703E+03  0.12500000000E+03 0.  0.
         25    1    1    2    0    0  0.11838686785E+03 -0.11409618221E+03 -0.30463261123E+02  0.20877356047E+03  0.12500000000E+03 0.  0.
</event>
<event>
 5    0  0.5590591E-005  0.3178402E+03  0.7546771E-02  0.1076648E+00
         21   -1    0    0  502  501  0.00000000000E+00  0.00000000000E+00  0.42871180896E+03  0.42871180896E+03  0.00000000000E+00 0.  1.
         21   -1    0    0  501  502 -0.00000000000E+00 -0.00000000000E+00 -0.23564171119E+03  0.23564171119E+03  0.00000000000E+00 0.  1.
         25    1    1    2    0    0  0.56650829517E+02 -0.39997754671E+02 -0.13186170975E+03  0.19447788399E+03  0.12500000000E+03 0.  0.
         25    1    1    2    0    0 -0.37645702120E+02  0.12510982276E+03  0.13132922406E+03  0.22347713917E+03  0.12500000000E+03 0.  0.
         25    1    1    2    0    0 -0.19005127397E+02 -0.85112068090E+02  0.19360258346E+03  0.24639849700E+03  0.12500000000E+03 0.  0.
</event>
<event>
 5    0  0.5590591E-005  0.3119149E+03  0.7546771E-02  0.1079432E+00
         21   -1    0    0  502  501  0.00000000000E+00  0.00000000000E+00  0.71702198927E+03  0.71702198927E+03  0.00000000000E+00 0.  1.
         21   -1    0    0  501  502 -0.00000000000E+00 -0.00000000000E+00 -0.13568743530E+03  0.13568743530E+03  0.00000000000E+00 0.  1.
         25    1    1    2    0    0 -0.34111104667E+02 -0.79242037914E+01  0.45775699735E+03  0.47580755468E+03  0.12500000000E+03 0.  0.
         25    1    1    2    0    0 -0.71596419139E+02 -0.12151047312E+02 -0.34311240280E+02  0.14857979807E+03  0.12500000000E+03 0.  0.
         25    1    1    2    0    0  0.10570752381E+03  0.20075251103E+02  0.15788879690E+03  0.22832207182E+03  0.12500000000E+03 0.  0.
</event>
<event>
 5    0  0.5590591E-005  0.2583235E+03  0.7546771E-02  0.1108155E+00
         21   -1    0    0  502  501  0.00000000000E+00  0.00000000000E+00  0.13703478848E+04  0.13703478848E+04  0.00000000000E+00 0.  1.
         21   -1    0    0  501  502 -0.00000000000E+00 -0.00000000000E+00 -0.48696400739E+02  0.48696400739E+02  0.00000000000E+00 0.  1.
         25    1    1    2    0    0 -0.38278841274E+02  0.11166447028E+03  0.20074822066E+03  0.26430866749E+03  0.12500000000E+03 0.  0.
         25    1    1    2    0    0  0.18627469569E+02 -0.56481872847E+02  0.61017295986E+03  0.62567821245E+03  0.12500000000E+03 0.  0.
         25    1    1    2    0    0  0.19651371705E+02 -0.55182597434E+02  0.51073030353E+03  0.52905740559E+03  0.12500000000E+03 0.  0.
</event>
<event>
 5    0  0.5590591E-005  0.2552173E+03  0.7546771E-02  0.1110051E+00
         21   -1    0    0  502  501  0.00000000000E+00  0.00000000000E+00  0.11022406720E+03  0.11022406720E+03  0.00000000000E+00 0.  1.
         21   -1    0    0  501  502 -0.00000000000E+00 -0.00000000000E+00 -0.59094064404E+03  0.59094064404E+03  0.00000000000E+00 0.  1.
         25    1    1    2    0    0  0.19951719808E+01 -0.97640573296E+02 -0.81944003275E+02  0.17854266139E+03  0.12500000000E+03 0.  0.
         25    1    1    2    0    0  0.85015384147E+02  0.94989139264E+02 -0.26709846015E+03  0.32127424350E+03  0.12500000000E+03 0.  0.
         25    1    1    2    0    0 -0.87010556128E+02  0.26514340323E+01 -0.13167411341E+03  0.20134780635E+03  0.12500000000E+03 0.  0.
</event>
<event>
 5    0  0.5590591E-005  0.2262269E+03  0.7546771E-02  0.1129324E+00
         21   -1    0    0  502  501  0.00000000000E+00  0.00000000000E+00  0.16416358635E+03  0.16416358635E+03  0.00000000000E+00 0. -1.
         21   -1    0    0  501  502 -0.00000000000E+00 -0.00000000000E+00 -0.31175370593E+03  0.31175370593E+03  0.00000000000E+00 0. -1.
         25    1    1    2    0    0  0.64104013147E+01 -0.16066282894E+02  0.27406149967E+02  0.12913293827E+03  0.12500000000E+03 0.  0.
         25    1    1    2    0    0 -0.15812634274E+02 -0.72519286396E+02 -0.95352670289E+02  0.17385688952E+03  0.12500000000E+03 0.  0.
         25    1    1    2    0    0  0.94022329591E+01  0.88585569291E+02 -0.79643599260E+02  0.17292746449E+03  0.12500000000E+03 0.  0.
</event>
<event>
 5    0  0.7198311E-005  0.4267502E+03  0.7546771E-02  0.1034891E+00
         21   -1    0    0  502  501  0.00000000000E+00  0.00000000000E+00  0.85065984692E+03  0.85065984692E+03  0.00000000000E+00 0. -1.
         21   -1    0    0  501  502 -0.00000000000E+00 -0.00000000000E+00 -0.21408763398E+03  0.21408763398E+03  0.00000000000E+00 0. -1.
         25    1    1    2    0    0  0.42671648175E+02  0.60698556240E+02  0.49561055276E+03  0.51648814536E+03  0.12500000000E+03 0.  0.
         25    1    1    2    0    0 -0.14967515130E+03 -0.17816256701E+03  0.20698978100E+03  0.33558057250E+03  0.12500000000E+03 0.  0.
         25    1    1    2    0    0  0.10700350312E+03  0.11746401077E+03 -0.66028120823E+02  0.21267876304E+03  0.12500000000E+03 0.  0.
</event>
<event>
 5    0  0.5590591E-005  0.2994568E+03  0.7546771E-02  0.1085512E+00
         21   -1    0    0  502  501  0.00000000000E+00  0.00000000000E+00  0.49094103534E+03  0.49094103534E+03  0.00000000000E+00 0. -1.
         21   -1    0    0  501  502 -0.00000000000E+00 -0.00000000000E+00 -0.18265816223E+03  0.18265816223E+03  0.00000000000E+00 0. -1.
         25    1    1    2    0    0  0.14635988808E+02  0.13722408610E+03 -0.78974293380E+01  0.18636531695E+03  0.12500000000E+03 0.  0.
         25    1    1    2    0    0 -0.41845307962E+02 -0.14094556312E+02  0.95591516561E+01  0.13291374533E+03  0.12500000000E+03 0.  0.
         25    1    1    2    0    0  0.27209319154E+02 -0.12312952978E+03  0.30662115080E+03  0.35432013529E+03  0.12500000000E+03 0.  0.
</event>
<event>
 5    0  0.5590591E-005  0.2193611E+03  0.7546771E-02  0.1134360E+00
         21   -1    0    0  502  501  0.00000000000E+00  0.00000000000E+00  0.17742360557E+04  0.17742360557E+04  0.00000000000E+00 0. -1.
         21   -1    0    0  501  502 -0.00000000000E+00 -0.00000000000E+00 -0.27121142045E+02  0.27121142045E+02  0.00000000000E+00 0. -1.
         25    1    1    2    0    0  0.62463210042E+02 -0.66196556609E+02  0.54794072075E+03  0.56933967908E+03  0.12500000000E+03 0.  0.
         25    1    1    2    0    0 -0.66442589128E+02  0.66848098517E+02  0.71654612598E+03  0.73344845530E+03  0.12500000000E+03 0.  0.
         25    1    1    2    0    0  0.39793790855E+01 -0.65154190750E+00  0.48262806695E+03  0.49856906340E+03  0.12500000000E+03 0.  0.
</event>
<event>
 5    0  0.5590591E-005  0.4660755E+03  0.7546771E-02  0.1023034E+00
         21   -1    0    0  502  501  0.00000000000E+00  0.00000000000E+00  0.13649778888E+04  0.13649778888E+04  0.00000000000E+00 0.  1.
         21   -1    0    0  501  502 -0.00000000000E+00 -0.00000000000E+00 -0.15914276948E+03  0.15914276948E+03  0.00000000000E+00 0.  1.
         25    1    1    2    0    0  0.14074025667E+02 -0.31325813579E+03  0.63473517407E+03  0.71891757458E+03  0.12500000000E+03 0.  0.
         25    1    1    2    0    0 -0.90218697096E+02  0.29344854914E+03  0.56778906632E+03  0.65746550338E+03  0.12500000000E+03 0.  0.
         25    1    1    2    0    0  0.76144671430E+02  0.19809586651E+02  0.33108788853E+01  0.14773758029E+03  0.12500000000E+03 0.  0.
</event>
<event>
 5    0  0.5590591E-005  0.2880369E+03  0.7546771E-02  0.1091379E+00
         21   -1    0    0  502  501  0.00000000000E+00  0.00000000000E+00  0.26230707243E+04  0.26230707243E+04  0.00000000000E+00 0.  1.
         21   -1    0    0  501  502 -0.00000000000E+00 -0.00000000000E+00 -0.31629058277E+02  0.31629058277E+02  0.00000000000E+00 0.  1.
         25    1    1    2    0    0 -0.79470058024E+02 -0.13519763933E+03  0.15203168020E+04  0.15334868993E+04  0.12500000000E+03 0.  0.
         25    1    1    2    0    0  0.11725938322E+02  0.81545234699E+02  0.30025516722E+03  0.33550750867E+03  0.12500000000E+03 0.  0.
         25    1    1    2    0    0  0.67744119702E+02  0.53652404627E+02  0.77086969678E+03  0.78570537461E+03  0.12500000000E+03 0.  0.
</event>
<event>
 5    0  0.5590591E-005  0.2955143E+03  0.7546771E-02  0.1087505E+00
         21   -1    0    0  502  501  0.00000000000E+00  0.00000000000E+00  0.56017175079E+03  0.56017175079E+03  0.00000000000E+00 0.  1.
         21   -1    0    0  501  502 -0.00000000000E+00 -0.00000000000E+00 -0.15589633650E+03  0.15589633650E+03  0.00000000000E+00 0.  1.
         25    1    1    2    0    0 -0.68738660585E+01  0.91272338458E+01  0.14635527119E+02  0.12637149634E+03  0.12500000000E+03 0.  0.
         25    1    1    2    0    0  0.18441037314E+03  0.78643605028E+01  0.16964365272E+03  0.28013033180E+03  0.12500000000E+03 0.  0.
         25    1    1    2    0    0 -0.17753650709E+03 -0.16991594349E+02  0.21999623446E+03  0.30956625915E+03  0.12500000000E+03 0.  0.
</event>
<event>
 5    0  0.5590591E-005  0.4617750E+03  0.7546771E-02  0.1024268E+00
         21   -1    0    0  502  501  0.00000000000E+00  0.00000000000E+00  0.11998062627E+04  0.11998062627E+04  0.00000000000E+00 0. -1.
         21   -1    0    0  501  502 -0.00000000000E+00 -0.00000000000E+00 -0.17772545163E+03  0.17772545163E+03  0.00000000000E+00 0. -1.
         25    1    1    2    0    0 -0.14332624506E+03 -0.92298470133E+00  0.26111855709E+03  0.32303430976E+03  0.12500000000E+03 0.  0.
         25    1    1    2    0    0  0.37402195512E+03  0.41264153500E+02  0.22377912408E+03  0.45529907715E+03  0.12500000000E+03 0.  0.
         25    1    1    2    0    0 -0.23069571006E+03 -0.40341168799E+02  0.53718312994E+03  0.59919832746E+03  0.12500000000E+03 0.  0.
</event>
<event>
 5    0  0.5590591E-005  0.2131003E+03  0.7546771E-02  0.1139134E+00
         21   -1    0    0  502  501  0.00000000000E+00  0.00000000000E+00  0.21334581747E+04  0.21334581747E+04  0.00000000000E+00 0.  1.
         21   -1    0    0  501  502 -0.00000000000E+00 -0.00000000000E+00 -0.21285510772E+02  0.21285510772E+02  0.00000000000E+00 0.  1.
         25    1    1    2    0    0 -0.33222614644E+02  0.49554678408E+01  0.76104722879E+03  0.77197550689E+03  0.12500000000E+03 0.  0.
         25    1    1    2    0    0 -0.26607361335E+01  0.58953532899E+02  0.47363795443E+03  0.49339690963E+03  0.12500000000E+03 0.  0.
         25    1    1    2    0    0  0.35883350777E+02 -0.63909000740E+02  0.87748748073E+03  0.88937126898E+03  0.12500000000E+03 0.  0.
</event>
<event>
 5    0  0.5590591E-005  0.3012615E+03  0.7546771E-02  0.1084612E+00
         21   -1    0    0  502  501  0.00000000000E+00  0.00000000000E+00  0.71171203655E+03  0.71171203655E+03  0.00000000000E+00 0.  1.
         21   -1    0    0  501  502 -0.00000000000E+00 -0.00000000000E+00 -0.12752133087E+03  0.12752133087E+03  0.00000000000E+00 0.  1.
         25    1    1    2    0    0 -0.64673426358E+02  0.68323830445E+02  0.67641253156E+02  0.17044394097E+03  0.12500000000E+03 0.  0.
         25    1    1    2    0    0  0.10643184926E+03 -0.14828563328E+03  0.13973315734E+03  0.26166146609E+03  0.12500000000E+03 0.  0.
         25    1    1    2    0    0 -0.41758422899E+02  0.79961802838E+02  0.37681629518E+03  0.40712796036E+03  0.12500000000E+03 0.  0.
</event>
<event>
 5    0  0.5590591E-005  0.3548667E+03  0.7546771E-02  0.1060635E+00
         21   -1    0    0  502  501  0.00000000000E+00  0.00000000000E+00  0.16034012693E+03  0.16034012693E+03  0.00000000000E+00 0.  1.
         21   -1    0    0  501  502 -0.00000000000E+00 -0.00000000000E+00 -0.78539530868E+03  0.78539530868E+03  0.00000000000E+00 0.  1.
         25    1    1    2    0    0 -0.19982891032E+03  0.10614522264E+03 -0.34057821366E+03  0.42757095471E+03  0.12500000000E+03 0.  0.
         25    1    1    2    0    0  0.14185430607E+03 -0.29593390435E+02  0.17771216069E+01  0.19138069670E+03  0.12500000000E+03 0.  0.
         25    1    1    2    0    0  0.57974604252E+02 -0.76551832201E+02 -0.28625408969E+03  0.32678378420E+03  0.12500000000E+03 0.  0.
</event>
<event>
 5    0  0.6051692E-005  0.3125824E+03  0.7546771E-02  0.1079115E+00
         21   -1    0    0  502  501  0.00000000000E+00  0.00000000000E+00  0.18730690422E+03  0.18730690422E+03  0.00000000000E+00 0. -1.
         21   -1    0    0  501  502 -0.00000000000E+00 -0.00000000000E+00 -0.52164525897E+03  0.52164525897E+03  0.00000000000E+00 0. -1.
         25    1    1    2    0    0  0.50821087497E+02  0.29463353213E+01 -0.36825608754E+03  0.39221041526E+03  0.12500000000E+03 0.  0.
         25    1    1    2    0    0 -0.48176901587E+02 -0.90491425264E+02  0.27432391237E+02  0.16397331485E+03  0.12500000000E+03 0.  0.
         25    1    1    2    0    0 -0.26441859097E+01  0.87545089943E+02  0.64853415521E+01  0.15276843309E+03  0.12500000000E+03 0.  0.
</event>
<event>
 5    0  0.5590591E-005  0.5819030E+03  0.7546771E-02  0.9943680E-01
         21   -1    0    0  502  501  0.00000000000E+00  0.00000000000E+00  0.67070531036E+03  0.67070531036E+03  0.00000000000E+00 0.  1.
         21   -1    0    0  501  502 -0.00000000000E+00 -0.00000000000E+00 -0.50485817996E+03  0.50485817996E+03  0.00000000000E+00 0.  1.
         25    1    1    2    0    0 -0.22349491947E+03  0.45036822803E+03  0.81607608832E+01  0.51814391617E+03  0.12500000000E+03 0.  0.
         25    1    1    2    0    0  0.21444006269E+03 -0.25270140278E+03 -0.32691758679E+02  0.35571939860E+03  0.12500000000E+03 0.  0.
         25    1    1    2    0    0  0.90548567795E+01 -0.19766682525E+03  0.19037812819E+03  0.30170017555E+03  0.12500000000E+03 0.  0.
</event>
<event>
 5    0  0.5590591E-005  0.2634476E+03  0.7546771E-02  0.1105089E+00
         21   -1    0    0  502  501  0.00000000000E+00  0.00000000000E+00  0.51963485907E+02  0.51963485907E+02  0.00000000000E+00 0.  1.
         21   -1    0    0  501  502 -0.00000000000E+00 -0.00000000000E+00 -0.13356420840E+04  0.13356420840E+04  0.00000000000E+00 0.  1.
         25    1    1    2    0    0  0.74669774251E+02  0.58955972151E+02 -0.39943469263E+03  0.42921376436E+03  0.12500000000E+03 0.  0.
         25    1    1    2    0    0 -0.12426791626E+03 -0.47302112752E+02 -0.24756221320E+03  0.30755821284E+03  0.12500000000E+03 0.  0.
         25    1    1    2    0    0  0.49598142010E+02 -0.11653859399E+02 -0.63668169221E+03  0.65083359265E+03  0.12500000000E+03 0.  0.
</event>
<event>
 5    0  0.5590591E-005  0.3419521E+03  0.7546771E-02  0.1065968E+00
         21   -1    0    0  502  501  0.00000000000E+00  0.00000000000E+00  0.30031876790E+04  0.30031876790E+04  0.00000000000E+00 0.  1.
         21   -1    0    0  501  502 -0.00000000000E+00 -0.00000000000E+00 -0.38935719408E+02  0.38935719408E+02  0.00000000000E+00 0.  1.
         25    1    1    2    0    0 -0.18664048978E+03 -0.26164350881E+02  0.12480384566E+04  0.12683628167E+04  0.12500000000E+03 0.  0.
         25    1    1    2    0    0 -0.60904503637E+02 -0.59207044090E+02  0.44898869675E+03  0.47374115553E+03  0.12500000000E+03 0.  0.
         25    1    1    2    0    0  0.24754499341E+03  0.85371394972E+02  0.12672248063E+04  0.13000194262E+04  0.12500000000E+03 0.  0.
</event>
<event>
 5    0  0.5590591E-005  0.3177418E+03  0.7546771E-02  0.1076693E+00
         21   -1    0    0  502  501  0.00000000000E+00  0.00000000000E+00  0.12781110284E+04  0.12781110284E+04  0.00000000000E+00 0.  1.
         21   -1    0    0  501  502 -0.00000000000E+00 -0.00000000000E+00 -0.78991442658E+02  0.78991442658E+02  0.00000000000E+00 0.  1.
         25    1    1    2    0    0  0.18781416318E+03  0.92179993779E+02  0.30164497201E+03  0.38779633867E+03  0.12500000000E+03 0.  0.
         25    1    1    2    0    0 -0.15500147011E+03 -0.13393809653E+02  0.64259500859E+03  0.67287308977E+03  0.12500000000E+03 0.  0.
         25    1    1    2    0    0 -0.32812693070E+02 -0.78786184126E+02  0.25487960509E+03  0.29643304257E+03  0.12500000000E+03 0.  0.
</event>
<event>
 5    0  0.5590591E-005  0.3940521E+03  0.7546771E-02  0.1045859E+00
         21   -1    0    0  502  501  0.00000000000E+00  0.00000000000E+00  0.32796487174E+03  0.32796487174E+03  0.00000000000E+00 0.  1.
         21   -1    0    0  501  502 -0.00000000000E+00 -0.00000000000E+00 -0.47345638047E+03  0.47345638047E+03  0.00000000000E+00 0.  1.
         25    1    1    2    0    0 -0.79813711773E+02  0.21357125153E+03  0.93551388119E+02  0.27633271664E+03  0.12500000000E+03 0.  0.
         25    1    1    2    0    0 -0.89301656822E+02 -0.28588950613E+01 -0.18840279321E+02  0.15479959728E+03  0.12500000000E+03 0.  0.
         25    1    1    2    0    0  0.16911536859E+03 -0.21071235646E+03 -0.22020261753E+03  0.37028893830E+03  0.12500000000E+03 0.  0.
</event>
<event>
 5    0  0.5590591E-005  0.2029237E+03  0.7546771E-02  0.1147295E+00
         21   -1    0    0  502  501  0.00000000000E+00  0.00000000000E+00  0.61546024035E+03  0.61546024035E+03  0.00000000000E+00 0.  1.
         21   -1    0    0  501  502 -0.00000000000E+00 -0.00000000000E+00 -0.66906069374E+02  0.66906069374E+02  0.00000000000E+00 0.  1.
         25    1    1    2    0    0  0.41886196862E+02  0.37202429662E+02  0.20950539017E+03  0.25031177114E+03  0.12500000000E+03 0.  0.
         25    1    1    2    0    0 -0.13105788205E+02 -0.42345324163E+02  0.12378220900E+03  0.18141643648E+03  0.12500000000E+03 0.  0.
         25    1    1    2    0    0 -0.28780408657E+02  0.51428945010E+01  0.21526657181E+03  0.25063810210E+03  0.12500000000E+03 0.  0.
</event>
<event>
 5    0  0.5590591E-005  0.2816388E+03  0.7546771E-02  0.1094797E+00
         21   -1    0    0  502  501  0.00000000000E+00  0.00000000000E+00  0.40552043867E+03  0.40552043867E+03  0.00000000000E+00 0. -1.
         21   -1    0    0  501  502 -0.00000000000E+00 -0.00000000000E+00 -0.19560149361E+03  0.19560149361E+03  0.00000000000E+00 0. -1.
         25    1    1    2    0    0  0.45970247107E+02 -0.10144144114E+03 -0.33012697073E+02  0.17064134249E+03  0.12500000000E+03 0.  0.
         25    1    1    2    0    0  0.22911746694E+02  0.12791788963E+03  0.21847987643E+03  0.28327793954E+03  0.12500000000E+03 0.  0.
         25    1    1    2    0    0 -0.68881993801E+02 -0.26476448490E+02  0.24451765706E+02  0.14720265025E+03  0.12500000000E+03 0.  0.
</event>
<event>
 5    0  0.5590591E-005  0.3930936E+03  0.7546771E-02  0.1046198E+00
         21   -1    0    0  502  501  0.00000000000E+00  0.00000000000E+00  0.17039739713E+03  0.17039739713E+03  0.00000000000E+00 0.  1.
         21   -1    0    0  501  502 -0.00000000000E+00 -0.00000000000E+00 -0.90683662337E+03  0.90683662337E+03  0.00000000000E+00 0.  1.
         25    1    1    2    0    0 -0.66151611604E+02  0.17690734134E+03 -0.90212449259E+02  0.24379403016E+03  0.12500000000E+03 0.  0.
         25    1    1    2    0    0  0.15401574806E+03 -0.65673556366E+01 -0.55088833765E+03  0.58554841078E+03  0.12500000000E+03 0.  0.
         25    1    1    2    0    0 -0.87864136454E+02 -0.17033998570E+03 -0.95338439337E+02  0.24789157957E+03  0.12500000000E+03 0.  0.
</event>
<event>
 5    0  0.5590591E-005  0.2853542E+03  0.7546771E-02  0.1092800E+00
         21   -1    0    0  502  501  0.00000000000E+00  0.00000000000E+00  0.16021339484E+03  0.16021339484E+03  0.00000000000E+00 0. -1.
         21   -1    0    0  501  502 -0.00000000000E+00 -0.00000000000E+00 -0.50824106308E+03  0.50824106308E+03  0.00000000000E+00 0. -1.
         25    1    1    2    0    0  0.29583270090E+02  0.67974168241E+02 -0.10404701375E+03  0.17873566652E+03  0.12500000000E+03 0.  0.
         25    1    1    2    0    0 -0.11166963513E+03 -0.17068992390E+03 -0.10536775844E+03  0.26140490059E+03  0.12500000000E+03 0.  0.
         25    1    1    2    0    0  0.82086365040E+02  0.10271575566E+03 -0.13861289605E+03  0.22831389081E+03  0.12500000000E+03 0.  0.
</event>
<event>
 5    0  0.5590591E-005  0.2662536E+03  0.7546771E-02  0.1103443E+00
         21   -1    0    0  502  501  0.00000000000E+00  0.00000000000E+00  0.63138980751E+03  0.63138980751E+03  0.00000000000E+00 0.  1.
         21   -1    0    0  501  502 -0.00000000000E+00 -0.00000000000E+00 -0.11227771151E+03  0.11227771151E+03  0.00000000000E+00 0.  1.
         25    1    1    2    0    0  0.54669838932E+02  0.12223942578E+03  0.67280206673E+02  0.19514839152E+03  0.12500000000E+03 0.  0.
         25    1    1    2    0    0  0.36668551429E+02 -0.58009767265E+02  0.18831757523E+03  0.23621647889E+03  0.12500000000E+03 0.  0.
         25    1    1    2    0    0 -0.91338390361E+02 -0.64229658516E+02  0.26351431411E+03  0.31230264861E+03  0.12500000000E+03 0.  0.
</event>
<event>
 5    0  0.5590591E-005  0.4435313E+03  0.7546771E-02  0.1029669E+00
         21   -1    0    0  502  501  0.00000000000E+00  0.00000000000E+00  0.12547427061E+04  0.12547427061E+04  0.00000000000E+00 0. -1.
         21   -1    0    0  501  502 -0.00000000000E+00 -0.00000000000E+00 -0.15678112606E+03  0.15678112606E+03  0.00000000000E+00 0. -1.
         25    1    1    2    0    0 -0.51794351000E+02  0.82222545865E+02  0.52652300653E+02  0.16685462717E+03  0.12500000000E+03 0.  0.
         25    1    1    2    0    0  0.21061469543E+03 -0.19155212736E+03  0.20240174015E+03  0.37100166016E+03  0.12500000000E+03 0.  0.
         25    1    1    2    0    0 -0.15882034443E+03  0.10932958150E+03  0.84290753922E+03  0.87366754482E+03  0.12500000000E+03 0.  0.
</event>
<event>
 5    0  0.5590591E-005  0.2582216E+03  0.7546771E-02  0.1108216E+00
         21   -1    0    0  502  501  0.00000000000E+00  0.00000000000E+00  0.10474200982E+03  0.10474200982E+03  0.00000000000E+00 0.  1.
         21   -1    0    0  501  502 -0.00000000000E+00 -0.00000000000E+00 -0.63659635521E+03  0.63659635521E+03  0.00000000000E+00 0.  1.
         25    1    1    2    0    0  0.27438078384E+02  0.64565692178E+02 -0.58883882512E+02  0.15496415189E+03  0.12500000000E+03 0.  0.
         25    1    1    2    0    0  0.85921884185E+02  0.23790639942E+02 -0.24701848748E+03  0.29084651947E+03  0.12500000000E+03 0.  0.
         25    1    1    2    0    0 -0.11335996257E+03 -0.88356332120E+02 -0.22595197540E+03  0.29552769367E+03  0.12500000000E+03 0.  0.
</event>
<event>
 5    0  0.5590591E-005  0.2932286E+03  0.7546771E-02  0.1088675E+00
         21   -1    0    0  502  501  0.00000000000E+00  0.00000000000E+00  0.14867228289E+04  0.14867228289E+04  0.00000000000E+00 0.  1.
         21   -1    0    0  501  502 -0.00000000000E+00 -0.00000000000E+00 -0.57833927837E+02  0.57833927837E+02  0.00000000000E+00 0.  1.
         25    1    1    2    0    0  0.50675384642E+02  0.58186880014E+02  0.54253883793E+03  0.56207392599E+03  0.12500000000E+03 0.  0.
         25    1    1    2    0    0 -0.14157658690E+03  0.24938276922E+02  0.20910922905E+03  0.28287367727E+03  0.12500000000E+03 0.  0.
         25    1    1    2    0    0  0.90901202262E+02 -0.83125156936E+02  0.67724083407E+03  0.69960915347E+03  0.12500000000E+03 0.  0.
</event>
<event>
 5    0  0.5590591E-005  0.3332185E+03  0.7546771E-02  0.1069722E+00
         21   -1    0    0  502  501  0.00000000000E+00  0.00000000000E+00  0.30714727755E+03  0.30714727755E+03  0.00000000000E+00 0. -1.
         21   -1    0    0  501  502 -0.00000000000E+00 -0.00000000000E+00 -0.36150271340E+03  0.36150271340E+03  0.00000000000E+00 0. -1.
         25    1    1    2    0    0  0.16496943008E+03  0.14980729805E+03  0.10928851455E+03  0.27789587767E+03  0.12500000000E+03 0.  0.
         25    1    1    2    0    0 -0.55407146092E+02 -0.16095879299E+02 -0.92566814496E+02  0.16589950065E+03  0.12500000000E+03 0.  0.
         25    1    1    2    0    0 -0.10956228399E+03 -0.13371141876E+03 -0.71077135907E+02  0.22485461264E+03  0.12500000000E+03 0.  0.
</event>
<event>
 5    0  0.5590591E-005  0.3420579E+03  0.7546771E-02  0.1065923E+00
         21   -1    0    0  502  501  0.00000000000E+00  0.00000000000E+00  0.47017011586E+03  0.47017011586E+03  0.00000000000E+00 0. -1.
         21   -1    0    0  501  502 -0.00000000000E+00 -0.00000000000E+00 -0.24885383688E+03  0.24885383688E+03  0.00000000000E+00 0. -1.
         25    1    1    2    0    0 -0.14631059764E+03  0.12223853989E+03  0.13462441122E+03  0.26475986046E+03  0.12500000000E+03 0.  0.
         25    1    1    2    0    0 -0.47415908892E+02 -0.93175578136E+02  0.14115206486E+03  0.21558956884E+03  0.12500000000E+03 0.  0.
         25    1    1    2    0    0  0.19372650653E+03 -0.29062961752E+02 -0.54460197100E+02  0.23867452345E+03  0.12500000000E+03 0.  0.
</event>
<event>
 5    0  0.5590591E-005  0.2982373E+03  0.7546771E-02  0.1086125E+00
         21   -1    0    0  502  501  0.00000000000E+00  0.00000000000E+00  0.64131840607E+03  0.64131840607E+03  0.00000000000E+00 0.  1.
         21   -1    0    0  501  502 -0.00000000000E+00 -0.00000000000E+00 -0.13869157295E+03  0.13869157295E+03  0.00000000000E+00 0.  1.
         25    1    1    2    0    0  0.43065967258E+02  0.14255588078E+03  0.21212653467E+03  0.28774906324E+03  0.12500000000E+03 0.  0.
         25    1    1    2    0    0 -0.15194880626E+03 -0.11855648035E+03  0.17547049995E+03  0.28906569341E+03  0.12500000000E+03 0.  0.
         25    1    1    2    0    0  0.10888283900E+03 -0.23999400435E+02  0.11502979850E+03  0.20319522237E+03  0.12500000000E+03 0.  0.
</event>
<event>
 5    0  0.5590591E-005  0.2457011E+03  0.7546771E-02  0.1116052E+00
         21   -1    0    0  502  501  0.00000000000E+00  0.00000000000E+00  0.21547721186E+03  0.21547721186E+03  0.00000000000E+00 0. -1.
         21   -1    0    0  501  502 -0.00000000000E+00 -0.00000000000E+00 -0.28016428927E+03  0.28016428927E+03  0.00000000000E+00 0. -1.
         25    1    1    2    0    0 -0.99592530324E+02  0.17250560771E+02  0.38999739540E+02  0.16541533674E+03  0.12500000000E+03 0.  0.
         25    1    1    2    0    0  0.58505404276E+02 -0.86965982792E+02 -0.70243808329E+02  0.17760956365E+03  0.12500000000E+03 0.  0.
         25    1    1    2    0    0  0.41087126048E+02  0.69715422021E+02 -0.33443008621E+02  0.15261660074E+03  0.12500000000E+03 0.  0.
</event>
<event>
 5    0  0.5590591E-005  0.3600319E+03  0.7546771E-02  0.1058571E+00
         21   -1    0    0  502  501  0.00000000000E+00  0.00000000000E+00  0.10969214927E+04  0.10969214927E+04  0.00000000000E+00 0.  1.
         21   -1    0    0  501  502 -0.00000000000E+00 -0.00000000000E+00 -0.11816979098E+03  0.11816979098E+03  0.00000000000E+00 0.  1.
         25    1    1    2    0    0 -0.10275814421E+01  0.10892176931E+03  0.35791339193E+03  0.39445152285E+03  0.12500000000E+03 0.  0.
         25    1    1    2    0    0 -0.34879224178E+02  0.13930893647E+03  0.45925518731E+03  0.49715577753E+03  0.12500000000E+03 0.  0.
         25    1    1    2    0    0  0.35906805620E+02 -0.24823070578E+03  0.16158312245E+03  0.32348398328E+03  0.12500000000E+03 0.  0.
</event>
<event>
 5    0  0.5590591E-005  0.3002155E+03  0.7546771E-02  0.1085133E+00
         21   -1    0    0  502  501  0.00000000000E+00  0.00000000000E+00  0.18980289182E+03  0.18980289182E+03  0.00000000000E+00 0. -1.
         21   -1    0    0  501  502 -0.00000000000E+00 -0.00000000000E+00 -0.47485766291E+03  0.47485766291E+03  0.00000000000E+00 0. -1.
         25    1    1    2    0    0  0.58963826319E+02  0.68030783358E+02  0.99973555793E+02  0.18364267520E+03  0.12500000000E+03 0.  0.
         25    1    1    2    0    0  0.16169115709E+02 -0.55519610224E+01 -0.20819988418E+03  0.24344292216E+03  0.12500000000E+03 0.  0.
         25    1    1    2    0    0 -0.75132942028E+02 -0.62478822335E+02 -0.17682844270E+03  0.23757495737E+03  0.12500000000E+03 0.  0.
</event>
<event>
 5    0  0.5590591E-005  0.4105646E+03  0.7546771E-02  0.1040182E+00
         21   -1    0    0  502  501  0.00000000000E+00  0.00000000000E+00  0.38757669506E+03  0.38757669506E+03  0.00000000000E+00 0. -1.
         21   -1    0    0  501  502 -0.00000000000E+00 -0.00000000000E+00 -0.43491596385E+03  0.43491596385E+03  0.00000000000E+00 0. -1.
         25    1    1    2    0    0  0.18135535516E+03 -0.11836218982E+03 -0.43692024967E+02  0.25383728227E+03  0.12500000000E+03 0.  0.
         25    1    1    2    0    0 -0.17854833924E+03  0.21624218593E+03  0.15522616889E+03  0.34403539924E+03  0.12500000000E+03 0.  0.
         25    1    1    2    0    0 -0.28070159203E+01 -0.97879996114E+02 -0.15887341272E+03  0.22461997740E+03  0.12500000000E+03 0.  0.
</event>
<event>
 5    0  0.5590591E-005  0.3203165E+03  0.7546771E-02  0.1075504E+00
         21   -1    0    0  502  501  0.00000000000E+00  0.00000000000E+00  0.10564938351E+04  0.10564938351E+04  0.00000000000E+00 0. -1.
         21   -1    0    0  501  502 -0.00000000000E+00 -0.00000000000E+00 -0.97116169830E+02  0.97116169830E+02  0.00000000000E+00 0. -1.
         25    1    1    2    0    0  0.19640656268E+03 -0.54230089181E+02  0.52020094507E+03  0.57249494643E+03  0.12500000000E+03 0.  0.
         25    1    1    2    0    0  0.16266641344E+02  0.35436683184E+02  0.18252611574E+03  0.22463558281E+03  0.12500000000E+03 0.  0.
         25    1    1    2    0    0 -0.21267320402E+03  0.18793405997E+02  0.25665060444E+03  0.35647947568E+03  0.12500000000E+03 0.  0.
</event>
<event>
 5    0  0.5590591E-005  0.4292641E+03  0.7546771E-02  0.1034093E+00
         21   -1    0    0  502  501  0.00000000000E+00  0.00000000000E+00  0.44835218180E+03  0.44835218180E+03  0.00000000000E+00 0. -1.
         21   -1    0    0  501  502 -0.00000000000E+00 -0.00000000000E+00 -0.41098871723E+03  0.41098871723E+03  0.00000000000E+00 0. -1.
         25    1    1    2    0    0 -0.10529812793E+03  0.18583967896E+02 -0.23876272709E+03  0.28994085510E+03  0.12500000000E+03 0.  0.
         25    1    1    2    0    0  0.25845595586E+03 -0.24680449264E+02  0.22366771795E+03  0.36477507281E+03  0.12500000000E+03 0.  0.
         25    1    1    2    0    0 -0.15315782793E+03  0.60964813683E+01  0.52458473704E+02  0.20462497112E+03  0.12500000000E+03 0.  0.
</event>
<event>
 5    0  0.5590591E-005  0.2825402E+03  0.7546771E-02  0.1094310E+00
         21   -1    0    0  502  501  0.00000000000E+00  0.00000000000E+00  0.99086908245E+03  0.99086908245E+03  0.00000000000E+00 0. -1.
         21   -1    0    0  501  502 -0.00000000000E+00 -0.00000000000E+00 -0.80564606672E+02  0.80564606672E+02  0.00000000000E+00 0. -1.
         25    1    1    2    0    0  0.13541618754E+03  0.10351674299E+03  0.20469040779E+03  0.29423871766E+03  0.12500000000E+03 0.  0.
         25    1    1    2    0    0 -0.10696097178E+03 -0.21700965823E+02  0.28317060617E+03  0.32821056290E+03  0.12500000000E+03 0.  0.
         25    1    1    2    0    0 -0.28455215762E+02 -0.81815777168E+02  0.42244346182E+03  0.44898440856E+03  0.12500000000E+03 0.  0.
</event>
<event>
 5    0  0.5590591E-005  0.2537328E+03  0.7546771E-02  0.1110968E+00
         21   -1    0    0  502  501  0.00000000000E+00  0.00000000000E+00  0.46393417979E+02  0.46393417979E+02  0.00000000000E+00 0. -1.
         21   -1    0    0  501  502 -0.00000000000E+00 -0.00000000000E+00 -0.13877039211E+04  0.13877039211E+04  0.00000000000E+00 0. -1.
         25    1    1    2    0    0 -0.97599458282E+02 -0.28239279629E+02 -0.37327444687E+03  0.40654879640E+03  0.12500000000E+03 0.  0.
         25    1    1    2    0    0  0.10427492627E+03  0.10751125021E+03 -0.50431428461E+03  0.54073082660E+03  0.12500000000E+03 0.  0.
         25    1    1    2    0    0 -0.66754679915E+01 -0.79271970584E+02 -0.46372177165E+03  0.48681771609E+03  0.12500000000E+03 0.  0.
</event>
<event>
 5    0  0.5590591E-005  0.2793730E+03  0.7546771E-02  0.1096032E+00
         21   -1    0    0  502  501  0.00000000000E+00  0.00000000000E+00  0.14800933122E+03  0.14800933122E+03  0.00000000000E+00 0.  1.
         21   -1    0    0  501  502 -0.00000000000E+00 -0.00000000000E+00 -0.52732668561E+03  0.52732668561E+03  0.00000000000E+00 0.  1.
         25    1    1    2    0    0 -0.15362980240E+03 -0.40304452249E+02 -0.74894962153E+02  0.21554772189E+03  0.12500000000E+03 0.  0.
         25    1    1    2    0    0  0.49170226475E+02  0.69653364211E+02 -0.56137977082E+02  0.16138703414E+03  0.12500000000E+03 0.  0.
         25    1    1    2    0    0  0.10445957592E+03 -0.29348911962E+02 -0.24828441516E+03  0.29840126080E+03  0.12500000000E+03 0.  0.
</event>
<event>
 5    0  0.5590591E-005  0.3091345E+03  0.7546771E-02  0.1080761E+00
         21   -1    0    0  502  501  0.00000000000E+00  0.00000000000E+00  0.29184141991E+03  0.29184141991E+03  0.00000000000E+00 0. -1.
         21   -1    0    0  501  502 -0.00000000000E+00 -0.00000000000E+00 -0.32745230087E+03  0.32745230087E+03  0.00000000000E+00 0. -1.
         25    1    1    2    0    0  0.51244916939E+02  0.34023337418E+02 -0.17960849679E+03  0.22730561172E+03  0.12500000000E+03 0.  0.
         25    1    1    2    0    0  0.78153825388E+02 -0.42522915314E+02  0.14609578099E+03  0.21186126586E+03  0.12500000000E+03 0.  0.
         25    1    1    2    0    0 -0.12939874233E+03  0.84995778963E+01 -0.20981651534E+01  0.18012684319E+03  0.12500000000E+03 0.  0.
</event>
<event>
 5    0  0.7900160E-005  0.3320931E+03  0.7546771E-02  0.1070214E+00
         21   -1    0    0  502  501  0.00000000000E+00  0.00000000000E+00  0.16299854543E+03  0.16299854543E+03  0.00000000000E+00 0. -1.
         21   -1    0    0  501  502 -0.00000000000E+00 -0.00000000000E+00 -0.67660605719E+03  0.67660605719E+03  0.00000000000E+00 0. -1.
         25    1    1    2    0    0 -0.43886993376E+02 -0.70435632211E+02  0.47045985352E+02  0.15724366827E+03  0.12500000000E+03 0.  0.
         25    1    1    2    0    0 -0.21007270258E+02 -0.10291505901E+03 -0.27410140674E+03  0.31904450465E+03  0.12500000000E+03 0.  0.
         25    1    1    2    0    0  0.64894263634E+02  0.17335069122E+03 -0.28655209037E+03  0.36331642970E+03  0.12500000000E+03 0.  0.
</event>
<event>
 5    0  0.5590591E-005  0.2930610E+03  0.7546771E-02  0.1088762E+00
         21   -1    0    0  502  501  0.00000000000E+00  0.00000000000E+00  0.50321720867E+03  0.50321720867E+03  0.00000000000E+00 0. -1.
         21   -1    0    0  501  502 -0.00000000000E+00 -0.00000000000E+00 -0.17067135834E+03  0.17067135834E+03  0.00000000000E+00 0. -1.
         25    1    1    2    0    0 -0.66531671319E+02  0.31064684327E+01  0.21370982039E+03  0.25638447840E+03  0.12500000000E+03 0.  0.
         25    1    1    2    0    0  0.15425334678E+03  0.85433750461E+02  0.10540060664E+03  0.24047309328E+03  0.12500000000E+03 0.  0.
         25    1    1    2    0    0 -0.87721675466E+02 -0.88540218894E+02  0.13435423300E+02  0.17703099533E+03  0.12500000000E+03 0.  0.
</event>
<event>
 5    0  0.5590591E-005  0.6482151E+03  0.7546771E-02  0.9810134E-01
         21   -1    0    0  502  501  0.00000000000E+00  0.00000000000E+00  0.86902893734E+03  0.86902893734E+03  0.00000000000E+00 0. -1.
         21   -1    0    0  501  502 -0.00000000000E+00 -0.00000000000E+00 -0.48350849993E+03  0.48350849993E+03  0.00000000000E+00 0. -1.
         25    1    1    2    0    0  0.56792803934E+03 -0.93272077029E+02 -0.14208344279E+02  0.58912546649E+03  0.12500000000E+03 0.  0.
         25    1    1    2    0    0 -0.42962154271E+03  0.11489272609E+03  0.26720793506E+03  0.53366664598E+03  0.12500000000E+03 0.  0.
         25    1    1    2    0    0 -0.13830649663E+03 -0.21620649059E+02  0.13252084663E+03  0.22974532480E+03  0.12500000000E+03 0.  0.
</event>
<event>
 5    0  0.5590591E-005  0.2773984E+03  0.7546771E-02  0.1097118E+00
         21   -1    0    0  502  501  0.00000000000E+00  0.00000000000E+00  0.21099853059E+03  0.21099853059E+03  0.00000000000E+00 0. -1.
         21   -1    0    0  501  502 -0.00000000000E+00 -0.00000000000E+00 -0.36469393220E+03  0.36469393220E+03  0.00000000000E+00 0. -1.
         25    1    1    2    0    0 -0.11291174826E+03 -0.10211105264E+03 -0.89455022281E+01  0.19718202752E+03  0.12500000000E+03 0.  0.
         25    1    1    2    0    0  0.32450816258E+01  0.13011980884E+03 -0.86312918204E+02  0.20004153333E+03  0.12500000000E+03 0.  0.
         25    1    1    2    0    0  0.10966666663E+03 -0.28008756204E+02 -0.58436981178E+02  0.17846890195E+03  0.12500000000E+03 0.  0.
</event>
<event>
 5    0  0.5590591E-005  0.2283113E+03  0.7546771E-02  0.1127834E+00
         21   -1    0    0  502  501  0.00000000000E+00  0.00000000000E+00  0.38603033293E+03  0.38603033293E+03  0.00000000000E+00 0.  1.
         21   -1    0    0  501  502 -0.00000000000E+00 -0.00000000000E+00 -0.13503097820E+03  0.13503097820E+03  0.00000000000E+00 0.  1.
         25    1    1    2    0    0  0.47492405966E+02  0.27318308825E+01  0.12284534782E+03  0.18160113162E+03  0.12500000000E+03 0.  0.
         25    1    1    2    0    0  0.42540731241E+02 -0.66226252928E+02  0.59740740736E+02  0.15934110109E+03  0.12500000000E+03 0.  0.
         25    1    1    2    0    0 -0.90033137207E+02  0.63494422046E+02  0.68413266174E+02  0.18011907843E+03  0.12500000000E+03 0.  0.
</event>
<event>
 5    0  0.5590591E-005  0.4290868E+03  0.7546771E-02  0.1034149E+00
         21   -1    0    0  502  501  0.00000000000E+00  0.00000000000E+00  0.12599877678E+04  0.12599877678E+04  0.00000000000E+00 0. -1.
         21   -1    0    0  501  502 -0.00000000000E+00 -0.00000000000E+00 -0.14612484551E+03  0.14612484551E+03  0.00000000000E+00 0.  1.
         25    1    1    2    0    0 -0.14438991358E+03  0.16646845545E+01  0.14801313230E+03  0.24162803159E+03  0.12500000000E+03 0.  0.
         25    1    1    2    0    0  0.12162079763E+03  0.28649913848E+03  0.48493125445E+03  0.58962419922E+03  0.12500000000E+03 0.  0.
         25    1    1    2    0    0  0.22769115948E+02 -0.28816382304E+03  0.48091853557E+03  0.57486038253E+03  0.12500000000E+03 0.  0.
</event>
<event>
 5    0  0.5590591E-005  0.3861320E+03  0.7546771E-02  0.1048690E+00
         21   -1    0    0  502  501  0.00000000000E+00  0.00000000000E+00  0.12088411643E+04  0.12088411643E+04  0.00000000000E+00 0.  1.
         21   -1    0    0  501  502 -0.00000000000E+00 -0.00000000000E+00 -0.12333954964E+03  0.12333954964E+03  0.00000000000E+00 0.  1.
         25    1    1    2    0    0 -0.16274627849E+03  0.22294563060E+03  0.47812671581E+03  0.56605764877E+03  0.12500000000E+03 0.  0.
         25    1    1    2    0    0  0.12266196621E+03 -0.53936370597E+02  0.85774555812E+02  0.20232984073E+03  0.12500000000E+03 0.  0.
         25    1    1    2    0    0  0.40084312287E+02 -0.16900926000E+03  0.52160034309E+03  0.56379322448E+03  0.12500000000E+03 0.  0.
</event>
<event>
 5    0  0.5590591E-005  0.3132416E+03  0.7546771E-02  0.1078802E+00
         21   -1    0    0  502  501  0.00000000000E+00  0.00000000000E+00  0.21784654634E+03  0.21784654634E+03  0.00000000000E+00 0.  1.
         21   -1    0    0  501  502 -0.00000000000E+00 -0.00000000000E+00 -0.45041005838E+03  0.45041005838E+03  0.00000000000E+00 0.  1.
         25    1    1    2    0    0  0.56208559190E+02 -0.14341672343E+03 -0.16254941594E+03  0.25646651108E+03  0.12500000000E+03 0.  0.
         25    1    1    2    0    0 -0.30895476898E+02 -0.29278594616E+02 -0.13364224966E+03  0.18787500496E+03  0.12500000000E+03 0.  0.
         25    1    1    2    0    0 -0.25313082292E+02  0.17269531804E+03  0.63628153566E+02  0.22391508867E+03  0.12500000000E+03 0.  0.
</event>
<event>
 5    0  0.5747178E-005  0.3933892E+03  0.7546771E-02  0.1046093E+00
         21   -1    0    0  502  501  0.00000000000E+00  0.00000000000E+00  0.23361192749E+03  0.23361192749E+03  0.00000000000E+00 0.  1.
         21   -1    0    0  501  502 -0.00000000000E+00 -0.00000000000E+00 -0.66244510130E+03  0.66244510130E+03  0.00000000000E+00 0.  1.
         25    1    1    2    0    0  0.94566791787E+02  0.14556291638E+03 -0.21636744004E+03  0.30425533659E+03  0.12500000000E+03 0.  0.
         25    1    1    2    0    0 -0.15823079481E+03 -0.58632510737E+02 -0.32862321135E+03  0.38999098807E+03  0.12500000000E+03 0.  0.
         25    1    1    2    0    0  0.63664003025E+02 -0.86930405644E+02  0.11615747757E+03  0.20181070413E+03  0.12500000000E+03 0.  0.
</event>
<event>
 5    0  0.5590591E-005  0.3641245E+03  0.7546771E-02  0.1056963E+00
         21   -1    0    0  502  501  0.00000000000E+00  0.00000000000E+00  0.19577266383E+03  0.19577266383E+03  0.00000000000E+00 0. -1.
         21   -1    0    0  501  502 -0.00000000000E+00 -0.00000000000E+00 -0.67724809766E+03  0.67724809766E+03  0.00000000000E+00 0. -1.
         25    1    1    2    0    0 -0.16369683825E+03 -0.14864509396E+03 -0.24469321888E+03  0.35269220317E+03  0.12500000000E+03 0.  0.
         25    1    1    2    0    0  0.36998465232E+02 -0.19202288706E+02 -0.24209116321E+03  0.27562791155E+03  0.12500000000E+03 0.  0.
         25    1    1    2    0    0  0.12669837302E+03  0.16784738266E+03  0.53089482637E+01  0.24470064676E+03  0.12500000000E+03 0.  0.
</event>
<event>
 5    0  0.5590591E-005  0.3186164E+03  0.7546771E-02  0.1076288E+00
         21   -1    0    0  502  501  0.00000000000E+00  0.00000000000E+00  0.30413091161E+03  0.30413091161E+03  0.00000000000E+00 0. -1.
         21   -1    0    0  501  502 -0.00000000000E+00 -0.00000000000E+00 -0.33379179684E+03  0.33379179684E+03  0.00000000000E+00 0. -1.
         25    1    1    2    0    0  0.62924228878E+02 -0.19260300507E+03 -0.17051882549E+02  0.23868628540E+03  0.12500000000E+03 0.  0.
         25    1    1    2    0    0  0.80745353717E+02  0.39176989714E+02 -0.15563460051E+02  0.15466696467E+03  0.12500000000E+03 0.  0.
         25    1    1    2    0    0 -0.14366958259E+03  0.15342601535E+03  0.29544573716E+01  0.24456945837E+03  0.12500000000E+03 0.  0.
</event>
<event>
 5    0  0.5590591E-005  0.3128508E+03  0.7546771E-02  0.1078987E+00
         21   -1    0    0  502  501  0.00000000000E+00  0.00000000000E+00  0.58896468398E+03  0.58896468398E+03  0.00000000000E+00 0. -1.
         21   -1    0    0  501  502 -0.00000000000E+00 -0.00000000000E+00 -0.16618244987E+03  0.16618244987E+03  0.00000000000E+00 0. -1.
         25    1    1    2    0    0  0.13118430935E+03  0.17524729639E+03  0.15251407652E+03  0.29462939679E+03  0.12500000000E+03 0.  0.
         25    1    1    2    0    0 -0.11669550943E+03 -0.15041906012E+03  0.23553292053E+03  0.32763469325E+03  0.12500000000E+03 0.  0.
         25    1    1    2    0    0 -0.14488799917E+02 -0.24828236277E+02  0.34735237056E+02  0.13288304381E+03  0.12500000000E+03 0.  0.
</event>
<event>
 5    0  0.6271240E-005  0.2887192E+03  0.7546771E-02  0.1091020E+00
         21   -1    0    0  502  501  0.00000000000E+00  0.00000000000E+00  0.45955309415E+03  0.45955309415E+03  0.00000000000E+00 0.  1.
         21   -1    0    0  501  502 -0.00000000000E+00 -0.00000000000E+00 -0.18139096004E+03  0.18139096004E+03  0.00000000000E+00 0.  1.
         25    1    1    2    0    0 -0.50995574541E+02  0.28891991299E+02  0.36862978694E+00  0.13805952221E+03  0.12500000000E+03 0.  0.
         25    1    1    2    0    0  0.13994310332E+03  0.81262052502E+02  0.23061615451E+03  0.30821486671E+03  0.12500000000E+03 0.  0.
         25    1    1    2    0    0 -0.88947528778E+02 -0.11015404380E+03  0.47177349812E+02  0.19466966527E+03  0.12500000000E+03 0.  0.
</event>
<event>
 5    0  0.5590591E-005  0.2910171E+03  0.7546771E-02  0.1089819E+00
         21   -1    0    0  502  501  0.00000000000E+00  0.00000000000E+00  0.57046446159E+02  0.57046446159E+02  0.00000000000E+00 0.  1.
         21   -1    0    0  501  502 -0.00000000000E+00 -0.00000000000E+00 -0.14845966871E+04  0.14845966871E+04  0.00000000000E+00 0.  1.
         25    1    1    2    0    0 -0.73641959461E+01  0.91133713857E+02 -0.33955708090E+03  0.37320717621E+03  0.12500000000E+03 0.  0.
         25    1    1    2    0    0  0.69290188008E+02 -0.68289259305E+02 -0.14447887934E+03  0.21439146361E+03  0.12500000000E+03 0.  0.
         25    1    1    2    0    0 -0.61925992062E+02 -0.22844454552E+02 -0.94351428067E+03  0.95404449342E+03  0.12500000000E+03 0.  0.
</event>
<event>
 5    0  0.5590591E-005  0.5279482E+03  0.7546771E-02  0.1006731E+00
         21   -1    0    0  502  501  0.00000000000E+00  0.00000000000E+00  0.55605197393E+03  0.55605197393E+03  0.00000000000E+00 0.  1.
         21   -1    0    0  501  502 -0.00000000000E+00 -0.00000000000E+00 -0.50126487440E+03  0.50126487440E+03  0.00000000000E+00 0.  1.
         25    1    1    2    0    0 -0.35984466718E+03  0.10633549561E+03  0.32855628080E+03  0.51416889422E+03  0.12500000000E+03 0.  0.
         25    1    1    2    0    0  0.22175922374E+03 -0.63454567622E+02 -0.22566919920E+03  0.34605667590E+03  0.12500000000E+03 0.  0.
         25    1    1    2    0    0  0.13808544344E+03 -0.42880927991E+02 -0.48099982078E+02  0.19709127822E+03  0.12500000000E+03 0.  0.
</event>
<event>
 5    0  0.5590591E-005  0.2466163E+03  0.7546771E-02  0.1115462E+00
         21   -1    0    0  502  501  0.00000000000E+00  0.00000000000E+00  0.23402259832E+03  0.23402259832E+03  0.00000000000E+00 0. -1.
         21   -1    0    0  501  502 -0.00000000000E+00 -0.00000000000E+00 -0.25988771856E+03  0.25988771856E+03  0.00000000000E+00 0. -1.
         25    1    1    2    0    0 -0.72674596222E+02 -0.56589929562E+01  0.91261466121E+02  0.17107681414E+03  0.12500000000E+03 0.  0.
         25    1    1    2    0    0  0.11249534543E+03 -0.88511208952E+01 -0.56905303762E+02  0.17775477119E+03  0.12500000000E+03 0.  0.
         25    1    1    2    0    0 -0.39820749212E+02  0.14510113851E+02 -0.60221282594E+02  0.14507873155E+03  0.12500000000E+03 0.  0.
</event>
<event>
 5    0  0.5590591E-005  0.2602254E+03  0.7546771E-02  0.1107008E+00
         21   -1    0    0  502  501  0.00000000000E+00  0.00000000000E+00  0.51310046565E+03  0.51310046565E+03  0.00000000000E+00 0.  1.
         21   -1    0    0  501  502 -0.00000000000E+00 -0.00000000000E+00 -0.13197659157E+03  0.13197659157E+03  0.00000000000E+00 0.  1.
         25    1    1    2    0    0 -0.84576825980E+02  0.72001998947E+02  0.26718638913E+03  0.31520008548E+03  0.12500000000E+03 0.  0.
         25    1    1    2    0    0  0.27830670403E+02 -0.10613431188E+03  0.79188889084E+02  0.18421432769E+03  0.12500000000E+03 0.  0.
         25    1    1    2    0    0  0.56746155577E+02  0.34132312935E+02  0.34748595863E+02  0.14566264406E+03  0.12500000000E+03 0.  0.
</event>
<event>
 5    0  0.5989497E-005  0.4234768E+03  0.7546771E-02  0.1035941E+00
         21   -1    0    0  502  501  0.00000000000E+00  0.00000000000E+00  0.71303099611E+03  0.71303099611E+03  0.00000000000E+00 0.  1.
         21   -1    0    0  501  502 -0.00000000000E+00 -0.00000000000E+00 -0.25150743763E+03  0.25150743763E+03  0.00000000000E+00 0.  1.
         25    1    1    2    0    0  0.15613756254E+02 -0.24726487495E+03  0.90153454492E+02  0.29178134472E+03  0.12500000000E+03 0.  0.
         25    1    1    2    0    0  0.13302765110E+03  0.29200004673E+03  0.15213052589E+03  0.37646922870E+03  0.12500000000E+03 0.  0.
         25    1    1    2    0    0 -0.14864140735E+03 -0.44735171785E+02  0.21923957810E+03  0.29628786033E+03  0.12500000000E+03 0.  0.
</event>
<event>
 5    0  0.5590591E-005  0.1941894E+03  0.7546771E-02  0.1154736E+00
         21   -1    0    0  502  501  0.00000000000E+00  0.00000000000E+00  0.59990244828E+03  0.59990244828E+03  0.00000000000E+00 0.  1.
         21   -1    0    0  501  502 -0.00000000000E+00 -0.00000000000E+00 -0.62859452514E+02  0.62859452514E+02  0.00000000000E+00 0.  1.
         25    1    1    2    0    0  0.12256108050E+02 -0.32727048827E+02  0.20924990722E+03  0.24623524439E+03  0.12500000000E+03 0.  0.
         25    1    1    2    0    0  0.11135649924E+02  0.13681037218E+00  0.15159975239E+03  0.19680321730E+03  0.12500000000E+03 0.  0.
         25    1    1    2    0    0 -0.23391757974E+02  0.32590238455E+02  0.17619333616E+03  0.21972343910E+03  0.12500000000E+03 0.  0.
</event>
<event>
 5    0  0.5590591E-005  0.3859051E+03  0.7546771E-02  0.1048773E+00
         21   -1    0    0  502  501  0.00000000000E+00  0.00000000000E+00  0.83491320065E+02  0.83491320065E+02  0.00000000000E+00 0. -1.
         21   -1    0    0  501  502 -0.00000000000E+00 -0.00000000000E+00 -0.17836915676E+04  0.17836915676E+04  0.00000000000E+00 0. -1.
         25    1    1    2    0    0 -0.17099911434E+03 -0.48605791546E+02 -0.98498982246E+03  0.10086789234E+04  0.12500000000E+03 0.  0.
         25    1    1    2    0    0  0.23363604938E+03 -0.76820630713E+01 -0.63424521727E+03  0.68741313145E+03  0.12500000000E+03 0.  0.
         25    1    1    2    0    0 -0.62636935035E+02  0.56287854618E+02 -0.80965207781E+02  0.17109083283E+03  0.12500000000E+03 0.  0.
</event>
<event>
 5    0  0.5590591E-005  0.5426691E+03  0.7546771E-02  0.1003205E+00
         21   -1    0    0  502  501  0.00000000000E+00  0.00000000000E+00  0.85982644557E+03  0.85982644557E+03  0.00000000000E+00 0.  1.
         21   -1    0    0  501  502 -0.00000000000E+00 -0.00000000000E+00 -0.34249902397E+03  0.34249902397E+03  0.00000000000E+00 0.  1.
         25    1    1    2    0    0 -0.15030874413E+03  0.31104693979E+03 -0.61910768368E+02  0.37255987512E+03  0.12500000000E+03 0.  0.
         25    1    1    2    0    0  0.52421985195E+01  0.30260849354E+02  0.35747815764E+03  0.37994582882E+03  0.12500000000E+03 0.  0.
         25    1    1    2    0    0  0.14506654561E+03 -0.34130778914E+03  0.22176003233E+03  0.44981976560E+03  0.12500000000E+03 0.  0.
</event>
<event>
 5    0  0.5590591E-005  0.2474039E+03  0.7546771E-02  0.1114957E+00
         21   -1    0    0  502  501  0.00000000000E+00  0.00000000000E+00  0.60793512878E+02  0.60793512878E+02  0.00000000000E+00 0. -1.
         21   -1    0    0  501  502 -0.00000000000E+00 -0.00000000000E+00 -0.10068290440E+04  0.10068290440E+04  0.00000000000E+00 0. -1.
         25    1    1    2    0    0  0.64705018102E+02  0.20232472832E+02 -0.45280603905E+03  0.47460973581E+03  0.12500000000E+03 0.  0.
         25    1    1    2    0    0 -0.11853414591E+03 -0.16738430953E+01 -0.37140862429E+03  0.40941728309E+03  0.12500000000E+03 0.  0.
         25    1    1    2    0    0  0.53829127806E+02 -0.18558629737E+02 -0.12182086778E+03  0.18359553798E+03  0.12500000000E+03 0.  0.
</event>
<event>
 5    0  0.5590591E-005  0.2815234E+03  0.7546771E-02  0.1094860E+00
         21   -1    0    0  502  501  0.00000000000E+00  0.00000000000E+00  0.42896207350E+02  0.42896207350E+02  0.00000000000E+00 0. -1.
         21   -1    0    0  501  502 -0.00000000000E+00 -0.00000000000E+00 -0.18476092488E+04  0.18476092488E+04  0.00000000000E+00 0. -1.
         25    1    1    2    0    0 -0.14855260601E+02 -0.19432892157E+02 -0.37494084290E+03  0.39598478726E+03  0.12500000000E+03 0.  0.
         25    1    1    2    0    0  0.14630446209E+03 -0.25283785303E+02 -0.10865276067E+04  0.11037261914E+04  0.12500000000E+03 0.  0.
         25    1    1    2    0    0 -0.13144920149E+03  0.44716677460E+02 -0.34324459185E+03  0.39079447751E+03  0.12500000000E+03 0.  0.
</event>
<event>
 5    0  0.5590591E-005  0.3219690E+03  0.7546771E-02  0.1074747E+00
         21   -1    0    0  502  501  0.00000000000E+00  0.00000000000E+00  0.20609457417E+03  0.20609457417E+03  0.00000000000E+00 0. -1.
         21   -1    0    0  501  502 -0.00000000000E+00 -0.00000000000E+00 -0.50299257294E+03  0.50299257294E+03  0.00000000000E+00 0. -1.
         25    1    1    2    0    0  0.12663972206E+03  0.14456884408E+03 -0.90454637408E+02  0.24646462487E+03  0.12500000000E+03 0.  0.
         25    1    1    2    0    0 -0.78590836178E+02  0.73509119684E+01  0.30474151887E+02  0.15094445790E+03  0.12500000000E+03 0.  0.
         25    1    1    2    0    0 -0.48048885884E+02 -0.15191975605E+03 -0.23691751324E+03  0.31167806434E+03  0.12500000000E+03 0.  0.
</event>
<event>
 5    0  0.5590591E-005  0.3016305E+03  0.7546771E-02  0.1084428E+00
         21   -1    0    0  502  501  0.00000000000E+00  0.00000000000E+00  0.11282770176E+04  0.11282770176E+04  0.00000000000E+00 0. -1.
         21   -1    0    0  501  502 -0.00000000000E+00 -0.00000000000E+00 -0.80637084647E+02  0.80637084647E+02  0.00000000000E+00 0. -1.
         25    1    1    2    0    0  0.11369892324E+03 -0.28549021936E+02  0.22826636602E+03  0.28543480106E+03  0.12500000000E+03 0.  0.
         25    1    1    2    0    0 -0.18593751130E+03  0.73215322952E+02  0.29410541643E+03  0.37690348579E+03  0.12500000000E+03 0.  0.
         25    1    1    2    0    0  0.72238588063E+02 -0.44666301016E+02  0.52526815047E+03  0.54657581537E+03  0.12500000000E+03 0.  0.
</event>
<event>
 5    0  0.5678296E-005  0.2873442E+03  0.7546771E-02  0.1091744E+00
         21   -1    0    0  502  501  0.00000000000E+00  0.00000000000E+00  0.10920965512E+03  0.10920965512E+03  0.00000000000E+00 0.  1.
         21   -1    0    0  501  502 -0.00000000000E+00 -0.00000000000E+00 -0.75603841562E+03  0.75603841562E+03  0.00000000000E+00 0.  1.
         25    1    1    2    0    0  0.19247043620E+03  0.38559059577E+02 -0.20039374108E+03  0.30710636814E+03  0.12500000000E+03 0.  0.
         25    1    1    2    0    0 -0.12733712676E+03 -0.11909758641E+02 -0.32160899302E+03  0.36798631848E+03  0.12500000000E+03 0.  0.
         25    1    1    2    0    0 -0.65133309436E+02 -0.26649300936E+02 -0.12482602641E+03  0.19015538412E+03  0.12500000000E+03 0.  0.
</event>
<event>
 5    0  0.6005346E-005  0.2922305E+03  0.7546771E-02  0.1089190E+00
         21   -1    0    0  502  501  0.00000000000E+00  0.00000000000E+00  0.32519421923E+03  0.32519421923E+03  0.00000000000E+00 0. -1.
         21   -1    0    0  501  502 -0.00000000000E+00 -0.00000000000E+00 -0.26260827043E+03  0.26260827043E+03  0.00000000000E+00 0. -1.
         25    1    1    2    0    0 -0.11404369073E+03 -0.24469368105E+01  0.76823317872E+02  0.18584610048E+03  0.12500000000E+03 0.  0.
         25    1    1    2    0    0  0.16559876429E+03  0.82806021034E+02 -0.71513858240E+02  0.23456133478E+03  0.12500000000E+03 0.  0.
         25    1    1    2    0    0 -0.51555073558E+02 -0.80359084224E+02  0.57276489168E+02  0.16739505440E+03  0.12500000000E+03 0.  0.
</event>
<event>
 5    0  0.5590591E-005  0.2568733E+03  0.7546771E-02  0.1109037E+00
         21   -1    0    0  502  501  0.00000000000E+00  0.00000000000E+00  0.34977840187E+03  0.34977840187E+03  0.00000000000E+00 0. -1.
         21   -1    0    0  501  502 -0.00000000000E+00 -0.00000000000E+00 -0.18864477688E+03  0.18864477688E+03  0.00000000000E+00 0. -1.
         25    1    1    2    0    0 -0.40653642498E+02  0.16071864733E+02 -0.65877658153E+02  0.14790500102E+03  0.12500000000E+03 0.  0.
         25    1    1    2    0    0  0.64183430728E+02 -0.88108202999E+02  0.15723978980E+03  0.22854303689E+03  0.12500000000E+03 0.  0.
         25    1    1    2    0    0 -0.23529788230E+02  0.72036338266E+02  0.69771493348E+02  0.16197514084E+03  0.12500000000E+03 0.  0.
</event>
<event>
 5    0  0.5590591E-005  0.2851684E+03  0.7546771E-02  0.1092899E+00
         21   -1    0    0  502  501  0.00000000000E+00  0.00000000000E+00  0.25926974957E+03  0.25926974957E+03  0.00000000000E+00 0. -1.
         21   -1    0    0  501  502 -0.00000000000E+00 -0.00000000000E+00 -0.31365411557E+03  0.31365411557E+03  0.00000000000E+00 0. -1.
         25    1    1    2    0    0  0.53764322715E+02 -0.50252279443E+02 -0.58797326405E+02  0.15651843207E+03  0.12500000000E+03 0.  0.
         25    1    1    2    0    0  0.66941081261E+02 -0.65168371180E+02  0.10165865324E+03  0.18624582342E+03  0.12500000000E+03 0.  0.
         25    1    1    2    0    0 -0.12070540398E+03  0.11542065062E+03 -0.97245692832E+02  0.23015960965E+03  0.12500000000E+03 0.  0.
</event>
<event>
 5    0  0.5590591E-005  0.3475484E+03  0.7546771E-02  0.1063626E+00
         21   -1    0    0  502  501  0.00000000000E+00  0.00000000000E+00  0.42326117010E+03  0.42326117010E+03  0.00000000000E+00 0. -1.
         21   -1    0    0  501  502 -0.00000000000E+00 -0.00000000000E+00 -0.28537916169E+03  0.28537916169E+03  0.00000000000E+00 0. -1.
         25    1    1    2    0    0 -0.14291966335E+03  0.17245444454E+03  0.27199617696E+02  0.25793678454E+03  0.12500000000E+03 0.  0.
         25    1    1    2    0    0  0.16982643945E+03 -0.17818740641E+03  0.15332766303E+03  0.31579446415E+03  0.12500000000E+03 0.  0.
         25    1    1    2    0    0 -0.26906776097E+02  0.57329618717E+01 -0.42645272322E+02  0.13490908310E+03  0.12500000000E+03 0.  0.
</event>
<event>
 5    0  0.5590591E-005  0.2311439E+03  0.7546771E-02  0.1125837E+00
         21   -1    0    0  502  501  0.00000000000E+00  0.00000000000E+00  0.44982568874E+02  0.44982568874E+02  0.00000000000E+00 0.  1.
         21   -1    0    0  501  502 -0.00000000000E+00 -0.00000000000E+00 -0.11877378011E+04  0.11877378011E+04  0.00000000000E+00 0.  1.
         25    1    1    2    0    0 -0.65945891629E+02 -0.49606372528E+02 -0.48607241391E+03  0.50862662571E+03  0.12500000000E+03 0.  0.
         25    1    1    2    0    0  0.66796372782E+02  0.55365090985E+02 -0.50516463060E+03  0.52758255536E+03  0.12500000000E+03 0.  0.
         25    1    1    2    0    0 -0.85048115312E+00 -0.57587184569E+01 -0.15151818776E+03  0.19651118894E+03  0.12500000000E+03 0.  0.
</event>
<event>
 5    0  0.5590591E-005  0.4043911E+03  0.7546771E-02  0.1042270E+00
         21   -1    0    0  502  501  0.00000000000E+00  0.00000000000E+00  0.59834872601E+03  0.59834872601E+03  0.00000000000E+00 0.  1.
         21   -1    0    0  501  502 -0.00000000000E+00 -0.00000000000E+00 -0.27330580520E+03  0.27330580520E+03  0.00000000000E+00 0.  1.
         25    1    1    2    0    0  0.58163137948E+02 -0.18776712400E+03  0.24362335921E+02  0.23421777662E+03  0.12500000000E+03 0.  0.
         25    1    1    2    0    0 -0.46650105758E+02  0.32545522772E+03  0.28075968916E+03  0.45005370866E+03  0.12500000000E+03 0.  0.
         25    1    1    2    0    0 -0.11513032190E+02 -0.13768810372E+03  0.19920895733E+02  0.18738304594E+03  0.12500000000E+03 0.  0.
</event>
<event>
 5    0  0.5590591E-005  0.2897983E+03  0.7546771E-02  0.1090454E+00
         21   -1    0    0  502  501  0.00000000000E+00  0.00000000000E+00  0.53722953545E+03  0.53722953545E+03  0.00000000000E+00 0.  1.
         21   -1    0    0  501  502 -0.00000000000E+00 -0.00000000000E+00 -0.15632624774E+03  0.15632624774E+03  0.00000000000E+00 0.  1.
         25    1    1    2    0    0 -0.50892249470E+02  0.34500933043E+01  0.36460284718E+03  0.38879578235E+03  0.12500000000E+03 0.  0.
         25    1    1    2    0    0 -0.55541048845E+02  0.16402624407E+02  0.20821735913E+02  0.13932838505E+03  0.12500000000E+03 0.  0.
         25    1    1    2    0    0  0.10643329831E+03 -0.19852717711E+02 -0.45212953919E+01  0.16543161579E+03  0.12500000000E+03 0.  0.
</event>
<event>
 5    0  0.5590591E-005  0.2968641E+03  0.7546771E-02  0.1086819E+00
         21   -1    0    0  502  501  0.00000000000E+00  0.00000000000E+00  0.64566809168E+03  0.64566809168E+03  0.00000000000E+00 0. -1.
         21   -1    0    0  501  502 -0.00000000000E+00 -0.00000000000E+00 -0.13649166672E+03  0.13649166672E+03  0.00000000000E+00 0. -1.
         25    1    1    2    0    0 -0.70651016554E+02 -0.98267601893E+02  0.46470563640E+01  0.17405367808E+03  0.12500000000E+03 0.  0.
         25    1    1    2    0    0  0.10024456439E+03  0.13025570157E+03  0.32488722490E+03  0.38495743841E+03  0.12500000000E+03 0.  0.
         25    1    1    2    0    0 -0.29593547838E+02 -0.31988099678E+02  0.17964214370E+03  0.22314864191E+03  0.12500000000E+03 0.  0.
</event>
<event>
 5    0  0.5590591E-005  0.2404463E+03  0.7546771E-02  0.1119496E+00
         21   -1    0    0  502  501  0.00000000000E+00  0.00000000000E+00  0.10284279333E+04  0.10284279333E+04  0.00000000000E+00 0.  1.
         21   -1    0    0  501  502 -0.00000000000E+00 -0.00000000000E+00 -0.56216327402E+02  0.56216327402E+02  0.00000000000E+00 0.  1.
         25    1    1    2    0    0  0.28540585819E+02  0.49819890618E+02  0.24270824230E+03  0.27897827410E+03  0.12500000000E+03 0.  0.
         25    1    1    2    0    0 -0.12514624520E+03 -0.20952056829E+01  0.38125014877E+03  0.42028876801E+03  0.12500000000E+03 0.  0.
         25    1    1    2    0    0  0.96605659381E+02 -0.47724684935E+02  0.34825321486E+03  0.38537721863E+03  0.12500000000E+03 0.  0.
</event>
<event>
 5    0  0.5590591E-005  0.3136735E+03  0.7546771E-02  0.1078598E+00
         21   -1    0    0  502  501  0.00000000000E+00  0.00000000000E+00  0.17438073306E+03  0.17438073306E+03  0.00000000000E+00 0.  1.
         21   -1    0    0  501  502 -0.00000000000E+00 -0.00000000000E+00 -0.56423136589E+03  0.56423136589E+03  0.00000000000E+00 0.  1.
         25    1    1    2    0    0  0.18956489179E+03  0.56415721556E+02 -0.24349541761E+03  0.33768713365E+03  0.12500000000E+03 0.  0.
         25    1    1    2    0    0 -0.17459677051E+03 -0.42512447288E+02 -0.16335314577E+03  0.27313108699E+03  0.12500000000E+03 0.  0.
         25    1    1    2    0    0 -0.14968121277E+02 -0.13903274268E+02  0.16997930556E+02  0.12779387831E+03  0.12500000000E+03 0.  0.
</event>
<event>
 5    0  0.5590591E-005  0.2549016E+03  0.7546771E-02  0.1110246E+00
         21   -1    0    0  502  501  0.00000000000E+00  0.00000000000E+00  0.13767950114E+03  0.13767950114E+03  0.00000000000E+00 0. -1.
         21   -1    0    0  501  502 -0.00000000000E+00 -0.00000000000E+00 -0.47192801344E+03  0.47192801344E+03  0.00000000000E+00 0. -1.
         25    1    1    2    0    0 -0.12002833911E+02 -0.59347859836E+02 -0.18871652605E+03  0.23431850907E+03  0.12500000000E+03 0.  0.
         25    1    1    2    0    0  0.45133418664E+02 -0.74683691569E+02 -0.27818707914E+02  0.15496309166E+03  0.12500000000E+03 0.  0.
         25    1    1    2    0    0 -0.33130584753E+02  0.13403155140E+03 -0.11771327834E+03  0.22032591385E+03  0.12500000000E+03 0.  0.
</event>
<event>
 5    0  0.5590591E-005  0.3858572E+03  0.7546771E-02  0.1048790E+00
         21   -1    0    0  502  501  0.00000000000E+00  0.00000000000E+00  0.49062416722E+03  0.49062416722E+03  0.00000000000E+00 0. -1.
         21   -1    0    0  501  502 -0.00000000000E+00 -0.00000000000E+00 -0.30346205049E+03  0.30346205049E+03  0.00000000000E+00 0. -1.
         25    1    1    2    0    0 -0.84140239255E+02  0.18692690725E+03 -0.31473181029E+02  0.24215038641E+03  0.12500000000E+03 0.  0.
         25    1    1    2    0    0  0.10449737638E+03  0.10023442031E+03  0.10454111146E+03  0.21799193717E+03  0.12500000000E+03 0.  0.
         25    1    1    2    0    0 -0.20357137125E+02 -0.28716132757E+03  0.11409418630E+03  0.33394389413E+03  0.12500000000E+03 0.  0.
</event>
<event>
 5    0  0.5590591E-005  0.7708833E+03  0.7546771E-02  0.9603146E-01
         21   -1    0    0  502  501  0.00000000000E+00  0.00000000000E+00  0.54110362409E+03  0.54110362409E+03  0.00000000000E+00 0.  1.
         21   -1    0    0  501  502 -0.00000000000E+00 -0.00000000000E+00 -0.10982388408E+04  0.10982388408E+04  0.00000000000E+00 0.  1.
         25    1    1    2    0    0  0.33299510785E+03  0.56653234989E+03 -0.51700767769E+03  0.84543869329E+03  0.12500000000E+03 0.  0.
         25    1    1    2    0    0 -0.23420063277E+03 -0.55639803700E+03 -0.97723599770E+02  0.62418235631E+03  0.12500000000E+03 0.  0.
         25    1    1    2    0    0 -0.98794475076E+02 -0.10134312891E+02  0.57596060722E+02  0.16972141531E+03  0.12500000000E+03 0.  0.
</event>
<event>
 5    0  0.5590591E-005  0.3040814E+03  0.7546771E-02  0.1083218E+00
         21   -1    0    0  502  501  0.00000000000E+00  0.00000000000E+00  0.59117917516E+03  0.59117917516E+03  0.00000000000E+00 0.  1.
         21   -1    0    0  501  502 -0.00000000000E+00 -0.00000000000E+00 -0.15640857110E+03  0.15640857110E+03  0.00000000000E+00 0.  1.
         25    1    1    2    0    0 -0.74641557366E+02  0.49132441441E+01  0.13865010018E+03  0.20110781271E+03  0.12500000000E+03 0.  0.
         25    1    1    2    0    0  0.17377362227E+03 -0.84690500876E+02  0.28694066927E+03  0.36787185325E+03  0.12500000000E+03 0.  0.
         25    1    1    2    0    0 -0.99132064907E+02  0.79777256732E+02  0.91798346186E+01  0.17860808030E+03  0.12500000000E+03 0.  0.
</event>
<event>
 5    0  0.5590591E-005  0.3627870E+03  0.7546771E-02  0.1057486E+00
         21   -1    0    0  502  501  0.00000000000E+00  0.00000000000E+00  0.45188962650E+03  0.45188962650E+03  0.00000000000E+00 0. -1.
         21   -1    0    0  501  502 -0.00000000000E+00 -0.00000000000E+00 -0.29125346796E+03  0.29125346796E+03  0.00000000000E+00 0. -1.
         25    1    1    2    0    0 -0.12200950409E+03  0.26768579221E+03  0.43953427562E+02  0.32264362110E+03  0.12500000000E+03 0.  0.
         25    1    1    2    0    0  0.46039161765E+00 -0.11338157404E+03  0.26568042959E+02  0.17084043491E+03  0.12500000000E+03 0.  0.
         25    1    1    2    0    0  0.12154911248E+03 -0.15430421817E+03  0.90114688025E+02  0.24965903846E+03  0.12500000000E+03 0.  0.
</event>
<event>
 5    0  0.5590591E-005  0.2540413E+03  0.7546771E-02  0.1110777E+00
         21   -1    0    0  502  501  0.00000000000E+00  0.00000000000E+00  0.70131671475E+03  0.70131671475E+03  0.00000000000E+00 0. -1.
         21   -1    0    0  501  502 -0.00000000000E+00 -0.00000000000E+00 -0.92022571887E+02  0.92022571887E+02  0.00000000000E+00 0. -1.
         25    1    1    2    0    0  0.49830154099E+02 -0.10433158177E+03  0.22978269885E+03  0.28599512566E+03  0.12500000000E+03 0.  0.
         25    1    1    2    0    0 -0.24450426038E+02  0.14514330897E+03  0.28159436616E+03  0.34144515010E+03  0.12500000000E+03 0.  0.
         25    1    1    2    0    0 -0.25379728062E+02 -0.40811727206E+02  0.97917077857E+02  0.16589901088E+03  0.12500000000E+03 0.  0.
</event>
<event>
 5    0  0.5590591E-005  0.2483634E+03  0.7546771E-02  0.1114343E+00
         21   -1    0    0  502  501  0.00000000000E+00  0.00000000000E+00  0.25489560311E+03  0.25489560311E+03  0.00000000000E+00 0.  1.
         21   -1    0    0  501  502 -0.00000000000E+00 -0.00000000000E+00 -0.24199867875E+03  0.24199867875E+03  0.00000000000E+00 0.  1.
         25    1    1    2    0    0 -0.12385097562E+03  0.39873515636E+02  0.37507312153E+01  0.18046614473E+03  0.12500000000E+03 0.  0.
         25    1    1    2    0    0  0.13228596891E+03 -0.54625292065E+02  0.11613703382E+01  0.19002591635E+03  0.12500000000E+03 0.  0.
         25    1    1    2    0    0 -0.84349932968E+01  0.14751776429E+02  0.79848228070E+01  0.12640222077E+03  0.12500000000E+03 0.  0.
</event>
<event>
 5    0  0.5590591E-005  0.3416210E+03  0.7546771E-02  0.1066108E+00
         21   -1    0    0  502  501  0.00000000000E+00  0.00000000000E+00  0.12183338972E+04  0.12183338972E+04  0.00000000000E+00 0. -1.
         21   -1    0    0  501  502 -0.00000000000E+00 -0.00000000000E+00 -0.95790562340E+02  0.95790562340E+02  0.00000000000E+00 0. -1.
         25    1    1    2    0    0  0.11694875393E+03 -0.10606155101E+03  0.20669312089E+03  0.28857080564E+03  0.12500000000E+03 0.  0.
         25    1    1    2    0    0  0.62580967520E+02 -0.87776457372E+02  0.26687405427E+03  0.31379586486E+03  0.12500000000E+03 0.  0.
         25    1    1    2    0    0 -0.17952972145E+03  0.19383800839E+03  0.64897615971E+03  0.71175778904E+03  0.12500000000E+03 0.  0.
</event>
<event>
 5    0  0.5590591E-005  0.2240428E+03  0.7546771E-02  0.1130904E+00
         21   -1    0    0  502  501  0.00000000000E+00  0.00000000000E+00  0.10624177236E+03  0.10624177236E+03  0.00000000000E+00 0.  1.
         21   -1    0    0  501  502 -0.00000000000E+00 -0.00000000000E+00 -0.47246158214E+03  0.47246158214E+03  0.00000000000E+00 0.  1.
         25    1    1    2    0    0  0.56067793367E+02 -0.80692298050E+02 -0.13456518340E+03  0.20829698270E+03  0.12500000000E+03 0.  0.
         25    1    1    2    0    0  0.18900249595E+02  0.14949062452E+02 -0.82182481405E+02  0.15152443418E+03  0.12500000000E+03 0.  0.
         25    1    1    2    0    0 -0.74968042962E+02  0.65743235598E+02 -0.14947214498E+03  0.21888193762E+03  0.12500000000E+03 0.  0.
</event>
<event>
 5    0  0.5590591E-005  0.4389840E+03  0.7546771E-02  0.1031059E+00
         21   -1    0    0  502  501  0.00000000000E+00  0.00000000000E+00  0.51378379173E+03  0.51378379173E+03  0.00000000000E+00 0.  1.
         21   -1    0    0  501  502 -0.00000000000E+00 -0.00000000000E+00 -0.37507408913E+03  0.37507408913E+03  0.00000000000E+00 0.  1.
         25    1    1    2    0    0  0.36569057528E+02  0.13994172986E+03 -0.16674892991E+03  0.25367536213E+03  0.12500000000E+03 0.  0.
         25    1    1    2    0    0 -0.19377058457E+03  0.91005689479E+02  0.16933752318E+03  0.30021537555E+03  0.12500000000E+03 0.  0.
         25    1    1    2    0    0  0.15720152704E+03 -0.23094741934E+03  0.13612110934E+03  0.33496714318E+03  0.12500000000E+03 0.  0.
</event>
<event>
 5    0  0.5590591E-005  0.3333404E+03  0.7546771E-02  0.1069668E+00
         21   -1    0    0  502  501  0.00000000000E+00  0.00000000000E+00  0.20820725575E+03  0.20820725575E+03  0.00000000000E+00 0. -1.
         21   -1    0    0  501  502 -0.00000000000E+00 -0.00000000000E+00 -0.53367880558E+03  0.53367880558E+03  0.00000000000E+00 0. -1.
         25    1    1    2    0    0 -0.30571395840E+02 -0.12159063987E+03 -0.15174611503E+03  0.23317542189E+03  0.12500000000E+03 0.  0.
         25    1    1    2    0    0  0.18369190840E+03  0.16374443408E+03 -0.10206423908E+03  0.29427379394E+03  0.12500000000E+03 0.  0.
         25    1    1    2    0    0 -0.15312051256E+03 -0.42153794212E+02 -0.71661195722E+02  0.21443684550E+03  0.12500000000E+03 0.  0.
</event>
<event>
 5    0  0.5590591E-005  0.3061739E+03  0.7546771E-02  0.1082194E+00
         21   -1    0    0  502  501  0.00000000000E+00  0.00000000000E+00  0.23842935551E+04  0.23842935551E+04  0.00000000000E+00 0.  1.
         21   -1    0    0  501  502 -0.00000000000E+00 -0.00000000000E+00 -0.39316659808E+02  0.39316659808E+02  0.00000000000E+00 0.  1.
         25    1    1    2    0    0  0.10410505285E+03 -0.11975535736E+03  0.15349693937E+04  0.15482038778E+04  0.12500000000E+03 0.  0.
         25    1    1    2    0    0  0.27291456534E+02  0.57228312157E+02  0.33907128252E+03  0.36689813020E+03  0.12500000000E+03 0.  0.
         25    1    1    2    0    0 -0.13139650938E+03  0.62527045204E+02  0.47093621906E+03  0.50850820690E+03  0.12500000000E+03 0.  0.
</event>
<event>
 5    0  0.5590591E-005  0.2680600E+03  0.7546771E-02  0.1102395E+00
         21   -1    0    0  502  501  0.00000000000E+00  0.00000000000E+00  0.23216050813E+03  0.23216050813E+03  0.00000000000E+00 0.  1.
         21   -1    0    0  501  502 -0.00000000000E+00 -0.00000000000E+00 -0.30951081687E+03  0.30951081687E+03  0.00000000000E+00 0.  1.
         25    1    1    2    0    0  0.66750956064E+02 -0.28917895745E+02 -0.18639972585E+03  0.23592751562E+03  0.12500000000E+03 0.  0.
         25    1    1    2    0    0 -0.62827174168E+02 -0.34776733786E+02  0.41670037932E+02  0.15006021154E+03  0.12500000000E+03 0.  0.
         25    1    1    2    0    0 -0.39237818959E+01  0.63694629531E+02  0.67379379179E+02  0.15568359783E+03  0.12500000000E+03 0.  0.
</event>
<event>
 5    0  0.5590591E-005  0.2882975E+03  0.7546771E-02  0.1091241E+00
         21   -1    0    0  502  501  0.00000000000E+00  0.00000000000E+00  0.35577036994E+03  0.35577036994E+03  0.00000000000E+00 0. -1.
         21   -1    0    0  501  502 -0.00000000000E+00 -0.00000000000E+00 -0.23362112931E+03  0.23362112931E+03  0.00000000000E+00 0. -1.
         25    1    1    2    0    0 -0.57844102079E+02  0.13742958035E+03  0.45653576239E+02  0.19985514435E+03  0.12500000000E+03 0.  0.
         25    1    1    2    0    0 -0.36779288357E+02 -0.51587253365E+02  0.14168327239E+03  0.19928148543E+03  0.12500000000E+03 0.  0.
         25    1    1    2    0    0  0.94623390436E+02 -0.85842326986E+02 -0.65187607998E+02  0.19025486947E+03  0.12500000000E+03 0.  0.
</event>
<event>
 5    0  0.5590591E-005  0.2962234E+03  0.7546771E-02  0.1087144E+00
         21   -1    0    0  502  501  0.00000000000E+00  0.00000000000E+00  0.79813854018E+02  0.79813854018E+02  0.00000000000E+00 0.  1.
         21   -1    0    0  501  502 -0.00000000000E+00 -0.00000000000E+00 -0.10994118185E+04  0.10994118185E+04  0.00000000000E+00 0.  1.
         25    1    1    2    0    0  0.33346273997E+02 -0.87267792158E+02 -0.14716712510E+03  0.21450129195E+03  0.12500000000E+03 0.  0.
         25    1    1    2    0    0  0.26875352046E+01 -0.11715076510E+02 -0.75013679254E+03  0.76057522533E+03  0.12500000000E+03 0.  0.
         25    1    1    2    0    0 -0.36033809201E+02  0.98982868667E+02 -0.12229404686E+03  0.20414915526E+03  0.12500000000E+03 0.  0.
</event>
<event>
 5    0  0.5590591E-005  0.5947564E+03  0.7546771E-02  0.9916345E-01
         21   -1    0    0  502  501  0.00000000000E+00  0.00000000000E+00  0.89612804820E+03  0.89612804820E+03  0.00000000000E+00 0. -1.
         21   -1    0    0  501  502 -0.00000000000E+00 -0.00000000000E+00 -0.39473729169E+03  0.39473729169E+03  0.00000000000E+00 0. -1.
         25    1    1    2    0    0 -0.98686002897E+02 -0.48762474117E+03  0.50730000544E+03  0.72145347105E+03  0.12500000000E+03 0.  0.
         25    1    1    2    0    0  0.10170426227E+02  0.31079926935E+03  0.55224313655E+01  0.33519415366E+03  0.12500000000E+03 0.  0.
         25    1    1    2    0    0  0.88515576670E+02  0.17682547182E+03 -0.11431680300E+02  0.23421771520E+03  0.12500000000E+03 0.  0.
</event>
<event>
 5    0  0.5590591E-005  0.2688824E+03  0.7546771E-02  0.1101921E+00
         21   -1    0    0  502  501  0.00000000000E+00  0.00000000000E+00  0.47669834684E+03  0.47669834684E+03  0.00000000000E+00 0.  1.
         21   -1    0    0  501  502 -0.00000000000E+00 -0.00000000000E+00 -0.15166356142E+03  0.15166356142E+03  0.00000000000E+00 0.  1.
         25    1    1    2    0    0  0.41802089376E+02  0.30521183238E+02  0.24623482312E+02  0.13751462898E+03  0.12500000000E+03 0.  0.
         25    1    1    2    0    0 -0.24020884691E+02 -0.10767057515E+03  0.12556112254E+02  0.16719034545E+03  0.12500000000E+03 0.  0.
         25    1    1    2    0    0 -0.17781204684E+02  0.77149391916E+02  0.28785519086E+03  0.32365693383E+03  0.12500000000E+03 0.  0.
</event>
<event>
 5    0  0.5590591E-005  0.3939935E+03  0.7546771E-02  0.1045880E+00
         21   -1    0    0  502  501  0.00000000000E+00  0.00000000000E+00  0.31077551704E+03  0.31077551704E+03  0.00000000000E+00 0.  1.
         21   -1    0    0  501  502 -0.00000000000E+00 -0.00000000000E+00 -0.49949515397E+03  0.49949515397E+03  0.00000000000E+00 0.  1.
         25    1    1    2    0    0 -0.11994959479E+03  0.58962651506E+02 -0.60909007413E+02  0.19287147728E+03  0.12500000000E+03 0.  0.
         25    1    1    2    0    0 -0.66511248639E+02  0.20637016560E+03 -0.97244946762E+02  0.26850320504E+03  0.12500000000E+03 0.  0.
         25    1    1    2    0    0  0.18646084343E+03 -0.26533281711E+03 -0.30565682753E+02  0.34889598870E+03  0.12500000000E+03 0.  0.
</event>
<event>
 5    0  0.5590591E-005  0.4411198E+03  0.7546771E-02  0.1030404E+00
         21   -1    0    0  502  501  0.00000000000E+00  0.00000000000E+00  0.22056964655E+04  0.22056964655E+04  0.00000000000E+00 0.  1.
         21   -1    0    0  501  502 -0.00000000000E+00 -0.00000000000E+00 -0.88220048577E+02  0.88220048577E+02  0.00000000000E+00 0.  1.
         25    1    1    2    0    0 -0.95047085623E+02 -0.15166345245E+02  0.12104116430E+04  0.12206495451E+04  0.12500000000E+03 0.  0.
         25    1    1    2    0    0 -0.18077561334E+03  0.45521821467E+02  0.60143128819E+03  0.64194754694E+03  0.12500000000E+03 0.  0.
         25    1    1    2    0    0  0.27582269896E+03 -0.30355476223E+02  0.30563348574E+03  0.43131942201E+03  0.12500000000E+03 0.  0.
</event>
<event>
 5    0  0.5590591E-005  0.2557014E+03  0.7546771E-02  0.1109754E+00
         21   -1    0    0  502  501  0.00000000000E+00  0.00000000000E+00  0.49103891124E+03  0.49103891124E+03  0.00000000000E+00 0. -1.
         21   -1    0    0  501  502 -0.00000000000E+00 -0.00000000000E+00 -0.13315285183E+03  0.13315285183E+03  0.00000000000E+00 0. -1.
         25    1    1    2    0    0  0.53176474869E+02  0.61214037857E+02  0.28685170910E+03  0.32323953800E+03  0.12500000000E+03 0.  0.
         25    1    1    2    0    0 -0.73868157288E+02  0.12442622392E+02  0.30335899874E+02  0.14885089968E+03  0.12500000000E+03 0.  0.
         25    1    1    2    0    0  0.20691682419E+02 -0.73656660249E+02  0.40698450428E+02  0.15210132540E+03  0.12500000000E+03 0.  0.
</event>
<event>
 5    0  0.5680365E-005  0.2531952E+03  0.7546771E-02  0.1111302E+00
         21   -1    0    0  502  501  0.00000000000E+00  0.00000000000E+00  0.51811678403E+03  0.51811678403E+03  0.00000000000E+00 0.  1.
         21   -1    0    0  501  502 -0.00000000000E+00 -0.00000000000E+00 -0.12373233594E+03  0.12373233594E+03  0.00000000000E+00 0.  1.
         25    1    1    2    0    0  0.11371584329E+03  0.35770076160E+02  0.13279661363E+03  0.21787779133E+03  0.12500000000E+03 0.  0.
         25    1    1    2    0    0 -0.22337802112E+02  0.50819238714E+02  0.44962797988E+02  0.14397300313E+03  0.12500000000E+03 0.  0.
         25    1    1    2    0    0 -0.91378041180E+02 -0.86589314874E+02  0.21662503647E+03  0.27999832551E+03  0.12500000000E+03 0.  0.
</event>
<event>
 5    0  0.5590591E-005  0.2655441E+03  0.7546771E-02  0.1103857E+00
         21   -1    0    0  502  501  0.00000000000E+00  0.00000000000E+00  0.43013256357E+03  0.43013256357E+03  0.00000000000E+00 0. -1.
         21   -1    0    0  501  502 -0.00000000000E+00 -0.00000000000E+00 -0.16393475133E+03  0.16393475133E+03  0.00000000000E+00 0. -1.
         25    1    1    2    0    0 -0.44848180262E+02  0.13856430271E+02  0.29641524156E+03  0.32510053116E+03  0.12500000000E+03 0.  0.
         25    1    1    2    0    0  0.50438314086E+02  0.19914943275E+02 -0.17110660208E+01  0.13626648979E+03  0.12500000000E+03 0.  0.
         25    1    1    2    0    0 -0.55901338233E+01 -0.33771373546E+02 -0.28506363296E+02  0.13270029395E+03  0.12500000000E+03 0.  0.
</event>
<event>
 5    0  0.5590591E-005  0.2218362E+03  0.7546771E-02  0.1132521E+00
         21   -1    0    0  502  501  0.00000000000E+00  0.00000000000E+00  0.48222662683E+02  0.48222662683E+02  0.00000000000E+00 0.  1.
         21   -1    0    0  501  502 -0.00000000000E+00 -0.00000000000E+00 -0.10205010666E+04  0.10205010666E+04  0.00000000000E+00 0.  1.
         25    1    1    2    0    0 -0.43551513103E+02  0.92521409462E+00 -0.49737572341E+03  0.51468942145E+03  0.12500000000E+03 0.  0.
         25    1    1    2    0    0 -0.44175902579E+02  0.20695815604E+01 -0.21836711533E+03  0.25547013641E+03  0.12500000000E+03 0.  0.
         25    1    1    2    0    0  0.87727415681E+02 -0.29947956550E+01 -0.25653556521E+03  0.29856417146E+03  0.12500000000E+03 0.  0.
</event>
<event>
 5    0  0.6012116E-005  0.3561813E+03  0.7546771E-02  0.1060106E+00
         21   -1    0    0  502  501  0.00000000000E+00  0.00000000000E+00  0.15874512520E+03  0.15874512520E+03  0.00000000000E+00 0. -1.
         21   -1    0    0  501  502 -0.00000000000E+00 -0.00000000000E+00 -0.79917496146E+03  0.79917496146E+03  0.00000000000E+00 0. -1.
         25    1    1    2    0    0 -0.74878620352E+02  0.12203417858E+03  0.99036340246E+01  0.19032138738E+03  0.12500000000E+03 0.  0.
         25    1    1    2    0    0  0.16623679113E+03 -0.12276674581E+03 -0.30422705465E+03  0.38843975773E+03  0.12500000000E+03 0.  0.
         25    1    1    2    0    0 -0.91358170781E+02  0.73256722879E+00 -0.34610641563E+03  0.37915894156E+03  0.12500000000E+03 0.  0.
</event>
<event>
 5    0  0.5590591E-005  0.3113589E+03  0.7546771E-02  0.1079696E+00
         21   -1    0    0  502  501  0.00000000000E+00  0.00000000000E+00  0.47747082947E+03  0.47747082947E+03  0.00000000000E+00 0.  1.
         21   -1    0    0  501  502 -0.00000000000E+00 -0.00000000000E+00 -0.20303722454E+03  0.20303722454E+03  0.00000000000E+00 0.  1.
         25    1    1    2    0    0  0.29301404542E+02 -0.55163739994E+02  0.64201406345E+02  0.15378046396E+03  0.12500000000E+03 0.  0.
         25    1    1    2    0    0  0.15511051328E+03  0.43356864506E+02  0.22439904003E+03  0.30318149382E+03  0.12500000000E+03 0.  0.
         25    1    1    2    0    0 -0.18441191782E+03  0.11806875488E+02 -0.14166841451E+02  0.22354609623E+03  0.12500000000E+03 0.  0.
</event>
<event>
 5    0  0.5590591E-005  0.2527836E+03  0.7546771E-02  0.1111558E+00
         21   -1    0    0  502  501  0.00000000000E+00  0.00000000000E+00  0.39246039659E+03  0.39246039659E+03  0.00000000000E+00 0.  1.
         21   -1    0    0  501  502 -0.00000000000E+00 -0.00000000000E+00 -0.16281777411E+03  0.16281777411E+03  0.00000000000E+00 0.  1.
         25    1    1    2    0    0 -0.42041812625E+02  0.10146360389E+03  0.77015210240E+02  0.18335408240E+03  0.12500000000E+03 0.  0.
         25    1    1    2    0    0  0.74437232290E+02 -0.13260565378E+03  0.13319472274E+03  0.23767834384E+03  0.12500000000E+03 0.  0.
         25    1    1    2    0    0 -0.32395419665E+02  0.31142049886E+02  0.19432689505E+02  0.13424574447E+03  0.12500000000E+03 0.  0.
</event>
<event>
 5    0  0.5590591E-005  0.2396758E+03  0.7546771E-02  0.1120009E+00
         21   -1    0    0  502  501  0.00000000000E+00  0.00000000000E+00  0.83984603558E+02  0.83984603558E+02  0.00000000000E+00 0.  1.
         21   -1    0    0  501  502 -0.00000000000E+00 -0.00000000000E+00 -0.68398821186E+03  0.68398821186E+03  0.00000000000E+00 0.  1.
         25    1    1    2    0    0  0.12079065910E+02 -0.89400331379E+01 -0.25048925625E+03  0.28034923849E+03  0.12500000000E+03 0.  0.
         25    1    1    2    0    0  0.79872942261E+02  0.12946544424E+02 -0.62841127270E+02  0.16162087487E+03  0.12500000000E+03 0.  0.
         25    1    1    2    0    0 -0.91952008171E+02 -0.40065112856E+01 -0.28667322479E+03  0.32600270206E+03  0.12500000000E+03 0.  0.
</event>
<event>
 5    0  0.5590591E-005  0.3028196E+03  0.7546771E-02  0.1083840E+00
         21   -1    0    0  502  501  0.00000000000E+00  0.00000000000E+00  0.39798196586E+02  0.39798196586E+02  0.00000000000E+00 0. -1.
         21   -1    0    0  501  502 -0.00000000000E+00 -0.00000000000E+00 -0.23041170545E+04  0.23041170545E+04  0.00000000000E+00 0. -1.
         25    1    1    2    0    0  0.74375535285E+02 -0.30846797849E+02 -0.20502401524E+03  0.25326486533E+03  0.12500000000E+03 0.  0.
         25    1    1    2    0    0 -0.15835892782E+03  0.31686358714E+02 -0.13665559375E+04  0.13817314159E+04  0.12500000000E+03 0.  0.
         25    1    1    2    0    0  0.83983392538E+02 -0.83956086481E+00 -0.69273890516E+03  0.70891896985E+03  0.12500000000E+03 0.  0.
</event>
<event>
 5    0  0.5590591E-005  0.2341622E+03  0.7546771E-02  0.1123744E+00
         21   -1    0    0  502  501  0.00000000000E+00  0.00000000000E+00  0.14573085065E+03  0.14573085065E+03  0.00000000000E+00 0.  1.
         21   -1    0    0  501  502 -0.00000000000E+00 -0.00000000000E+00 -0.37625467371E+03  0.37625467371E+03  0.00000000000E+00 0.  1.
         25    1    1    2    0    0  0.22900231450E+02  0.42559217194E+00 -0.17958085282E+03  0.21999746460E+03  0.12500000000E+03 0.  0.
         25    1    1    2    0    0  0.49983695531E+02  0.15197193968E+02  0.25097245145E+02  0.13778314932E+03  0.12500000000E+03 0.  0.
         25    1    1    2    0    0 -0.72883926981E+02 -0.15622786139E+02 -0.76040215378E+02  0.16420491044E+03  0.12500000000E+03 0.  0.
</event>
<event>
 5    0  0.5590591E-005  0.4824430E+03  0.7546771E-02  0.1018466E+00
         21   -1    0    0  502  501  0.00000000000E+00  0.00000000000E+00  0.11412826697E+04  0.11412826697E+04  0.00000000000E+00 0.  1.
         21   -1    0    0  501  502 -0.00000000000E+00 -0.00000000000E+00 -0.20393831025E+03  0.20393831025E+03  0.00000000000E+00 0.  1.
         25    1    1    2    0    0  0.28204868828E+03  0.28727831468E+02  0.77419788595E+03  0.83389694656E+03  0.12500000000E+03 0.  0.
         25    1    1    2    0    0 -0.79116986505E+01 -0.87264478833E+02 -0.19926146257E+02  0.15394718427E+03  0.12500000000E+03 0.  0.
         25    1    1    2    0    0 -0.27413698963E+03  0.58536647365E+02  0.18307261972E+03  0.35737684908E+03  0.12500000000E+03 0.  0.
</event>
<event>
 5    0  0.5590591E-005  0.2960786E+03  0.7546771E-02  0.1087217E+00
         21   -1    0    0  502  501  0.00000000000E+00  0.00000000000E+00  0.93517578000E+02  0.93517578000E+02  0.00000000000E+00 0.  1.
         21   -1    0    0  501  502 -0.00000000000E+00 -0.00000000000E+00 -0.93739122521E+03  0.93739122521E+03  0.00000000000E+00 0.  1.
         25    1    1    2    0    0 -0.98980859652E+02 -0.41034828973E+02 -0.38517969625E+03  0.41889075684E+03  0.12500000000E+03 0.  0.
         25    1    1    2    0    0  0.15363700026E+03  0.10054789874E+03 -0.14629404527E+03  0.26597209529E+03  0.12500000000E+03 0.  0.
         25    1    1    2    0    0 -0.54656140611E+02 -0.59513069771E+02 -0.31239990569E+03  0.34604595107E+03  0.12500000000E+03 0.  0.
</event>
<event>
 5    0  0.5590591E-005  0.3913802E+03  0.7546771E-02  0.1046806E+00
         21   -1    0    0  502  501  0.00000000000E+00  0.00000000000E+00  0.19571616439E+04  0.19571616439E+04  0.00000000000E+00 0. -1.
         21   -1    0    0  501  502 -0.00000000000E+00 -0.00000000000E+00 -0.78265601057E+02  0.78265601057E+02  0.00000000000E+00 0. -1.
         25    1    1    2    0    0 -0.74778241877E+02 -0.17778156908E+02  0.29829750392E+03  0.33243683486E+03  0.12500000000E+03 0.  0.
         25    1    1    2    0    0 -0.59203678067E+02 -0.18993565734E+03  0.24688932845E+03  0.34082249035E+03  0.12500000000E+03 0.  0.
         25    1    1    2    0    0  0.13398191994E+03  0.20771381425E+03  0.13337092104E+04  0.13621679197E+04  0.12500000000E+03 0.  0.
</event>
<event>
 5    0  0.5590591E-005  0.2244556E+03  0.7546771E-02  0.1130604E+00
         21   -1    0    0  502  501  0.00000000000E+00  0.00000000000E+00  0.13319588199E+03  0.13319588199E+03  0.00000000000E+00 0.  1.
         21   -1    0    0  501  502 -0.00000000000E+00 -0.00000000000E+00 -0.37824213291E+03  0.37824213291E+03  0.00000000000E+00 0.  1.
         25    1    1    2    0    0 -0.11371035349E+02  0.21425083136E+02 -0.12418407764E+03  0.17786236187E+03  0.12500000000E+03 0.  0.
         25    1    1    2    0    0 -0.14496023331E+02  0.47905227837E+02  0.13985198958E+02  0.13537219558E+03  0.12500000000E+03 0.  0.
         25    1    1    2    0    0  0.25867058680E+02 -0.69330310973E+02 -0.13484737224E+03  0.19820345745E+03  0.12500000000E+03 0.  0.
</event>
<event>
 5    0  0.5590591E-005  0.3640936E+03  0.7546771E-02  0.1056975E+00
         21   -1    0    0  502  501  0.00000000000E+00  0.00000000000E+00  0.69824082458E+02  0.69824082458E+02  0.00000000000E+00 0. -1.
         21   -1    0    0  501  502 -0.00000000000E+00 -0.00000000000E+00 -0.18985450798E+04  0.18985450798E+04  0.00000000000E+00 0. -1.
         25    1    1    2    0    0 -0.95305680444E+02  0.69121799823E+02 -0.18190992473E+03  0.25015438563E+03  0.12500000000E+03 0.  0.
         25    1    1    2    0    0 -0.34905765008E+02 -0.21418416154E+03 -0.10107148282E+04  0.10412793724E+04  0.12500000000E+03 0.  0.
         25    1    1    2    0    0  0.13021144545E+03  0.14506236172E+03 -0.63609624440E+03  0.67693540419E+03  0.12500000000E+03 0.  0.
</event>
<event>
 5    0  0.5590591E-005  0.3316180E+03  0.7546771E-02  0.1070423E+00
         21   -1    0    0  502  501  0.00000000000E+00  0.00000000000E+00  0.67252517048E+03  0.67252517048E+03  0.00000000000E+00 0.  1.
         21   -1    0    0  501  502 -0.00000000000E+00 -0.00000000000E+00 -0.16351875030E+03  0.16351875030E+03  0.00000000000E+00 0.  1.
         25    1    1    2    0    0  0.13736345318E+03 -0.15081243762E+03  0.31180059902E+02  0.24126812003E+03  0.12500000000E+03 0.  0.
         25    1    1    2    0    0 -0.14408218182E+03  0.98076162295E+02  0.24872126657E+03  0.32842940972E+03  0.12500000000E+03 0.  0.
         25    1    1    2    0    0  0.67187286436E+01  0.52736275322E+02  0.22910509371E+03  0.26634639103E+03  0.12500000000E+03 0.  0.
</event>
<event>
 5    0  0.5590591E-005  0.3001351E+03  0.7546771E-02  0.1085173E+00
         21   -1    0    0  502  501  0.00000000000E+00  0.00000000000E+00  0.21784949841E+04  0.21784949841E+04  0.00000000000E+00 0.  1.
         21   -1    0    0  501  502 -0.00000000000E+00 -0.00000000000E+00 -0.41350154769E+02  0.41350154769E+02  0.00000000000E+00 0.  1.
         25    1    1    2    0    0  0.18668440046E+03 -0.63784727051E+02  0.56925803407E+03  0.61530420617E+03  0.12500000000E+03 0.  0.
         25    1    1    2    0    0 -0.12552904165E+03 -0.10027558138E+02  0.67876990984E+03  0.70157799475E+03  0.12500000000E+03 0.  0.
         25    1    1    2    0    0 -0.61155358810E+02  0.73812285189E+02  0.88911688546E+03  0.90296293798E+03  0.12500000000E+03 0.  0.
</event>
<event>
 5    0  0.5590591E-005  0.3438559E+03  0.7546771E-02  0.1065165E+00
         21   -1    0    0  502  501  0.00000000000E+00  0.00000000000E+00  0.82368057909E+02  0.82368057909E+02  0.00000000000E+00 0.  1.
         21   -1    0    0  501  502 -0.00000000000E+00 -0.00000000000E+00 -0.14354701486E+04  0.14354701486E+04  0.00000000000E+00 0.  1.
         25    1    1    2    0    0  0.49280157578E+02 -0.77503806531E+02 -0.28365900046E+03  0.32329986467E+03  0.12500000000E+03 0.  0.
         25    1    1    2    0    0 -0.24164208412E+02  0.22207363615E+03 -0.90709059952E+03  0.94251735505E+03  0.12500000000E+03 0.  0.
         25    1    1    2    0    0 -0.25115949166E+02 -0.14456982962E+03 -0.16235249073E+03  0.25202098680E+03  0.12500000000E+03 0.  0.
</event>
<event>
 5    0  0.5590591E-005  0.2474729E+03  0.7546771E-02  0.1114912E+00
         21   -1    0    0  502  501  0.00000000000E+00  0.00000000000E+00  0.16245674713E+04  0.16245674713E+04  0.00000000000E+00 0.  1.
         21   -1    0    0  501  502 -0.00000000000E+00 -0.00000000000E+00 -0.37697918403E+02  0.37697918403E+02  0.00000000000E+00 0.  1.
         25    1    1    2    0    0  0.37562379252E+01  0.36131382705E+02  0.25569222293E+03  0.28692002197E+03  0.12500000000E+03 0.  0.
         25    1    1    2    0    0  0.10623372739E+01 -0.79832249247E+02  0.10910392672E+04  0.11010749290E+04  0.12500000000E+03 0.  0.
         25    1    1    2    0    0 -0.48185751991E+01  0.43700866542E+02  0.24013806276E+03  0.27427043878E+03  0.12500000000E+03 0.  0.
</event>
<event>
 5    0  0.5590591E-005  0.4240191E+03  0.7546771E-02  0.1035766E+00
         21   -1    0    0  502  501  0.00000000000E+00  0.00000000000E+00  0.12654952403E+03  0.12654952403E+03  0.00000000000E+00 0.  1.
         21   -1    0    0  501  502 -0.00000000000E+00 -0.00000000000E+00 -0.14207257413E+04  0.14207257413E+04  0.00000000000E+00 0.  1.
         25    1    1    2    0    0 -0.30017582578E+02  0.39245971028E+02 -0.10934359456E+04  0.11016662237E+04  0.12500000000E+03 0.  0.
         25    1    1    2    0    0  0.46614368410E+02 -0.17114941647E+02  0.65935753193E+02  0.14979433941E+03  0.12500000000E+03 0.  0.
         25    1    1    2    0    0 -0.16596785832E+02 -0.22131029381E+02 -0.26667602490E+03  0.29581470216E+03  0.12500000000E+03 0.  0.
</event>
<event>
 5    0  0.5590591E-005  0.3760884E+03  0.7546771E-02  0.1052389E+00
         21   -1    0    0  502  501  0.00000000000E+00  0.00000000000E+00  0.55864876686E+03  0.55864876686E+03  0.00000000000E+00 0. -1.
         21   -1    0    0  501  502 -0.00000000000E+00 -0.00000000000E+00 -0.25318677451E+03  0.25318677451E+03  0.00000000000E+00 0. -1.
         25    1    1    2    0    0  0.68844390436E+02  0.26949159976E+03  0.11612100752E+03  0.32630409257E+03  0.12500000000E+03 0.  0.
         25    1    1    2    0    0 -0.11122937097E+03 -0.25521553172E+03  0.85333250789E+02  0.31688121480E+03  0.12500000000E+03 0.  0.
         25    1    1    2    0    0  0.42384980536E+02 -0.14276068038E+02  0.10400773403E+03  0.16865023401E+03  0.12500000000E+03 0.  0.
</event>
<event>
 5    0  0.5590591E-005  0.2801657E+03  0.7546771E-02  0.1095598E+00
         21   -1    0    0  502  501  0.00000000000E+00  0.00000000000E+00  0.18206595022E+03  0.18206595022E+03  0.00000000000E+00 0. -1.
         21   -1    0    0  501  502 -0.00000000000E+00 -0.00000000000E+00 -0.43112287040E+03  0.43112287040E+03  0.00000000000E+00 0. -1.
         25    1    1    2    0    0 -0.13229434814E+03 -0.75162133709E+02 -0.58160484886E+02  0.20532604047E+03  0.12500000000E+03 0.  0.
         25    1    1    2    0    0  0.15342101423E+03  0.23247351332E+02 -0.18316711691E+03  0.27065409598E+03  0.12500000000E+03 0.  0.
         25    1    1    2    0    0 -0.21126666093E+02  0.51914782377E+02 -0.77293183936E+01  0.13720868417E+03  0.12500000000E+03 0.  0.
</event>
<event>
 5    0  0.5590591E-005  0.2695613E+03  0.7546771E-02  0.1101531E+00
         21   -1    0    0  502  501  0.00000000000E+00  0.00000000000E+00  0.20168394906E+04  0.20168394906E+04  0.00000000000E+00 0.  1.
         21   -1    0    0  501  502 -0.00000000000E+00 -0.00000000000E+00 -0.36028305287E+02  0.36028305287E+02  0.00000000000E+00 0.  1.
         25    1    1    2    0    0  0.56963143878E+02  0.14468014282E+01  0.71364772371E+03  0.72674958999E+03  0.12500000000E+03 0.  0.
         25    1    1    2    0    0 -0.68857486444E+02 -0.30585982015E+02  0.18184848829E+03  0.23317531694E+03  0.12500000000E+03 0.  0.
         25    1    1    2    0    0  0.11894342565E+02  0.29139180587E+02  0.10853149733E+04  0.10929428890E+04  0.12500000000E+03 0.  0.
</event>
<event>
 5    0  0.5590591E-005  0.3853427E+03  0.7546771E-02  0.1048977E+00
         21   -1    0    0  502  501  0.00000000000E+00  0.00000000000E+00  0.19790975727E+03  0.19790975727E+03  0.00000000000E+00 0.  1.
         21   -1    0    0  501  502 -0.00000000000E+00 -0.00000000000E+00 -0.75028641291E+03  0.75028641291E+03  0.00000000000E+00 0.  1.
         25    1    1    2    0    0  0.16360815446E+03 -0.50677928448E+02 -0.82829009492E+02  0.22764341732E+03  0.12500000000E+03 0.  0.
         25    1    1    2    0    0 -0.59983334732E+02  0.27682551451E+02  0.69192778142E+02  0.15740700317E+03  0.12500000000E+03 0.  0.
         25    1    1    2    0    0 -0.10362481973E+03  0.22995376997E+02 -0.53874042428E+03  0.56314574968E+03  0.12500000000E+03 0.  0.
</event>
<event>
 5    0  0.5590591E-005  0.3654693E+03  0.7546771E-02  0.1056439E+00
         21   -1    0    0  502  501  0.00000000000E+00  0.00000000000E+00  0.20577749123E+03  0.20577749123E+03  0.00000000000E+00 0.  1.
         21   -1    0    0  501  502 -0.00000000000E+00 -0.00000000000E+00 -0.64908870648E+03  0.64908870648E+03  0.00000000000E+00 0.  1.
         25    1    1    2    0    0 -0.34634062572E+02  0.13664860122E+02 -0.25787579555E+03  0.28898299712E+03  0.12500000000E+03 0.  0.
         25    1    1    2    0    0 -0.16231171536E+03 -0.81174010546E+02 -0.23051270759E+03  0.31889719549E+03  0.12500000000E+03 0.  0.
         25    1    1    2    0    0  0.19694577793E+03  0.67509150424E+02  0.45077287892E+02  0.24698600511E+03  0.12500000000E+03 0.  0.
</event>
<event>
 5    0  0.5590591E-005  0.2582204E+03  0.7546771E-02  0.1108217E+00
         21   -1    0    0  502  501  0.00000000000E+00  0.00000000000E+00  0.43761660433E+03  0.43761660433E+03  0.00000000000E+00 0.  1.
         21   -1    0    0  501  502 -0.00000000000E+00 -0.00000000000E+00 -0.15236579083E+03  0.15236579083E+03  0.00000000000E+00 0.  1.
         25    1    1    2    0    0 -0.31827795389E+01 -0.47197001718E+02  0.13404905574E+03  0.18929299090E+03  0.12500000000E+03 0.  0.
         25    1    1    2    0    0 -0.11402296394E+03 -0.39287711520E+02  0.10604307798E+03  0.20350649859E+03  0.12500000000E+03 0.  0.
         25    1    1    2    0    0  0.11720574348E+03  0.86484713238E+02  0.45158679783E+02  0.19718290567E+03  0.12500000000E+03 0.  0.
</event>
<event>
 5    0  0.5590591E-005  0.3494788E+03  0.7546771E-02  0.1062829E+00
         21   -1    0    0  502  501  0.00000000000E+00  0.00000000000E+00  0.59330954071E+03  0.59330954071E+03  0.00000000000E+00 0. -1.
         21   -1    0    0  501  502 -0.00000000000E+00 -0.00000000000E+00 -0.20585452432E+03  0.20585452432E+03  0.00000000000E+00 0. -1.
         25    1    1    2    0    0  0.16824882041E+03 -0.12556921904E+03 -0.26993744201E+02  0.24582301879E+03  0.12500000000E+03 0.  0.
         25    1    1    2    0    0 -0.10299775233E+03  0.13579595821E+02  0.99566468601E+02  0.19060803781E+03  0.12500000000E+03 0.  0.
         25    1    1    2    0    0 -0.65251068084E+02  0.11198962322E+03  0.31488229199E+03  0.36273300843E+03  0.12500000000E+03 0.  0.
</event>
<event>
 5    0  0.5590591E-005  0.7618976E+03  0.7546771E-02  0.9616868E-01
         21   -1    0    0  502  501  0.00000000000E+00  0.00000000000E+00  0.52302277736E+03  0.52302277736E+03  0.00000000000E+00 0. -1.
         21   -1    0    0  501  502 -0.00000000000E+00 -0.00000000000E+00 -0.11098713128E+04  0.11098713128E+04  0.00000000000E+00 0. -1.
         25    1    1    2    0    0  0.21201008585E+03  0.16389315003E+03 -0.11752849556E+02  0.29592629252E+03  0.12500000000E+03 0.  0.
         25    1    1    2    0    0  0.41810777153E+03 -0.28440402544E+01 -0.51040998704E+03  0.67153968762E+03  0.12500000000E+03 0.  0.
         25    1    1    2    0    0 -0.63011785738E+03 -0.16104910978E+03 -0.64685698813E+02  0.66542811000E+03  0.12500000000E+03 0.  0.
</event>
<event>
 5    0  0.5590591E-005  0.2468813E+03  0.7546771E-02  0.1115292E+00
         21   -1    0    0  502  501  0.00000000000E+00  0.00000000000E+00  0.60112824295E+03  0.60112824295E+03  0.00000000000E+00 0. -1.
         21   -1    0    0  501  502 -0.00000000000E+00 -0.00000000000E+00 -0.10139333518E+03  0.10139333518E+03  0.00000000000E+00 0. -1.
         25    1    1    2    0    0 -0.54720516560E+02  0.42096460746E+02  0.74839498493E+02  0.16122157881E+03  0.12500000000E+03 0.  0.
         25    1    1    2    0    0  0.99316555028E+02 -0.77205436953E+02  0.32929048637E+03  0.37400759620E+03  0.12500000000E+03 0.  0.
         25    1    1    2    0    0 -0.44596038468E+02  0.35108976207E+02  0.95604922910E+02  0.16729240312E+03  0.12500000000E+03 0.  0.
</event>
<event>
 5    0  0.5590591E-005  0.3353304E+03  0.7546771E-02  0.1068802E+00
         21   -1    0    0  502  501  0.00000000000E+00  0.00000000000E+00  0.21049795738E+03  0.21049795738E+03  0.00000000000E+00 0. -1.
         21   -1    0    0  501  502 -0.00000000000E+00 -0.00000000000E+00 -0.53419268738E+03  0.53419268738E+03  0.00000000000E+00 0. -1.
         25    1    1    2    0    0  0.43749754796E+02 -0.34319956361E+02 -0.33366396964E+02  0.14081980292E+03  0.12500000000E+03 0.  0.
         25    1    1    2    0    0  0.11015870555E+03 -0.17264108659E+03 -0.10067094812E+03  0.26019132380E+03  0.12500000000E+03 0.  0.
         25    1    1    2    0    0 -0.15390846035E+03  0.20696104295E+03 -0.18965738492E+03  0.34367951804E+03  0.12500000000E+03 0.  0.
</event>
<event>
 5    0  0.5590591E-005  0.2038056E+03  0.7546771E-02  0.1146567E+00
         21   -1    0    0  502  501  0.00000000000E+00  0.00000000000E+00  0.20176732916E+03  0.20176732916E+03  0.00000000000E+00 0. -1.
         21   -1    0    0  501  502 -0.00000000000E+00 -0.00000000000E+00 -0.20586456079E+03  0.20586456079E+03  0.00000000000E+00 0. -1.
         25    1    1    2    0    0 -0.49904937536E+02 -0.11089848884E+02 -0.51930513389E+02  0.14469024072E+03  0.12500000000E+03 0.  0.
         25    1    1    2    0    0  0.43024777404E+02 -0.51059228898E+01  0.22618706201E+02  0.13421552738E+03  0.12500000000E+03 0.  0.
         25    1    1    2    0    0  0.68801601320E+01  0.16195771774E+02  0.25214575554E+02  0.12872612185E+03  0.12500000000E+03 0.  0.
</event>
<event>
 5    0  0.5590591E-005  0.6679471E+03  0.7546771E-02  0.9773674E-01
         21   -1    0    0  502  501  0.00000000000E+00  0.00000000000E+00  0.22192177591E+03  0.22192177591E+03  0.00000000000E+00 0. -1.
         21   -1    0    0  501  502 -0.00000000000E+00 -0.00000000000E+00 -0.20104081038E+04  0.20104081038E+04  0.00000000000E+00 0. -1.
         25    1    1    2    0    0 -0.39816917046E+03  0.42823956232E+03 -0.56055119014E+03  0.81961603681E+03  0.12500000000E+03 0.  0.
         25    1    1    2    0    0  0.20003952513E+03 -0.29592942203E+03 -0.96486544736E+03  0.10364267297E+04  0.12500000000E+03 0.  0.
         25    1    1    2    0    0  0.19812964532E+03 -0.13231014029E+03 -0.26306969035E+03  0.37628711320E+03  0.12500000000E+03 0.  0.
</event>
<event>
 5    0  0.5590591E-005  0.4768486E+03  0.7546771E-02  0.1020005E+00
         21   -1    0    0  502  501  0.00000000000E+00  0.00000000000E+00  0.56739641571E+03  0.56739641571E+03  0.00000000000E+00 0. -1.
         21   -1    0    0  501  502 -0.00000000000E+00 -0.00000000000E+00 -0.40075077556E+03  0.40075077556E+03  0.00000000000E+00 0.  1.
         25    1    1    2    0    0  0.79004307939E+02  0.28263715921E+03 -0.41210029640E+02  0.32163443687E+03  0.12500000000E+03 0.  0.
         25    1    1    2    0    0  0.26826458532E+02 -0.39344783509E+03  0.15544200064E+03  0.44193673006E+03  0.12500000000E+03 0.  0.
         25    1    1    2    0    0 -0.10583076647E+03  0.11081067587E+03  0.52413669159E+02  0.20457602434E+03  0.12500000000E+03 0.  0.
</event>
<event>
 5    0  0.6637893E-005  0.5306360E+03  0.7546771E-02  0.1006078E+00
         21   -1    0    0  502  501  0.00000000000E+00  0.00000000000E+00  0.34563372231E+03  0.34563372231E+03  0.00000000000E+00 0.  1.
         21   -1    0    0  501  502 -0.00000000000E+00 -0.00000000000E+00 -0.81466167628E+03  0.81466167628E+03  0.00000000000E+00 0.  1.
         25    1    1    2    0    0 -0.26341286233E+03 -0.63970681074E+02 -0.22711983783E+03  0.37508266397E+03  0.12500000000E+03 0.  0.
         25    1    1    2    0    0 -0.79317827188E+02  0.21160106363E+03  0.86798989271E+02  0.27244337463E+03  0.12500000000E+03 0.  0.
         25    1    1    2    0    0  0.34273068952E+03 -0.14763038256E+03 -0.32870710541E+03  0.51276935998E+03  0.12500000000E+03 0.  0.
</event>
<event>
 5    0  0.5590591E-005  0.2554635E+03  0.7546771E-02  0.1109900E+00
         21   -1    0    0  502  501  0.00000000000E+00  0.00000000000E+00  0.20819275004E+03  0.20819275004E+03  0.00000000000E+00 0.  1.
         21   -1    0    0  501  502 -0.00000000000E+00 -0.00000000000E+00 -0.31346722727E+03  0.31346722727E+03  0.00000000000E+00 0.  1.
         25    1    1    2    0    0  0.82162678750E+02 -0.85025332766E+02  0.64824638938E+02  0.18386747076E+03  0.12500000000E+03 0.  0.
         25    1    1    2    0    0 -0.40311191847E+00  0.63311928547E+02 -0.94279207261E+02  0.16888496593E+03  0.12500000000E+03 0.  0.
         25    1    1    2    0    0 -0.81759566831E+02  0.21713404218E+02 -0.75819908908E+02  0.16890754062E+03  0.12500000000E+03 0.  0.
</event>
<event>
 5    0  0.5590591E-005  0.3980627E+03  0.7546771E-02  0.1044453E+00
         21   -1    0    0  502  501  0.00000000000E+00  0.00000000000E+00  0.29156246459E+03  0.29156246459E+03  0.00000000000E+00 0.  1.
         21   -1    0    0  501  502 -0.00000000000E+00 -0.00000000000E+00 -0.54346484177E+03  0.54346484177E+03  0.00000000000E+00 0.  1.
         25    1    1    2    0    0 -0.26077809257E+03 -0.55821948225E+02 -0.22723195456E+03  0.37199551696E+03  0.12500000000E+03 0.  0.
         25    1    1    2    0    0  0.19989764974E+03  0.36121430675E+02 -0.14411981178E+03  0.27867426912E+03  0.12500000000E+03 0.  0.
         25    1    1    2    0    0  0.60880442834E+02  0.19700517550E+02  0.11944938916E+03  0.18435752027E+03  0.12500000000E+03 0.  0.
</event>
<event>
 5    0  0.5590591E-005  0.2756383E+03  0.7546771E-02  0.1098095E+00
         21   -1    0    0  502  501  0.00000000000E+00  0.00000000000E+00  0.15314568221E+04  0.15314568221E+04  0.00000000000E+00 0. -1.
         21   -1    0    0  501  502 -0.00000000000E+00 -0.00000000000E+00 -0.49610575802E+02  0.49610575802E+02  0.00000000000E+00 0. -1.
         25    1    1    2    0    0  0.10781048706E+03  0.43979354817E+02  0.42803609686E+03  0.46086569083E+03  0.12500000000E+03 0.  0.
         25    1    1    2    0    0 -0.27656192590E+02 -0.30263187234E+02  0.88597329122E+03  0.89568655134E+03  0.12500000000E+03 0.  0.
         25    1    1    2    0    0 -0.80154294474E+02 -0.13716167583E+02  0.16783685821E+03  0.22451515572E+03  0.12500000000E+03 0.  0.
</event>
<event>
 5    0  0.6425753E-005  0.3781804E+03  0.7546771E-02  0.1051608E+00
         21   -1    0    0  502  501  0.00000000000E+00  0.00000000000E+00  0.19331064047E+03  0.19331064047E+03  0.00000000000E+00 0. -1.
         21   -1    0    0  501  502 -0.00000000000E+00 -0.00000000000E+00 -0.73984756007E+03  0.73984756007E+03  0.00000000000E+00 0. -1.
         25    1    1    2    0    0  0.96371046496E+02  0.20546945863E+02 -0.43104953660E+03  0.45949783306E+03  0.12500000000E+03 0.  0.
         25    1    1    2    0    0  0.50214647103E+02 -0.10734017785E+03  0.76222500971E+02  0.18835682684E+03  0.12500000000E+03 0.  0.
         25    1    1    2    0    0 -0.14658569360E+03  0.86793231987E+02 -0.19170988397E+03  0.28530354064E+03  0.12500000000E+03 0.  0.
</event>
<event>
 5    0  0.5590591E-005  0.2328653E+03  0.7546771E-02  0.1124639E+00
         21   -1    0    0  502  501  0.00000000000E+00  0.00000000000E+00  0.41633627506E+03  0.41633627506E+03  0.00000000000E+00 0.  1.
         21   -1    0    0  501  502 -0.00000000000E+00 -0.00000000000E+00 -0.13024630050E+03  0.13024630050E+03  0.00000000000E+00 0.  1.
         25    1    1    2    0    0 -0.65057398218E+02 -0.21719881718E+02  0.35664077345E+02  0.14697327899E+03  0.12500000000E+03 0.  0.
         25    1    1    2    0    0  0.10747689987E+03  0.19838908336E+02  0.19583774160E+03  0.25675335894E+03  0.12500000000E+03 0.  0.
         25    1    1    2    0    0 -0.42419501654E+02  0.18809733823E+01  0.54588155609E+02  0.14285593762E+03  0.12500000000E+03 0.  0.
</event>
<event>
 5    0  0.5590591E-005  0.3309484E+03  0.7546771E-02  0.1070718E+00
         21   -1    0    0  502  501  0.00000000000E+00  0.00000000000E+00  0.26067675748E+03  0.26067675748E+03  0.00000000000E+00 0.  1.
         21   -1    0    0  501  502 -0.00000000000E+00 -0.00000000000E+00 -0.42016344873E+03  0.42016344873E+03  0.00000000000E+00 0.  1.
         25    1    1    2    0    0  0.11105736019E+03 -0.23297576734E+03 -0.11085506985E+03  0.30744965756E+03  0.12500000000E+03 0.  0.
         25    1    1    2    0    0 -0.85949866298E+02  0.17003472578E+03 -0.35194293754E+02  0.23057065251E+03  0.12500000000E+03 0.  0.
         25    1    1    2    0    0 -0.25107493891E+02  0.62941041558E+02 -0.13437327643E+02  0.14281989615E+03  0.12500000000E+03 0.  0.
</event>
<event>
 5    0  0.5590591E-005  0.2249160E+03  0.7546771E-02  0.1130270E+00
         21   -1    0    0  502  501  0.00000000000E+00  0.00000000000E+00  0.46619215705E+02  0.46619215705E+02  0.00000000000E+00 0. -1.
         21   -1    0    0  501  502 -0.00000000000E+00 -0.00000000000E+00 -0.10851146492E+04  0.10851146492E+04  0.00000000000E+00 0. -1.
         25    1    1    2    0    0 -0.41280648285E+02  0.52072668434E+02 -0.24634721364E+03  0.28412603610E+03  0.12500000000E+03 0.  0.
         25    1    1    2    0    0  0.70281280436E+02 -0.57499044097E+02 -0.57428597614E+03  0.59470579352E+03  0.12500000000E+03 0.  0.
         25    1    1    2    0    0 -0.29000632151E+02  0.54263756630E+01 -0.21786224372E+03  0.25290203530E+03  0.12500000000E+03 0.  0.
</event>
<event>
 5    0  0.5590591E-005  0.2869576E+03  0.7546771E-02  0.1091948E+00
         21   -1    0    0  502  501  0.00000000000E+00  0.00000000000E+00  0.99134043060E+03  0.99134043060E+03  0.00000000000E+00 0. -1.
         21   -1    0    0  501  502 -0.00000000000E+00 -0.00000000000E+00 -0.83063984417E+02  0.83063984417E+02  0.00000000000E+00 0. -1.
         25    1    1    2    0    0 -0.44260170653E+02 -0.34390196647E+01  0.45050269684E+03  0.46962588241E+03  0.12500000000E+03 0.  0.
         25    1    1    2    0    0 -0.12265595702E+03  0.24110861141E+02  0.27388007231E+03  0.32597716396E+03  0.12500000000E+03 0.  0.
         25    1    1    2    0    0  0.16691612768E+03 -0.20671841476E+02  0.18389367704E+03  0.27880136865E+03  0.12500000000E+03 0.  0.
</event>
<event>
 5    0  0.6464334E-005  0.2848190E+03  0.7546771E-02  0.1093086E+00
         21   -1    0    0  502  501  0.00000000000E+00  0.00000000000E+00  0.70318023614E+03  0.70318023614E+03  0.00000000000E+00 0.  1.
         21   -1    0    0  501  502 -0.00000000000E+00 -0.00000000000E+00 -0.11536421980E+03  0.11536421980E+03  0.00000000000E+00 0.  1.
         25    1    1    2    0    0 -0.13816491771E+02 -0.23079600636E+02  0.45901093173E+02  0.13585092478E+03  0.12500000000E+03 0.  0.
         25    1    1    2    0    0 -0.48292724657E+02 -0.57611492389E+02  0.33958687301E+02  0.14976469462E+03  0.12500000000E+03 0.  0.
         25    1    1    2    0    0  0.62109216428E+02  0.80691093026E+02  0.50795623587E+03  0.53292883654E+03  0.12500000000E+03 0.  0.
</event>
<event>
 5    0  0.5590591E-005  0.5159667E+03  0.7546771E-02  0.1009693E+00
         21   -1    0    0  502  501  0.00000000000E+00  0.00000000000E+00  0.45186207547E+03  0.45186207547E+03  0.00000000000E+00 0.  1.
         21   -1    0    0  501  502 -0.00000000000E+00 -0.00000000000E+00 -0.58916579103E+03  0.58916579103E+03  0.00000000000E+00 0.  1.
         25    1    1    2    0    0  0.17081517179E+03  0.26810726798E+03 -0.25905950514E+03  0.42871454053E+03  0.12500000000E+03 0.  0.
         25    1    1    2    0    0  0.59578528311E+02 -0.40248991987E+02 -0.12127081770E+03  0.18841760432E+03  0.12500000000E+03 0.  0.
         25    1    1    2    0    0 -0.23039370011E+03 -0.22785827599E+03  0.24302660728E+03  0.42389572165E+03  0.12500000000E+03 0.  0.
</event>
<event>
 5    0  0.5590591E-005  0.3024839E+03  0.7546771E-02  0.1084005E+00
         21   -1    0    0  502  501  0.00000000000E+00  0.00000000000E+00  0.11445805293E+03  0.11445805293E+03  0.00000000000E+00 0. -1.
         21   -1    0    0  501  502 -0.00000000000E+00 -0.00000000000E+00 -0.79938917188E+03  0.79938917188E+03  0.00000000000E+00 0. -1.
         25    1    1    2    0    0  0.83065179311E+02  0.21793633406E+02 -0.10900155077E+03  0.18676489108E+03  0.12500000000E+03 0.  0.
         25    1    1    2    0    0  0.45040205370E+02 -0.12921102980E+03 -0.10752189625E+03  0.21426634942E+03  0.12500000000E+03 0.  0.
         25    1    1    2    0    0 -0.12810538468E+03  0.10741739640E+03 -0.46840767194E+03  0.51281598431E+03  0.12500000000E+03 0.  0.
</event>
<event>
 5    0  0.5590591E-005  0.3075985E+03  0.7546771E-02  0.1081503E+00
         21   -1    0    0  502  501  0.00000000000E+00  0.00000000000E+00  0.11316659084E+03  0.11316659084E+03  0.00000000000E+00 0. -1.
         21   -1    0    0  501  502 -0.00000000000E+00 -0.00000000000E+00 -0.83608450589E+03  0.83608450589E+03  0.00000000000E+00 0. -1.
         25    1    1    2    0    0  0.25081935678E+02  0.10222607386E+03 -0.14757880337E+03  0.22019031967E+03  0.12500000000E+03 0.  0.
         25    1    1    2    0    0  0.40635995052E+02 -0.18361935977E+03 -0.14367458081E+03  0.26764666736E+03  0.12500000000E+03 0.  0.
         25    1    1    2    0    0 -0.65717930730E+02  0.81393285907E+02 -0.43166453087E+03  0.46141410969E+03  0.12500000000E+03 0.  0.
</event>
<event>
 5    0  0.5590591E-005  0.2978362E+03  0.7546771E-02  0.1086327E+00
         21   -1    0    0  502  501  0.00000000000E+00  0.00000000000E+00  0.11272975407E+03  0.11272975407E+03  0.00000000000E+00 0. -1.
         21   -1    0    0  501  502 -0.00000000000E+00 -0.00000000000E+00 -0.78689441125E+03  0.78689441125E+03  0.00000000000E+00 0. -1.
         25    1    1    2    0    0  0.95986337233E+01  0.13233516423E+03 -0.34377901824E+03  0.38911918848E+03  0.12500000000E+03 0.  0.
         25    1    1    2    0    0 -0.55702823587E+02 -0.59361541677E+01 -0.52393854452E+01  0.13707842150E+03  0.12500000000E+03 0.  0.
         25    1    1    2    0    0  0.46104189864E+02 -0.12639901007E+03 -0.32514625350E+03  0.37342655534E+03  0.12500000000E+03 0.  0.
</event>
<event>
 5    0  0.5590591E-005  0.2992789E+03  0.7546771E-02  0.1085602E+00
         21   -1    0    0  502  501  0.00000000000E+00  0.00000000000E+00  0.16382082916E+03  0.16382082916E+03  0.00000000000E+00 0. -1.
         21   -1    0    0  501  502 -0.00000000000E+00 -0.00000000000E+00 -0.54674283511E+03  0.54674283511E+03  0.00000000000E+00 0. -1.
         25    1    1    2    0    0 -0.11948325075E+03  0.14416505365E+03 -0.22906916663E+03  0.32118140203E+03  0.12500000000E+03 0.  0.
         25    1    1    2    0    0  0.49109674210E+02 -0.13999398287E+01 -0.12767971372E+03  0.18531278754E+03  0.12500000000E+03 0.  0.
         25    1    1    2    0    0  0.70373576544E+02 -0.14276511382E+03 -0.26173125602E+02  0.20406947470E+03  0.12500000000E+03 0.  0.
</event>
<event>
 5    0  0.5590591E-005  0.4592349E+03  0.7546771E-02  0.1025003E+00
         21   -1    0    0  502  501  0.00000000000E+00  0.00000000000E+00  0.76538951072E+03  0.76538951072E+03  0.00000000000E+00 0. -1.
         21   -1    0    0  501  502 -0.00000000000E+00 -0.00000000000E+00 -0.27554159739E+03  0.27554159739E+03  0.00000000000E+00 0. -1.
         25    1    1    2    0    0 -0.22880533948E+03  0.15360742777E+03 -0.99626102328E+02  0.31858670014E+03  0.12500000000E+03 0.  0.
         25    1    1    2    0    0  0.21514552922E+03 -0.15022954432E+03  0.43433358646E+03  0.52261570877E+03  0.12500000000E+03 0.  0.
         25    1    1    2    0    0  0.13659810263E+02 -0.33778834521E+01  0.15514042919E+03  0.19972869920E+03  0.12500000000E+03 0.  0.
</event>
<event>
 5    0  0.5590591E-005  0.2624237E+03  0.7546771E-02  0.1105696E+00
         21   -1    0    0  502  501  0.00000000000E+00  0.00000000000E+00  0.26828578543E+03  0.26828578543E+03  0.00000000000E+00 0.  1.
         21   -1    0    0  501  502 -0.00000000000E+00 -0.00000000000E+00 -0.25668969640E+03  0.25668969640E+03  0.00000000000E+00 0.  1.
         25    1    1    2    0    0 -0.14034402628E+02  0.49311794696E+02 -0.65082523225E+02  0.14996450374E+03  0.12500000000E+03 0.  0.
         25    1    1    2    0    0  0.34135721214E+02 -0.75244294975E+02  0.16159527053E+03  0.22037464202E+03  0.12500000000E+03 0.  0.
         25    1    1    2    0    0 -0.20101318585E+02  0.25932500279E+02 -0.84916658280E+02  0.15463633607E+03  0.12500000000E+03 0.  0.
</event>
<event>
 5    0  0.5590591E-005  0.3551187E+03  0.7546771E-02  0.1060534E+00
         21   -1    0    0  502  501  0.00000000000E+00  0.00000000000E+00  0.18117714419E+03  0.18117714419E+03  0.00000000000E+00 0.  1.
         21   -1    0    0  501  502 -0.00000000000E+00 -0.00000000000E+00 -0.69605511335E+03  0.69605511335E+03  0.00000000000E+00 0.  1.
         25    1    1    2    0    0  0.14183641163E+03 -0.81015152633E+02 -0.10984758193E+03  0.23317914546E+03  0.12500000000E+03 0.  0.
         25    1    1    2    0    0  0.68271122863E+02 -0.10683197902E+03 -0.22537548401E+03  0.28721616729E+03  0.12500000000E+03 0.  0.
         25    1    1    2    0    0 -0.21010753449E+03  0.18784713166E+03 -0.17965490321E+03  0.35683694480E+03  0.12500000000E+03 0.  0.
</event>
<event>
 5    0  0.5590591E-005  0.3277126E+03  0.7546771E-02  0.1072153E+00
         21   -1    0    0  502  501  0.00000000000E+00  0.00000000000E+00  0.77887358587E+03  0.77887358587E+03  0.00000000000E+00 0.  1.
         21   -1    0    0  501  502 -0.00000000000E+00 -0.00000000000E+00 -0.13788568853E+03  0.13788568853E+03  0.00000000000E+00 0.  1.
         25    1    1    2    0    0  0.26436169406E+02 -0.13496073611E+03 -0.17792418672E+01  0.18585326751E+03  0.12500000000E+03 0.  0.
         25    1    1    2    0    0 -0.14316029296E+02  0.63640101650E+02  0.10976986583E+03  0.17868809327E+03  0.12500000000E+03 0.  0.
         25    1    1    2    0    0 -0.12120140109E+02  0.71320634458E+02  0.53299727338E+03  0.55221791362E+03  0.12500000000E+03 0.  0.
</event>
<event>
 5    0  0.5590591E-005  0.2581220E+03  0.7546771E-02  0.1108277E+00
         21   -1    0    0  502  501  0.00000000000E+00  0.00000000000E+00  0.52269002613E+03  0.52269002613E+03  0.00000000000E+00 0.  1.
         21   -1    0    0  501  502 -0.00000000000E+00 -0.00000000000E+00 -0.12746933990E+03  0.12746933990E+03  0.00000000000E+00 0.  1.
         25    1    1    2    0    0 -0.17341558421E+02 -0.46700269984E+02  0.16160073716E+03  0.21028895148E+03  0.12500000000E+03 0.  0.
         25    1    1    2    0    0  0.31003236535E+02  0.15415744134E+03  0.16820836688E+03  0.26200147344E+03  0.12500000000E+03 0.  0.
         25    1    1    2    0    0 -0.13661678115E+02 -0.10745717136E+03  0.65411582184E+02  0.17786894110E+03  0.12500000000E+03 0.  0.
</event>
<event>
 5    0  0.5590591E-005  0.2567955E+03  0.7546771E-02  0.1109084E+00
         21   -1    0    0  502  501  0.00000000000E+00  0.00000000000E+00  0.14438175029E+04  0.14438175029E+04  0.00000000000E+00 0. -1.
         21   -1    0    0  501  502 -0.00000000000E+00 -0.00000000000E+00 -0.45673328260E+02  0.45673328260E+02  0.00000000000E+00 0. -1.
         25    1    1    2    0    0  0.15551147683E+01 -0.54268008141E+01  0.59653300962E+03  0.60951497120E+03  0.12500000000E+03 0.  0.
         25    1    1    2    0    0 -0.17002653064E+02 -0.80149189972E+02  0.64284423015E+03  0.65998991439E+03  0.12500000000E+03 0.  0.
         25    1    1    2    0    0  0.15447538296E+02  0.85575990786E+02  0.15876693487E+03  0.21998594556E+03  0.12500000000E+03 0.  0.
</event>
<event>
 5    0  0.5590591E-005  0.3482577E+03  0.7546771E-02  0.1063332E+00
         21   -1    0    0  502  501  0.00000000000E+00  0.00000000000E+00  0.53177447718E+03  0.53177447718E+03  0.00000000000E+00 0.  1.
         21   -1    0    0  501  502 -0.00000000000E+00 -0.00000000000E+00 -0.22807298926E+03  0.22807298926E+03  0.00000000000E+00 0.  1.
         25    1    1    2    0    0 -0.28728732345E+02  0.24757810719E+03  0.24006109989E+03  0.36793286195E+03  0.12500000000E+03 0.  0.
         25    1    1    2    0    0  0.38044605051E+02 -0.21669315363E+03  0.70378853153E+02  0.26264328998E+03  0.12500000000E+03 0.  0.
         25    1    1    2    0    0 -0.93158727062E+01 -0.30884953562E+02 -0.67384651219E+01  0.12927131450E+03  0.12500000000E+03 0.  0.
</event>
<event>
 5    0  0.5590591E-005  0.4318429E+03  0.7546771E-02  0.1033279E+00
         21   -1    0    0  502  501  0.00000000000E+00  0.00000000000E+00  0.11922720993E+03  0.11922720993E+03  0.00000000000E+00 0. -1.
         21   -1    0    0  501  502 -0.00000000000E+00 -0.00000000000E+00 -0.15641417925E+04  0.15641417925E+04  0.00000000000E+00 0. -1.
         25    1    1    2    0    0 -0.13260009576E+03  0.21930425675E+03 -0.11952260936E+04  0.12287666813E+04  0.12500000000E+03 0.  0.
         25    1    1    2    0    0  0.24230321360E+02 -0.10109778419E+03 -0.17269981190E+03  0.23718789065E+03  0.12500000000E+03 0.  0.
         25    1    1    2    0    0  0.10836977440E+03 -0.11820647256E+03 -0.76988677083E+02  0.21741443043E+03  0.12500000000E+03 0.  0.
</event>
<event>
 5    0  0.5590591E-005  0.4905530E+03  0.7546771E-02  0.1016275E+00
         21   -1    0    0  502  501  0.00000000000E+00  0.00000000000E+00  0.73590260724E+03  0.73590260724E+03  0.00000000000E+00 0. -1.
         21   -1    0    0  501  502 -0.00000000000E+00 -0.00000000000E+00 -0.32700286345E+03  0.32700286345E+03  0.00000000000E+00 0. -1.
         25    1    1    2    0    0  0.32771966996E+02  0.12323791917E+03  0.31338670384E+03  0.36069074383E+03  0.12500000000E+03 0.  0.
         25    1    1    2    0    0  0.22077633667E+03 -0.85848256711E+02  0.25978793975E+03  0.37313119362E+03  0.12500000000E+03 0.  0.
         25    1    1    2    0    0 -0.25354830366E+03 -0.37389662455E+02 -0.16427489980E+03  0.32908353325E+03  0.12500000000E+03 0.  0.
</event>
<event>
 5    0  0.5590591E-005  0.2362874E+03  0.7546771E-02  0.1122291E+00
         21   -1    0    0  502  501  0.00000000000E+00  0.00000000000E+00  0.30274955838E+02  0.30274955838E+02  0.00000000000E+00 0. -1.
         21   -1    0    0  501  502 -0.00000000000E+00 -0.00000000000E+00 -0.18441554844E+04  0.18441554844E+04  0.00000000000E+00 0. -1.
         25    1    1    2    0    0  0.42962713958E+02  0.56399949236E+01 -0.72828508028E+03  0.74020386549E+03  0.12500000000E+03 0.  0.
         25    1    1    2    0    0 -0.42565314172E+02 -0.96366671847E+02 -0.70026589169E+03  0.71909363818E+03  0.12500000000E+03 0.  0.
         25    1    1    2    0    0 -0.39739978618E+00  0.90726676923E+02 -0.38532955656E+03  0.41513293653E+03  0.12500000000E+03 0.  0.
</event>
<event>
 5    0  0.5590591E-005  0.3971704E+03  0.7546771E-02  0.1044764E+00
         21   -1    0    0  502  501  0.00000000000E+00  0.00000000000E+00  0.21532936479E+03  0.21532936479E+03  0.00000000000E+00 0.  1.
         21   -1    0    0  501  502 -0.00000000000E+00 -0.00000000000E+00 -0.73257241763E+03  0.73257241763E+03  0.00000000000E+00 0.  1.
         25    1    1    2    0    0 -0.70333493557E+02  0.26015362379E+02 -0.58544276872E+03  0.60331735831E+03  0.12500000000E+03 0.  0.
         25    1    1    2    0    0 -0.53362698594E+02  0.31865793969E+02  0.76641613121E+02  0.15925433523E+03  0.12500000000E+03 0.  0.
         25    1    1    2    0    0  0.12369619215E+03 -0.57881156348E+02 -0.84418972425E+01  0.18533008887E+03  0.12500000000E+03 0.  0.
</event>
<event>
 5    0  0.5590591E-005  0.3613336E+03  0.7546771E-02  0.1058057E+00
         21   -1    0    0  502  501  0.00000000000E+00  0.00000000000E+00  0.34318253426E+03  0.34318253426E+03  0.00000000000E+00 0. -1.
         21   -1    0    0  501  502 -0.00000000000E+00 -0.00000000000E+00 -0.38044465124E+03  0.38044465124E+03  0.00000000000E+00 0.  1.
         25    1    1    2    0    0  0.10825964185E+03  0.15800287590E+03 -0.14683921979E+01  0.22871863724E+03  0.12500000000E+03 0.  0.
         25    1    1    2    0    0  0.11854659219E+03  0.24324011403E+02 -0.38452291384E+02  0.17818117399E+03  0.12500000000E+03 0.  0.
         25    1    1    2    0    0 -0.22680623404E+03 -0.18232688731E+03  0.26585666016E+01  0.31672737426E+03  0.12500000000E+03 0.  0.
</event>
<event>
 5    0  0.5590591E-005  0.3195363E+03  0.7546771E-02  0.1075863E+00
         21   -1    0    0  502  501  0.00000000000E+00  0.00000000000E+00  0.27943776520E+03  0.27943776520E+03  0.00000000000E+00 0.  1.
         21   -1    0    0  501  502 -0.00000000000E+00 -0.00000000000E+00 -0.36538897233E+03  0.36538897233E+03  0.00000000000E+00 0.  1.
         25    1    1    2    0    0 -0.46506273212E+01  0.10991088018E+03 -0.16377805380E+03  0.23356001546E+03  0.12500000000E+03 0.  0.
         25    1    1    2    0    0 -0.10118247608E+03 -0.16527019937E+03  0.52892291901E+02  0.23658978593E+03  0.12500000000E+03 0.  0.
         25    1    1    2    0    0  0.10583310340E+03  0.55359319195E+02  0.24934554763E+02  0.17467693614E+03  0.12500000000E+03 0.  0.
</event>
<event>
 5    0  0.5590591E-005  0.5907081E+03  0.7546771E-02  0.9924874E-01
         21   -1    0    0  502  501  0.00000000000E+00  0.00000000000E+00  0.10951987275E+04  0.10951987275E+04  0.00000000000E+00 0.  1.
         21   -1    0    0  501  502 -0.00000000000E+00 -0.00000000000E+00 -0.31860522459E+03  0.31860522459E+03  0.00000000000E+00 0.  1.
         25    1    1    2    0    0 -0.35355276535E+03  0.13210084042E+03  0.36797065433E+03  0.54173572189E+03  0.12500000000E+03 0.  0.
         25    1    1    2    0    0 -0.12977772237E+03  0.10817359472E+03  0.64442038815E+02  0.21982165540E+03  0.12500000000E+03 0.  0.
         25    1    1    2    0    0  0.48333048772E+03 -0.24027443514E+03  0.34418080982E+03  0.65224657484E+03  0.12500000000E+03 0.  0.
</event>
<event>
 5    0  0.5590591E-005  0.2460361E+03  0.7546771E-02  0.1115836E+00
         21   -1    0    0  502  501  0.00000000000E+00  0.00000000000E+00  0.83844164583E+03  0.83844164583E+03  0.00000000000E+00 0.  1.
         21   -1    0    0  501  502 -0.00000000000E+00 -0.00000000000E+00 -0.72197929988E+02  0.72197929988E+02  0.00000000000E+00 0.  1.
         25    1    1    2    0    0 -0.13633370338E+02 -0.18104698971E+02  0.40675150070E+02  0.13339084206E+03  0.12500000000E+03 0.  0.
         25    1    1    2    0    0  0.59415694598E+02 -0.18565831513E+02  0.33249897382E+03  0.36063205967E+03  0.12500000000E+03 0.  0.
         25    1    1    2    0    0 -0.45782324259E+02  0.36670530484E+02  0.39306959195E+03  0.41661667410E+03  0.12500000000E+03 0.  0.
</event>
<event>
 5    0  0.5590591E-005  0.2678136E+03  0.7546771E-02  0.1102538E+00
         21   -1    0    0  502  501  0.00000000000E+00  0.00000000000E+00  0.83205789373E+02  0.83205789373E+02  0.00000000000E+00 0. -1.
         21   -1    0    0  501  502 -0.00000000000E+00 -0.00000000000E+00 -0.86200863018E+03  0.86200863018E+03  0.00000000000E+00 0. -1.
         25    1    1    2    0    0  0.93588693379E+02  0.28264829693E+02 -0.19129306878E+03  0.24854734416E+03  0.12500000000E+03 0.  0.
         25    1    1    2    0    0 -0.17788034902E+03 -0.25060717306E+02 -0.40088806196E+03  0.45673372587E+03  0.12500000000E+03 0.  0.
         25    1    1    2    0    0  0.84291655643E+02 -0.32041123867E+01 -0.18662171006E+03  0.23993334952E+03  0.12500000000E+03 0.  0.
</event>
<event>
 5    0  0.5590591E-005  0.3971493E+03  0.7546771E-02  0.1044771E+00
         21   -1    0    0  502  501  0.00000000000E+00  0.00000000000E+00  0.19612710021E+03  0.19612710021E+03  0.00000000000E+00 0. -1.
         21   -1    0    0  501  502 -0.00000000000E+00 -0.00000000000E+00 -0.80421095777E+03  0.80421095777E+03  0.00000000000E+00 0. -1.
         25    1    1    2    0    0  0.13741900067E+03 -0.66917021002E+02  0.98635195323E+02  0.22071649508E+03  0.12500000000E+03 0.  0.
         25    1    1    2    0    0 -0.57128016568E+02  0.10373369449E+03 -0.31370547984E+03  0.35785530279E+03  0.12500000000E+03 0.  0.
         25    1    1    2    0    0 -0.80290984100E+02 -0.36816673489E+02 -0.39301357305E+03  0.42176626012E+03  0.12500000000E+03 0.  0.
</event>
<event>
 5    0  0.5590591E-005  0.2418109E+03  0.7546771E-02  0.1118592E+00
         21   -1    0    0  502  501  0.00000000000E+00  0.00000000000E+00  0.18554878376E+03  0.18554878376E+03  0.00000000000E+00 0. -1.
         21   -1    0    0  501  502 -0.00000000000E+00 -0.00000000000E+00 -0.31513268932E+03  0.31513268932E+03  0.00000000000E+00 0. -1.
         25    1    1    2    0    0 -0.18072384192E+02  0.85609694209E+02  0.49670587259E+00  0.15258072463E+03  0.12500000000E+03 0.  0.
         25    1    1    2    0    0 -0.44449568483E+02 -0.11358605409E+03 -0.39007395809E+02  0.17895287858E+03  0.12500000000E+03 0.  0.
         25    1    1    2    0    0  0.62521952676E+02  0.27976359883E+02 -0.91073215624E+02  0.16914786987E+03  0.12500000000E+03 0.  0.
</event>
<event>
 5    0  0.5590591E-005  0.2824187E+03  0.7546771E-02  0.1094375E+00
         21   -1    0    0  502  501  0.00000000000E+00  0.00000000000E+00  0.54203121958E+03  0.54203121958E+03  0.00000000000E+00 0. -1.
         21   -1    0    0  501  502 -0.00000000000E+00 -0.00000000000E+00 -0.14715083179E+03  0.14715083179E+03  0.00000000000E+00 0. -1.
         25    1    1    2    0    0 -0.41722664882E+02  0.16434607737E+02  0.12764496219E+03  0.18419857076E+03  0.12500000000E+03 0.  0.
         25    1    1    2    0    0 -0.13852891513E+03  0.36267759744E+02  0.18392278019E+03  0.26449612435E+03  0.12500000000E+03 0.  0.
         25    1    1    2    0    0  0.18025158001E+03 -0.52702367480E+02  0.83312645406E+02  0.24048735626E+03  0.12500000000E+03 0.  0.
</event>
<event>
 5    0  0.5590591E-005  0.3581378E+03  0.7546771E-02  0.1059324E+00
         21   -1    0    0  502  501  0.00000000000E+00  0.00000000000E+00  0.69283344690E+03  0.69283344690E+03  0.00000000000E+00 0.  1.
         21   -1    0    0  501  502 -0.00000000000E+00 -0.00000000000E+00 -0.18512770859E+03  0.18512770859E+03  0.00000000000E+00 0.  1.
         25    1    1    2    0    0  0.90541764229E+02  0.65820326366E+02  0.12845461310E+03  0.21131898651E+03  0.12500000000E+03 0.  0.
         25    1    1    2    0    0  0.70663786900E+02  0.15636016812E+03  0.46102980391E+02  0.21723802097E+03  0.12500000000E+03 0.  0.
         25    1    1    2    0    0 -0.16120555113E+03 -0.22218049449E+03  0.33314814483E+03  0.44940414801E+03  0.12500000000E+03 0.  0.
</event>
<event>
 5    0  0.5590591E-005  0.2798910E+03  0.7546771E-02  0.1095748E+00
         21   -1    0    0  502  501  0.00000000000E+00  0.00000000000E+00  0.66247736830E+03  0.66247736830E+03  0.00000000000E+00 0. -1.
         21   -1    0    0  501  502 -0.00000000000E+00 -0.00000000000E+00 -0.11825156847E+03  0.11825156847E+03  0.00000000000E+00 0. -1.
         25    1    1    2    0    0 -0.12197108841E+03  0.13015200990E+03  0.33065169634E+03  0.39594448649E+03  0.12500000000E+03 0.  0.
         25    1    1    2    0    0  0.19859577538E+02 -0.49464047852E+02  0.12109560835E+03  0.18201714538E+03  0.12500000000E+03 0.  0.
         25    1    1    2    0    0  0.10211151088E+03 -0.80687962052E+02  0.92478495134E+02  0.20276730490E+03  0.12500000000E+03 0.  0.
</event>
<event>
 5    0  0.5590591E-005  0.2537955E+03  0.7546771E-02  0.1110929E+00
         21   -1    0    0  502  501  0.00000000000E+00  0.00000000000E+00  0.15819749365E+03  0.15819749365E+03  0.00000000000E+00 0.  1.
         21   -1    0    0  501  502 -0.00000000000E+00 -0.00000000000E+00 -0.40716303410E+03  0.40716303410E+03  0.00000000000E+00 0.  1.
         25    1    1    2    0    0  0.17456474842E+02 -0.55679473056E+02 -0.69434019546E+02  0.15443773925E+03  0.12500000000E+03 0.  0.
         25    1    1    2    0    0  0.11649462972E+03  0.17890713416E+02 -0.13532607973E+03  0.21869893515E+03  0.12500000000E+03 0.  0.
         25    1    1    2    0    0 -0.13395110456E+03  0.37788759640E+02 -0.44205441172E+02  0.19222385335E+03  0.12500000000E+03 0.  0.
</event>
<event>
 5    0  0.5590591E-005  0.3825737E+03  0.7546771E-02  0.1049987E+00
         21   -1    0    0  502  501  0.00000000000E+00  0.00000000000E+00  0.12548115198E+04  0.12548115198E+04  0.00000000000E+00 0.  1.
         21   -1    0    0  501  502 -0.00000000000E+00 -0.00000000000E+00 -0.11664113482E+03  0.11664113482E+03  0.00000000000E+00 0.  1.
         25    1    1    2    0    0 -0.19013911011E+03  0.11817746598E+03  0.54634887514E+03  0.60352372614E+03  0.12500000000E+03 0.  0.
         25    1    1    2    0    0 -0.12348390762E+02 -0.20111900032E+03  0.29854770534E+03  0.38125721948E+03  0.12500000000E+03 0.  0.
         25    1    1    2    0    0  0.20248750087E+03  0.82941534339E+02  0.29327380446E+03  0.38667170896E+03  0.12500000000E+03 0.  0.
</event>
<event>
 5    0  0.5590591E-005  0.7165473E+03  0.7546771E-02  0.9689345E-01
         21   -1    0    0  502  501  0.00000000000E+00  0.00000000000E+00  0.10786351872E+04  0.10786351872E+04  0.00000000000E+00 0. -1.
         21   -1    0    0  501  502 -0.00000000000E+00 -0.00000000000E+00 -0.47600891327E+03  0.47600891327E+03  0.00000000000E+00 0. -1.
         25    1    1    2    0    0 -0.18888547262E+03 -0.34455896282E+03 -0.31669085484E+03  0.51991989591E+03  0.12500000000E+03 0.  0.
         25    1    1    2    0    0  0.10462268304E+03  0.23170746258E+03  0.49160100926E+03  0.56738946618E+03  0.12500000000E+03 0.  0.
         25    1    1    2    0    0  0.84262789583E+02  0.11285150024E+03  0.42771611953E+03  0.46733473841E+03  0.12500000000E+03 0.  0.
</event>
<event>
 5    0  0.5590591E-005  0.3855741E+03  0.7546771E-02  0.1048893E+00
         21   -1    0    0  502  501  0.00000000000E+00  0.00000000000E+00  0.11046214900E+03  0.11046214900E+03  0.00000000000E+00 0. -1.
         21   -1    0    0  501  502 -0.00000000000E+00 -0.00000000000E+00 -0.13458675109E+04  0.13458675109E+04  0.00000000000E+00 0. -1.
         25    1    1    2    0    0  0.98596570743E+02  0.12735641316E+02 -0.17160085815E+03  0.23442554221E+03  0.12500000000E+03 0.  0.
         25    1    1    2    0    0 -0.92095414752E+02  0.88297961696E+02 -0.36783896892E+02  0.18236268952E+03  0.12500000000E+03 0.  0.
         25    1    1    2    0    0 -0.65011559905E+01 -0.10103360301E+03 -0.10270206069E+04  0.10395414282E+04  0.12500000000E+03 0.  0.
</event>
<event>
 5    0  0.5590591E-005  0.3117250E+03  0.7546771E-02  0.1079522E+00
         21   -1    0    0  502  501  0.00000000000E+00  0.00000000000E+00  0.97712167427E+02  0.97712167427E+02  0.00000000000E+00 0. -1.
         21   -1    0    0  501  502 -0.00000000000E+00 -0.00000000000E+00 -0.99447664210E+03  0.99447664210E+03  0.00000000000E+00 0. -1.
         25    1    1    2    0    0 -0.11003313735E+03  0.58463233691E+02 -0.43410360757E+03  0.46861090802E+03  0.12500000000E+03 0.  0.
         25    1    1    2    0    0  0.19089088198E+03  0.70234700545E+00 -0.15237446880E+03  0.27437711431E+03  0.12500000000E+03 0.  0.
         25    1    1    2    0    0 -0.80857744631E+02 -0.59165580696E+02 -0.31028639830E+03  0.34920078719E+03  0.12500000000E+03 0.  0.
</event>
<event>
 5    0  0.5590591E-005  0.3489038E+03  0.7546771E-02  0.1063066E+00
         21   -1    0    0  502  501  0.00000000000E+00  0.00000000000E+00  0.78013432157E+02  0.78013432157E+02  0.00000000000E+00 0.  1.
         21   -1    0    0  501  502 -0.00000000000E+00 -0.00000000000E+00 -0.15604216884E+04  0.15604216884E+04  0.00000000000E+00 0.  1.
         25    1    1    2    0    0  0.54646558391E+02  0.50004255537E+02 -0.44249251680E+03  0.46573737163E+03  0.12500000000E+03 0.  0.
         25    1    1    2    0    0 -0.10411079992E+03  0.17331284803E+03 -0.26933290804E+03  0.35922363133E+03  0.12500000000E+03 0.  0.
         25    1    1    2    0    0  0.49464241533E+02 -0.22331710357E+03 -0.77058283143E+03  0.81347411761E+03  0.12500000000E+03 0.  0.
</event>
<event>
 5    0  0.5590591E-005  0.2665976E+03  0.7546771E-02  0.1103243E+00
         21   -1    0    0  502  501  0.00000000000E+00  0.00000000000E+00  0.20236374709E+03  0.20236374709E+03  0.00000000000E+00 0.  1.
         21   -1    0    0  501  502 -0.00000000000E+00 -0.00000000000E+00 -0.35122030378E+03  0.35122030378E+03  0.00000000000E+00 0.  1.
         25    1    1    2    0    0  0.15961920013E+03 -0.14371032287E+02  0.13966142556E+02  0.20372743742E+03  0.12500000000E+03 0.  0.
         25    1    1    2    0    0 -0.37636311848E+02 -0.49995883212E+01 -0.44512853438E+02  0.13801406441E+03  0.12500000000E+03 0.  0.
         25    1    1    2    0    0 -0.12198288828E+03  0.19370620609E+02 -0.11830984581E+03  0.21184254905E+03  0.12500000000E+03 0.  0.
</event>
<event>
 5    0  0.5590591E-005  0.2600420E+03  0.7546771E-02  0.1107118E+00
         21   -1    0    0  502  501  0.00000000000E+00  0.00000000000E+00  0.85918937251E+02  0.85918937251E+02  0.00000000000E+00 0.  1.
         21   -1    0    0  501  502 -0.00000000000E+00 -0.00000000000E+00 -0.78704214936E+03  0.78704214936E+03  0.00000000000E+00 0.  1.
         25    1    1    2    0    0  0.55675915189E+02  0.11375905025E+03 -0.27943288787E+03  0.33128336491E+03  0.12500000000E+03 0.  0.
         25    1    1    2    0    0 -0.28245911909E+02  0.19367938683E+02 -0.28125640135E+03  0.30968227571E+03  0.12500000000E+03 0.  0.
         25    1    1    2    0    0 -0.27430003279E+02 -0.13312698893E+03 -0.14043392289E+03  0.23199544599E+03  0.12500000000E+03 0.  0.
</event>
<event>
 5    0  0.5590591E-005  0.2206737E+03  0.7546771E-02  0.1133382E+00
         21   -1    0    0  502  501  0.00000000000E+00  0.00000000000E+00  0.53270647947E+02  0.53270647947E+02  0.00000000000E+00 0.  1.
         21   -1    0    0  501  502 -0.00000000000E+00 -0.00000000000E+00 -0.91414085404E+03  0.91414085404E+03  0.00000000000E+00 0.  1.
         25    1    1    2    0    0 -0.95965010084E+02 -0.61963400737E+01 -0.34451340041E+03  0.37889597630E+03  0.12500000000E+03 0.  0.
         25    1    1    2    0    0  0.86893874006E+02 -0.20574772669E+02 -0.26259130791E+03  0.30422534674E+03  0.12500000000E+03 0.  0.
         25    1    1    2    0    0  0.90711360784E+01  0.26771112743E+02 -0.25376549778E+03  0.28429017895E+03  0.12500000000E+03 0.  0.
</event>
<event>
 5    0  0.5590591E-005  0.2752326E+03  0.7546771E-02  0.1098322E+00
         21   -1    0    0  502  501  0.00000000000E+00  0.00000000000E+00  0.60176886742E+03  0.60176886742E+03  0.00000000000E+00 0.  1.
         21   -1    0    0  501  502 -0.00000000000E+00 -0.00000000000E+00 -0.12588381599E+03  0.12588381599E+03  0.00000000000E+00 0.  1.
         25    1    1    2    0    0  0.16356415211E+02 -0.15030105826E+03  0.32268098822E+03  0.37763204392E+03  0.12500000000E+03 0.  0.
         25    1    1    2    0    0 -0.28326719548E+02  0.16710794328E+02  0.43576733950E+02  0.13640229261E+03  0.12500000000E+03 0.  0.
         25    1    1    2    0    0  0.11970304337E+02  0.13359026393E+03  0.10962732926E+03  0.21361834688E+03  0.12500000000E+03 0.  0.
</event>
<event>
 5    0  0.5590591E-005  0.2737736E+03  0.7546771E-02  0.1099139E+00
         21   -1    0    0  502  501  0.00000000000E+00  0.00000000000E+00  0.79160703209E+02  0.79160703209E+02  0.00000000000E+00 0.  1.
         21   -1    0    0  501  502 -0.00000000000E+00 -0.00000000000E+00 -0.94683343437E+03  0.94683343437E+03  0.00000000000E+00 0.  1.
         25    1    1    2    0    0 -0.11234975559E+03  0.67703257702E+01 -0.20801244939E+03  0.26751165207E+03  0.12500000000E+03 0.  0.
         25    1    1    2    0    0  0.16149057469E+03  0.69074696924E+01 -0.22781450419E+03  0.30602510873E+03  0.12500000000E+03 0.  0.
         25    1    1    2    0    0 -0.49140819100E+02 -0.13677795463E+02 -0.43184577758E+03  0.45245737678E+03  0.12500000000E+03 0.  0.
</event>
<event>
 5    0  0.5590591E-005  0.2796599E+03  0.7546771E-02  0.1095875E+00
         21   -1    0    0  502  501  0.00000000000E+00  0.00000000000E+00  0.81100049974E+03  0.81100049974E+03  0.00000000000E+00 0. -1.
         21   -1    0    0  501  502 -0.00000000000E+00 -0.00000000000E+00 -0.96436028987E+02  0.96436028987E+02  0.00000000000E+00 0. -1.
         25    1    1    2    0    0  0.42150600348E+02 -0.72551942217E+01  0.27076924045E+03  0.30128108558E+03  0.12500000000E+03 0.  0.
         25    1    1    2    0    0  0.20995480416E+02 -0.15137750389E+03  0.17314254660E+03  0.26260102880E+03  0.12500000000E+03 0.  0.
         25    1    1    2    0    0 -0.63146080764E+02  0.15863269811E+03  0.27065268370E+03  0.34355441435E+03  0.12500000000E+03 0.  0.
</event>
<event>
 5    0  0.5590591E-005  0.2959511E+03  0.7546771E-02  0.1087282E+00
         21   -1    0    0  502  501  0.00000000000E+00  0.00000000000E+00  0.52665505433E+03  0.52665505433E+03  0.00000000000E+00 0. -1.
         21   -1    0    0  501  502 -0.00000000000E+00 -0.00000000000E+00 -0.16630818350E+03  0.16630818350E+03  0.00000000000E+00 0. -1.
         25    1    1    2    0    0 -0.55462395811E+02 -0.44634329017E+02  0.19321223637E+03  0.24088227199E+03  0.12500000000E+03 0.  0.
         25    1    1    2    0    0  0.12977764267E+03  0.10939583794E+03 -0.13601586712E+02  0.21123373086E+03  0.12500000000E+03 0.  0.
         25    1    1    2    0    0 -0.74315246854E+02 -0.64761508922E+02  0.18073622117E+03  0.24084723498E+03  0.12500000000E+03 0.  0.
</event>
<event>
 5    0  0.6012222E-005  0.2833188E+03  0.7546771E-02  0.1093890E+00
         21   -1    0    0  502  501  0.00000000000E+00  0.00000000000E+00  0.11718871954E+03  0.11718871954E+03  0.00000000000E+00 0.  1.
         21   -1    0    0  501  502 -0.00000000000E+00 -0.00000000000E+00 -0.68495948134E+03  0.68495948134E+03  0.00000000000E+00 0.  1.
         25    1    1    2    0    0 -0.21247564928E+02 -0.94447673794E+02 -0.44814871504E+03  0.47522004681E+03  0.12500000000E+03 0.  0.
         25    1    1    2    0    0  0.82002801610E+02  0.57625768404E+02 -0.69792674377E+02  0.17476042473E+03  0.12500000000E+03 0.  0.
         25    1    1    2    0    0 -0.60755236682E+02  0.36821905390E+02 -0.49829372380E+02  0.15216772934E+03  0.12500000000E+03 0.  0.
</event>
<event>
 5    0  0.5590591E-005  0.6280966E+03  0.7546771E-02  0.9848770E-01
         21   -1    0    0  502  501  0.00000000000E+00  0.00000000000E+00  0.58079653704E+03  0.58079653704E+03  0.00000000000E+00 0. -1.
         21   -1    0    0  501  502 -0.00000000000E+00 -0.00000000000E+00 -0.67924869805E+03  0.67924869805E+03  0.00000000000E+00 0. -1.
         25    1    1    2    0    0 -0.17793439806E+03 -0.56524458280E+02 -0.16092749806E+03  0.27636628598E+03  0.12500000000E+03 0.  0.
         25    1    1    2    0    0  0.47379147739E+03 -0.21100109813E+03 -0.85391856829E+02  0.54029306554E+03  0.12500000000E+03 0.  0.
         25    1    1    2    0    0 -0.29585707933E+03  0.26752555641E+03  0.14786719387E+03  0.44338588356E+03  0.12500000000E+03 0.  0.
</event>
<event>
 5    0  0.5590591E-005  0.3294075E+03  0.7546771E-02  0.1071399E+00
         21   -1    0    0  502  501  0.00000000000E+00  0.00000000000E+00  0.11189359012E+03  0.11189359012E+03  0.00000000000E+00 0. -1.
         21   -1    0    0  501  502 -0.00000000000E+00 -0.00000000000E+00 -0.96975451576E+03  0.96975451576E+03  0.00000000000E+00 0. -1.
         25    1    1    2    0    0  0.98689243298E+02  0.10522680365E+03 -0.60786683834E+02  0.20033039680E+03  0.12500000000E+03 0.  0.
         25    1    1    2    0    0  0.34314306646E+02 -0.10937286570E+02 -0.13237336360E+03  0.18559311213E+03  0.12500000000E+03 0.  0.
         25    1    1    2    0    0 -0.13300354994E+03 -0.94289517080E+02 -0.66470087820E+03  0.69572459696E+03  0.12500000000E+03 0.  0.
</event>
<event>
 5    0  0.5590591E-005  0.3422710E+03  0.7546771E-02  0.1065833E+00
         21   -1    0    0  502  501  0.00000000000E+00  0.00000000000E+00  0.23946117890E+03  0.23946117890E+03  0.00000000000E+00 0.  1.
         21   -1    0    0  501  502 -0.00000000000E+00 -0.00000000000E+00 -0.48922089658E+03  0.48922089658E+03  0.00000000000E+00 0.  1.
         25    1    1    2    0    0  0.30183243378E+02  0.75382752019E+02 -0.17510895874E+03  0.22996028986E+03  0.12500000000E+03 0.  0.
         25    1    1    2    0    0  0.31262945460E+02 -0.18295601516E+03  0.10504165277E+03  0.24720239493E+03  0.12500000000E+03 0.  0.
         25    1    1    2    0    0 -0.61446188838E+02  0.10757326314E+03 -0.17969241171E+03  0.25151939069E+03  0.12500000000E+03 0.  0.
</event>
<event>
 5    0  0.5590591E-005  0.4044780E+03  0.7546771E-02  0.1042240E+00
         21   -1    0    0  502  501  0.00000000000E+00  0.00000000000E+00  0.35483950285E+03  0.35483950285E+03  0.00000000000E+00 0. -1.
         21   -1    0    0  501  502 -0.00000000000E+00 -0.00000000000E+00 -0.46106033298E+03  0.46106033298E+03  0.00000000000E+00 0. -1.
         25    1    1    2    0    0  0.37570372626E+02  0.84003220718E+02 -0.38718019399E+01  0.15526771989E+03  0.12500000000E+03 0.  0.
         25    1    1    2    0    0  0.11665903839E+02  0.25455345521E+03 -0.61116305246E+01  0.28389418257E+03  0.12500000000E+03 0.  0.
         25    1    1    2    0    0 -0.49236276465E+02 -0.33855667592E+03 -0.96237397662E+02  0.37673793337E+03  0.12500000000E+03 0.  0.
</event>
<event>
 5    0  0.5590591E-005  0.3416185E+03  0.7546771E-02  0.1066109E+00
         21   -1    0    0  502  501  0.00000000000E+00  0.00000000000E+00  0.68374693301E+02  0.68374693301E+02  0.00000000000E+00 0.  1.
         21   -1    0    0  501  502 -0.00000000000E+00 -0.00000000000E+00 -0.17068187322E+04  0.17068187322E+04  0.00000000000E+00 0.  1.
         25    1    1    2    0    0 -0.86864585648E+02 -0.88893411664E+01 -0.14367294502E+03  0.20950272494E+03  0.12500000000E+03 0.  0.
         25    1    1    2    0    0 -0.13000153924E+03  0.91531176647E+02 -0.63934635088E+03  0.67057222794E+03  0.12500000000E+03 0.  0.
         25    1    1    2    0    0  0.21686612489E+03 -0.82641835480E+02 -0.85542474302E+03  0.89511847264E+03  0.12500000000E+03 0.  0.
</event>
<event>
 5    0  0.5590591E-005  0.4003463E+03  0.7546771E-02  0.1043660E+00
         21   -1    0    0  502  501  0.00000000000E+00  0.00000000000E+00  0.90743825544E+03  0.90743825544E+03  0.00000000000E+00 0. -1.
         21   -1    0    0  501  502 -0.00000000000E+00 -0.00000000000E+00 -0.17662596904E+03  0.17662596904E+03  0.00000000000E+00 0. -1.
         25    1    1    2    0    0  0.63131651034E+02 -0.26351159544E+03  0.48029311005E+03  0.56544711322E+03  0.12500000000E+03 0.  0.
         25    1    1    2    0    0  0.39143060678E+01  0.20509770541E+03  0.27292806267E+03  0.36358646558E+03  0.12500000000E+03 0.  0.
         25    1    1    2    0    0 -0.67045957101E+02  0.58413890028E+02 -0.22408886321E+02  0.15503064567E+03  0.12500000000E+03 0.  0.
</event>
<event>
 5    0  0.5590591E-005  0.3151429E+03  0.7546771E-02  0.1077907E+00
         21   -1    0    0  502  501  0.00000000000E+00  0.00000000000E+00  0.35709048919E+03  0.35709048919E+03  0.00000000000E+00 0. -1.
         21   -1    0    0  501  502 -0.00000000000E+00 -0.00000000000E+00 -0.27812295800E+03  0.27812295800E+03  0.00000000000E+00 0. -1.
         25    1    1    2    0    0  0.94748752102E+02  0.47305770449E+02 -0.17007823563E+03  0.23614988498E+03  0.12500000000E+03 0.  0.
         25    1    1    2    0    0 -0.57020556455E+02  0.43194238463E+02  0.16611005255E+03  0.21985139448E+03  0.12500000000E+03 0.  0.
         25    1    1    2    0    0 -0.37728195647E+02 -0.90500008912E+02  0.82935714265E+02  0.17921216772E+03  0.12500000000E+03 0.  0.
</event>
<event>
 5    0  0.5590591E-005  0.4240875E+03  0.7546771E-02  0.1035744E+00
         21   -1    0    0  502  501  0.00000000000E+00  0.00000000000E+00  0.15793455612E+04  0.15793455612E+04  0.00000000000E+00 0. -1.
         21   -1    0    0  501  502 -0.00000000000E+00 -0.00000000000E+00 -0.11387643977E+03  0.11387643977E+03  0.00000000000E+00 0. -1.
         25    1    1    2    0    0 -0.21622987277E+03  0.14009154694E+03  0.45042523870E+03  0.53374984315E+03  0.12500000000E+03 0.  0.
         25    1    1    2    0    0  0.10224960132E+03 -0.29151005411E+03  0.61571891068E+03  0.70011989658E+03  0.12500000000E+03 0.  0.
         25    1    1    2    0    0  0.11398027146E+03  0.15141850717E+03  0.39932497202E+03  0.45935226120E+03  0.12500000000E+03 0.  0.
</event>
<event>
 5    0  0.6021000E-005  0.2925808E+03  0.7546771E-02  0.1089009E+00
         21   -1    0    0  502  501  0.00000000000E+00  0.00000000000E+00  0.74575858286E+03  0.74575858286E+03  0.00000000000E+00 0.  1.
         21   -1    0    0  501  502 -0.00000000000E+00 -0.00000000000E+00 -0.11478719433E+03  0.11478719433E+03  0.00000000000E+00 0.  1.
         25    1    1    2    0    0 -0.34216313654E+02 -0.13440140315E+03  0.13471728887E+03  0.23023518673E+03  0.12500000000E+03 0.  0.
         25    1    1    2    0    0  0.81147174587E+02  0.35684058751E+02  0.61852337119E+02  0.16525413036E+03  0.12500000000E+03 0.  0.
         25    1    1    2    0    0 -0.46930860933E+02  0.98717344398E+02  0.43440176253E+03  0.46505646010E+03  0.12500000000E+03 0.  0.
</event>
<event>
 5    0  0.5590591E-005  0.3896003E+03  0.7546771E-02  0.1047441E+00
         21   -1    0    0  502  501  0.00000000000E+00  0.00000000000E+00  0.18234280229E+04  0.18234280229E+04  0.00000000000E+00 0. -1.
         21   -1    0    0  501  502 -0.00000000000E+00 -0.00000000000E+00 -0.83243422664E+02  0.83243422664E+02  0.00000000000E+00 0. -1.
         25    1    1    2    0    0 -0.17326153417E+03 -0.10956357415E+03  0.14018013438E+04  0.14222150834E+04  0.12500000000E+03 0.  0.
         25    1    1    2    0    0  0.41361621305E+02  0.55100476780E+02  0.21531702475E+03  0.25832782933E+03  0.12500000000E+03 0.  0.
         25    1    1    2    0    0  0.13189991287E+03  0.54463097371E+02  0.12306623176E+03  0.22612853289E+03  0.12500000000E+03 0.  0.
</event>
<event>
 5    0  0.5665583E-005  0.3473638E+03  0.7546771E-02  0.1063702E+00
         21   -1    0    0  502  501  0.00000000000E+00  0.00000000000E+00  0.41846504454E+03  0.41846504454E+03  0.00000000000E+00 0. -1.
         21   -1    0    0  501  502 -0.00000000000E+00 -0.00000000000E+00 -0.28834336636E+03  0.28834336636E+03  0.00000000000E+00 0. -1.
         25    1    1    2    0    0  0.58439883353E+02  0.12067816286E+03  0.52370839958E+02  0.19064664654E+03  0.12500000000E+03 0.  0.
         25    1    1    2    0    0  0.10598172253E+03 -0.16658341290E+03  0.16628244840E+03  0.28680483192E+03  0.12500000000E+03 0.  0.
         25    1    1    2    0    0 -0.16442160588E+03  0.45905250040E+02 -0.88531610183E+02  0.22935693245E+03  0.12500000000E+03 0.  0.
</event>
<event>
 5    0  0.5590591E-005  0.4697436E+03  0.7546771E-02  0.1021993E+00
         21   -1    0    0  502  501  0.00000000000E+00  0.00000000000E+00  0.30500202742E+03  0.30500202742E+03  0.00000000000E+00 0.  1.
         21   -1    0    0  501  502 -0.00000000000E+00 -0.00000000000E+00 -0.72346758617E+03  0.72346758617E+03  0.00000000000E+00 0.  1.
         25    1    1    2    0    0  0.19117697397E+03  0.16378841585E+03 -0.42548541464E+03  0.50993932837E+03  0.12500000000E+03 0.  0.
         25    1    1    2    0    0 -0.11010814808E+03 -0.28011844820E+03  0.33654276623E+02  0.32763967957E+03  0.12500000000E+03 0.  0.
         25    1    1    2    0    0 -0.81068825886E+02  0.11633003235E+03 -0.26634420729E+02  0.19089060565E+03  0.12500000000E+03 0.  0.
</event>
<event>
 5    0  0.5590591E-005  0.2722846E+03  0.7546771E-02  0.1099979E+00
         21   -1    0    0  502  501  0.00000000000E+00  0.00000000000E+00  0.46716950643E+02  0.46716950643E+02  0.00000000000E+00 0. -1.
         21   -1    0    0  501  502 -0.00000000000E+00 -0.00000000000E+00 -0.15869808599E+04  0.15869808599E+04  0.00000000000E+00 0. -1.
         25    1    1    2    0    0 -0.13382333716E+02  0.64013243920E+02 -0.12307987217E+03  0.18721761986E+03  0.12500000000E+03 0.  0.
         25    1    1    2    0    0  0.11280856593E+02  0.34227980012E+02 -0.68251188307E+03  0.69479945515E+03  0.12500000000E+03 0.  0.
         25    1    1    2    0    0  0.21014771226E+01 -0.98241223932E+02 -0.73467215399E+03  0.75168073551E+03  0.12500000000E+03 0.  0.
</event>
<event>
 5    0  0.5590591E-005  0.2680864E+03  0.7546771E-02  0.1102380E+00
         21   -1    0    0  502  501  0.00000000000E+00  0.00000000000E+00  0.35410344627E+03  0.35410344627E+03  0.00000000000E+00 0. -1.
         21   -1    0    0  501  502 -0.00000000000E+00 -0.00000000000E+00 -0.20296421309E+03  0.20296421309E+03  0.00000000000E+00 0. -1.
         25    1    1    2    0    0  0.81720166094E+02 -0.99614066477E+02  0.14249610289E+03  0.22919704868E+03  0.12500000000E+03 0.  0.
         25    1    1    2    0    0 -0.99992919255E+02  0.60119846533E+02  0.66437484039E+02  0.18344459418E+03  0.12500000000E+03 0.  0.
         25    1    1    2    0    0  0.18272753161E+02  0.39494219944E+02 -0.57794353745E+02  0.14442601650E+03  0.12500000000E+03 0.  0.
</event>
<event>
 5    0  0.5590591E-005  0.2060699E+03  0.7546771E-02  0.1144717E+00
         21   -1    0    0  502  501  0.00000000000E+00  0.00000000000E+00  0.70284388494E+03  0.70284388494E+03  0.00000000000E+00 0. -1.
         21   -1    0    0  501  502 -0.00000000000E+00 -0.00000000000E+00 -0.60418533463E+02  0.60418533463E+02  0.00000000000E+00 0. -1.
         25    1    1    2    0    0 -0.26915178144E+02 -0.48895136704E+02  0.16510160750E+03  0.21447307991E+03  0.12500000000E+03 0.  0.
         25    1    1    2    0    0 -0.29510950524E+02  0.30028964101E+02  0.21690770003E+03  0.25386331995E+03  0.12500000000E+03 0.  0.
         25    1    1    2    0    0  0.56426128668E+02  0.18866172603E+02  0.26041604395E+03  0.29492601854E+03  0.12500000000E+03 0.  0.
</event>
<event>
 5    0  0.5590591E-005  0.3058981E+03  0.7546771E-02  0.1082329E+00
         21   -1    0    0  502  501  0.00000000000E+00  0.00000000000E+00  0.58324718187E+02  0.58324718187E+02  0.00000000000E+00 0. -1.
         21   -1    0    0  501  502 -0.00000000000E+00 -0.00000000000E+00 -0.16043567566E+04  0.16043567566E+04  0.00000000000E+00 0. -1.
         25    1    1    2    0    0 -0.42811199714E+02  0.19089153289E+03 -0.83454640383E+03  0.86623615503E+03  0.12500000000E+03 0.  0.
         25    1    1    2    0    0  0.55078327865E+02 -0.10535992030E+02 -0.30471298026E+03  0.33409524041E+03  0.12500000000E+03 0.  0.
         25    1    1    2    0    0 -0.12267128150E+02 -0.18035554086E+03 -0.40677265428E+03  0.46235007930E+03  0.12500000000E+03 0.  0.
</event>
<event>
 5    0  0.5590591E-005  0.2034724E+03  0.7546771E-02  0.1146842E+00
         21   -1    0    0  502  501  0.00000000000E+00  0.00000000000E+00  0.12434178626E+03  0.12434178626E+03  0.00000000000E+00 0. -1.
         21   -1    0    0  501  502 -0.00000000000E+00 -0.00000000000E+00 -0.33296152572E+03  0.33296152572E+03  0.00000000000E+00 0. -1.
         25    1    1    2    0    0 -0.45197883734E+02  0.20658810369E+02 -0.17463347960E+02  0.13564513873E+03  0.12500000000E+03 0.  0.
         25    1    1    2    0    0  0.13860906264E+02  0.11734312188E+00 -0.71995277481E+02  0.14491534933E+03  0.12500000000E+03 0.  0.
         25    1    1    2    0    0  0.31336977470E+02 -0.20776153491E+02 -0.11916111402E+03  0.17674282391E+03  0.12500000000E+03 0.  0.
</event>
<event>
 5    0  0.5590591E-005  0.2231564E+03  0.7546771E-02  0.1131551E+00
         21   -1    0    0  502  501  0.00000000000E+00  0.00000000000E+00  0.38342723873E+02  0.38342723873E+02  0.00000000000E+00 0.  1.
         21   -1    0    0  501  502 -0.00000000000E+00 -0.00000000000E+00 -0.12987805926E+04  0.12987805926E+04  0.00000000000E+00 0.  1.
         25    1    1    2    0    0  0.10577991035E+02 -0.77231280639E+02 -0.41075588514E+03  0.43637364927E+03  0.12500000000E+03 0.  0.
         25    1    1    2    0    0  0.43885297881E+02 -0.12768591796E+02 -0.32419139914E+03  0.35044831228E+03  0.12500000000E+03 0.  0.
         25    1    1    2    0    0 -0.54463288916E+02  0.89999872435E+02 -0.52549058445E+03  0.55030135492E+03  0.12500000000E+03 0.  0.
</event>
<event>
 5    0  0.5590591E-005  0.2710071E+03  0.7546771E-02  0.1100705E+00
         21   -1    0    0  502  501  0.00000000000E+00  0.00000000000E+00  0.37373539261E+02  0.37373539261E+02  0.00000000000E+00 0. -1.
         21   -1    0    0  501  502 -0.00000000000E+00 -0.00000000000E+00 -0.19651568509E+04  0.19651568509E+04  0.00000000000E+00 0. -1.
         25    1    1    2    0    0 -0.99892807720E+02  0.14328660393E+03 -0.10686937199E+04  0.10900646269E+04  0.12500000000E+03 0.  0.
         25    1    1    2    0    0  0.58038324392E+02 -0.52720836872E+02 -0.40799226841E+03  0.43385553451E+03  0.12500000000E+03 0.  0.
         25    1    1    2    0    0  0.41854483328E+02 -0.90565767058E+02 -0.45109732330E+03  0.47861022871E+03  0.12500000000E+03 0.  0.
</event>
<event>
 5    0  0.5590591E-005  0.3834324E+03  0.7546771E-02  0.1049672E+00
         21   -1    0    0  502  501  0.00000000000E+00  0.00000000000E+00  0.22292911158E+03  0.22292911158E+03  0.00000000000E+00 0.  1.
         21   -1    0    0  501  502 -0.00000000000E+00 -0.00000000000E+00 -0.65949397785E+03  0.65949397785E+03  0.00000000000E+00 0.  1.
         25    1    1    2    0    0 -0.36245359497E+02 -0.25645691462E+03 -0.11610491965E+03  0.31014388195E+03  0.12500000000E+03 0.  0.
         25    1    1    2    0    0 -0.30542497988E+02  0.18478201440E+03 -0.34459299782E+03  0.41163888444E+03  0.12500000000E+03 0.  0.
         25    1    1    2    0    0  0.66787857485E+02  0.71674900217E+02  0.24133051212E+02  0.16064032305E+03  0.12500000000E+03 0.  0.
</event>
<event>
 5    0  0.5590591E-005  0.2568661E+03  0.7546771E-02  0.1109041E+00
         21   -1    0    0  502  501  0.00000000000E+00  0.00000000000E+00  0.61889272226E+03  0.61889272226E+03  0.00000000000E+00 0.  1.
         21   -1    0    0  501  502 -0.00000000000E+00 -0.00000000000E+00 -0.10661010219E+03  0.10661010219E+03  0.00000000000E+00 0.  1.
         25    1    1    2    0    0 -0.21153747489E+02  0.22010055869E+01  0.44771005676E+02  0.13446846622E+03  0.12500000000E+03 0.  0.
         25    1    1    2    0    0 -0.74774328279E+02  0.77817046862E+00  0.38815888866E+03  0.41458910811E+03  0.12500000000E+03 0.  0.
         25    1    1    2    0    0  0.95928075768E+02 -0.29791760555E+01  0.79352725731E+02  0.17644525012E+03  0.12500000000E+03 0.  0.
</event>
<event>
 5    0  0.5590591E-005  0.3305283E+03  0.7546771E-02  0.1070903E+00
         21   -1    0    0  502  501  0.00000000000E+00  0.00000000000E+00  0.28238727508E+03  0.28238727508E+03  0.00000000000E+00 0.  1.
         21   -1    0    0  501  502 -0.00000000000E+00 -0.00000000000E+00 -0.38687635061E+03  0.38687635061E+03  0.00000000000E+00 0.  1.
         25    1    1    2    0    0  0.15848687039E+03  0.14003974804E+02 -0.15733400484E+03  0.25630682487E+03  0.12500000000E+03 0.  0.
         25    1    1    2    0    0 -0.15384125077E+03 -0.36473139397E+02 -0.90888690110E+02  0.22109539643E+03  0.12500000000E+03 0.  0.
         25    1    1    2    0    0 -0.46456196269E+01  0.22469164593E+02  0.14373361942E+03  0.19186140438E+03  0.12500000000E+03 0.  0.
</event>
<event>
 5    0  0.5590591E-005  0.2756707E+03  0.7546771E-02  0.1098077E+00
         21   -1    0    0  502  501  0.00000000000E+00  0.00000000000E+00  0.92524412930E+02  0.92524412930E+02  0.00000000000E+00 0.  1.
         21   -1    0    0  501  502 -0.00000000000E+00 -0.00000000000E+00 -0.82134383468E+03  0.82134383468E+03  0.00000000000E+00 0.  1.
         25    1    1    2    0    0  0.90476457027E+02  0.68536205220E+02 -0.53937450076E+03  0.56518408750E+03  0.12500000000E+03 0.  0.
         25    1    1    2    0    0 -0.21860532009E+02 -0.79416951887E+02 -0.99041310476E+02  0.17949684200E+03  0.12500000000E+03 0.  0.
         25    1    1    2    0    0 -0.68615925018E+02  0.10880746667E+02 -0.90403610521E+02  0.16918731811E+03  0.12500000000E+03 0.  0.
</event>
<event>
 5    0  0.5590591E-005  0.2210676E+03  0.7546771E-02  0.1133090E+00
         21   -1    0    0  502  501  0.00000000000E+00  0.00000000000E+00  0.13567307101E+03  0.13567307101E+03  0.00000000000E+00 0.  1.
         21   -1    0    0  501  502 -0.00000000000E+00 -0.00000000000E+00 -0.36021077830E+03  0.36021077830E+03  0.00000000000E+00 0.  1.
         25    1    1    2    0    0  0.23278892976E+02  0.82689551276E+02 -0.50792785803E+02  0.15995116704E+03  0.12500000000E+03 0.  0.
         25    1    1    2    0    0 -0.13738992178E+02 -0.80738524705E+02 -0.44637848261E+02  0.15596476132E+03  0.12500000000E+03 0.  0.
         25    1    1    2    0    0 -0.95399007974E+01 -0.19510265711E+01 -0.12910707322E+03  0.17996792094E+03  0.12500000000E+03 0.  0.
</event>
<event>
 5    0  0.5590591E-005  0.3402807E+03  0.7546771E-02  0.1066676E+00
         21   -1    0    0  502  501  0.00000000000E+00  0.00000000000E+00  0.51959139036E+03  0.51959139036E+03  0.00000000000E+00 0. -1.
         21   -1    0    0  501  502 -0.00000000000E+00 -0.00000000000E+00 -0.22285001051E+03  0.22285001051E+03  0.00000000000E+00 0. -1.
         25    1    1    2    0    0  0.10083628562E+03 -0.15302995918E+03  0.28085614674E+03  0.35789844938E+03  0.12500000000E+03 0.  0.
         25    1    1    2    0    0 -0.21819535946E+02  0.11055777730E+03  0.11289370995E+03  0.20265513568E+03  0.12500000000E+03 0.  0.
         25    1    1    2    0    0 -0.79016749676E+02  0.42472181875E+02 -0.97008476841E+02  0.18188781581E+03  0.12500000000E+03 0.  0.
</event>
<event>
 5    0  0.5590591E-005  0.5425575E+03  0.7546771E-02  0.1003231E+00
         21   -1    0    0  502  501  0.00000000000E+00  0.00000000000E+00  0.26577763880E+03  0.26577763880E+03  0.00000000000E+00 0. -1.
         21   -1    0    0  501  502 -0.00000000000E+00 -0.00000000000E+00 -0.11075747297E+04  0.11075747297E+04  0.00000000000E+00 0. -1.
         25    1    1    2    0    0 -0.51014437021E+02 -0.80163749466E+02 -0.65913245484E+02  0.17028874139E+03  0.12500000000E+03 0.  0.
         25    1    1    2    0    0 -0.53557128077E+02  0.51505760040E+02  0.18088570119E+03  0.23209016821E+03  0.12500000000E+03 0.  0.
         25    1    1    2    0    0  0.10457156510E+03  0.28657989426E+02 -0.95676954661E+03  0.97097345891E+03  0.12500000000E+03 0.  0.
</event>
<event>
 5    0  0.5590591E-005  0.4157346E+03  0.7546771E-02  0.1038464E+00
         21   -1    0    0  502  501  0.00000000000E+00  0.00000000000E+00  0.26495624813E+03  0.26495624813E+03  0.00000000000E+00 0.  1.
         21   -1    0    0  501  502 -0.00000000000E+00 -0.00000000000E+00 -0.65231628518E+03  0.65231628518E+03  0.00000000000E+00 0.  1.
         25    1    1    2    0    0 -0.70720790164E+02 -0.97834219169E+02 -0.22369450247E+02  0.17520946580E+03  0.12500000000E+03 0.  0.
         25    1    1    2    0    0 -0.20991032087E+02  0.32829973473E+03 -0.12034793856E+03  0.37192736599E+03  0.12500000000E+03 0.  0.
         25    1    1    2    0    0  0.91711822250E+02 -0.23046551556E+03 -0.24464264824E+03  0.37013570152E+03  0.12500000000E+03 0.  0.
</event>
<event>
 5    0  0.5590591E-005  0.2680575E+03  0.7546771E-02  0.1102397E+00
         21   -1    0    0  502  501  0.00000000000E+00  0.00000000000E+00  0.11811450773E+04  0.11811450773E+04  0.00000000000E+00 0.  1.
         21   -1    0    0  501  502 -0.00000000000E+00 -0.00000000000E+00 -0.60834896742E+02  0.60834896742E+02  0.00000000000E+00 0.  1.
         25    1    1    2    0    0  0.48949640712E+02 -0.13905752445E+02  0.12697674468E+03  0.18530388816E+03  0.12500000000E+03 0.  0.
         25    1    1    2    0    0 -0.68530458842E+01  0.14595883630E+02  0.85977934743E+03  0.86896808361E+03  0.12500000000E+03 0.  0.
         25    1    1    2    0    0 -0.42096594828E+02 -0.69013118488E+00  0.13355408843E+03  0.18770800227E+03  0.12500000000E+03 0.  0.
</event>
<event>
 5    0  0.5590591E-005  0.3429924E+03  0.7546771E-02  0.1065529E+00
         21   -1    0    0  502  501  0.00000000000E+00  0.00000000000E+00  0.33555729072E+03  0.33555729072E+03  0.00000000000E+00 0.  1.
         21   -1    0    0  501  502 -0.00000000000E+00 -0.00000000000E+00 -0.35059219814E+03  0.35059219814E+03  0.00000000000E+00 0.  1.
         25    1    1    2    0    0 -0.91637976602E+02  0.14683657085E+03  0.72088916104E+02  0.22534486708E+03  0.12500000000E+03 0.  0.
         25    1    1    2    0    0 -0.12077101225E+03 -0.50414386845E+02 -0.74927502379E+02  0.19587337341E+03  0.12500000000E+03 0.  0.
         25    1    1    2    0    0  0.21240898885E+03 -0.96422184004E+02 -0.12196321139E+02  0.26493124837E+03  0.12500000000E+03 0.  0.
</event>
<event>
 5    0  0.5590591E-005  0.2604347E+03  0.7546771E-02  0.1106882E+00
         21   -1    0    0  502  501  0.00000000000E+00  0.00000000000E+00  0.36981479692E+03  0.36981479692E+03  0.00000000000E+00 0.  1.
         21   -1    0    0  501  502 -0.00000000000E+00 -0.00000000000E+00 -0.18340600578E+03  0.18340600578E+03  0.00000000000E+00 0.  1.
         25    1    1    2    0    0 -0.15752464617E+02  0.25443160895E+02  0.11726421023E+03  0.17398675116E+03  0.12500000000E+03 0.  0.
         25    1    1    2    0    0 -0.54121365981E+02 -0.65657170296E+02 -0.77881834445E+02  0.17008987743E+03  0.12500000000E+03 0.  0.
         25    1    1    2    0    0  0.69873830598E+02  0.40214009401E+02  0.14702641536E+03  0.20914417412E+03  0.12500000000E+03 0.  0.
</event>
<event>
 5    0  0.5590591E-005  0.6204712E+03  0.7546771E-02  0.9863822E-01
         21   -1    0    0  502  501  0.00000000000E+00  0.00000000000E+00  0.63359343419E+03  0.63359343419E+03  0.00000000000E+00 0.  1.
         21   -1    0    0  501  502 -0.00000000000E+00 -0.00000000000E+00 -0.60762071585E+03  0.60762071585E+03  0.00000000000E+00 0.  1.
         25    1    1    2    0    0  0.18657481365E+03  0.36771091040E+03  0.33685361398E+02  0.43218188103E+03  0.12500000000E+03 0.  0.
         25    1    1    2    0    0 -0.10475887546E+03  0.17497837576E+03  0.46052652780E+02  0.24359331025E+03  0.12500000000E+03 0.  0.
         25    1    1    2    0    0 -0.81815938189E+02 -0.54268928616E+03 -0.53765295839E+02  0.56543895876E+03  0.12500000000E+03 0.  0.
</event>
<event>
 5    0  0.5590591E-005  0.2274211E+03  0.7546771E-02  0.1128468E+00
         21   -1    0    0  502  501  0.00000000000E+00  0.00000000000E+00  0.41423317533E+03  0.41423317533E+03  0.00000000000E+00 0. -1.
         21   -1    0    0  501  502 -0.00000000000E+00 -0.00000000000E+00 -0.12485812038E+03  0.12485812038E+03  0.00000000000E+00 0. -1.
         25    1    1    2    0    0  0.56126409412E+02  0.47340116169E+01  0.17497705804E+02  0.13821633191E+03  0.12500000000E+03 0.  0.
         25    1    1    2    0    0 -0.61000127274E+02 -0.18020468452E+02  0.56001356042E+02  0.15101955069E+03  0.12500000000E+03 0.  0.
         25    1    1    2    0    0  0.48737178622E+01  0.13286456835E+02  0.21587599310E+03  0.24985541311E+03  0.12500000000E+03 0.  0.
</event>
<event>
 5    0  0.5590591E-005  0.3735234E+03  0.7546771E-02  0.1053354E+00
         21   -1    0    0  502  501  0.00000000000E+00  0.00000000000E+00  0.70585080977E+03  0.70585080977E+03  0.00000000000E+00 0.  1.
         21   -1    0    0  501  502 -0.00000000000E+00 -0.00000000000E+00 -0.19766182364E+03  0.19766182364E+03  0.00000000000E+00 0.  1.
         25    1    1    2    0    0  0.29960963217E+02 -0.18998594013E+03 -0.53989372585E+02  0.23565264504E+03  0.12500000000E+03 0.  0.
         25    1    1    2    0    0 -0.73901335108E+02  0.10652311133E+03  0.41739520274E+03  0.45459029450E+03  0.12500000000E+03 0.  0.
         25    1    1    2    0    0  0.43940371891E+02  0.83462828794E+02  0.14478315597E+03  0.21326969387E+03  0.12500000000E+03 0.  0.
</event>
<event>
 5    0  0.5590591E-005  0.2870749E+03  0.7546771E-02  0.1091886E+00
         21   -1    0    0  502  501  0.00000000000E+00  0.00000000000E+00  0.22998951010E+03  0.22998951010E+03  0.00000000000E+00 0.  1.
         21   -1    0    0  501  502 -0.00000000000E+00 -0.00000000000E+00 -0.35832945888E+03  0.35832945888E+03  0.00000000000E+00 0.  1.
         25    1    1    2    0    0  0.18047451777E+02  0.56459729089E+02 -0.21505953986E+03  0.25571276309E+03  0.12500000000E+03 0.  0.
         25    1    1    2    0    0  0.76057632202E+02  0.54130574583E+01  0.74369915847E+01  0.14660959536E+03  0.12500000000E+03 0.  0.
         25    1    1    2    0    0 -0.94105083979E+02 -0.61872786548E+02  0.79282599498E+02  0.18599661053E+03  0.12500000000E+03 0.  0.
</event>
<event>
 5    0  0.5590591E-005  0.3342578E+03  0.7546771E-02  0.1069268E+00
         21   -1    0    0  502  501  0.00000000000E+00  0.00000000000E+00  0.29143634027E+03  0.29143634027E+03  0.00000000000E+00 0. -1.
         21   -1    0    0  501  502 -0.00000000000E+00 -0.00000000000E+00 -0.38337117209E+03  0.38337117209E+03  0.00000000000E+00 0. -1.
         25    1    1    2    0    0  0.28568261831E+02 -0.10777323058E+03 -0.86923490052E+01  0.16772528654E+03  0.12500000000E+03 0.  0.
         25    1    1    2    0    0  0.18539205150E+03  0.29855717758E+02 -0.10006470538E+03  0.24677828491E+03  0.12500000000E+03 0.  0.
         25    1    1    2    0    0 -0.21396031333E+03  0.77917512819E+02  0.16822222569E+02  0.26030394092E+03  0.12500000000E+03 0.  0.
</event>
<event>
 5    0  0.5590591E-005  0.3567849E+03  0.7546771E-02  0.1059864E+00
         21   -1    0    0  502  501  0.00000000000E+00  0.00000000000E+00  0.11183922583E+03  0.11183922583E+03  0.00000000000E+00 0.  1.
         21   -1    0    0  501  502 -0.00000000000E+00 -0.00000000000E+00 -0.11382002727E+04  0.11382002727E+04  0.00000000000E+00 0.  1.
         25    1    1    2    0    0  0.57138967279E+02 -0.71453959804E+02 -0.51928839235E+02  0.16337727595E+03  0.12500000000E+03 0.  0.
         25    1    1    2    0    0 -0.51110850105E+02 -0.11513622658E+02 -0.41532121276E+02  0.14175612721E+03  0.12500000000E+03 0.  0.
         25    1    1    2    0    0 -0.60281171740E+01  0.82967582462E+02 -0.93290008634E+03  0.94490609535E+03  0.12500000000E+03 0.  0.
</event>
<event>
 5    0  0.5590591E-005  0.2922701E+03  0.7546771E-02  0.1089170E+00
         21   -1    0    0  502  501  0.00000000000E+00  0.00000000000E+00  0.31236733476E+03  0.31236733476E+03  0.00000000000E+00 0. -1.
         21   -1    0    0  501  502 -0.00000000000E+00 -0.00000000000E+00 -0.27346587226E+03  0.27346587226E+03  0.00000000000E+00 0. -1.
         25    1    1    2    0    0  0.11023772674E+02  0.32678437609E+02  0.38046452312E+01  0.12972616997E+03  0.12500000000E+03 0.  0.
         25    1    1    2    0    0  0.65320774621E+02  0.24908025449E+02 -0.15385274456E+03  0.21019724151E+03  0.12500000000E+03 0.  0.
         25    1    1    2    0    0 -0.76344547295E+02 -0.57586463058E+02  0.18894956183E+03  0.24590979554E+03  0.12500000000E+03 0.  0.
</event>
<event>
 5    0  0.5590591E-005  0.3130725E+03  0.7546771E-02  0.1078882E+00
         21   -1    0    0  502  501  0.00000000000E+00  0.00000000000E+00  0.13352535674E+04  0.13352535674E+04  0.00000000000E+00 0. -1.
         21   -1    0    0  501  502 -0.00000000000E+00 -0.00000000000E+00 -0.73405065293E+02  0.73405065293E+02  0.00000000000E+00 0. -1.
         25    1    1    2    0    0 -0.26513318354E+02 -0.30214138559E+02  0.39956575117E+03  0.42058725578E+03  0.12500000000E+03 0.  0.
         25    1    1    2    0    0  0.20370312303E+03 -0.13234683814E+02  0.29953139267E+03  0.38342427464E+03  0.12500000000E+03 0.  0.
         25    1    1    2    0    0 -0.17718980468E+03  0.43448822373E+02  0.56275135823E+03  0.60464710223E+03  0.12500000000E+03 0.  0.
</event>
<event>
 5    0  0.5590591E-005  0.4947638E+03  0.7546771E-02  0.1015155E+00
         21   -1    0    0  502  501  0.00000000000E+00  0.00000000000E+00  0.30138255470E+03  0.30138255470E+03  0.00000000000E+00 0.  1.
         21   -1    0    0  501  502 -0.00000000000E+00 -0.00000000000E+00 -0.81222762504E+03  0.81222762504E+03  0.00000000000E+00 0. -1.
         25    1    1    2    0    0  0.29847789332E+03 -0.54096891373E+02  0.59790418206E+02  0.33348976081E+03  0.12500000000E+03 0.  0.
         25    1    1    2    0    0 -0.34903436731E+02  0.15257300947E+03 -0.11731665989E+03  0.23213136755E+03  0.12500000000E+03 0.  0.
         25    1    1    2    0    0 -0.26357445659E+03 -0.98476118099E+02 -0.45331882867E+03  0.54798905137E+03  0.12500000000E+03 0.  0.
</event>
<event>
 5    0  0.5590591E-005  0.3376093E+03  0.7546771E-02  0.1067819E+00
         21   -1    0    0  502  501  0.00000000000E+00  0.00000000000E+00  0.42874276168E+03  0.42874276168E+03  0.00000000000E+00 0.  1.
         21   -1    0    0  501  502 -0.00000000000E+00 -0.00000000000E+00 -0.26584717605E+03  0.26584717605E+03  0.00000000000E+00 0.  1.
         25    1    1    2    0    0  0.15423379417E+03 -0.13863147048E+03 -0.73716401001E+02  0.25311233800E+03  0.12500000000E+03 0.  0.
         25    1    1    2    0    0 -0.17032121592E+03  0.52908316016E+02  0.16405529524E+03  0.27266783160E+03  0.12500000000E+03 0.  0.
         25    1    1    2    0    0  0.16087421746E+02  0.85723154460E+02  0.72556691387E+02  0.16880976812E+03  0.12500000000E+03 0.  0.
</event>
<event>
 5    0  0.5590591E-005  0.6077449E+03  0.7546771E-02  0.9889467E-01
         21   -1    0    0  502  501  0.00000000000E+00  0.00000000000E+00  0.32392582186E+03  0.32392582186E+03  0.00000000000E+00 0. -1.
         21   -1    0    0  501  502 -0.00000000000E+00 -0.00000000000E+00 -0.11402422174E+04  0.11402422174E+04  0.00000000000E+00 0. -1.
         25    1    1    2    0    0  0.23930034877E+02 -0.14044087644E+03 -0.48891940469E+03  0.52436959354E+03  0.12500000000E+03 0.  0.
         25    1    1    2    0    0 -0.17249940191E+03 -0.21433262533E+03  0.13024355340E+03  0.32906367338E+03  0.12500000000E+03 0.  0.
         25    1    1    2    0    0  0.14856936703E+03  0.35477350177E+03 -0.45764054422E+03  0.61073477230E+03  0.12500000000E+03 0.  0.
</event>
<event>
 5    0  0.5590591E-005  0.3234068E+03  0.7546771E-02  0.1074092E+00
         21   -1    0    0  502  501  0.00000000000E+00  0.00000000000E+00  0.36261246351E+03  0.36261246351E+03  0.00000000000E+00 0. -1.
         21   -1    0    0  501  502 -0.00000000000E+00 -0.00000000000E+00 -0.28844011773E+03  0.28844011773E+03  0.00000000000E+00 0. -1.
         25    1    1    2    0    0  0.17047824277E+03 -0.43979616129E+02  0.11687851279E+03  0.24552520165E+03  0.12500000000E+03 0.  0.
         25    1    1    2    0    0 -0.16103992093E+03  0.13037952192E+03 -0.67616901447E+02  0.25125628595E+03  0.12500000000E+03 0.  0.
         25    1    1    2    0    0 -0.94383218459E+01 -0.86399905790E+02  0.24910734437E+02  0.15427109363E+03  0.12500000000E+03 0.  0.
</event>
<event>
 5    0  0.5590591E-005  0.3154645E+03  0.7546771E-02  0.1077756E+00
         21   -1    0    0  502  501  0.00000000000E+00  0.00000000000E+00  0.31646655666E+03  0.31646655666E+03  0.00000000000E+00 0.  1.
         21   -1    0    0  501  502 -0.00000000000E+00 -0.00000000000E+00 -0.31446555771E+03  0.31446555771E+03  0.00000000000E+00 0.  1.
         25    1    1    2    0    0  0.18134690649E+03  0.69968473048E+02 -0.11867951695E+03  0.25979244688E+03  0.12500000000E+03 0.  0.
         25    1    1    2    0    0 -0.12944054163E+03 -0.10690457456E+03  0.88210217908E+02  0.22713318653E+03  0.12500000000E+03 0.  0.
         25    1    1    2    0    0 -0.51906364860E+02  0.36936101513E+02  0.32470297994E+02  0.14400648096E+03  0.12500000000E+03 0.  0.
</event>
<event>
 5    0  0.5812152E-005  0.3100885E+03  0.7546771E-02  0.1080303E+00
         21   -1    0    0  502  501  0.00000000000E+00  0.00000000000E+00  0.12868941413E+03  0.12868941413E+03  0.00000000000E+00 0.  1.
         21   -1    0    0  501  502 -0.00000000000E+00 -0.00000000000E+00 -0.74718568300E+03  0.74718568300E+03  0.00000000000E+00 0.  1.
         25    1    1    2    0    0 -0.14086056544E+02 -0.17734155088E+03 -0.23487722428E+03  0.32006367045E+03  0.12500000000E+03 0.  0.
         25    1    1    2    0    0 -0.54759503389E+02  0.25815088186E+02 -0.24937099796E+02  0.14110946437E+03  0.12500000000E+03 0.  0.
         25    1    1    2    0    0  0.68845559934E+02  0.15152646269E+03 -0.35868194480E+03  0.41470196231E+03  0.12500000000E+03 0.  0.
</event>
<event>
 5    0  0.6774382E-005  0.2939580E+03  0.7546771E-02  0.1088301E+00
         21   -1    0    0  502  501  0.00000000000E+00  0.00000000000E+00  0.61864443539E+03  0.61864443539E+03  0.00000000000E+00 0.  1.
         21   -1    0    0  501  502 -0.00000000000E+00 -0.00000000000E+00 -0.13967842777E+03  0.13967842777E+03  0.00000000000E+00 0.  1.
         25    1    1    2    0    0 -0.12051161629E+03 -0.39608327682E+02  0.39197393668E+03  0.43053505817E+03  0.12500000000E+03 0.  0.
         25    1    1    2    0    0  0.10295035108E+03  0.64474806506E+02  0.95690980672E+02  0.19884048693E+03  0.12500000000E+03 0.  0.
         25    1    1    2    0    0  0.17561265207E+02 -0.24866478825E+02 -0.86989097281E+01  0.12894731806E+03  0.12500000000E+03 0.  0.
</event>
<event>
 5    0  0.5590591E-005  0.2893435E+03  0.7546771E-02  0.1090692E+00
         21   -1    0    0  502  501  0.00000000000E+00  0.00000000000E+00  0.15981508393E+03  0.15981508393E+03  0.00000000000E+00 0. -1.
         21   -1    0    0  501  502 -0.00000000000E+00 -0.00000000000E+00 -0.52385333447E+03  0.52385333447E+03  0.00000000000E+00 0. -1.
         25    1    1    2    0    0 -0.52671933569E+02  0.66850491504E+02 -0.59651275171E+02  0.16256258927E+03  0.12500000000E+03 0.  0.
         25    1    1    2    0    0 -0.64060295887E+02  0.10770219181E+03 -0.15032387786E+03  0.23221918931E+03  0.12500000000E+03 0.  0.
         25    1    1    2    0    0  0.11673222946E+03 -0.17455268332E+03 -0.15406309751E+03  0.28888663981E+03  0.12500000000E+03 0.  0.
</event>
<event>
 5    0  0.5590591E-005  0.5070043E+03  0.7546771E-02  0.1011967E+00
         21   -1    0    0  502  501  0.00000000000E+00  0.00000000000E+00  0.67865566589E+03  0.67865566589E+03  0.00000000000E+00 0. -1.
         21   -1    0    0  501  502 -0.00000000000E+00 -0.00000000000E+00 -0.37876846344E+03  0.37876846344E+03  0.00000000000E+00 0. -1.
         25    1    1    2    0    0  0.27607775615E+03  0.14590785142E+03  0.28750519540E+03  0.44248419851E+03  0.12500000000E+03 0.  0.
         25    1    1    2    0    0 -0.99996240186E+02  0.11806636329E+03  0.14799153097E+03  0.24792218019E+03  0.12500000000E+03 0.  0.
         25    1    1    2    0    0 -0.17608151596E+03 -0.26397421471E+03 -0.13560952392E+03  0.36701775063E+03  0.12500000000E+03 0.  0.
</event>
<event>
 5    0  0.5590591E-005  0.3602789E+03  0.7546771E-02  0.1058473E+00
         21   -1    0    0  502  501  0.00000000000E+00  0.00000000000E+00  0.54079104985E+03  0.54079104985E+03  0.00000000000E+00 0.  1.
         21   -1    0    0  501  502 -0.00000000000E+00 -0.00000000000E+00 -0.24002043778E+03  0.24002043778E+03  0.00000000000E+00 0.  1.
         25    1    1    2    0    0 -0.18671913070E+03  0.10219769204E+02  0.32644282216E+03  0.39643207942E+03  0.12500000000E+03 0.  0.
         25    1    1    2    0    0  0.11299453466E+03 -0.93939190654E+02 -0.79134034426E+02  0.20851746164E+03  0.12500000000E+03 0.  0.
         25    1    1    2    0    0  0.73724596036E+02  0.83719421450E+02  0.53461824338E+02  0.17586194657E+03  0.12500000000E+03 0.  0.
</event>
<event>
 5    0  0.5590591E-005  0.2329195E+03  0.7546771E-02  0.1124602E+00
         21   -1    0    0  502  501  0.00000000000E+00  0.00000000000E+00  0.13528901966E+03  0.13528901966E+03  0.00000000000E+00 0. -1.
         21   -1    0    0  501  502 -0.00000000000E+00 -0.00000000000E+00 -0.40100440407E+03  0.40100440407E+03  0.00000000000E+00 0. -1.
         25    1    1    2    0    0  0.43733094377E+02  0.95381537136E+02 -0.53548679716E+02  0.17176344858E+03  0.12500000000E+03 0.  0.
         25    1    1    2    0    0 -0.19362135053E+02  0.23706473669E+00 -0.14296624924E+03  0.19089079835E+03  0.12500000000E+03 0.  0.
         25    1    1    2    0    0 -0.24370959324E+02 -0.95618601872E+02 -0.69200455448E+02  0.17363917679E+03  0.12500000000E+03 0.  0.
</event>
<event>
 5    0  0.5590591E-005  0.4532607E+03  0.7546771E-02  0.1026754E+00
         21   -1    0    0  502  501  0.00000000000E+00  0.00000000000E+00  0.26145950118E+03  0.26145950118E+03  0.00000000000E+00 0.  1.
         21   -1    0    0  501  502 -0.00000000000E+00 -0.00000000000E+00 -0.78576317277E+03  0.78576317277E+03  0.00000000000E+00 0.  1.
         25    1    1    2    0    0  0.12711500788E+03 -0.12243130258E+03  0.54175313686E+02  0.22295204348E+03  0.12500000000E+03 0.  0.
         25    1    1    2    0    0  0.10768235733E+03 -0.13771980199E+03 -0.22233808118E+03  0.30922719202E+03  0.12500000000E+03 0.  0.
         25    1    1    2    0    0 -0.23479736521E+03  0.26015110457E+03 -0.35614090409E+03  0.51504343844E+03  0.12500000000E+03 0.  0.
</event>
<event>
 5    0  0.5590591E-005  0.3749770E+03  0.7546771E-02  0.1052806E+00
         21   -1    0    0  502  501  0.00000000000E+00  0.00000000000E+00  0.34782330526E+03  0.34782330526E+03  0.00000000000E+00 0.  1.
         21   -1    0    0  501  502 -0.00000000000E+00 -0.00000000000E+00 -0.40425061627E+03  0.40425061627E+03  0.00000000000E+00 0.  1.
         25    1    1    2    0    0  0.12978219470E+01 -0.16660493598E+02 -0.21313566083E+03  0.24765109793E+03  0.12500000000E+03 0.  0.
         25    1    1    2    0    0  0.17415245488E+03  0.42307054508E+02 -0.26972021679E+02  0.22016233637E+03  0.12500000000E+03 0.  0.
         25    1    1    2    0    0 -0.17545027683E+03 -0.25646560910E+02  0.18368037150E+03  0.28426048723E+03  0.12500000000E+03 0.  0.
</event>
<event>
 5    0  0.5590591E-005  0.2952967E+03  0.7546771E-02  0.1087616E+00
         21   -1    0    0  502  501  0.00000000000E+00  0.00000000000E+00  0.47601350764E+03  0.47601350764E+03  0.00000000000E+00 0.  1.
         21   -1    0    0  501  502 -0.00000000000E+00 -0.00000000000E+00 -0.18318839700E+03  0.18318839700E+03  0.00000000000E+00 0.  1.
         25    1    1    2    0    0 -0.29315368765E+02  0.69934893010E+01  0.23468098939E+03  0.26759758317E+03  0.12500000000E+03 0.  0.
         25    1    1    2    0    0  0.74859522533E+02 -0.81533736329E+02  0.14056832229E+03  0.21825707665E+03  0.12500000000E+03 0.  0.
         25    1    1    2    0    0 -0.45544153768E+02  0.74540247028E+02 -0.82424201044E+02  0.17334724482E+03  0.12500000000E+03 0.  0.
</event>
<event>
 5    0  0.5590591E-005  0.2868947E+03  0.7546771E-02  0.1091982E+00
         21   -1    0    0  502  501  0.00000000000E+00  0.00000000000E+00  0.31337575890E+02  0.31337575890E+02  0.00000000000E+00 0.  1.
         21   -1    0    0  501  502 -0.00000000000E+00 -0.00000000000E+00 -0.26265130755E+04  0.26265130755E+04  0.00000000000E+00 0.  1.
         25    1    1    2    0    0 -0.92399675269E+01  0.40206386556E+01 -0.31529705835E+03  0.33932105378E+03  0.12500000000E+03 0.  0.
         25    1    1    2    0    0 -0.47864150401E+02  0.19947477785E+02 -0.25354806397E+03  0.28740302627E+03  0.12500000000E+03 0.  0.
         25    1    1    2    0    0  0.57104117928E+02 -0.23968116440E+02 -0.20263303773E+04  0.20311265714E+04  0.12500000000E+03 0.  0.
</event>
<event>
 5    0  0.5590591E-005  0.2337713E+03  0.7546771E-02  0.1124013E+00
         21   -1    0    0  502  501  0.00000000000E+00  0.00000000000E+00  0.32685859875E+03  0.32685859875E+03  0.00000000000E+00 0.  1.
         21   -1    0    0  501  502 -0.00000000000E+00 -0.00000000000E+00 -0.16719473780E+03  0.16719473780E+03  0.00000000000E+00 0.  1.
         25    1    1    2    0    0 -0.47641776226E+02 -0.45750820440E+02 -0.23716965624E+02  0.14335400542E+03  0.12500000000E+03 0.  0.
         25    1    1    2    0    0 -0.44353761729E+02  0.22434263560E+02  0.46141507464E+02  0.14221318881E+03  0.12500000000E+03 0.  0.
         25    1    1    2    0    0  0.91995537956E+02  0.23316556880E+02  0.13723931911E+03  0.20848614232E+03  0.12500000000E+03 0.  0.
</event>
<event>
 5    0  0.5590591E-005  0.5020431E+03  0.7546771E-02  0.1013247E+00
         21   -1    0    0  502  501  0.00000000000E+00  0.00000000000E+00  0.19277396703E+04  0.19277396703E+04  0.00000000000E+00 0.  1.
         21   -1    0    0  501  502 -0.00000000000E+00 -0.00000000000E+00 -0.13074757198E+03  0.13074757198E+03  0.00000000000E+00 0.  1.
         25    1    1    2    0    0  0.27428195328E+03 -0.21133107994E+03  0.76988025868E+03  0.85336511995E+03  0.12500000000E+03 0.  0.
         25    1    1    2    0    0 -0.32343129707E+03  0.23263145928E+03  0.45706877968E+03  0.61908163365E+03  0.12500000000E+03 0.  0.
         25    1    1    2    0    0  0.49149343793E+02 -0.21300379334E+02  0.57004305997E+03  0.58604048868E+03  0.12500000000E+03 0.  0.
</event>
<event>
 5    0  0.5590591E-005  0.3032515E+03  0.7546771E-02  0.1083626E+00
         21   -1    0    0  502  501  0.00000000000E+00  0.00000000000E+00  0.14856084212E+03  0.14856084212E+03  0.00000000000E+00 0.  1.
         21   -1    0    0  501  502 -0.00000000000E+00 -0.00000000000E+00 -0.61901572375E+03  0.61901572375E+03  0.00000000000E+00 0.  1.
         25    1    1    2    0    0  0.69337842583E+02 -0.31261293329E+02 -0.19348383284E+03  0.24258194172E+03  0.12500000000E+03 0.  0.
         25    1    1    2    0    0 -0.69108143713E+02  0.14073311446E+03  0.17264476659E+01  0.20052362867E+03  0.12500000000E+03 0.  0.
         25    1    1    2    0    0 -0.22969887014E+00 -0.10947182113E+03 -0.27869749645E+03  0.32447099548E+03  0.12500000000E+03 0.  0.
</event>
<event>
 5    0  0.5590591E-005  0.3102944E+03  0.7546771E-02  0.1080205E+00
         21   -1    0    0  502  501  0.00000000000E+00  0.00000000000E+00  0.12959234017E+03  0.12959234017E+03  0.00000000000E+00 0.  1.
         21   -1    0    0  501  502 -0.00000000000E+00 -0.00000000000E+00 -0.74296541819E+03  0.74296541819E+03  0.00000000000E+00 0.  1.
         25    1    1    2    0    0 -0.12994407278E+03 -0.13993796702E+03 -0.21466464985E+03  0.31332731856E+03  0.12500000000E+03 0.  0.
         25    1    1    2    0    0  0.12624834873E+03 -0.27491577345E+02 -0.22118319013E+03  0.28502883359E+03  0.12500000000E+03 0.  0.
         25    1    1    2    0    0  0.36957240497E+01  0.16742954436E+03 -0.17752523804E+03  0.27420160620E+03  0.12500000000E+03 0.  0.
</event>
<event>
 5    0  0.5590591E-005  0.3193111E+03  0.7546771E-02  0.1075967E+00
         21   -1    0    0  502  501  0.00000000000E+00  0.00000000000E+00  0.70152057683E+03  0.70152057683E+03  0.00000000000E+00 0.  1.
         21   -1    0    0  501  502 -0.00000000000E+00 -0.00000000000E+00 -0.14534079976E+03  0.14534079976E+03  0.00000000000E+00 0.  1.
         25    1    1    2    0    0  0.65104659009E+02  0.49529347273E+02  0.21750004883E+03  0.26386178978E+03  0.12500000000E+03 0.  0.
         25    1    1    2    0    0  0.40711206723E+02  0.20377613288E+01  0.38361128591E+03  0.40551716795E+03  0.12500000000E+03 0.  0.
         25    1    1    2    0    0 -0.10581586573E+03 -0.51567108602E+02 -0.44931557674E+02  0.17748241886E+03  0.12500000000E+03 0.  0.
</event>
<event>
 5    0  0.5590591E-005  0.4323588E+03  0.7546771E-02  0.1033117E+00
         21   -1    0    0  502  501  0.00000000000E+00  0.00000000000E+00  0.71336826103E+03  0.71336826103E+03  0.00000000000E+00 0. -1.
         21   -1    0    0  501  502 -0.00000000000E+00 -0.00000000000E+00 -0.26204439987E+03  0.26204439987E+03  0.00000000000E+00 0. -1.
         25    1    1    2    0    0 -0.13431150437E+03 -0.29913319585E+03  0.23414871965E+03  0.42186594077E+03  0.12500000000E+03 0.  0.
         25    1    1    2    0    0  0.18621527185E+03  0.92672983527E+02  0.31631323088E+02  0.24472423245E+03  0.12500000000E+03 0.  0.
         25    1    1    2    0    0 -0.51903767484E+02  0.20646021232E+03  0.18554381842E+03  0.30882248769E+03  0.12500000000E+03 0.  0.
</event>
<event>
 5    0  0.5590591E-005  0.2740340E+03  0.7546771E-02  0.1098993E+00
         21   -1    0    0  502  501  0.00000000000E+00  0.00000000000E+00  0.41908783905E+03  0.41908783905E+03  0.00000000000E+00 0.  1.
         21   -1    0    0  501  502 -0.00000000000E+00 -0.00000000000E+00 -0.17918586130E+03  0.17918586130E+03  0.00000000000E+00 0.  1.
         25    1    1    2    0    0  0.82336391669E+02  0.13820931314E+02  0.87522368368E+02  0.17394097993E+03  0.12500000000E+03 0.  0.
         25    1    1    2    0    0  0.31799717768E+02  0.59931098646E+01  0.20820906480E+03  0.24499623279E+03  0.12500000000E+03 0.  0.
         25    1    1    2    0    0 -0.11413610944E+03 -0.19814041179E+02 -0.55829455414E+02  0.17933648763E+03  0.12500000000E+03 0.  0.
</event>
<event>
 5    0  0.5590591E-005  0.3211524E+03  0.7546771E-02  0.1075120E+00
         21   -1    0    0  502  501  0.00000000000E+00  0.00000000000E+00  0.36137228508E+03  0.36137228508E+03  0.00000000000E+00 0. -1.
         21   -1    0    0  501  502 -0.00000000000E+00 -0.00000000000E+00 -0.28540893900E+03  0.28540893900E+03  0.00000000000E+00 0. -1.
         25    1    1    2    0    0  0.32470205456E+02  0.77670222480E+02  0.75917686575E+02  0.16874677134E+03  0.12500000000E+03 0.  0.
         25    1    1    2    0    0 -0.20256232849E+02 -0.20409416613E+02  0.19847713925E+03  0.23631553918E+03  0.12500000000E+03 0.  0.
         25    1    1    2    0    0 -0.12213972607E+02 -0.57260805867E+02 -0.19843147974E+03  0.24171891355E+03  0.12500000000E+03 0.  0.
</event>
<event>
 5    0  0.5590591E-005  0.3581216E+03  0.7546771E-02  0.1059330E+00
         21   -1    0    0  502  501  0.00000000000E+00  0.00000000000E+00  0.16887052824E+04  0.16887052824E+04  0.00000000000E+00 0.  1.
         21   -1    0    0  501  502 -0.00000000000E+00 -0.00000000000E+00 -0.75946391626E+02  0.75946391626E+02  0.00000000000E+00 0.  1.
         25    1    1    2    0    0  0.75873012806E+02 -0.90364709808E+02  0.40287869909E+03  0.43801682734E+03  0.12500000000E+03 0.  0.
         25    1    1    2    0    0 -0.47887832165E+02  0.38105451593E+02  0.11759935737E+04  0.11842006398E+04  0.12500000000E+03 0.  0.
         25    1    1    2    0    0 -0.27985180641E+02  0.52259258215E+02  0.33886617939E+02  0.14243420685E+03  0.12500000000E+03 0.  0.
</event>
<event>
 5    0  0.5590591E-005  0.2675555E+03  0.7546771E-02  0.1102687E+00
         21   -1    0    0  502  501  0.00000000000E+00  0.00000000000E+00  0.22579269602E+04  0.22579269602E+04  0.00000000000E+00 0.  1.
         21   -1    0    0  501  502 -0.00000000000E+00 -0.00000000000E+00 -0.31704289386E+02  0.31704289386E+02  0.00000000000E+00 0.  1.
         25    1    1    2    0    0 -0.12998966948E+03 -0.39730870205E+02  0.89464298205E+03  0.91350255695E+03  0.12500000000E+03 0.  0.
         25    1    1    2    0    0  0.75541250263E+02  0.76631370590E+02  0.38179158351E+03  0.41589501161E+03  0.12500000000E+03 0.  0.
         25    1    1    2    0    0  0.54448419212E+02 -0.36900500386E+02  0.94978810522E+03  0.96023368099E+03  0.12500000000E+03 0.  0.
</event>
<event>
 5    0  0.5590591E-005  0.2732749E+03  0.7546771E-02  0.1099420E+00
         21   -1    0    0  502  501  0.00000000000E+00  0.00000000000E+00  0.25925580438E+03  0.25925580438E+03  0.00000000000E+00 0. -1.
         21   -1    0    0  501  502 -0.00000000000E+00 -0.00000000000E+00 -0.28805196702E+03  0.28805196702E+03  0.00000000000E+00 0. -1.
         25    1    1    2    0    0  0.15420718957E+02 -0.76299479794E+02 -0.48634423788E+01  0.14733656119E+03  0.12500000000E+03 0.  0.
         25    1    1    2    0    0  0.36621742090E+02  0.11153576005E+03 -0.13747490286E+03  0.21978563802E+03  0.12500000000E+03 0.  0.
         25    1    1    2    0    0 -0.52042461047E+02 -0.35236280255E+02  0.11354218260E+03  0.18018557219E+03  0.12500000000E+03 0.  0.
</event>
<event>
 5    0  0.5590591E-005  0.3634079E+03  0.7546771E-02  0.1057243E+00
         21   -1    0    0  502  501  0.00000000000E+00  0.00000000000E+00  0.24722033101E+03  0.24722033101E+03  0.00000000000E+00 0.  1.
         21   -1    0    0  501  502 -0.00000000000E+00 -0.00000000000E+00 -0.53420090434E+03  0.53420090434E+03  0.00000000000E+00 0.  1.
         25    1    1    2    0    0  0.20881918321E+03 -0.61326042453E+02 -0.19756469509E+02  0.25175713068E+03  0.12500000000E+03 0.  0.
         25    1    1    2    0    0  0.37872042194E+02  0.18956501864E+02 -0.20377235182E+03  0.24277934820E+03  0.12500000000E+03 0.  0.
         25    1    1    2    0    0 -0.24669122541E+03  0.42369540589E+02 -0.63451751996E+02  0.28688475647E+03  0.12500000000E+03 0.  0.
</event>
<event>
 5    0  0.5590591E-005  0.3048495E+03  0.7546771E-02  0.1082841E+00
         21   -1    0    0  502  501  0.00000000000E+00  0.00000000000E+00  0.42170195485E+02  0.42170195485E+02  0.00000000000E+00 0. -1.
         21   -1    0    0  501  502 -0.00000000000E+00 -0.00000000000E+00 -0.22037658007E+04  0.22037658007E+04  0.00000000000E+00 0. -1.
         25    1    1    2    0    0  0.87095572345E+01 -0.68167391503E+02 -0.38419072417E+03  0.40981723023E+03  0.12500000000E+03 0.  0.
         25    1    1    2    0    0  0.72947016646E+02 -0.12639168832E+03 -0.10772924467E+04  0.10942943579E+04  0.12500000000E+03 0.  0.
         25    1    1    2    0    0 -0.81656573880E+02  0.19455907982E+03 -0.70011243435E+03  0.74182440802E+03  0.12500000000E+03 0.  0.
</event>
<event>
 5    0  0.6147660E-005  0.3566208E+03  0.7546771E-02  0.1059930E+00
         21   -1    0    0  502  501  0.00000000000E+00  0.00000000000E+00  0.76115301998E+03  0.76115301998E+03  0.00000000000E+00 0. -1.
         21   -1    0    0  501  502 -0.00000000000E+00 -0.00000000000E+00 -0.16708654041E+03  0.16708654041E+03  0.00000000000E+00 0. -1.
         25    1    1    2    0    0  0.24472297937E+02 -0.39861358335E+02  0.39954755022E+02  0.13931691822E+03  0.12500000000E+03 0.  0.
         25    1    1    2    0    0 -0.63579115903E+02  0.81833793957E+02  0.61677142113E+03  0.63778606110E+03  0.12500000000E+03 0.  0.
         25    1    1    2    0    0  0.39106817966E+02 -0.41972435622E+02 -0.62659696579E+02  0.15113658107E+03  0.12500000000E+03 0.  0.
</event>
<event>
 5    0  0.5590591E-005  0.2708209E+03  0.7546771E-02  0.1100811E+00
         21   -1    0    0  502  501  0.00000000000E+00  0.00000000000E+00  0.30345907721E+04  0.30345907721E+04  0.00000000000E+00 0.  1.
         21   -1    0    0  501  502 -0.00000000000E+00 -0.00000000000E+00 -0.24169315740E+02  0.24169315740E+02  0.00000000000E+00 0.  1.
         25    1    1    2    0    0  0.73931292492E+02  0.71956721359E+02  0.63474384159E+03  0.65510941849E+03  0.12500000000E+03 0.  0.
         25    1    1    2    0    0 -0.11031956466E+03 -0.13968967849E+03  0.15191591404E+04  0.15346508093E+04  0.12500000000E+03 0.  0.
         25    1    1    2    0    0  0.36388272166E+02  0.67732957128E+02  0.85651847445E+03  0.86899986013E+03  0.12500000000E+03 0.  0.
</event>
<event>
 5    0  0.5590591E-005  0.3755703E+03  0.7546771E-02  0.1052583E+00
         21   -1    0    0  502  501  0.00000000000E+00  0.00000000000E+00  0.41104679101E+03  0.41104679101E+03  0.00000000000E+00 0. -1.
         21   -1    0    0  501  502 -0.00000000000E+00 -0.00000000000E+00 -0.34315569100E+03  0.34315569100E+03  0.00000000000E+00 0. -1.
         25    1    1    2    0    0  0.75795009426E+02 -0.23788725373E+03 -0.29607609937E+01  0.27922928759E+03  0.12500000000E+03 0.  0.
         25    1    1    2    0    0 -0.19431613601E+03  0.11615188937E+03  0.33543547620E+02  0.26076846379E+03  0.12500000000E+03 0.  0.
         25    1    1    2    0    0  0.11852112659E+03  0.12173536436E+03  0.37308313378E+02  0.21420473064E+03  0.12500000000E+03 0.  0.
</event>
<event>
 5    0  0.5826190E-005  0.2799860E+03  0.7546771E-02  0.1095697E+00
         21   -1    0    0  502  501  0.00000000000E+00  0.00000000000E+00  0.45934663871E+03  0.45934663871E+03  0.00000000000E+00 0. -1.
         21   -1    0    0  501  502 -0.00000000000E+00 -0.00000000000E+00 -0.17066016462E+03  0.17066016462E+03  0.00000000000E+00 0. -1.
         25    1    1    2    0    0  0.13178622020E+03  0.32539059116E+02  0.10816709193E+03  0.21389604480E+03  0.12500000000E+03 0.  0.
         25    1    1    2    0    0 -0.15031901600E+02 -0.82420236370E+02  0.18426294720E+03  0.23790100281E+03  0.12500000000E+03 0.  0.
         25    1    1    2    0    0 -0.11675431860E+03  0.49881177254E+02 -0.37435650295E+01  0.17820975572E+03  0.12500000000E+03 0.  0.
</event>
<event>
 5    0  0.5590591E-005  0.2057524E+03  0.7546771E-02  0.1144974E+00
         21   -1    0    0  502  501  0.00000000000E+00  0.00000000000E+00  0.52709579960E+02  0.52709579960E+02  0.00000000000E+00 0.  1.
         21   -1    0    0  501  502 -0.00000000000E+00 -0.00000000000E+00 -0.80315642513E+03  0.80315642513E+03  0.00000000000E+00 0.  1.
         25    1    1    2    0    0  0.46989086632E+02  0.42571066130E+02 -0.23587962586E+03  0.27438015203E+03  0.12500000000E+03 0.  0.
         25    1    1    2    0    0 -0.17960011367E+02  0.18091766492E+02 -0.27221903947E+03  0.30062947207E+03  0.12500000000E+03 0.  0.
         25    1    1    2    0    0 -0.29029075265E+02 -0.60662832623E+02 -0.24234817984E+03  0.28085638099E+03  0.12500000000E+03 0.  0.
</event>
<event>
 5    0  0.5590591E-005  0.3874810E+03  0.7546771E-02  0.1048203E+00
         21   -1    0    0  502  501  0.00000000000E+00  0.00000000000E+00  0.16614299277E+03  0.16614299277E+03  0.00000000000E+00 0. -1.
         21   -1    0    0  501  502 -0.00000000000E+00 -0.00000000000E+00 -0.90368844588E+03  0.90368844588E+03  0.00000000000E+00 0. -1.
         25    1    1    2    0    0  0.18239873012E+03 -0.20515389798E+03 -0.59921625705E+03  0.67085210093E+03  0.12500000000E+03 0.  0.
         25    1    1    2    0    0 -0.94867035416E+02  0.12024664883E+03 -0.53346259696E+02  0.20476775720E+03  0.12500000000E+03 0.  0.
         25    1    1    2    0    0 -0.87531694708E+02  0.84907249153E+02 -0.84982936369E+02  0.19421158053E+03  0.12500000000E+03 0.  0.
</event>
<event>
 5    0  0.5590591E-005  0.2924895E+03  0.7546771E-02  0.1089056E+00
         21   -1    0    0  502  501  0.00000000000E+00  0.00000000000E+00  0.28043851739E+03  0.28043851739E+03  0.00000000000E+00 0.  1.
         21   -1    0    0  501  502 -0.00000000000E+00 -0.00000000000E+00 -0.30505837785E+03  0.30505837785E+03  0.00000000000E+00 0.  1.
         25    1    1    2    0    0 -0.74214642757E+01  0.10341100283E+02 -0.18649340190E+03  0.22487064157E+03  0.12500000000E+03 0.  0.
         25    1    1    2    0    0 -0.49200470242E+02 -0.52256607205E+02  0.16239906031E+03  0.21714026356E+03  0.12500000000E+03 0.  0.
         25    1    1    2    0    0  0.56621934517E+02  0.41915506922E+02 -0.52551886317E+00  0.14348599011E+03  0.12500000000E+03 0.  0.
</event>
<event>
 5    0  0.5590591E-005  0.2500625E+03  0.7546771E-02  0.1113265E+00
         21   -1    0    0  502  501  0.00000000000E+00  0.00000000000E+00  0.22851572041E+03  0.22851572041E+03  0.00000000000E+00 0. -1.
         21   -1    0    0  501  502 -0.00000000000E+00 -0.00000000000E+00 -0.27364098507E+03  0.27364098507E+03  0.00000000000E+00 0. -1.
         25    1    1    2    0    0  0.33471251853E+02 -0.31453104579E+02 -0.83155386781E+02  0.15700140394E+03  0.12500000000E+03 0.  0.
         25    1    1    2    0    0  0.94204156449E+02  0.42635178481E+02  0.35723075511E+02  0.16611237058E+03  0.12500000000E+03 0.  0.
         25    1    1    2    0    0 -0.12767540830E+03 -0.11182073902E+02  0.23070466030E+01  0.17904293096E+03  0.12500000000E+03 0.  0.
</event>
<event>
 5    0  0.5590591E-005  0.3987124E+03  0.7546771E-02  0.1044226E+00
         21   -1    0    0  502  501  0.00000000000E+00  0.00000000000E+00  0.25729674144E+03  0.25729674144E+03  0.00000000000E+00 0. -1.
         21   -1    0    0  501  502 -0.00000000000E+00 -0.00000000000E+00 -0.61785314370E+03  0.61785314370E+03  0.00000000000E+00 0. -1.
         25    1    1    2    0    0  0.12439403286E+03  0.16260776074E+03 -0.30018507455E+02  0.24174629274E+03  0.12500000000E+03 0.  0.
         25    1    1    2    0    0  0.38735276826E+02 -0.20593730944E+02  0.78595478904E+02  0.15403497242E+03  0.12500000000E+03 0.  0.
         25    1    1    2    0    0 -0.16312930969E+03 -0.14201402980E+03 -0.40913337371E+03  0.47936861998E+03  0.12500000000E+03 0.  0.
</event>
<event>
 5    0  0.5590591E-005  0.3523725E+03  0.7546771E-02  0.1061645E+00
         21   -1    0    0  502  501  0.00000000000E+00  0.00000000000E+00  0.35492053966E+03  0.35492053966E+03  0.00000000000E+00 0.  1.
         21   -1    0    0  501  502 -0.00000000000E+00 -0.00000000000E+00 -0.34984276961E+03  0.34984276961E+03  0.00000000000E+00 0.  1.
         25    1    1    2    0    0 -0.24498518848E+03  0.21321077531E+02  0.14687631770E+03  0.31252197303E+03  0.12500000000E+03 0.  0.
         25    1    1    2    0    0  0.15941046796E+03 -0.12991819686E+02 -0.12782385453E+03  0.23988418551E+03  0.12500000000E+03 0.  0.
         25    1    1    2    0    0  0.85574720525E+02 -0.83292578452E+01 -0.13974693125E+02  0.15235715073E+03  0.12500000000E+03 0.  0.
</event>
<event>
 5    0  0.5590591E-005  0.3730615E+03  0.7546771E-02  0.1053528E+00
         21   -1    0    0  502  501  0.00000000000E+00  0.00000000000E+00  0.23383360732E+03  0.23383360732E+03  0.00000000000E+00 0.  1.
         21   -1    0    0  501  502 -0.00000000000E+00 -0.00000000000E+00 -0.59518767844E+03  0.59518767844E+03  0.00000000000E+00 0.  1.
         25    1    1    2    0    0 -0.12308209793E+03 -0.25387582373E+02  0.21765516039E+02  0.17858462940E+03  0.12500000000E+03 0.  0.
         25    1    1    2    0    0  0.26329604762E+03  0.95894102898E+02 -0.31192186290E+03  0.43753941104E+03  0.12500000000E+03 0.  0.
         25    1    1    2    0    0 -0.14021394969E+03 -0.70506520525E+02 -0.71197724254E+02  0.21289724532E+03  0.12500000000E+03 0.  0.
</event>
<event>
 5    0  0.5590591E-005  0.2745563E+03  0.7546771E-02  0.1098700E+00
         21   -1    0    0  502  501  0.00000000000E+00  0.00000000000E+00  0.25152830564E+03  0.25152830564E+03  0.00000000000E+00 0. -1.
         21   -1    0    0  501  502 -0.00000000000E+00 -0.00000000000E+00 -0.29969250169E+03  0.29969250169E+03  0.00000000000E+00 0. -1.
         25    1    1    2    0    0  0.96229042783E+02 -0.43650833485E+02 -0.15356204646E+03  0.22443646329E+03  0.12500000000E+03 0.  0.
         25    1    1    2    0    0 -0.13597761655E+02  0.39108589447E+02  0.11737064972E+03  0.17639515386E+03  0.12500000000E+03 0.  0.
         25    1    1    2    0    0 -0.82631281128E+02  0.45422440375E+01 -0.11972799301E+02  0.15038919019E+03  0.12500000000E+03 0.  0.
</event>
<event>
 5    0  0.5590591E-005  0.3349500E+03  0.7546771E-02  0.1068967E+00
         21   -1    0    0  502  501  0.00000000000E+00  0.00000000000E+00  0.10422745793E+04  0.10422745793E+04  0.00000000000E+00 0.  1.
         21   -1    0    0  501  502 -0.00000000000E+00 -0.00000000000E+00 -0.10764103749E+03  0.10764103749E+03  0.00000000000E+00 0.  1.
         25    1    1    2    0    0 -0.12295435186E+03  0.99220354468E+02  0.17895078513E+03  0.26946397697E+03  0.12500000000E+03 0.  0.
         25    1    1    2    0    0  0.17674611057E+03  0.16793676550E+02  0.19464388954E+03  0.29160325600E+03  0.12500000000E+03 0.  0.
         25    1    1    2    0    0 -0.53791758707E+02 -0.11601403102E+03  0.56103886708E+03  0.58884838378E+03  0.12500000000E+03 0.  0.
</event>
<event>
 5    0  0.5590591E-005  0.3395789E+03  0.7546771E-02  0.1066975E+00
         21   -1    0    0  502  501  0.00000000000E+00  0.00000000000E+00  0.11311732729E+03  0.11311732729E+03  0.00000000000E+00 0.  1.
         21   -1    0    0  501  502 -0.00000000000E+00 -0.00000000000E+00 -0.10194177502E+04  0.10194177502E+04  0.00000000000E+00 0.  1.
         25    1    1    2    0    0  0.59968429866E+02  0.24017657969E+03 -0.40506941896E+03  0.49090450822E+03  0.12500000000E+03 0.  0.
         25    1    1    2    0    0 -0.12602650533E+02 -0.11190911612E+03 -0.39196481980E+03  0.42654882139E+03  0.12500000000E+03 0.  0.
         25    1    1    2    0    0 -0.47365779333E+02 -0.12826746358E+03 -0.10926618414E+03  0.21508174786E+03  0.12500000000E+03 0.  0.
</event>
<event>
 5    0  0.5590591E-005  0.3163311E+03  0.7546771E-02  0.1077350E+00
         21   -1    0    0  502  501  0.00000000000E+00  0.00000000000E+00  0.35901299922E+03  0.35901299922E+03  0.00000000000E+00 0.  1.
         21   -1    0    0  501  502 -0.00000000000E+00 -0.00000000000E+00 -0.27872355385E+03  0.27872355385E+03  0.00000000000E+00 0.  1.
         25    1    1    2    0    0  0.80230446821E+02 -0.76316040272E+01  0.93139236286E+02  0.17548527948E+03  0.12500000000E+03 0.  0.
         25    1    1    2    0    0  0.63888397680E+02  0.11059358699E+03  0.11313837848E+03  0.21151350200E+03  0.12500000000E+03 0.  0.
         25    1    1    2    0    0 -0.14411884450E+03 -0.10296198297E+03 -0.12598816939E+03  0.25073777159E+03  0.12500000000E+03 0.  0.
</event>
<event>
 5    0  0.5590591E-005  0.5629276E+03  0.7546771E-02  0.9985452E-01
         21   -1    0    0  502  501  0.00000000000E+00  0.00000000000E+00  0.18925391225E+03  0.18925391225E+03  0.00000000000E+00 0.  1.
         21   -1    0    0  501  502 -0.00000000000E+00 -0.00000000000E+00 -0.16744036853E+04  0.16744036853E+04  0.00000000000E+00 0.  1.
         25    1    1    2    0    0 -0.35127687393E+03  0.67164812082E+02 -0.31668229005E+03  0.49378054536E+03  0.12500000000E+03 0.  0.
         25    1    1    2    0    0  0.43018321531E+03 -0.40988454679E+02 -0.11280083469E+04  0.12143992272E+04  0.12500000000E+03 0.  0.
         25    1    1    2    0    0 -0.78906341379E+02 -0.26176357403E+02 -0.40459136097E+02  0.15547782508E+03  0.12500000000E+03 0.  0.
</event>
<event>
 5    0  0.6603495E-005  0.3995127E+03  0.7546771E-02  0.1043949E+00
         21   -1    0    0  502  501  0.00000000000E+00  0.00000000000E+00  0.48090125960E+03  0.48090125960E+03  0.00000000000E+00 0. -1.
         21   -1    0    0  501  502 -0.00000000000E+00 -0.00000000000E+00 -0.33189840367E+03  0.33189840367E+03  0.00000000000E+00 0. -1.
         25    1    1    2    0    0 -0.63038019258E+02 -0.86081930758E+02  0.20004636986E+03  0.25889658316E+03  0.12500000000E+03 0.  0.
         25    1    1    2    0    0  0.15997431769E+03  0.22395115759E+03  0.71895386209E+02  0.31070862535E+03  0.12500000000E+03 0.  0.
         25    1    1    2    0    0 -0.96936298433E+02 -0.13786922683E+03 -0.12293890014E+03  0.24319445477E+03  0.12500000000E+03 0.  0.
</event>
<event>
 5    0  0.5590591E-005  0.2984919E+03  0.7546771E-02  0.1085997E+00
         21   -1    0    0  502  501  0.00000000000E+00  0.00000000000E+00  0.52216341970E+02  0.52216341970E+02  0.00000000000E+00 0. -1.
         21   -1    0    0  501  502 -0.00000000000E+00 -0.00000000000E+00 -0.17063126157E+04  0.17063126157E+04  0.00000000000E+00 0. -1.
         25    1    1    2    0    0 -0.82263823391E+02  0.21297343441E+02 -0.49288977359E+03  0.51554460757E+03  0.12500000000E+03 0.  0.
         25    1    1    2    0    0  0.19193977376E+02 -0.30121612987E+02 -0.10649347918E+04  0.10728405432E+04  0.12500000000E+03 0.  0.
         25    1    1    2    0    0  0.63069846015E+02  0.88242695462E+01 -0.96271708374E+02  0.17014380695E+03  0.12500000000E+03 0.  0.
</event>
<event>
 5    0  0.5590591E-005  0.2909910E+03  0.7546771E-02  0.1089833E+00
         21   -1    0    0  502  501  0.00000000000E+00  0.00000000000E+00  0.11348879543E+03  0.11348879543E+03  0.00000000000E+00 0. -1.
         21   -1    0    0  501  502 -0.00000000000E+00 -0.00000000000E+00 -0.74611542715E+03  0.74611542715E+03  0.00000000000E+00 0. -1.
         25    1    1    2    0    0 -0.44080457874E+02  0.14529374405E+03 -0.25005940669E+03  0.31813215131E+03  0.12500000000E+03 0.  0.
         25    1    1    2    0    0  0.55077501876E+02 -0.20311369286E+03 -0.25392720129E+03  0.35269353126E+03  0.12500000000E+03 0.  0.
         25    1    1    2    0    0 -0.10997044002E+02  0.57819948806E+02 -0.12864002375E+03  0.18877854001E+03  0.12500000000E+03 0.  0.
</event>
<event>
 5    0  0.5590591E-005  0.4160355E+03  0.7546771E-02  0.1038364E+00
         21   -1    0    0  502  501  0.00000000000E+00  0.00000000000E+00  0.30898196508E+03  0.30898196508E+03  0.00000000000E+00 0.  1.
         21   -1    0    0  501  502 -0.00000000000E+00 -0.00000000000E+00 -0.56018008537E+03  0.56018008537E+03  0.00000000000E+00 0.  1.
         25    1    1    2    0    0 -0.82110623189E+02  0.41780127390E+02  0.19629479049E+03  0.25028858995E+03  0.12500000000E+03 0.  0.
         25    1    1    2    0    0  0.73358821935E+02  0.13535020224E+03 -0.28763728438E+03  0.34937286868E+03  0.12500000000E+03 0.  0.
         25    1    1    2    0    0  0.87518012546E+01 -0.17713032963E+03 -0.15985562640E+03  0.26950059182E+03  0.12500000000E+03 0.  0.
</event>
<event>
 5    0  0.5590591E-005  0.2355616E+03  0.7546771E-02  0.1122785E+00
         21   -1    0    0  502  501  0.00000000000E+00  0.00000000000E+00  0.51369635622E+02  0.51369635622E+02  0.00000000000E+00 0. -1.
         21   -1    0    0  501  502 -0.00000000000E+00 -0.00000000000E+00 -0.10801962401E+04  0.10801962401E+04  0.00000000000E+00 0. -1.
         25    1    1    2    0    0  0.10813085910E+02  0.76135441655E+02 -0.38763573349E+03  0.41448762367E+03  0.12500000000E+03 0.  0.
         25    1    1    2    0    0 -0.62135406318E+01  0.57732033756E+02 -0.27202086839E+03  0.30494581264E+03  0.12500000000E+03 0.  0.
         25    1    1    2    0    0 -0.45995452779E+01 -0.13386747541E+03 -0.36917000260E+03  0.41213243940E+03  0.12500000000E+03 0.  0.
</event>
<event>
 5    0  0.5590591E-005  0.3368868E+03  0.7546771E-02  0.1068130E+00
         21   -1    0    0  502  501  0.00000000000E+00  0.00000000000E+00  0.66005029717E+02  0.66005029717E+02  0.00000000000E+00 0.  1.
         21   -1    0    0  501  502 -0.00000000000E+00 -0.00000000000E+00 -0.17194559746E+04  0.17194559746E+04  0.00000000000E+00 0.  1.
         25    1    1    2    0    0  0.13454834602E+03  0.10541589290E+03 -0.45144775026E+03  0.49864400037E+03  0.12500000000E+03 0.  0.
         25    1    1    2    0    0  0.34052506204E+02  0.85072492491E+02 -0.62534982089E+03  0.64427036300E+03  0.12500000000E+03 0.  0.
         25    1    1    2    0    0 -0.16860085222E+03 -0.19048838539E+03 -0.57665337369E+03  0.64254664090E+03  0.12500000000E+03 0.  0.
</event>
<event>
 5    0  0.5590591E-005  0.2855520E+03  0.7546771E-02  0.1092695E+00
         21   -1    0    0  502  501  0.00000000000E+00  0.00000000000E+00  0.72517052883E+03  0.72517052883E+03  0.00000000000E+00 0.  1.
         21   -1    0    0  501  502 -0.00000000000E+00 -0.00000000000E+00 -0.11244247180E+03  0.11244247180E+03  0.00000000000E+00 0.  1.
         25    1    1    2    0    0 -0.11781070854E+02  0.18890375540E+02  0.32244114840E+03  0.34653850306E+03  0.12500000000E+03 0.  0.
         25    1    1    2    0    0 -0.99485326042E+02  0.39892761725E+02  0.17359882965E+02  0.16557514328E+03  0.12500000000E+03 0.  0.
         25    1    1    2    0    0  0.11126639690E+03 -0.58783137266E+02  0.27292702567E+03  0.32549935429E+03  0.12500000000E+03 0.  0.
</event>
<event>
 5    0  0.5590591E-005  0.3475571E+03  0.7546771E-02  0.1063622E+00
         21   -1    0    0  502  501  0.00000000000E+00  0.00000000000E+00  0.88390334860E+03  0.88390334860E+03  0.00000000000E+00 0.  1.
         21   -1    0    0  501  502 -0.00000000000E+00 -0.00000000000E+00 -0.13666196269E+03  0.13666196269E+03  0.00000000000E+00 0.  1.
         25    1    1    2    0    0  0.17234779693E+02  0.75241040152E+02  0.13675894251E+03  0.20071437445E+03  0.12500000000E+03 0.  0.
         25    1    1    2    0    0 -0.21197379805E+03 -0.12268963939E+03  0.47137444612E+03  0.54571467556E+03  0.12500000000E+03 0.  0.
         25    1    1    2    0    0  0.19473901836E+03  0.47448599235E+02  0.13910799728E+03  0.27413626128E+03  0.12500000000E+03 0.  0.
</event>
<event>
 5    0  0.5590591E-005  0.1006536E+04  0.7546771E-02  0.9301405E-01
         21   -1    0    0  502  501  0.00000000000E+00  0.00000000000E+00  0.11830002193E+04  0.11830002193E+04  0.00000000000E+00 0. -1.
         21   -1    0    0  501  502 -0.00000000000E+00 -0.00000000000E+00 -0.85639481671E+03  0.85639481671E+03  0.00000000000E+00 0. -1.
         25    1    1    2    0    0  0.71821979643E+03 -0.38466195233E+03 -0.22815505168E+03  0.85526850823E+03  0.12500000000E+03 0.  0.
         25    1    1    2    0    0  0.35827571426E+02  0.21816763401E+03  0.68519138786E+02  0.26306007638E+03  0.12500000000E+03 0.  0.
         25    1    1    2    0    0 -0.75404736785E+03  0.16649431832E+03  0.48624131547E+03  0.92106645139E+03  0.12500000000E+03 0.  0.
</event>
<event>
 5    0  0.5590591E-005  0.3241432E+03  0.7546771E-02  0.1073758E+00
         21   -1    0    0  502  501  0.00000000000E+00  0.00000000000E+00  0.11895046716E+03  0.11895046716E+03  0.00000000000E+00 0.  1.
         21   -1    0    0  501  502 -0.00000000000E+00 -0.00000000000E+00 -0.88329890508E+03  0.88329890508E+03  0.00000000000E+00 0.  1.
         25    1    1    2    0    0  0.50316962705E+02  0.46038463213E+02 -0.97982461750E+02  0.17284935534E+03  0.12500000000E+03 0.  0.
         25    1    1    2    0    0 -0.18251518804E+03  0.10278906576E+03 -0.43986292483E+03  0.50297294017E+03  0.12500000000E+03 0.  0.
         25    1    1    2    0    0  0.13219822533E+03 -0.14882752897E+03 -0.22650305134E+03  0.32642707674E+03  0.12500000000E+03 0.  0.
</event>
<event>
 5    0  0.5590591E-005  0.3006375E+03  0.7546771E-02  0.1084922E+00
         21   -1    0    0  502  501  0.00000000000E+00  0.00000000000E+00  0.41868243351E+03  0.41868243351E+03  0.00000000000E+00 0. -1.
         21   -1    0    0  501  502 -0.00000000000E+00 -0.00000000000E+00 -0.21587466079E+03  0.21587466079E+03  0.00000000000E+00 0. -1.
         25    1    1    2    0    0 -0.94995847079E+02 -0.59223027487E+02 -0.87439091026E+02  0.18921462044E+03  0.12500000000E+03 0.  0.
         25    1    1    2    0    0  0.15817403770E+02  0.23304480746E+02  0.12686304121E+02  0.12876036423E+03  0.12500000000E+03 0.  0.
         25    1    1    2    0    0  0.79178443310E+02  0.35918546740E+02  0.27756055963E+03  0.31658210964E+03  0.12500000000E+03 0.  0.
</event>
<event>
 5    0  0.5590591E-005  0.3550415E+03  0.7546771E-02  0.1060565E+00
         21   -1    0    0  502  501  0.00000000000E+00  0.00000000000E+00  0.13722987911E+03  0.13722987911E+03  0.00000000000E+00 0.  1.
         21   -1    0    0  501  502 -0.00000000000E+00 -0.00000000000E+00 -0.91856412376E+03  0.91856412376E+03  0.00000000000E+00 0.  1.
         25    1    1    2    0    0  0.88541970440E+02  0.86411920112E+02 -0.53211372199E+03  0.56042547551E+03  0.12500000000E+03 0.  0.
         25    1    1    2    0    0  0.79588794059E+02  0.70327974904E+02 -0.70682534252E+02  0.17860968855E+03  0.12500000000E+03 0.  0.
         25    1    1    2    0    0 -0.16813076450E+03 -0.15673989502E+03 -0.17853798841E+03  0.31675883881E+03  0.12500000000E+03 0.  0.
</event>
<event>
 5    0  0.5590591E-005  0.3816558E+03  0.7546771E-02  0.1050323E+00
         21   -1    0    0  502  501  0.00000000000E+00  0.00000000000E+00  0.27081011440E+03  0.27081011440E+03  0.00000000000E+00 0. -1.
         21   -1    0    0  501  502 -0.00000000000E+00 -0.00000000000E+00 -0.53787202031E+03  0.53787202031E+03  0.00000000000E+00 0. -1.
         25    1    1    2    0    0 -0.17490676248E+03 -0.35720468039E+02 -0.18753702391E+03  0.28751254361E+03  0.12500000000E+03 0.  0.
         25    1    1    2    0    0  0.20283169687E+03 -0.14343613745E+03  0.21383618188E+02  0.27892092411E+03  0.12500000000E+03 0.  0.
         25    1    1    2    0    0 -0.27924934391E+02  0.17915660549E+03 -0.10090850019E+03  0.24224866699E+03  0.12500000000E+03 0.  0.
</event>
<event>
 5    0  0.5590591E-005  0.3212157E+03  0.7546771E-02  0.1075091E+00
         21   -1    0    0  502  501  0.00000000000E+00  0.00000000000E+00  0.12298824764E+04  0.12298824764E+04  0.00000000000E+00 0. -1.
         21   -1    0    0  501  502 -0.00000000000E+00 -0.00000000000E+00 -0.83893791063E+02  0.83893791063E+02  0.00000000000E+00 0. -1.
         25    1    1    2    0    0 -0.17125389065E+03  0.66038437411E+02  0.43392799368E+03  0.48744997075E+03  0.12500000000E+03 0.  0.
         25    1    1    2    0    0  0.23305499798E+03 -0.69159497950E+02  0.53630140326E+03  0.60194838930E+03  0.12500000000E+03 0.  0.
         25    1    1    2    0    0 -0.61801107321E+02  0.31210605391E+01  0.17575928844E+03  0.22437790746E+03  0.12500000000E+03 0.  0.
</event>
<event>
 5    0  0.5590591E-005  0.2627378E+03  0.7546771E-02  0.1105509E+00
         21   -1    0    0  502  501  0.00000000000E+00  0.00000000000E+00  0.30794645251E+03  0.30794645251E+03  0.00000000000E+00 0. -1.
         21   -1    0    0  501  502 -0.00000000000E+00 -0.00000000000E+00 -0.22416601672E+03  0.22416601672E+03  0.00000000000E+00 0. -1.
         25    1    1    2    0    0  0.41795779215E+02  0.73659204426E+01 -0.54863427739E+02  0.14295502666E+03  0.12500000000E+03 0.  0.
         25    1    1    2    0    0  0.10903123916E+02  0.46615821643E+02  0.19170704960E+03  0.23381297185E+03  0.12500000000E+03 0.  0.
         25    1    1    2    0    0 -0.52698903131E+02 -0.53981742086E+02 -0.53063186071E+02  0.15534447073E+03  0.12500000000E+03 0.  0.
</event>
<event>
 5    0  0.5590591E-005  0.2891105E+03  0.7546771E-02  0.1090814E+00
         21   -1    0    0  502  501  0.00000000000E+00  0.00000000000E+00  0.19305441903E+03  0.19305441903E+03  0.00000000000E+00 0. -1.
         21   -1    0    0  501  502 -0.00000000000E+00 -0.00000000000E+00 -0.43296022344E+03  0.43296022344E+03  0.00000000000E+00 0. -1.
         25    1    1    2    0    0  0.14969455102E+03  0.33732676999E+02 -0.42172603833E+02  0.20236076847E+03  0.12500000000E+03 0.  0.
         25    1    1    2    0    0 -0.18019201065E+02 -0.10338153193E+03 -0.15387555012E+03  0.22431031558E+03  0.12500000000E+03 0.  0.
         25    1    1    2    0    0 -0.13167534996E+03  0.69648854928E+02 -0.43857650452E+02  0.19934355842E+03  0.12500000000E+03 0.  0.
</event>
<event>
 5    0  0.5778239E-005  0.3013602E+03  0.7546771E-02  0.1084563E+00
         21   -1    0    0  502  501  0.00000000000E+00  0.00000000000E+00  0.17075610032E+03  0.17075610032E+03  0.00000000000E+00 0.  1.
         21   -1    0    0  501  502 -0.00000000000E+00 -0.00000000000E+00 -0.53185791687E+03  0.53185791687E+03  0.00000000000E+00 0.  1.
         25    1    1    2    0    0 -0.38534187428E+02  0.10257603555E+03 -0.16480311607E+03  0.23407646985E+03  0.12500000000E+03 0.  0.
         25    1    1    2    0    0  0.33374233393E+02  0.11397776046E+03 -0.53428654042E+02  0.18051146891E+03  0.12500000000E+03 0.  0.
         25    1    1    2    0    0  0.51599540349E+01 -0.21655379601E+03 -0.14287004643E+03  0.28802607844E+03  0.12500000000E+03 0.  0.
</event>
<event>
 5    0  0.5959207E-005  0.3904489E+03  0.7546771E-02  0.1047138E+00
         21   -1    0    0  502  501  0.00000000000E+00  0.00000000000E+00  0.56490623405E+03  0.56490623405E+03  0.00000000000E+00 0. -1.
         21   -1    0    0  501  502 -0.00000000000E+00 -0.00000000000E+00 -0.26986837129E+03  0.26986837129E+03  0.00000000000E+00 0. -1.
         25    1    1    2    0    0  0.98730029904E+02  0.18442123278E+03 -0.26335149046E+02  0.24510681341E+03  0.12500000000E+03 0.  0.
         25    1    1    2    0    0 -0.17453550539E+03 -0.20118236469E+03  0.76521544940E+02  0.30400252193E+03  0.12500000000E+03 0.  0.
         25    1    1    2    0    0  0.75805475484E+02  0.16761131913E+02  0.24485146687E+03  0.28566527000E+03  0.12500000000E+03 0.  0.
</event>
<event>
 5    0  0.5590591E-005  0.3083196E+03  0.7546771E-02  0.1081154E+00
         21   -1    0    0  502  501  0.00000000000E+00  0.00000000000E+00  0.26345555991E+03  0.26345555991E+03  0.00000000000E+00 0. -1.
         21   -1    0    0  501  502 -0.00000000000E+00 -0.00000000000E+00 -0.36082357132E+03  0.36082357132E+03  0.00000000000E+00 0. -1.
         25    1    1    2    0    0 -0.19966679355E+03 -0.29643706162E+02  0.87006564553E+02  0.25286502336E+03  0.12500000000E+03 0.  0.
         25    1    1    2    0    0  0.10839926574E+03  0.21288788875E+02 -0.84225511690E+02  0.18687576131E+03  0.12500000000E+03 0.  0.
         25    1    1    2    0    0  0.91267527815E+02  0.83549172869E+01 -0.10014906427E+03  0.18453834656E+03  0.12500000000E+03 0.  0.
</event>
<event>
 5    0  0.5590591E-005  0.2661013E+03  0.7546771E-02  0.1103532E+00
         21   -1    0    0  502  501  0.00000000000E+00  0.00000000000E+00  0.13005537616E+03  0.13005537616E+03  0.00000000000E+00 0.  1.
         21   -1    0    0  501  502 -0.00000000000E+00 -0.00000000000E+00 -0.54445974972E+03  0.54445974972E+03  0.00000000000E+00 0.  1.
         25    1    1    2    0    0  0.13829584143E+03 -0.47289291389E+02 -0.19521628745E+03  0.27403725243E+03  0.12500000000E+03 0.  0.
         25    1    1    2    0    0 -0.46898639065E+02  0.85460742538E+02 -0.17255591913E+03  0.23431510000E+03  0.12500000000E+03 0.  0.
         25    1    1    2    0    0 -0.91397202360E+02 -0.38171451148E+02 -0.46632166977E+02  0.16616277345E+03  0.12500000000E+03 0.  0.
</event>
<event>
 5    0  0.5590591E-005  0.3088526E+03  0.7546771E-02  0.1080897E+00
         21   -1    0    0  502  501  0.00000000000E+00  0.00000000000E+00  0.25865617760E+03  0.25865617760E+03  0.00000000000E+00 0.  1.
         21   -1    0    0  501  502 -0.00000000000E+00 -0.00000000000E+00 -0.36879038965E+03  0.36879038965E+03  0.00000000000E+00 0.  1.
         25    1    1    2    0    0  0.15299379194E+03  0.11956455335E+03 -0.55455014289E+02  0.23749324496E+03  0.12500000000E+03 0.  0.
         25    1    1    2    0    0 -0.79903931478E+01 -0.11137911194E+03 -0.97082043647E+02  0.19369841547E+03  0.12500000000E+03 0.  0.
         25    1    1    2    0    0 -0.14500339880E+03 -0.81854414101E+01  0.42402845882E+02  0.19625490682E+03  0.12500000000E+03 0.  0.
</event>
<event>
 5    0  0.6697361E-005  0.2844650E+03  0.7546771E-02  0.1093275E+00
         21   -1    0    0  502  501  0.00000000000E+00  0.00000000000E+00  0.28856123594E+03  0.28856123594E+03  0.00000000000E+00 0.  1.
         21   -1    0    0  501  502 -0.00000000000E+00 -0.00000000000E+00 -0.28042695502E+03  0.28042695502E+03  0.00000000000E+00 0.  1.
         25    1    1    2    0    0  0.14006886231E+02 -0.10300125096E+03  0.87380520001E+02  0.18456924402E+03  0.12500000000E+03 0.  0.
         25    1    1    2    0    0 -0.90422060995E+02  0.12953784720E+02  0.57042875134E+02  0.16499345216E+03  0.12500000000E+03 0.  0.
         25    1    1    2    0    0  0.76415174764E+02  0.90047466240E+02 -0.13628911421E+03  0.21942549479E+03  0.12500000000E+03 0.  0.
</event>
<event>
 5    0  0.5590591E-005  0.2517448E+03  0.7546771E-02  0.1112207E+00
         21   -1    0    0  502  501  0.00000000000E+00  0.00000000000E+00  0.12314939245E+04  0.12314939245E+04  0.00000000000E+00 0.  1.
         21   -1    0    0  501  502 -0.00000000000E+00 -0.00000000000E+00 -0.51462246242E+02  0.51462246242E+02  0.00000000000E+00 0.  1.
         25    1    1    2    0    0  0.34136052723E+02  0.24567046734E+02  0.87339328084E+02  0.15818333702E+03  0.12500000000E+03 0.  0.
         25    1    1    2    0    0  0.14701222118E+02 -0.13477515035E+02  0.41681860749E+03  0.43561510637E+03  0.12500000000E+03 0.  0.
         25    1    1    2    0    0 -0.48837274841E+02 -0.11089531699E+02  0.67587374269E+03  0.68915772736E+03  0.12500000000E+03 0.  0.
</event>
<event>
 5    0  0.5590591E-005  0.2242864E+03  0.7546771E-02  0.1130727E+00
         21   -1    0    0  502  501  0.00000000000E+00  0.00000000000E+00  0.23690787687E+03  0.23690787687E+03  0.00000000000E+00 0.  1.
         21   -1    0    0  501  502 -0.00000000000E+00 -0.00000000000E+00 -0.21233732207E+03  0.21233732207E+03  0.00000000000E+00 0.  1.
         25    1    1    2    0    0  0.73138961559E+02 -0.13168986210E+02  0.25070532156E+02  0.14756781993E+03  0.12500000000E+03 0.  0.
         25    1    1    2    0    0 -0.83412790596E+02 -0.53647310912E+02  0.48938914865E+00  0.15956493069E+03  0.12500000000E+03 0.  0.
         25    1    1    2    0    0  0.10273829037E+02  0.66816297121E+02 -0.98936650153E+00  0.14211244833E+03  0.12500000000E+03 0.  0.
</event>
<event>
 5    0  0.5590591E-005  0.3252270E+03  0.7546771E-02  0.1073269E+00
         21   -1    0    0  502  501  0.00000000000E+00  0.00000000000E+00  0.98405326276E+02  0.98405326276E+02  0.00000000000E+00 0.  1.
         21   -1    0    0  501  502 -0.00000000000E+00 -0.00000000000E+00 -0.10748664586E+04  0.10748664586E+04  0.00000000000E+00 0.  1.
         25    1    1    2    0    0  0.13320789727E+02 -0.96243945304E+02 -0.25132807759E+03  0.29703727549E+03  0.12500000000E+03 0.  0.
         25    1    1    2    0    0 -0.78507400462E+02  0.22181689827E+03 -0.57943473327E+03  0.63775838560E+03  0.12500000000E+03 0.  0.
         25    1    1    2    0    0  0.65186610735E+02 -0.12557295297E+03 -0.14569832146E+03  0.23847612378E+03  0.12500000000E+03 0.  0.
</event>
<event>
 5    0  0.5590591E-005  0.4854626E+03  0.7546771E-02  0.1017645E+00
         21   -1    0    0  502  501  0.00000000000E+00  0.00000000000E+00  0.62966021052E+03  0.62966021052E+03  0.00000000000E+00 0.  1.
         21   -1    0    0  501  502 -0.00000000000E+00 -0.00000000000E+00 -0.37428740899E+03  0.37428740899E+03  0.00000000000E+00 0.  1.
         25    1    1    2    0    0  0.19300121988E+03 -0.31996022039E+03  0.33071081214E+03  0.51441097847E+03  0.12500000000E+03 0.  0.
         25    1    1    2    0    0 -0.95134230983E+02  0.13697978856E+03 -0.12390116539E+03  0.24246748888E+03  0.12500000000E+03 0.  0.
         25    1    1    2    0    0 -0.97866988900E+02  0.18298043183E+03  0.48563154779E+02  0.24706915216E+03  0.12500000000E+03 0.  0.
</event>
<event>
 5    0  0.5590591E-005  0.3369968E+03  0.7546771E-02  0.1068082E+00
         21   -1    0    0  502  501  0.00000000000E+00  0.00000000000E+00  0.13911926354E+04  0.13911926354E+04  0.00000000000E+00 0.  1.
         21   -1    0    0  501  502 -0.00000000000E+00 -0.00000000000E+00 -0.81632736628E+02  0.81632736628E+02  0.00000000000E+00 0.  1.
         25    1    1    2    0    0  0.37476069503E+02  0.46530017760E+02  0.23623901066E+03  0.27386742869E+03  0.12500000000E+03 0.  0.
         25    1    1    2    0    0 -0.22341883632E+03 -0.12206030834E+03  0.44581586072E+03  0.52838572744E+03  0.12500000000E+03 0.  0.
         25    1    1    2    0    0  0.18594276682E+03  0.75530290581E+02  0.62750502737E+03  0.67057221587E+03  0.12500000000E+03 0.  0.
</event>
<event>
 5    0  0.5590591E-005  0.3420149E+03  0.7546771E-02  0.1065941E+00
         21   -1    0    0  502  501  0.00000000000E+00  0.00000000000E+00  0.91174995971E+03  0.91174995971E+03  0.00000000000E+00 0. -1.
         21   -1    0    0  501  502 -0.00000000000E+00 -0.00000000000E+00 -0.12829638175E+03  0.12829638175E+03  0.00000000000E+00 0. -1.
         25    1    1    2    0    0  0.56116256082E+02  0.36130707128E+02  0.23795997811E+03  0.27695561626E+03  0.12500000000E+03 0.  0.
         25    1    1    2    0    0 -0.19211167029E+03 -0.17780851805E+03  0.22571771894E+03  0.36755441991E+03  0.12500000000E+03 0.  0.
         25    1    1    2    0    0  0.13599541421E+03  0.14167781092E+03  0.31977588091E+03  0.39553630529E+03  0.12500000000E+03 0.  0.
</event>
<event>
 5    0  0.5590591E-005  0.2724676E+03  0.7546771E-02  0.1099876E+00
         21   -1    0    0  502  501  0.00000000000E+00  0.00000000000E+00  0.28811475808E+03  0.28811475808E+03  0.00000000000E+00 0.  1.
         21   -1    0    0  501  502 -0.00000000000E+00 -0.00000000000E+00 -0.25767013927E+03  0.25767013927E+03  0.00000000000E+00 0.  1.
         25    1    1    2    0    0 -0.93286455611E+02  0.73373901685E+02 -0.84778125059E+02  0.19208962163E+03  0.12500000000E+03 0.  0.
         25    1    1    2    0    0  0.12515619022E+03 -0.11495988386E+02  0.11374435172E+03  0.21061578110E+03  0.12500000000E+03 0.  0.
         25    1    1    2    0    0 -0.31869734604E+02 -0.61877913300E+02  0.14783921477E+01  0.14307949462E+03  0.12500000000E+03 0.  0.
</event>
<event>
 5    0  0.5590591E-005  0.3885901E+03  0.7546771E-02  0.1047804E+00
         21   -1    0    0  502  501  0.00000000000E+00  0.00000000000E+00  0.11377243180E+04  0.11377243180E+04  0.00000000000E+00 0. -1.
         21   -1    0    0  501  502 -0.00000000000E+00 -0.00000000000E+00 -0.13272307112E+03  0.13272307112E+03  0.00000000000E+00 0. -1.
         25    1    1    2    0    0  0.21848217186E+02  0.26734020350E+02  0.71618472526E+03  0.72783075858E+03  0.12500000000E+03 0.  0.
         25    1    1    2    0    0  0.59300870866E+02 -0.56949786960E+00  0.35232669596E+03  0.37851818754E+03  0.12500000000E+03 0.  0.
         25    1    1    2    0    0 -0.81149088052E+02 -0.26164522481E+02 -0.63510174387E+02  0.16409844295E+03  0.12500000000E+03 0.  0.
</event>
<event>
 5    0  0.5590591E-005  0.2538286E+03  0.7546771E-02  0.1110909E+00
         21   -1    0    0  502  501  0.00000000000E+00  0.00000000000E+00  0.40378744478E+02  0.40378744478E+02  0.00000000000E+00 0.  1.
         21   -1    0    0  501  502 -0.00000000000E+00 -0.00000000000E+00 -0.15956150828E+04  0.15956150828E+04  0.00000000000E+00 0.  1.
         25    1    1    2    0    0 -0.48011882731E+01  0.26707384256E+02 -0.30749758598E+03  0.33304068996E+03  0.12500000000E+03 0.  0.
         25    1    1    2    0    0  0.35945929914E+02  0.10212647159E+03 -0.35248367185E+03  0.38934774302E+03  0.12500000000E+03 0.  0.
         25    1    1    2    0    0 -0.31144741641E+02 -0.12883385585E+03 -0.89525508047E+03  0.91360539428E+03  0.12500000000E+03 0.  0.
</event>
<event>
 5    0  0.5590591E-005  0.2540636E+03  0.7546771E-02  0.1110763E+00
         21   -1    0    0  502  501  0.00000000000E+00  0.00000000000E+00  0.33940113634E+03  0.33940113634E+03  0.00000000000E+00 0.  1.
         21   -1    0    0  501  502 -0.00000000000E+00 -0.00000000000E+00 -0.19018293048E+03  0.19018293048E+03  0.00000000000E+00 0.  1.
         25    1    1    2    0    0 -0.33214003529E+02 -0.94455446878E+02 -0.30680622079E+02  0.16306839684E+03  0.12500000000E+03 0.  0.
         25    1    1    2    0    0  0.69838922074E+02  0.11447201017E+03  0.13359092108E+03  0.22683220746E+03  0.12500000000E+03 0.  0.
         25    1    1    2    0    0 -0.36624918546E+02 -0.20016563290E+02  0.46307906864E+02  0.13968346252E+03  0.12500000000E+03 0.  0.
</event>
<event>
 5    0  0.5590591E-005  0.5189593E+03  0.7546771E-02  0.1008945E+00
         21   -1    0    0  502  501  0.00000000000E+00  0.00000000000E+00  0.81387762567E+03  0.81387762567E+03  0.00000000000E+00 0.  1.
         21   -1    0    0  501  502 -0.00000000000E+00 -0.00000000000E+00 -0.33090810840E+03  0.33090810840E+03  0.00000000000E+00 0.  1.
         25    1    1    2    0    0 -0.30306975117E+03  0.24785870985E+03  0.28048215517E+03  0.49757457078E+03  0.12500000000E+03 0.  0.
         25    1    1    2    0    0  0.35882739545E+03 -0.10229475013E+03  0.51688871149E+02  0.39688544320E+03  0.12500000000E+03 0.  0.
         25    1    1    2    0    0 -0.55757644279E+02 -0.14556395972E+03  0.15079849095E+03  0.25032572008E+03  0.12500000000E+03 0.  0.
</event>
<event>
 5    0  0.5590591E-005  0.3269122E+03  0.7546771E-02  0.1072511E+00
         21   -1    0    0  502  501  0.00000000000E+00  0.00000000000E+00  0.67974110169E+03  0.67974110169E+03  0.00000000000E+00 0. -1.
         21   -1    0    0  501  502 -0.00000000000E+00 -0.00000000000E+00 -0.15722399265E+03  0.15722399265E+03  0.00000000000E+00 0. -1.
         25    1    1    2    0    0  0.33590983688E+02  0.67820598805E+02  0.48749567487E+02  0.15404385135E+03  0.12500000000E+03 0.  0.
         25    1    1    2    0    0 -0.16447432489E+02  0.69206258045E+02 -0.29036130207E+02  0.14672464362E+03  0.12500000000E+03 0.  0.
         25    1    1    2    0    0 -0.17143551198E+02 -0.13702685685E+03  0.50280367176E+03  0.53619659937E+03  0.12500000000E+03 0.  0.
</event>
<event>
 5    0  0.5590591E-005  0.2918846E+03  0.7546771E-02  0.1089369E+00
         21   -1    0    0  502  501  0.00000000000E+00  0.00000000000E+00  0.11175816939E+03  0.11175816939E+03  0.00000000000E+00 0. -1.
         21   -1    0    0  501  502 -0.00000000000E+00 -0.00000000000E+00 -0.76233024799E+03  0.76233024799E+03  0.00000000000E+00 0. -1.
         25    1    1    2    0    0 -0.48734533046E+02 -0.12573835998E+03 -0.22068256825E+03  0.28724725553E+03  0.12500000000E+03 0.  0.
         25    1    1    2    0    0  0.96109994878E+02  0.19291511034E+03 -0.28534430710E+03  0.37881360127E+03  0.12500000000E+03 0.  0.
         25    1    1    2    0    0 -0.47375461831E+02 -0.67176750364E+02 -0.14454520325E+03  0.20802756057E+03  0.12500000000E+03 0.  0.
</event>
<event>
 5    0  0.5590591E-005  0.2285482E+03  0.7546771E-02  0.1127666E+00
         21   -1    0    0  502  501  0.00000000000E+00  0.00000000000E+00  0.18390902749E+03  0.18390902749E+03  0.00000000000E+00 0. -1.
         21   -1    0    0  501  502 -0.00000000000E+00 -0.00000000000E+00 -0.28402230604E+03  0.28402230604E+03  0.00000000000E+00 0. -1.
         25    1    1    2    0    0 -0.51352418402E+02 -0.81896360437E+02 -0.83294600444E+02  0.17862551663E+03  0.12500000000E+03 0.  0.
         25    1    1    2    0    0  0.41769562333E+02  0.84492248551E+02  0.21885695735E+02  0.15807472942E+03  0.12500000000E+03 0.  0.
         25    1    1    2    0    0  0.95828560691E+01 -0.25958881138E+01 -0.38704373844E+02  0.13123108748E+03  0.12500000000E+03 0.  0.
</event>
<event>
 5    0  0.5590591E-005  0.3990559E+03  0.7546771E-02  0.1044107E+00
         21   -1    0    0  502  501  0.00000000000E+00  0.00000000000E+00  0.49121516651E+03  0.49121516651E+03  0.00000000000E+00 0.  1.
         21   -1    0    0  501  502 -0.00000000000E+00 -0.00000000000E+00 -0.32418708389E+03  0.32418708389E+03  0.00000000000E+00 0.  1.
         25    1    1    2    0    0  0.98175938716E+00 -0.23104831567E+03 -0.61376669374E+02  0.26977098355E+03  0.12500000000E+03 0.  0.
         25    1    1    2    0    0 -0.13701790526E+03  0.19694421813E+02  0.18294618941E+03  0.26125865504E+03  0.12500000000E+03 0.  0.
         25    1    1    2    0    0  0.13603614588E+03  0.21135389386E+03  0.45458562579E+02  0.28437261180E+03  0.12500000000E+03 0.  0.
</event>
<event>
 5    0  0.5590591E-005  0.3222489E+03  0.7546771E-02  0.1074619E+00
         21   -1    0    0  502  501  0.00000000000E+00  0.00000000000E+00  0.66330817439E+03  0.66330817439E+03  0.00000000000E+00 0. -1.
         21   -1    0    0  501  502 -0.00000000000E+00 -0.00000000000E+00 -0.15655521345E+03  0.15655521345E+03  0.00000000000E+00 0. -1.
         25    1    1    2    0    0 -0.22107131527E+03  0.93129142159E+02  0.30885501950E+03  0.41056301176E+03  0.12500000000E+03 0.  0.
         25    1    1    2    0    0  0.67598530808E+02 -0.69814133318E+02  0.99823395262E+02  0.18717180562E+03  0.12500000000E+03 0.  0.
         25    1    1    2    0    0  0.15347278446E+03 -0.23315008841E+02  0.98074546173E+02  0.22212857046E+03  0.12500000000E+03 0.  0.
</event>
<event>
 5    0  0.5590591E-005  0.5380050E+03  0.7546771E-02  0.1004309E+00
         21   -1    0    0  502  501  0.00000000000E+00  0.00000000000E+00  0.47694389173E+03  0.47694389173E+03  0.00000000000E+00 0. -1.
         21   -1    0    0  501  502 -0.00000000000E+00 -0.00000000000E+00 -0.60688359464E+03  0.60688359464E+03  0.00000000000E+00 0. -1.
         25    1    1    2    0    0  0.29755358298E+03 -0.22493723768E+03 -0.17319294258E+03  0.42983216608E+03  0.12500000000E+03 0.  0.
         25    1    1    2    0    0 -0.28072437004E+03  0.23544441402E+03 -0.15646711412E+03  0.41754904123E+03  0.12500000000E+03 0.  0.
         25    1    1    2    0    0 -0.16829212935E+02 -0.10507176346E+02  0.19972035379E+03  0.23644627906E+03  0.12500000000E+03 0.  0.
</event>
<event>
 5    0  0.5590591E-005  0.7212114E+03  0.7546771E-02  0.9681630E-01
         21   -1    0    0  502  501  0.00000000000E+00  0.00000000000E+00  0.86138306544E+03  0.86138306544E+03  0.00000000000E+00 0. -1.
         21   -1    0    0  501  502 -0.00000000000E+00 -0.00000000000E+00 -0.60384961334E+03  0.60384961334E+03  0.00000000000E+00 0. -1.
         25    1    1    2    0    0  0.90238692034E+02 -0.13191137235E+03  0.35011585266E+03  0.40466003260E+03  0.12500000000E+03 0.  0.
         25    1    1    2    0    0  0.38555966432E+02 -0.21169405745E+03 -0.46220878506E+03  0.52494085143E+03  0.12500000000E+03 0.  0.
         25    1    1    2    0    0 -0.12879465847E+03  0.34360542980E+03  0.36962638450E+03  0.53563179476E+03  0.12500000000E+03 0.  0.
</event>
<event>
 5    0  0.5590591E-005  0.3581821E+03  0.7546771E-02  0.1059306E+00
         21   -1    0    0  502  501  0.00000000000E+00  0.00000000000E+00  0.91246527788E+03  0.91246527788E+03  0.00000000000E+00 0. -1.
         21   -1    0    0  501  502 -0.00000000000E+00 -0.00000000000E+00 -0.14060194398E+03  0.14060194398E+03  0.00000000000E+00 0. -1.
         25    1    1    2    0    0  0.28429535632E+02 -0.12800403645E+03  0.61539376767E+03  0.64150429548E+03  0.12500000000E+03 0.  0.
         25    1    1    2    0    0 -0.26357090824E+01 -0.40165945805E+02  0.15135203903E+03  0.20038136112E+03  0.12500000000E+03 0.  0.
         25    1    1    2    0    0 -0.25793826550E+02  0.16816998225E+03  0.51175271955E+01  0.21118156526E+03  0.12500000000E+03 0.  0.
</event>
<event>
 5    0  0.5590591E-005  0.3726996E+03  0.7546771E-02  0.1053666E+00
         21   -1    0    0  502  501  0.00000000000E+00  0.00000000000E+00  0.30453840321E+03  0.30453840321E+03  0.00000000000E+00 0. -1.
         21   -1    0    0  501  502 -0.00000000000E+00 -0.00000000000E+00 -0.45611643545E+03  0.45611643545E+03  0.00000000000E+00 0. -1.
         25    1    1    2    0    0 -0.54560087477E+02  0.33518973091E+02 -0.27247366507E+02  0.14306552235E+03  0.12500000000E+03 0.  0.
         25    1    1    2    0    0 -0.17424793705E+03 -0.73829966403E+02  0.12123125265E+03  0.25716769650E+03  0.12500000000E+03 0.  0.
         25    1    1    2    0    0  0.22880802452E+03  0.40310993312E+02 -0.24556191839E+03  0.36042161982E+03  0.12500000000E+03 0.  0.
</event>
<event>
 5    0  0.5590591E-005  0.4227270E+03  0.7546771E-02  0.1036182E+00
         21   -1    0    0  502  501  0.00000000000E+00  0.00000000000E+00  0.13641926765E+04  0.13641926765E+04  0.00000000000E+00 0.  1.
         21   -1    0    0  501  502 -0.00000000000E+00 -0.00000000000E+00 -0.13099187121E+03  0.13099187121E+03  0.00000000000E+00 0.  1.
         25    1    1    2    0    0  0.11165576282E+03  0.29204087827E+02  0.78682264223E+03  0.80500606113E+03  0.12500000000E+03 0.  0.
         25    1    1    2    0    0  0.14508400364E+03 -0.11419183590E+03  0.24097437826E+03  0.32830290050E+03  0.12500000000E+03 0.  0.
         25    1    1    2    0    0 -0.25673976646E+03  0.84987748075E+02  0.20540378482E+03  0.36187558611E+03  0.12500000000E+03 0.  0.
</event>
<event>
 5    0  0.5590591E-005  0.3895760E+03  0.7546771E-02  0.1047450E+00
         21   -1    0    0  502  501  0.00000000000E+00  0.00000000000E+00  0.62619516730E+03  0.62619516730E+03  0.00000000000E+00 0.  1.
         21   -1    0    0  501  502 -0.00000000000E+00 -0.00000000000E+00 -0.24236764319E+03  0.24236764319E+03  0.00000000000E+00 0.  1.
         25    1    1    2    0    0  0.16831145295E+03  0.27706823439E+03  0.26587063775E+03  0.43750171167E+03  0.12500000000E+03 0.  0.
         25    1    1    2    0    0 -0.54323223388E+02 -0.10079702358E+03  0.35395102256E+02  0.17317293618E+03  0.12500000000E+03 0.  0.
         25    1    1    2    0    0 -0.11398822956E+03 -0.17627121080E+03  0.82561784105E+02  0.25788816264E+03  0.12500000000E+03 0.  0.
</event>
<event>
 5    0  0.5590591E-005  0.3838999E+03  0.7546771E-02  0.1049502E+00
         21   -1    0    0  502  501  0.00000000000E+00  0.00000000000E+00  0.73453514034E+03  0.73453514034E+03  0.00000000000E+00 0.  1.
         21   -1    0    0  501  502 -0.00000000000E+00 -0.00000000000E+00 -0.20064277340E+03  0.20064277340E+03  0.00000000000E+00 0.  1.
         25    1    1    2    0    0 -0.50034267413E+02  0.20949337896E+03  0.13899140050E+03  0.28519206363E+03  0.12500000000E+03 0.  0.
         25    1    1    2    0    0  0.19558220008E+03 -0.28597379564E+02  0.27301308765E+03  0.35948762584E+03  0.12500000000E+03 0.  0.
         25    1    1    2    0    0 -0.14554793266E+03 -0.18089599940E+03  0.12188787879E+03  0.29049822426E+03  0.12500000000E+03 0.  0.
</event>
<event>
 5    0  0.5590591E-005  0.2913155E+03  0.7546771E-02  0.1089664E+00
         21   -1    0    0  502  501  0.00000000000E+00  0.00000000000E+00  0.11240207767E+03  0.11240207767E+03  0.00000000000E+00 0.  1.
         21   -1    0    0  501  502 -0.00000000000E+00 -0.00000000000E+00 -0.75500999219E+03  0.75500999219E+03  0.00000000000E+00 0.  1.
         25    1    1    2    0    0 -0.21332707684E+02  0.14244232294E+03 -0.26654530155E+03  0.32774425633E+03  0.12500000000E+03 0.  0.
         25    1    1    2    0    0  0.81750234587E+02 -0.74168332339E+02 -0.42681173502E+02  0.17213577475E+03  0.12500000000E+03 0.  0.
         25    1    1    2    0    0 -0.60417526903E+02 -0.68273990599E+02 -0.33338143947E+03  0.36753203878E+03  0.12500000000E+03 0.  0.
</event>
<event>
 5    0  0.5590591E-005  0.3375265E+03  0.7546771E-02  0.1067854E+00
         21   -1    0    0  502  501  0.00000000000E+00  0.00000000000E+00  0.93065399664E+03  0.93065399664E+03  0.00000000000E+00 0. -1.
         21   -1    0    0  501  502 -0.00000000000E+00 -0.00000000000E+00 -0.12241299827E+03  0.12241299827E+03  0.00000000000E+00 0. -1.
         25    1    1    2    0    0  0.46046916774E+02  0.90411650654E+02  0.66375221270E+03  0.68299823205E+03  0.12500000000E+03 0.  0.
         25    1    1    2    0    0 -0.82134764526E+02  0.37896538692E+02  0.39288671921E+02  0.15921955574E+03  0.12500000000E+03 0.  0.
         25    1    1    2    0    0  0.36087847751E+02 -0.12830818935E+03  0.10520011375E+03  0.21084920712E+03  0.12500000000E+03 0.  0.
</event>
<event>
 5    0  0.5590591E-005  0.2868203E+03  0.7546771E-02  0.1092021E+00
         21   -1    0    0  502  501  0.00000000000E+00  0.00000000000E+00  0.64394744072E+02  0.64394744072E+02  0.00000000000E+00 0. -1.
         21   -1    0    0  501  502 -0.00000000000E+00 -0.00000000000E+00 -0.12775250462E+04  0.12775250462E+04  0.00000000000E+00 0. -1.
         25    1    1    2    0    0 -0.49489736670E+02 -0.18258722513E+03 -0.48940444994E+03  0.53937838707E+03  0.12500000000E+03 0.  0.
         25    1    1    2    0    0 -0.32411558011E+02  0.78853954631E+02 -0.22030072392E+03  0.26725617712E+03  0.12500000000E+03 0.  0.
         25    1    1    2    0    0  0.81901294681E+02  0.10373327050E+03 -0.50342512825E+03  0.53528522605E+03  0.12500000000E+03 0.  0.
</event>
<event>
 5    0  0.5590591E-005  0.2982002E+03  0.7546771E-02  0.1086144E+00
         21   -1    0    0  502  501  0.00000000000E+00  0.00000000000E+00  0.44363038501E+03  0.44363038501E+03  0.00000000000E+00 0.  1.
         21   -1    0    0  501  502 -0.00000000000E+00 -0.00000000000E+00 -0.20044467358E+03  0.20044467358E+03  0.00000000000E+00 0.  1.
         25    1    1    2    0    0  0.48075442076E+01  0.99045120920E+01  0.26205247658E+03  0.29054726349E+03  0.12500000000E+03 0.  0.
         25    1    1    2    0    0 -0.90771690626E+02  0.67305721619E+02  0.40398377550E+02  0.17328181927E+03  0.12500000000E+03 0.  0.
         25    1    1    2    0    0  0.85964146418E+02 -0.77210233711E+02 -0.59265142700E+02  0.18024597582E+03  0.12500000000E+03 0.  0.
</event>
<event>
 5    0  0.5590591E-005  0.3035392E+03  0.7546771E-02  0.1083485E+00
         21   -1    0    0  502  501  0.00000000000E+00  0.00000000000E+00  0.17629814338E+04  0.17629814338E+04  0.00000000000E+00 0. -1.
         21   -1    0    0  501  502 -0.00000000000E+00 -0.00000000000E+00 -0.52261508476E+02  0.52261508476E+02  0.00000000000E+00 0. -1.
         25    1    1    2    0    0 -0.15489104767E+03 -0.10038384998E+03  0.48210516395E+03  0.53114832494E+03  0.12500000000E+03 0.  0.
         25    1    1    2    0    0  0.95441412780E+02  0.85543851068E+02  0.33628938054E+03  0.38097553884E+03  0.12500000000E+03 0.  0.
         25    1    1    2    0    0  0.59449634891E+02  0.14839998914E+02  0.89232538087E+03  0.90311907853E+03  0.12500000000E+03 0.  0.
</event>
<event>
 5    0  0.5590591E-005  0.3180327E+03  0.7546771E-02  0.1076558E+00
         21   -1    0    0  502  501  0.00000000000E+00  0.00000000000E+00  0.12803393808E+04  0.12803393808E+04  0.00000000000E+00 0.  1.
         21   -1    0    0  501  502 -0.00000000000E+00 -0.00000000000E+00 -0.78998431601E+02  0.78998431601E+02  0.00000000000E+00 0.  1.
         25    1    1    2    0    0 -0.34587240069E+02 -0.14066588385E+03  0.37558999198E+03  0.42151632250E+03  0.12500000000E+03 0.  0.
         25    1    1    2    0    0 -0.79839298611E+02  0.77796870893E+02  0.69458640332E+03  0.71449418360E+03  0.12500000000E+03 0.  0.
         25    1    1    2    0    0  0.11442653868E+03  0.62869012956E+02  0.13116455391E+03  0.22332730632E+03  0.12500000000E+03 0.  0.
</event>
<event>
 5    0  0.5590591E-005  0.3231865E+03  0.7546771E-02  0.1074192E+00
         21   -1    0    0  502  501  0.00000000000E+00  0.00000000000E+00  0.46243839040E+02  0.46243839040E+02  0.00000000000E+00 0.  1.
         21   -1    0    0  501  502 -0.00000000000E+00 -0.00000000000E+00 -0.22586685338E+04  0.22586685338E+04  0.00000000000E+00 0.  1.
         25    1    1    2    0    0 -0.12024436693E+03 -0.65429363417E+02 -0.33486368231E+03  0.38275108766E+03  0.12500000000E+03 0.  0.
         25    1    1    2    0    0  0.15372081520E+03  0.12095028991E+03 -0.15242349437E+04  0.15418093998E+04  0.12500000000E+03 0.  0.
         25    1    1    2    0    0 -0.33476448270E+02 -0.55520926498E+02 -0.35332606875E+03  0.38035188540E+03  0.12500000000E+03 0.  0.
</event>
<event>
 5    0  0.5590591E-005  0.3468509E+03  0.7546771E-02  0.1063915E+00
         21   -1    0    0  502  501  0.00000000000E+00  0.00000000000E+00  0.27011005071E+03  0.27011005071E+03  0.00000000000E+00 0. -1.
         21   -1    0    0  501  502 -0.00000000000E+00 -0.00000000000E+00 -0.44539448828E+03  0.44539448828E+03  0.00000000000E+00 0. -1.
         25    1    1    2    0    0  0.14497025780E+02  0.12549157325E+03  0.56520731355E+02  0.18648831541E+03  0.12500000000E+03 0.  0.
         25    1    1    2    0    0 -0.10304492563E+03  0.38539260351E+02 -0.25375041802E+03  0.30350915296E+03  0.12500000000E+03 0.  0.
         25    1    1    2    0    0  0.88547899852E+02 -0.16403083360E+03  0.21945249101E+02  0.22550707061E+03  0.12500000000E+03 0.  0.
</event>
<event>
 5    0  0.5590591E-005  0.2514287E+03  0.7546771E-02  0.1112405E+00
         21   -1    0    0  502  501  0.00000000000E+00  0.00000000000E+00  0.13426213647E+03  0.13426213647E+03  0.00000000000E+00 0. -1.
         21   -1    0    0  501  502 -0.00000000000E+00 -0.00000000000E+00 -0.47084318114E+03  0.47084318114E+03  0.00000000000E+00 0. -1.
         25    1    1    2    0    0  0.75734892318E+02 -0.25285777096E+02 -0.19136752792E+03  0.24211913427E+03  0.12500000000E+03 0.  0.
         25    1    1    2    0    0 -0.95777977091E+02 -0.71569647603E+02 -0.67864428294E+02  0.18581231386E+03  0.12500000000E+03 0.  0.
         25    1    1    2    0    0  0.20043084773E+02  0.96855424699E+02 -0.77349088463E+02  0.17717386948E+03  0.12500000000E+03 0.  0.
</event>
<event>
 5    0  0.5590591E-005  0.2842855E+03  0.7546771E-02  0.1093371E+00
         21   -1    0    0  502  501  0.00000000000E+00  0.00000000000E+00  0.93402323801E+02  0.93402323801E+02  0.00000000000E+00 0. -1.
         21   -1    0    0  501  502 -0.00000000000E+00 -0.00000000000E+00 -0.86527022897E+03  0.86527022897E+03  0.00000000000E+00 0. -1.
         25    1    1    2    0    0  0.54226437080E+02  0.41878152788E+01  0.80438979068E+01  0.13655675951E+03  0.12500000000E+03 0.  0.
         25    1    1    2    0    0 -0.33525489150E+02  0.19904558134E+02 -0.38090855897E+03  0.40278589866E+03  0.12500000000E+03 0.  0.
         25    1    1    2    0    0 -0.20700947929E+02 -0.24092373412E+02 -0.39900324410E+03  0.41932989460E+03  0.12500000000E+03 0.  0.
</event>
<event>
 5    0  0.5590591E-005  0.2445194E+03  0.7546771E-02  0.1116818E+00
         21   -1    0    0  502  501  0.00000000000E+00  0.00000000000E+00  0.32686556409E+03  0.32686556409E+03  0.00000000000E+00 0. -1.
         21   -1    0    0  501  502 -0.00000000000E+00 -0.00000000000E+00 -0.18291838475E+03  0.18291838475E+03  0.00000000000E+00 0. -1.
         25    1    1    2    0    0 -0.33773269463E+02  0.76108508821E+01  0.17674221383E+03  0.21922903305E+03  0.12500000000E+03 0.  0.
         25    1    1    2    0    0  0.15417072299E+02  0.29097086853E+02  0.45992275396E+02  0.13720282788E+03  0.12500000000E+03 0.  0.
         25    1    1    2    0    0  0.18356197165E+02 -0.36707937735E+02 -0.78787309890E+02  0.15335208791E+03  0.12500000000E+03 0.  0.
</event>
<event>
 5    0  0.5590591E-005  0.3031684E+03  0.7546771E-02  0.1083667E+00
         21   -1    0    0  502  501  0.00000000000E+00  0.00000000000E+00  0.21958221817E+04  0.21958221817E+04  0.00000000000E+00 0.  1.
         21   -1    0    0  501  502 -0.00000000000E+00 -0.00000000000E+00 -0.41857249757E+02  0.41857249757E+02  0.00000000000E+00 0.  1.
         25    1    1    2    0    0 -0.10631783392E+03  0.26052080695E+02  0.54085234040E+03  0.56579894559E+03  0.12500000000E+03 0.  0.
         25    1    1    2    0    0  0.39751002124E+02  0.12741019967E+03  0.38596195410E+03  0.42708913726E+03  0.12500000000E+03 0.  0.
         25    1    1    2    0    0  0.66566831794E+02 -0.15346228036E+03  0.12271506374E+04  0.12447913486E+04  0.12500000000E+03 0.  0.
</event>
<event>
 5    0  0.5590591E-005  0.3404847E+03  0.7546771E-02  0.1066590E+00
         21   -1    0    0  502  501  0.00000000000E+00  0.00000000000E+00  0.23215551909E+03  0.23215551909E+03  0.00000000000E+00 0. -1.
         21   -1    0    0  501  502 -0.00000000000E+00 -0.00000000000E+00 -0.49936281445E+03  0.49936281445E+03  0.00000000000E+00 0. -1.
         25    1    1    2    0    0  0.13709996153E+03  0.89052800728E+02  0.69703478925E+02  0.21727948763E+03  0.12500000000E+03 0.  0.
         25    1    1    2    0    0  0.16033107542E+01 -0.92117347440E+02 -0.27799078900E+03  0.31842119131E+03  0.12500000000E+03 0.  0.
         25    1    1    2    0    0 -0.13870327229E+03  0.30645467118E+01 -0.58919985286E+02  0.19581765461E+03  0.12500000000E+03 0.  0.
</event>
<event>
 5    0  0.6389956E-005  0.5129056E+03  0.7546771E-02  0.1010464E+00
         21   -1    0    0  502  501  0.00000000000E+00  0.00000000000E+00  0.31797067942E+03  0.31797067942E+03  0.00000000000E+00 0. -1.
         21   -1    0    0  501  502 -0.00000000000E+00 -0.00000000000E+00 -0.82734722411E+03  0.82734722411E+03  0.00000000000E+00 0. -1.
         25    1    1    2    0    0  0.47466313260E+02 -0.21824404219E+03 -0.40625987991E+03  0.48016205896E+03  0.12500000000E+03 0.  0.
         25    1    1    2    0    0 -0.29325860434E+03  0.94523921137E+02  0.32101913458E+02  0.33405226168E+03  0.12500000000E+03 0.  0.
         25    1    1    2    0    0  0.24579229108E+03  0.12372012105E+03 -0.13521857824E+03  0.33110358289E+03  0.12500000000E+03 0.  0.
</event>
<event>
 5    0  0.5590591E-005  0.3340338E+03  0.7546771E-02  0.1069366E+00
         21   -1    0    0  502  501  0.00000000000E+00  0.00000000000E+00  0.31555661434E+03  0.31555661434E+03  0.00000000000E+00 0.  1.
         21   -1    0    0  501  502 -0.00000000000E+00 -0.00000000000E+00 -0.35359294446E+03  0.35359294446E+03  0.00000000000E+00 0.  1.
         25    1    1    2    0    0 -0.21464035712E+03  0.19102578784E+02  0.42068107871E+02  0.25264622919E+03  0.12500000000E+03 0.  0.
         25    1    1    2    0    0  0.71482320042E+02 -0.12158809235E+03 -0.67595934029E+02  0.20021887168E+03  0.12500000000E+03 0.  0.
         25    1    1    2    0    0  0.14315803708E+03  0.10248551357E+03 -0.12508503952E+02  0.21628445793E+03  0.12500000000E+03 0.  0.
</event>
<event>
 5    0  0.6132208E-005  0.3520130E+03  0.7546771E-02  0.1061792E+00
         21   -1    0    0  502  501  0.00000000000E+00  0.00000000000E+00  0.38640750335E+03  0.38640750335E+03  0.00000000000E+00 0. -1.
         21   -1    0    0  501  502 -0.00000000000E+00 -0.00000000000E+00 -0.32068002109E+03  0.32068002109E+03  0.00000000000E+00 0. -1.
         25    1    1    2    0    0  0.12643667645E+03  0.20570828094E+03 -0.87770372038E+02  0.28571098720E+03  0.12500000000E+03 0.  0.
         25    1    1    2    0    0 -0.11682891060E+03 -0.12731040369E+03  0.72241224226E+01  0.21338725638E+03  0.12500000000E+03 0.  0.
         25    1    1    2    0    0 -0.96077658464E+01 -0.78397877251E+02  0.14627373187E+03  0.20798928087E+03  0.12500000000E+03 0.  0.
</event>
<event>
 5    0  0.5590591E-005  0.3974736E+03  0.7546771E-02  0.1044658E+00
         21   -1    0    0  502  501  0.00000000000E+00  0.00000000000E+00  0.59603086987E+03  0.59603086987E+03  0.00000000000E+00 0.  1.
         21   -1    0    0  501  502 -0.00000000000E+00 -0.00000000000E+00 -0.26506227374E+03  0.26506227374E+03  0.00000000000E+00 0.  1.
         25    1    1    2    0    0 -0.13379169330E+03 -0.30646655775E+01 -0.14244991860E+03  0.23200557898E+03  0.12500000000E+03 0.  0.
         25    1    1    2    0    0  0.21343514345E+03  0.60907022479E+02  0.30540947327E+03  0.39769859468E+03  0.12500000000E+03 0.  0.
         25    1    1    2    0    0 -0.79643450146E+02 -0.57842356901E+02  0.16800904145E+03  0.23138896995E+03  0.12500000000E+03 0.  0.
</event>
<event>
 5    0  0.5590591E-005  0.3324390E+03  0.7546771E-02  0.1070063E+00
         21   -1    0    0  502  501  0.00000000000E+00  0.00000000000E+00  0.25752867573E+03  0.25752867573E+03  0.00000000000E+00 0.  1.
         21   -1    0    0  501  502 -0.00000000000E+00 -0.00000000000E+00 -0.42913942166E+03  0.42913942166E+03  0.00000000000E+00 0.  1.
         25    1    1    2    0    0  0.17654878634E+03 -0.86913200626E+02 -0.24640476701E+03  0.33921038841E+03  0.12500000000E+03 0.  0.
         25    1    1    2    0    0 -0.18429844444E+02  0.37136188491E+02  0.28724021936E+02  0.13479178424E+03  0.12500000000E+03 0.  0.
         25    1    1    2    0    0 -0.15811894190E+03  0.49777012136E+02  0.46069999135E+02  0.21266592474E+03  0.12500000000E+03 0.  0.
</event>
<event>
 5    0  0.5590591E-005  0.2334524E+03  0.7546771E-02  0.1124233E+00
         21   -1    0    0  502  501  0.00000000000E+00  0.00000000000E+00  0.74743709031E+03  0.74743709031E+03  0.00000000000E+00 0.  1.
         21   -1    0    0  501  502 -0.00000000000E+00 -0.00000000000E+00 -0.72915884577E+02  0.72915884577E+02  0.00000000000E+00 0.  1.
         25    1    1    2    0    0 -0.21340639661E+02 -0.54303379047E+02  0.26192934467E+03  0.29603422349E+03  0.12500000000E+03 0.  0.
         25    1    1    2    0    0 -0.38286835039E+02  0.10812466852E+03  0.26668392661E+03  0.31607300168E+03  0.12500000000E+03 0.  0.
         25    1    1    2    0    0  0.59627474700E+02 -0.53821289470E+02  0.14590793446E+03  0.20824574972E+03  0.12500000000E+03 0.  0.
</event>
<event>
 5    0  0.5590591E-005  0.2330889E+03  0.7546771E-02  0.1124484E+00
         21   -1    0    0  502  501  0.00000000000E+00  0.00000000000E+00  0.25723324453E+02  0.25723324453E+02  0.00000000000E+00 0. -1.
         21   -1    0    0  501  502 -0.00000000000E+00 -0.00000000000E+00 -0.21121070183E+04  0.21121070183E+04  0.00000000000E+00 0. -1.
         25    1    1    2    0    0  0.89843434634E+02  0.76983964074E+02 -0.62979702123E+03  0.65289176854E+03  0.12500000000E+03 0.  0.
         25    1    1    2    0    0 -0.29924135663E+02  0.22562538625E+01 -0.69614883826E+03  0.70791860378E+03  0.12500000000E+03 0.  0.
         25    1    1    2    0    0 -0.59919298971E+02 -0.79240217936E+02 -0.76043783440E+03  0.77701997047E+03  0.12500000000E+03 0.  0.
</event>
<event>
 5    0  0.5590591E-005  0.2477298E+03  0.7546771E-02  0.1114748E+00
         21   -1    0    0  502  501  0.00000000000E+00  0.00000000000E+00  0.10193212949E+04  0.10193212949E+04  0.00000000000E+00 0.  1.
         21   -1    0    0  501  502 -0.00000000000E+00 -0.00000000000E+00 -0.60206769667E+02  0.60206769667E+02  0.00000000000E+00 0.  1.
         25    1    1    2    0    0 -0.27971294374E+02 -0.10418113058E+02  0.77096601604E+02  0.14986599470E+03  0.12500000000E+03 0.  0.
         25    1    1    2    0    0  0.55962737428E+02 -0.51214105579E+02  0.53591633542E+03  0.55550520354E+03  0.12500000000E+03 0.  0.
         25    1    1    2    0    0 -0.27991443054E+02  0.61632218637E+02  0.34610158820E+03  0.37415686632E+03  0.12500000000E+03 0.  0.
</event>
<event>
 5    0  0.5590591E-005  0.2631369E+03  0.7546771E-02  0.1105273E+00
         21   -1    0    0  502  501  0.00000000000E+00  0.00000000000E+00  0.59640544308E+03  0.59640544308E+03  0.00000000000E+00 0.  1.
         21   -1    0    0  501  502 -0.00000000000E+00 -0.00000000000E+00 -0.11609720138E+03  0.11609720138E+03  0.00000000000E+00 0.  1.
         25    1    1    2    0    0  0.77002668393E+02  0.73154422492E+02  0.29811226274E+03  0.34026005006E+03  0.12500000000E+03 0.  0.
         25    1    1    2    0    0 -0.23089103936E+02 -0.66088034124E+02 -0.17679822736E+01  0.14327896125E+03  0.12500000000E+03 0.  0.
         25    1    1    2    0    0 -0.53913564457E+02 -0.70663883685E+01  0.18396396123E+03  0.22896363316E+03  0.12500000000E+03 0.  0.
</event>
<event>
 5    0  0.5590591E-005  0.3257415E+03  0.7546771E-02  0.1073037E+00
         21   -1    0    0  502  501  0.00000000000E+00  0.00000000000E+00  0.12919067634E+03  0.12919067634E+03  0.00000000000E+00 0. -1.
         21   -1    0    0  501  502 -0.00000000000E+00 -0.00000000000E+00 -0.82132486440E+03  0.82132486440E+03  0.00000000000E+00 0.  1.
         25    1    1    2    0    0  0.72133763527E+02 -0.17466980170E+03 -0.34164196347E+03  0.40994761943E+03  0.12500000000E+03 0.  0.
         25    1    1    2    0    0  0.47763116344E+02 -0.18385237156E+02 -0.19803567811E+03  0.23971329131E+03  0.12500000000E+03 0.  0.
         25    1    1    2    0    0 -0.11989687987E+03  0.19305503885E+03 -0.15245654647E+03  0.30085463000E+03  0.12500000000E+03 0.  0.
</event>
<event>
 5    0  0.5590591E-005  0.2693381E+03  0.7546771E-02  0.1101659E+00
         21   -1    0    0  502  501  0.00000000000E+00  0.00000000000E+00  0.67429874653E+02  0.67429874653E+02  0.00000000000E+00 0.  1.
         21   -1    0    0  501  502 -0.00000000000E+00 -0.00000000000E+00 -0.10758285816E+04  0.10758285816E+04  0.00000000000E+00 0.  1.
         25    1    1    2    0    0  0.78023757625E+02  0.59215036908E+02 -0.38355623426E+03  0.41513192143E+03  0.12500000000E+03 0.  0.
         25    1    1    2    0    0  0.61540380193E+02 -0.69322048419E+02 -0.14419961933E+03  0.21215865527E+03  0.12500000000E+03 0.  0.
         25    1    1    2    0    0 -0.13956413782E+03  0.10107011511E+02 -0.48064285332E+03  0.51596787952E+03  0.12500000000E+03 0.  0.
</event>
<event>
 5    0  0.5590591E-005  0.2802355E+03  0.7546771E-02  0.1095560E+00
         21   -1    0    0  502  501  0.00000000000E+00  0.00000000000E+00  0.69004380119E+03  0.69004380119E+03  0.00000000000E+00 0.  1.
         21   -1    0    0  501  502 -0.00000000000E+00 -0.00000000000E+00 -0.11380714833E+03  0.11380714833E+03  0.00000000000E+00 0.  1.
         25    1    1    2    0    0  0.31869432257E+02 -0.35258080780E+02  0.89226779217E+02  0.16076445845E+03  0.12500000000E+03 0.  0.
         25    1    1    2    0    0 -0.11571882329E+03 -0.11609498282E+03  0.22556464999E+03  0.30557045411E+03  0.12500000000E+03 0.  0.
         25    1    1    2    0    0  0.83849391034E+02  0.15135306359E+03  0.26144522366E+03  0.33751603697E+03  0.12500000000E+03 0.  0.
</event>
<event>
 5    0  0.5590591E-005  0.4047447E+03  0.7546771E-02  0.1042149E+00
         21   -1    0    0  502  501  0.00000000000E+00  0.00000000000E+00  0.19483293329E+03  0.19483293329E+03  0.00000000000E+00 0. -1.
         21   -1    0    0  501  502 -0.00000000000E+00 -0.00000000000E+00 -0.84081394357E+03  0.84081394357E+03  0.00000000000E+00 0. -1.
         25    1    1    2    0    0 -0.14609868679E+03  0.12395861398E+03 -0.31647108339E+03  0.39049905363E+03  0.12500000000E+03 0.  0.
         25    1    1    2    0    0  0.13600790831E+03 -0.23376974399E+03 -0.36857727748E+03  0.47394161433E+03  0.12500000000E+03 0.  0.
         25    1    1    2    0    0  0.10090778489E+02  0.10981113001E+03  0.39067350578E+02  0.17120620890E+03  0.12500000000E+03 0.  0.
</event>
<event>
 5    0  0.5590591E-005  0.2239665E+03  0.7546771E-02  0.1130960E+00
         21   -1    0    0  502  501  0.00000000000E+00  0.00000000000E+00  0.11403087708E+03  0.11403087708E+03  0.00000000000E+00 0. -1.
         21   -1    0    0  501  502 -0.00000000000E+00 -0.00000000000E+00 -0.43988975866E+03  0.43988975866E+03  0.00000000000E+00 0. -1.
         25    1    1    2    0    0  0.20361043529E+02  0.25446336518E+02 -0.14847443432E+03  0.19680382563E+03  0.12500000000E+03 0.  0.
         25    1    1    2    0    0 -0.76064617024E+02  0.39843976483E+02 -0.51860789521E+02  0.16027448304E+03  0.12500000000E+03 0.  0.
         25    1    1    2    0    0  0.55703573495E+02 -0.65290313001E+02 -0.12552365775E+03  0.19684232707E+03  0.12500000000E+03 0.  0.
</event>
<event>
 5    0  0.5590591E-005  0.3964941E+03  0.7546771E-02  0.1045000E+00
         21   -1    0    0  502  501  0.00000000000E+00  0.00000000000E+00  0.86369668635E+02  0.86369668635E+02  0.00000000000E+00 0.  1.
         21   -1    0    0  501  502 -0.00000000000E+00 -0.00000000000E+00 -0.18201711607E+04  0.18201711607E+04  0.00000000000E+00 0.  1.
         25    1    1    2    0    0  0.31680892483E+01  0.17670728158E+03 -0.14491763354E+03  0.26050263082E+03  0.12500000000E+03 0.  0.
         25    1    1    2    0    0  0.43504505716E+02 -0.18454172604E+03 -0.13764217836E+04  0.13950305434E+04  0.12500000000E+03 0.  0.
         25    1    1    2    0    0 -0.46672594964E+02  0.78344444628E+01 -0.21246207489E+03  0.25100765507E+03  0.12500000000E+03 0.  0.
</event>
<event>
 5    0  0.5590591E-005  0.2718817E+03  0.7546771E-02  0.1100207E+00
         21   -1    0    0  502  501  0.00000000000E+00  0.00000000000E+00  0.89391438985E+03  0.89391438985E+03  0.00000000000E+00 0.  1.
         21   -1    0    0  501  502 -0.00000000000E+00 -0.00000000000E+00 -0.82692126669E+02  0.82692126669E+02  0.00000000000E+00 0.  1.
         25    1    1    2    0    0 -0.83069209477E+02  0.15673179963E+03  0.40380556739E+03  0.45842042585E+03  0.12500000000E+03 0.  0.
         25    1    1    2    0    0  0.18474965329E+02 -0.27849486462E+02  0.16530472576E+03  0.20992277294E+03  0.12500000000E+03 0.  0.
         25    1    1    2    0    0  0.64594244148E+02 -0.12888231317E+03  0.24211197002E+03  0.30826331772E+03  0.12500000000E+03 0.  0.
</event>
<event>
 5    0  0.5590591E-005  0.3768791E+03  0.7546771E-02  0.1052093E+00
         21   -1    0    0  502  501  0.00000000000E+00  0.00000000000E+00  0.12060834950E+03  0.12060834950E+03  0.00000000000E+00 0. -1.
         21   -1    0    0  501  502 -0.00000000000E+00 -0.00000000000E+00 -0.11776784905E+04  0.11776784905E+04  0.00000000000E+00 0. -1.
         25    1    1    2    0    0 -0.40653685187E+02  0.66464787663E+02 -0.51253986655E+03  0.53328454404E+03  0.12500000000E+03 0.  0.
         25    1    1    2    0    0  0.14752039136E+03 -0.68750121511E+02 -0.96907090858E+01  0.20544526015E+03  0.12500000000E+03 0.  0.
         25    1    1    2    0    0 -0.10686670617E+03  0.22853338488E+01 -0.53483956539E+03  0.55955703582E+03  0.12500000000E+03 0.  0.
</event>
<event>
 5    0  0.5590591E-005  0.5839620E+03  0.7546771E-02  0.9939250E-01
         21   -1    0    0  502  501  0.00000000000E+00  0.00000000000E+00  0.75944445359E+03  0.75944445359E+03  0.00000000000E+00 0. -1.
         21   -1    0    0  501  502 -0.00000000000E+00 -0.00000000000E+00 -0.44902768734E+03  0.44902768734E+03  0.00000000000E+00 0. -1.
         25    1    1    2    0    0  0.87251329345E+02 -0.47949264065E+02  0.34461611871E+03  0.37986470706E+03  0.12500000000E+03 0.  0.
         25    1    1    2    0    0 -0.26402374872E+03 -0.20806811890E+01 -0.34149018360E+03  0.44939227254E+03  0.12500000000E+03 0.  0.
         25    1    1    2    0    0  0.17677241938E+03  0.50029945254E+02  0.30729083114E+03  0.37921516132E+03  0.12500000000E+03 0.  0.
</event>
<event>
 5    0  0.5590591E-005  0.5409691E+03  0.7546771E-02  0.1003606E+00
         21   -1    0    0  502  501  0.00000000000E+00  0.00000000000E+00  0.10129541725E+04  0.10129541725E+04  0.00000000000E+00 0.  1.
         21   -1    0    0  501  502 -0.00000000000E+00 -0.00000000000E+00 -0.28890503935E+03  0.28890503935E+03  0.00000000000E+00 0.  1.
         25    1    1    2    0    0  0.11174509354E+03 -0.38091143891E+03  0.52926019991E+03  0.67329180110E+03  0.12500000000E+03 0.  0.
         25    1    1    2    0    0  0.86115187042E+02  0.29098109033E+03  0.32259576551E+02  0.32977492422E+03  0.12500000000E+03 0.  0.
         25    1    1    2    0    0 -0.19786028058E+03  0.89930348587E+02  0.16252935673E+03  0.29879248656E+03  0.12500000000E+03 0.  0.
</event>
<event>
 5    0  0.5590591E-005  0.3484076E+03  0.7546771E-02  0.1063271E+00
         21   -1    0    0  502  501  0.00000000000E+00  0.00000000000E+00  0.11669606506E+03  0.11669606506E+03  0.00000000000E+00 0.  1.
         21   -1    0    0  501  502 -0.00000000000E+00 -0.00000000000E+00 -0.10402049191E+04  0.10402049191E+04  0.00000000000E+00 0.  1.
         25    1    1    2    0    0 -0.15086462694E+03 -0.10175842819E+03 -0.59638915658E+03  0.63594020116E+03  0.12500000000E+03 0.  0.
         25    1    1    2    0    0  0.12656122081E+03  0.16725944658E+03 -0.12796893048E+03  0.27567102179E+03  0.12500000000E+03 0.  0.
         25    1    1    2    0    0  0.24303406124E+02 -0.65501018391E+02 -0.19915076697E+03  0.24528976119E+03  0.12500000000E+03 0.  0.
</event>
<event>
 5    0  0.5590591E-005  0.2856153E+03  0.7546771E-02  0.1092661E+00
         21   -1    0    0  502  501  0.00000000000E+00  0.00000000000E+00  0.57230461951E+03  0.57230461951E+03  0.00000000000E+00 0. -1.
         21   -1    0    0  501  502 -0.00000000000E+00 -0.00000000000E+00 -0.14253960982E+03  0.14253960982E+03  0.00000000000E+00 0. -1.
         25    1    1    2    0    0 -0.29647206704E+02  0.14621136372E+03  0.61183712317E+02  0.20402246543E+03  0.12500000000E+03 0.  0.
         25    1    1    2    0    0 -0.23208503501E+01 -0.73116937134E+02  0.39885743910E+02  0.15022431697E+03  0.12500000000E+03 0.  0.
         25    1    1    2    0    0  0.31968057054E+02 -0.73094426585E+02  0.32869555346E+03  0.36059744693E+03  0.12500000000E+03 0.  0.
</event>
<event>
 5    0  0.5590591E-005  0.3556761E+03  0.7546771E-02  0.1060309E+00
         21   -1    0    0  502  501  0.00000000000E+00  0.00000000000E+00  0.32770179408E+03  0.32770179408E+03  0.00000000000E+00 0. -1.
         21   -1    0    0  501  502 -0.00000000000E+00 -0.00000000000E+00 -0.38603847637E+03  0.38603847637E+03  0.00000000000E+00 0. -1.
         25    1    1    2    0    0 -0.21288402183E+03  0.14198984962E+02 -0.28065147164E+02  0.24886516512E+03  0.12500000000E+03 0.  0.
         25    1    1    2    0    0 -0.55677094582E+02 -0.79520138967E+02 -0.32281641354E+02  0.16152552656E+03  0.12500000000E+03 0.  0.
         25    1    1    2    0    0  0.26856111642E+03  0.65321154006E+02  0.20101062213E+01  0.30334957877E+03  0.12500000000E+03 0.  0.
</event>
<event>
 5    0  0.5590591E-005  0.3619398E+03  0.7546771E-02  0.1057818E+00
         21   -1    0    0  502  501  0.00000000000E+00  0.00000000000E+00  0.12245237269E+04  0.12245237269E+04  0.00000000000E+00 0.  1.
         21   -1    0    0  501  502 -0.00000000000E+00 -0.00000000000E+00 -0.10698071916E+03  0.10698071916E+03  0.00000000000E+00 0.  1.
         25    1    1    2    0    0 -0.52260129757E+02  0.21428553660E+03  0.26671900682E+03  0.36798565319E+03  0.12500000000E+03 0.  0.
         25    1    1    2    0    0 -0.10543900220E+03 -0.10506028086E+03  0.56376176389E+03  0.59632824202E+03  0.12500000000E+03 0.  0.
         25    1    1    2    0    0  0.15769913196E+03 -0.10922525573E+03  0.28706223708E+03  0.36719055090E+03  0.12500000000E+03 0.  0.
</event>
<event>
 5    0  0.5590591E-005  0.2059505E+03  0.7546771E-02  0.1144813E+00
         21   -1    0    0  502  501  0.00000000000E+00  0.00000000000E+00  0.34321934905E+02  0.34321934905E+02  0.00000000000E+00 0.  1.
         21   -1    0    0  501  502 -0.00000000000E+00 -0.00000000000E+00 -0.12358165166E+04  0.12358165166E+04  0.00000000000E+00 0.  1.
         25    1    1    2    0    0 -0.27555319366E+02  0.50789928722E+02 -0.26765418012E+03  0.30100277843E+03  0.12500000000E+03 0.  0.
         25    1    1    2    0    0  0.52414013511E+01 -0.11140363051E+02 -0.42242636282E+03  0.44070467661E+03  0.12500000000E+03 0.  0.
         25    1    1    2    0    0  0.22313918014E+02 -0.39649565672E+02 -0.51141403871E+03  0.52843099643E+03  0.12500000000E+03 0.  0.
</event>
<event>
 5    0  0.5590591E-005  0.3268465E+03  0.7546771E-02  0.1072541E+00
         21   -1    0    0  502  501  0.00000000000E+00  0.00000000000E+00  0.70105742245E+03  0.70105742245E+03  0.00000000000E+00 0.  1.
         21   -1    0    0  501  502 -0.00000000000E+00 -0.00000000000E+00 -0.15238212905E+03  0.15238212905E+03  0.00000000000E+00 0.  1.
         25    1    1    2    0    0  0.10903843147E+03 -0.31979010519E+02  0.27450775450E+03  0.32232211207E+03  0.12500000000E+03 0.  0.
         25    1    1    2    0    0 -0.23563924811E+02  0.19174144569E+03  0.10215486330E+03  0.25175515217E+03  0.12500000000E+03 0.  0.
         25    1    1    2    0    0 -0.85474506655E+02 -0.15976243517E+03  0.17201267559E+03  0.27936228726E+03  0.12500000000E+03 0.  0.
</event>
<event>
 5    0  0.5590591E-005  0.6538367E+03  0.7546771E-02  0.9799606E-01
         21   -1    0    0  502  501  0.00000000000E+00  0.00000000000E+00  0.34987563852E+03  0.34987563852E+03  0.00000000000E+00 0.  1.
         21   -1    0    0  501  502 -0.00000000000E+00 -0.00000000000E+00 -0.12218694968E+04  0.12218694968E+04  0.00000000000E+00 0.  1.
         25    1    1    2    0    0 -0.26511564699E+03  0.12792016649E+03  0.21152278123E+03  0.38342764930E+03  0.12500000000E+03 0.  0.
         25    1    1    2    0    0  0.30886375756E+03 -0.11892637713E+03 -0.82682669886E+03  0.89933736376E+03  0.12500000000E+03 0.  0.
         25    1    1    2    0    0 -0.43748110578E+02 -0.89937893613E+01 -0.25668994064E+03  0.28898012224E+03  0.12500000000E+03 0.  0.
</event>
<event>
 5    0  0.5590591E-005  0.2358858E+03  0.7546771E-02  0.1122564E+00
         21   -1    0    0  502  501  0.00000000000E+00  0.00000000000E+00  0.34943213675E+03  0.34943213675E+03  0.00000000000E+00 0. -1.
         21   -1    0    0  501  502 -0.00000000000E+00 -0.00000000000E+00 -0.15923579596E+03  0.15923579596E+03  0.00000000000E+00 0. -1.
         25    1    1    2    0    0  0.24626549473E+02 -0.10755100320E+02  0.77057332415E+02  0.14928151795E+03  0.12500000000E+03 0.  0.
         25    1    1    2    0    0  0.63077345200E+01 -0.94357186689E+02 -0.27256432926E+01  0.15676573390E+03  0.12500000000E+03 0.  0.
         25    1    1    2    0    0 -0.30934283993E+02  0.10511228701E+03  0.11586465166E+03  0.20262068086E+03  0.12500000000E+03 0.  0.
</event>
<event>
 5    0  0.5590591E-005  0.2264170E+03  0.7546771E-02  0.1129187E+00
         21   -1    0    0  502  501  0.00000000000E+00  0.00000000000E+00  0.25279481684E+03  0.25279481684E+03  0.00000000000E+00 0. -1.
         21   -1    0    0  501  502 -0.00000000000E+00 -0.00000000000E+00 -0.20279159147E+03  0.20279159147E+03  0.00000000000E+00 0. -1.
         25    1    1    2    0    0 -0.53061421379E+02 -0.20062393605E+02  0.28815820354E+02  0.14026177519E+03  0.12500000000E+03 0.  0.
         25    1    1    2    0    0 -0.61434181258E+02 -0.84614882082E+01  0.31754584844E+02  0.14310523774E+03  0.12500000000E+03 0.  0.
         25    1    1    2    0    0  0.11449560264E+03  0.28523881813E+02 -0.10567179834E+02  0.17221939538E+03  0.12500000000E+03 0.  0.
</event>
<event>
 5    0  0.5590591E-005  0.3790385E+03  0.7546771E-02  0.1051290E+00
         21   -1    0    0  502  501  0.00000000000E+00  0.00000000000E+00  0.22788677394E+04  0.22788677394E+04  0.00000000000E+00 0.  1.
         21   -1    0    0  501  502 -0.00000000000E+00 -0.00000000000E+00 -0.63044554707E+02  0.63044554707E+02  0.00000000000E+00 0. -1.
         25    1    1    2    0    0  0.45310946416E+02  0.63928361411E+02  0.21513717086E+03  0.26086187829E+03  0.12500000000E+03 0.  0.
         25    1    1    2    0    0 -0.17283112839E+03  0.14021939299E+03  0.13841955720E+04  0.14075348871E+04  0.12500000000E+03 0.  0.
         25    1    1    2    0    0  0.12752018197E+03 -0.20414775440E+03  0.61649044190E+03  0.67351552869E+03  0.12500000000E+03 0.  0.
</event>
<event>
 5    0  0.5590591E-005  0.2194334E+03  0.7546771E-02  0.1134306E+00
         21   -1    0    0  502  501  0.00000000000E+00  0.00000000000E+00  0.11441825795E+03  0.11441825795E+03  0.00000000000E+00 0. -1.
         21   -1    0    0  501  502 -0.00000000000E+00 -0.00000000000E+00 -0.42083342753E+03  0.42083342753E+03  0.00000000000E+00 0. -1.
         25    1    1    2    0    0 -0.61424934587E+02  0.40161051024E+02 -0.48017320277E+02  0.15269772642E+03  0.12500000000E+03 0.  0.
         25    1    1    2    0    0  0.83142184237E+02 -0.39176468212E+02 -0.14628280486E+03  0.21323948382E+03  0.12500000000E+03 0.  0.
         25    1    1    2    0    0 -0.21717249650E+02 -0.98458281158E+00 -0.11211504444E+03  0.16931447524E+03  0.12500000000E+03 0.  0.
</event>
<event>
 5    0  0.5590591E-005  0.3604921E+03  0.7546771E-02  0.1058389E+00
         21   -1    0    0  502  501  0.00000000000E+00  0.00000000000E+00  0.43451725142E+03  0.43451725142E+03  0.00000000000E+00 0. -1.
         21   -1    0    0  501  502 -0.00000000000E+00 -0.00000000000E+00 -0.29907804741E+03  0.29907804741E+03  0.00000000000E+00 0. -1.
         25    1    1    2    0    0 -0.10022161446E+03 -0.30561694231E+02  0.17034748001E+03  0.23584243279E+03  0.12500000000E+03 0.  0.
         25    1    1    2    0    0 -0.14272086268E+03  0.85619819354E+02  0.33369882322E+02  0.21080452357E+03  0.12500000000E+03 0.  0.
         25    1    1    2    0    0  0.24294247714E+03 -0.55058125123E+02 -0.68278158323E+02  0.28694834247E+03  0.12500000000E+03 0.  0.
</event>
<event>
 5    0  0.5590591E-005  0.2567228E+03  0.7546771E-02  0.1109128E+00
         21   -1    0    0  502  501  0.00000000000E+00  0.00000000000E+00  0.11557659894E+03  0.11557659894E+03  0.00000000000E+00 0.  1.
         21   -1    0    0  501  502 -0.00000000000E+00 -0.00000000000E+00 -0.57024158182E+03  0.57024158182E+03  0.00000000000E+00 0.  1.
         25    1    1    2    0    0 -0.73778829496E+02  0.28329315737E+01 -0.25908702534E+03  0.29698893563E+03  0.12500000000E+03 0.  0.
         25    1    1    2    0    0  0.11375012792E+03  0.72919874218E+02 -0.97088968603E+02  0.20810494344E+03  0.12500000000E+03 0.  0.
         25    1    1    2    0    0 -0.39971298424E+02 -0.75752805792E+02 -0.98488988941E+02  0.18072430170E+03  0.12500000000E+03 0.  0.
</event>
<event>
 5    0  0.5590591E-005  0.3478630E+03  0.7546771E-02  0.1063496E+00
         21   -1    0    0  502  501  0.00000000000E+00  0.00000000000E+00  0.16986212310E+03  0.16986212310E+03  0.00000000000E+00 0.  1.
         21   -1    0    0  501  502 -0.00000000000E+00 -0.00000000000E+00 -0.71239352947E+03  0.71239352947E+03  0.00000000000E+00 0.  1.
         25    1    1    2    0    0  0.47046477513E+02  0.17299606638E+03 -0.26036379352E+03  0.33993428042E+03  0.12500000000E+03 0.  0.
         25    1    1    2    0    0  0.10911957403E+01 -0.14884439217E+03 -0.34220914493E+03  0.39355805501E+03  0.12500000000E+03 0.  0.
         25    1    1    2    0    0 -0.48137673253E+02 -0.24151674202E+02  0.60041532077E+02  0.14876331714E+03  0.12500000000E+03 0.  0.
</event>
<event>
 5    0  0.5590591E-005  0.2582058E+03  0.7546771E-02  0.1108226E+00
         21   -1    0    0  502  501  0.00000000000E+00  0.00000000000E+00  0.22639782550E+03  0.22639782550E+03  0.00000000000E+00 0. -1.
         21   -1    0    0  501  502 -0.00000000000E+00 -0.00000000000E+00 -0.29448273269E+03  0.29448273269E+03  0.00000000000E+00 0. -1.
         25    1    1    2    0    0  0.38590648689E+02 -0.58132614012E+02  0.67859953072E+02  0.15842541529E+03  0.12500000000E+03 0.  0.
         25    1    1    2    0    0 -0.73640023774E+02  0.11904383685E+03 -0.10744839935E+03  0.21625088836E+03  0.12500000000E+03 0.  0.
         25    1    1    2    0    0  0.35049375084E+02 -0.60911222839E+02 -0.28496460914E+02  0.14620425454E+03  0.12500000000E+03 0.  0.
</event>
<event>
 5    0  0.5590591E-005  0.3906943E+03  0.7546771E-02  0.1047050E+00
         21   -1    0    0  502  501  0.00000000000E+00  0.00000000000E+00  0.79156981801E+02  0.79156981801E+02  0.00000000000E+00 0. -1.
         21   -1    0    0  501  502 -0.00000000000E+00 -0.00000000000E+00 -0.19283453517E+04  0.19283453517E+04  0.00000000000E+00 0. -1.
         25    1    1    2    0    0  0.18089084606E+03  0.13078838594E+02 -0.73204280407E+03  0.76446335504E+03  0.12500000000E+03 0.  0.
         25    1    1    2    0    0  0.45639907776E+02  0.46686265387E+02 -0.60353043325E+02  0.15339523590E+03  0.12500000000E+03 0.  0.
         25    1    1    2    0    0 -0.22653075384E+03 -0.59765103981E+02 -0.10567925225E+04  0.10896437426E+04  0.12500000000E+03 0.  0.
</event>
<event>
 5    0  0.5590591E-005  0.2683111E+03  0.7546771E-02  0.1102250E+00
         21   -1    0    0  502  501  0.00000000000E+00  0.00000000000E+00  0.16763702356E+03  0.16763702356E+03  0.00000000000E+00 0. -1.
         21   -1    0    0  501  502 -0.00000000000E+00 -0.00000000000E+00 -0.42944469109E+03  0.42944469109E+03  0.00000000000E+00 0. -1.
         25    1    1    2    0    0  0.55261862599E+00 -0.90824593300E+02 -0.22334648340E+03  0.27158435850E+03  0.12500000000E+03 0.  0.
         25    1    1    2    0    0 -0.63026156243E+01  0.13723053502E+02  0.68858271990E+02  0.14350786314E+03  0.12500000000E+03 0.  0.
         25    1    1    2    0    0  0.57499969983E+01  0.77101539798E+02 -0.10731945612E+03  0.18198949301E+03  0.12500000000E+03 0.  0.
</event>
<event>
 5    0  0.5590591E-005  0.3286179E+03  0.7546771E-02  0.1071750E+00
         21   -1    0    0  502  501  0.00000000000E+00  0.00000000000E+00  0.51831472948E+03  0.51831472948E+03  0.00000000000E+00 0.  1.
         21   -1    0    0  501  502 -0.00000000000E+00 -0.00000000000E+00 -0.20834782104E+03  0.20834782104E+03  0.00000000000E+00 0.  1.
         25    1    1    2    0    0 -0.10916313943E+03 -0.12605260589E+02  0.33073548502E+03  0.37025186651E+03  0.12500000000E+03 0.  0.
         25    1    1    2    0    0 -0.31684835336E+02  0.72734276960E+02 -0.50663059691E+02  0.15647986916E+03  0.12500000000E+03 0.  0.
         25    1    1    2    0    0  0.14084797476E+03 -0.60129016371E+02  0.29894483115E+02  0.19993081485E+03  0.12500000000E+03 0.  0.
</event>
<event>
 5    0  0.5590591E-005  0.3102412E+03  0.7546771E-02  0.1080230E+00
         21   -1    0    0  502  501  0.00000000000E+00  0.00000000000E+00  0.87510447440E+02  0.87510447440E+02  0.00000000000E+00 0.  1.
         21   -1    0    0  501  502 -0.00000000000E+00 -0.00000000000E+00 -0.10998639350E+04  0.10998639350E+04  0.00000000000E+00 0.  1.
         25    1    1    2    0    0  0.31978095176E+02  0.82303917374E+02 -0.52365270430E+02  0.16175183131E+03  0.12500000000E+03 0.  0.
         25    1    1    2    0    0 -0.42716584732E+02  0.33489875743E+02 -0.17247746184E+03  0.21981754532E+03  0.12500000000E+03 0.  0.
         25    1    1    2    0    0  0.10738489556E+02 -0.11579379312E+03 -0.78751075529E+03  0.80580500581E+03  0.12500000000E+03 0.  0.
</event>
<event>
 5    0  0.5590591E-005  0.3104505E+03  0.7546771E-02  0.1080130E+00
         21   -1    0    0  502  501  0.00000000000E+00  0.00000000000E+00  0.17069801274E+03  0.17069801274E+03  0.00000000000E+00 0. -1.
         21   -1    0    0  501  502 -0.00000000000E+00 -0.00000000000E+00 -0.56461990186E+03  0.56461990186E+03  0.00000000000E+00 0. -1.
         25    1    1    2    0    0  0.14612593152E+03  0.14731848232E+03 -0.58598820451E+02  0.24922749618E+03  0.12500000000E+03 0.  0.
         25    1    1    2    0    0 -0.10209974383E+03 -0.16090537328E+02 -0.12351610959E+03  0.20387371682E+03  0.12500000000E+03 0.  0.
         25    1    1    2    0    0 -0.44026187687E+02 -0.13122794499E+03 -0.21180695908E+03  0.28221670160E+03  0.12500000000E+03 0.  0.
</event>
<event>
 5    0  0.5590591E-005  0.2293437E+03  0.7546771E-02  0.1127103E+00
         21   -1    0    0  502  501  0.00000000000E+00  0.00000000000E+00  0.19038134995E+04  0.19038134995E+04  0.00000000000E+00 0. -1.
         21   -1    0    0  501  502 -0.00000000000E+00 -0.00000000000E+00 -0.27627989915E+02  0.27627989915E+02  0.00000000000E+00 0. -1.
         25    1    1    2    0    0 -0.96866174962E+02 -0.49407791906E+02  0.73265805719E+03  0.75115711706E+03  0.12500000000E+03 0.  0.
         25    1    1    2    0    0  0.18919016940E+02  0.54691933558E+02  0.42404125491E+03  0.44585325239E+03  0.12500000000E+03 0.  0.
         25    1    1    2    0    0  0.77947158022E+02 -0.52841416528E+01  0.71948619746E+03  0.73443111993E+03  0.12500000000E+03 0.  0.
</event>
<event>
 5    0  0.5590591E-005  0.3047425E+03  0.7546771E-02  0.1082894E+00
         21   -1    0    0  502  501  0.00000000000E+00  0.00000000000E+00  0.11667954322E+03  0.11667954322E+03  0.00000000000E+00 0. -1.
         21   -1    0    0  501  502 -0.00000000000E+00 -0.00000000000E+00 -0.79592334266E+03  0.79592334266E+03  0.00000000000E+00 0. -1.
         25    1    1    2    0    0  0.38400673743E+02 -0.91260445466E+01 -0.34737397408E+03  0.37128368440E+03  0.12500000000E+03 0.  0.
         25    1    1    2    0    0 -0.15814172103E+03  0.90402733773E+02 -0.10499617909E+03  0.24460305768E+03  0.12500000000E+03 0.  0.
         25    1    1    2    0    0  0.11974104728E+03 -0.81276689227E+02 -0.22687364627E+03  0.29671614380E+03  0.12500000000E+03 0.  0.
</event>
<event>
 5    0  0.5590591E-005  0.2529373E+03  0.7546771E-02  0.1111462E+00
         21   -1    0    0  502  501  0.00000000000E+00  0.00000000000E+00  0.11616451629E+03  0.11616451629E+03  0.00000000000E+00 0.  1.
         21   -1    0    0  501  502 -0.00000000000E+00 -0.00000000000E+00 -0.55074707879E+03  0.55074707879E+03  0.00000000000E+00 0.  1.
         25    1    1    2    0    0 -0.82888427753E+02  0.31221866851E+02 -0.13452731042E+03  0.20388205825E+03  0.12500000000E+03 0.  0.
         25    1    1    2    0    0 -0.75755398215E+02 -0.29844582870E+02 -0.14871543592E+03  0.21064391841E+03  0.12500000000E+03 0.  0.
         25    1    1    2    0    0  0.15864382597E+03 -0.13772839809E+01 -0.15133981616E+03  0.25238561842E+03  0.12500000000E+03 0.  0.
</event>
<event>
 5    0  0.5590591E-005  0.5544810E+03  0.7546771E-02  0.1000462E+00
         21   -1    0    0  502  501  0.00000000000E+00  0.00000000000E+00  0.35783792198E+03  0.35783792198E+03  0.00000000000E+00 0. -1.
         21   -1    0    0  501  502 -0.00000000000E+00 -0.00000000000E+00 -0.85918545269E+03  0.85918545269E+03  0.00000000000E+00 0. -1.
         25    1    1    2    0    0 -0.78039218192E+02  0.54125562217E+02 -0.12417143554E+02  0.15747660625E+03  0.12500000000E+03 0.  0.
         25    1    1    2    0    0  0.44843684645E+03  0.16100298329E+03 -0.22979252288E+03  0.54355052153E+03  0.12500000000E+03 0.  0.
         25    1    1    2    0    0 -0.37039762826E+03 -0.21512854551E+03 -0.25913786427E+03  0.51599624690E+03  0.12500000000E+03 0.  0.
</event>
<event>
 5    0  0.5590591E-005  0.2202339E+03  0.7546771E-02  0.1133709E+00
         21   -1    0    0  502  501  0.00000000000E+00  0.00000000000E+00  0.15219251382E+03  0.15219251382E+03  0.00000000000E+00 0.  1.
         21   -1    0    0  501  502 -0.00000000000E+00 -0.00000000000E+00 -0.31869473227E+03  0.31869473227E+03  0.00000000000E+00 0.  1.
         25    1    1    2    0    0 -0.38301771072E+01  0.57653893966E+02 -0.32876603958E+02  0.14157864540E+03  0.12500000000E+03 0.  0.
         25    1    1    2    0    0  0.56773223863E+02 -0.42658925993E+01 -0.12072502996E+03  0.18286861307E+03  0.12500000000E+03 0.  0.
         25    1    1    2    0    0 -0.52943046756E+02 -0.53388001366E+02 -0.12900584533E+02  0.14643998761E+03  0.12500000000E+03 0.  0.
</event>
<event>
 5    0  0.5590591E-005  0.2917917E+03  0.7546771E-02  0.1089417E+00
         21   -1    0    0  502  501  0.00000000000E+00  0.00000000000E+00  0.24270950282E+03  0.24270950282E+03  0.00000000000E+00 0.  1.
         21   -1    0    0  501  502 -0.00000000000E+00 -0.00000000000E+00 -0.35079953213E+03  0.35079953213E+03  0.00000000000E+00 0.  1.
         25    1    1    2    0    0 -0.92331404938E+02  0.13604107113E+02 -0.11193625128E+03  0.19200230316E+03  0.12500000000E+03 0.  0.
         25    1    1    2    0    0  0.23930659490E+02  0.94143745894E+02  0.11086035729E+03  0.19326339584E+03  0.12500000000E+03 0.  0.
         25    1    1    2    0    0  0.68400745448E+02 -0.10774785301E+03 -0.10701413533E+03  0.20824333594E+03  0.12500000000E+03 0.  0.
</event>
<event>
 5    0  0.5590591E-005  0.3163808E+03  0.7546771E-02  0.1077327E+00
         21   -1    0    0  502  501  0.00000000000E+00  0.00000000000E+00  0.15859078596E+03  0.15859078596E+03  0.00000000000E+00 0.  1.
         21   -1    0    0  501  502 -0.00000000000E+00 -0.00000000000E+00 -0.63116408014E+03  0.63116408014E+03  0.00000000000E+00 0.  1.
         25    1    1    2    0    0  0.62303765892E+02  0.90364072864E+02 -0.89916775246E+02  0.18909640763E+03  0.12500000000E+03 0.  0.
         25    1    1    2    0    0  0.13078869356E+03 -0.67584702612E+02 -0.29675809922E+03  0.35406742839E+03  0.12500000000E+03 0.  0.
         25    1    1    2    0    0 -0.19309245945E+03 -0.22779370251E+02 -0.85898419714E+02  0.24659103008E+03  0.12500000000E+03 0.  0.
</event>
<event>
 5    0  0.5590591E-005  0.3705096E+03  0.7546771E-02  0.1054498E+00
         21   -1    0    0  502  501  0.00000000000E+00  0.00000000000E+00  0.96021332504E+02  0.96021332504E+02  0.00000000000E+00 0. -1.
         21   -1    0    0  501  502 -0.00000000000E+00 -0.00000000000E+00 -0.14296546668E+04  0.14296546668E+04  0.00000000000E+00 0. -1.
         25    1    1    2    0    0  0.70247301087E+02 -0.25983912598E+02 -0.96673255604E+02  0.17487299784E+03  0.12500000000E+03 0.  0.
         25    1    1    2    0    0 -0.26357474807E+03  0.34797218801E+02 -0.51414086563E+03  0.59215565856E+03  0.12500000000E+03 0.  0.
         25    1    1    2    0    0  0.19332744698E+03 -0.88133062022E+01 -0.72281921307E+03  0.75864734291E+03  0.12500000000E+03 0.  0.
</event>
<event>
 5    0  0.5590591E-005  0.4075696E+03  0.7546771E-02  0.1041190E+00
         21   -1    0    0  502  501  0.00000000000E+00  0.00000000000E+00  0.29092026509E+03  0.29092026509E+03  0.00000000000E+00 0. -1.
         21   -1    0    0  501  502 -0.00000000000E+00 -0.00000000000E+00 -0.57099148052E+03  0.57099148052E+03  0.00000000000E+00 0. -1.
         25    1    1    2    0    0  0.14158465952E+03 -0.21309655596E+03 -0.13416758998E+03  0.31477341084E+03  0.12500000000E+03 0.  0.
         25    1    1    2    0    0 -0.14037748757E+03  0.26389806661E+03 -0.22149759142E+03  0.39247192458E+03  0.12500000000E+03 0.  0.
         25    1    1    2    0    0 -0.12071719519E+01 -0.50801510650E+02  0.75593965973E+02  0.15466641019E+03  0.12500000000E+03 0.  0.
</event>
<event>
 5    0  0.5590591E-005  0.3818866E+03  0.7546771E-02  0.1050239E+00
         21   -1    0    0  502  501  0.00000000000E+00  0.00000000000E+00  0.37639223056E+03  0.37639223056E+03  0.00000000000E+00 0. -1.
         21   -1    0    0  501  502 -0.00000000000E+00 -0.00000000000E+00 -0.38746118185E+03  0.38746118185E+03  0.00000000000E+00 0. -1.
         25    1    1    2    0    0  0.18137872600E+02 -0.15070680907E+02  0.67939042325E+02  0.14421103050E+03  0.12500000000E+03 0.  0.
         25    1    1    2    0    0 -0.84711380869E+02  0.24939120077E+03 -0.16202381967E+03  0.33353966362E+03  0.12500000000E+03 0.  0.
         25    1    1    2    0    0  0.66573508268E+02 -0.23432051986E+03  0.83015826060E+02  0.28610271828E+03  0.12500000000E+03 0.  0.
</event>
<event>
 5    0  0.5590591E-005  0.3918412E+03  0.7546771E-02  0.1046642E+00
         21   -1    0    0  502  501  0.00000000000E+00  0.00000000000E+00  0.22353647020E+03  0.22353647020E+03  0.00000000000E+00 0. -1.
         21   -1    0    0  501  502 -0.00000000000E+00 -0.00000000000E+00 -0.68686582318E+03  0.68686582318E+03  0.00000000000E+00 0. -1.
         25    1    1    2    0    0 -0.10309527767E+03 -0.67843060301E+02 -0.17563100710E+03  0.24840001563E+03  0.12500000000E+03 0.  0.
         25    1    1    2    0    0  0.27577069844E+03  0.16719170920E+03 -0.24275724145E+03  0.42256197654E+03  0.12500000000E+03 0.  0.
         25    1    1    2    0    0 -0.17267542076E+03 -0.99348648903E+02 -0.44941104428E+02  0.23944030121E+03  0.12500000000E+03 0.  0.
</event>
<event>
 5    0  0.5590591E-005  0.2799233E+03  0.7546771E-02  0.1095731E+00
         21   -1    0    0  502  501  0.00000000000E+00  0.00000000000E+00  0.10478275944E+04  0.10478275944E+04  0.00000000000E+00 0.  1.
         21   -1    0    0  501  502 -0.00000000000E+00 -0.00000000000E+00 -0.74780494010E+02  0.74780494010E+02  0.00000000000E+00 0.  1.
         25    1    1    2    0    0 -0.25688909377E+02 -0.86257642912E+02  0.58503591810E+02  0.16476641430E+03  0.12500000000E+03 0.  0.
         25    1    1    2    0    0  0.28241661758E+02  0.65730547109E+02  0.63180390262E+03  0.64801178049E+03  0.12500000000E+03 0.  0.
         25    1    1    2    0    0 -0.25527523803E+01  0.20527095803E+02  0.28273960597E+03  0.30982989364E+03  0.12500000000E+03 0.  0.
</event>
<event>
 5    0  0.5590591E-005  0.2553715E+03  0.7546771E-02  0.1109956E+00
         21   -1    0    0  502  501  0.00000000000E+00  0.00000000000E+00  0.33887004923E+02  0.33887004923E+02  0.00000000000E+00 0. -1.
         21   -1    0    0  501  502 -0.00000000000E+00 -0.00000000000E+00 -0.19244719081E+04  0.19244719081E+04  0.00000000000E+00 0. -1.
         25    1    1    2    0    0  0.59214240663E+02  0.12195056553E+03 -0.63228674643E+03  0.65862720596E+03  0.12500000000E+03 0.  0.
         25    1    1    2    0    0 -0.37874735047E+02 -0.53236712861E+02 -0.31064146601E+03  0.34116237125E+03  0.12500000000E+03 0.  0.
         25    1    1    2    0    0 -0.21339505615E+02 -0.68713852666E+02 -0.94765669070E+03  0.95856933576E+03  0.12500000000E+03 0.  0.
</event>
<event>
 5    0  0.5590591E-005  0.2456859E+03  0.7546771E-02  0.1116062E+00
         21   -1    0    0  502  501  0.00000000000E+00  0.00000000000E+00  0.29899940247E+03  0.29899940247E+03  0.00000000000E+00 0.  1.
         21   -1    0    0  501  502 -0.00000000000E+00 -0.00000000000E+00 -0.20187849881E+03  0.20187849881E+03  0.00000000000E+00 0.  1.
         25    1    1    2    0    0 -0.28730979564E+02 -0.37660086784E+02 -0.56428521468E+02  0.14509627617E+03  0.12500000000E+03 0.  0.
         25    1    1    2    0    0  0.60929870634E+02  0.90629747324E+02  0.28491857701E+02  0.16841314138E+03  0.12500000000E+03 0.  0.
         25    1    1    2    0    0 -0.32198891069E+02 -0.52969660540E+02  0.12505756742E+03  0.18736848372E+03  0.12500000000E+03 0.  0.
</event>
<event>
 5    0  0.5590591E-005  0.4206906E+03  0.7546771E-02  0.1036842E+00
         21   -1    0    0  502  501  0.00000000000E+00  0.00000000000E+00  0.14211901081E+03  0.14211901081E+03  0.00000000000E+00 0.  1.
         21   -1    0    0  501  502 -0.00000000000E+00 -0.00000000000E+00 -0.12452986453E+04  0.12452986453E+04  0.00000000000E+00 0.  1.
         25    1    1    2    0    0  0.64593628648E+02 -0.13234297597E+03 -0.20183629971E+03  0.27937410766E+03  0.12500000000E+03 0.  0.
         25    1    1    2    0    0  0.15082602498E+03  0.23442128894E+03 -0.22293635240E+03  0.37818969809E+03  0.12500000000E+03 0.  0.
         25    1    1    2    0    0 -0.21541965363E+03 -0.10207831297E+03 -0.67840698240E+03  0.72985385038E+03  0.12500000000E+03 0.  0.
</event>
<event>
 5    0  0.5590591E-005  0.3018678E+03  0.7546771E-02  0.1084311E+00
         21   -1    0    0  502  501  0.00000000000E+00  0.00000000000E+00  0.48814413040E+03  0.48814413040E+03  0.00000000000E+00 0. -1.
         21   -1    0    0  501  502 -0.00000000000E+00 -0.00000000000E+00 -0.18667467570E+03  0.18667467570E+03  0.00000000000E+00 0. -1.
         25    1    1    2    0    0 -0.22640204917E+02 -0.21376934262E+03  0.19540293548E+03  0.31625498876E+03  0.12500000000E+03 0.  0.
         25    1    1    2    0    0  0.29775355467E+02  0.88605772803E+02  0.91504015263E+02  0.18092965367E+03  0.12500000000E+03 0.  0.
         25    1    1    2    0    0 -0.71351505494E+01  0.12516356981E+03  0.14562503952E+02  0.17763416367E+03  0.12500000000E+03 0.  0.
</event>
<event>
 5    0  0.5590591E-005  0.4623376E+03  0.7546771E-02  0.1024105E+00
         21   -1    0    0  502  501  0.00000000000E+00  0.00000000000E+00  0.26757583814E+04  0.26757583814E+04  0.00000000000E+00 0. -1.
         21   -1    0    0  501  502 -0.00000000000E+00 -0.00000000000E+00 -0.79886175029E+02  0.79886175029E+02  0.00000000000E+00 0. -1.
         25    1    1    2    0    0 -0.37167006210E+03  0.97447144257E+02  0.11990504403E+04  0.12652989921E+04  0.12500000000E+03 0.  0.
         25    1    1    2    0    0  0.21438853870E+03 -0.49575488276E+02  0.11000366451E+04  0.11287718083E+04  0.12500000000E+03 0.  0.
         25    1    1    2    0    0  0.15728152341E+03 -0.47871655980E+02  0.29678512091E+03  0.36157375602E+03  0.12500000000E+03 0.  0.
</event>
<event>
 5    0  0.5590591E-005  0.2405087E+03  0.7546771E-02  0.1119454E+00
         21   -1    0    0  502  501  0.00000000000E+00  0.00000000000E+00  0.36823952669E+02  0.36823952669E+02  0.00000000000E+00 0.  1.
         21   -1    0    0  501  502 -0.00000000000E+00 -0.00000000000E+00 -0.15708377601E+04  0.15708377601E+04  0.00000000000E+00 0.  1.
         25    1    1    2    0    0  0.59694699898E+02 -0.47603200464E+01 -0.49167602325E+03  0.51083894691E+03  0.12500000000E+03 0.  0.
         25    1    1    2    0    0 -0.78748260715E+02  0.24088379339E+02 -0.86676896195E+03  0.87959932468E+03  0.12500000000E+03 0.  0.
         25    1    1    2    0    0  0.19053560816E+02 -0.19328059293E+02 -0.17556882224E+03  0.21722344118E+03  0.12500000000E+03 0.  0.
</event>
<event>
 5    0  0.5590591E-005  0.3549965E+03  0.7546771E-02  0.1060583E+00
         21   -1    0    0  502  501  0.00000000000E+00  0.00000000000E+00  0.14366153968E+03  0.14366153968E+03  0.00000000000E+00 0. -1.
         21   -1    0    0  501  502 -0.00000000000E+00 -0.00000000000E+00 -0.87721826876E+03  0.87721826876E+03  0.00000000000E+00 0. -1.
         25    1    1    2    0    0  0.57120511677E+02 -0.84427588456E+01 -0.75688523927E+02  0.15712347274E+03  0.12500000000E+03 0.  0.
         25    1    1    2    0    0  0.20174088724E+03 -0.74072047786E+02 -0.38861772083E+03  0.46134020721E+03  0.12500000000E+03 0.  0.
         25    1    1    2    0    0 -0.25886139891E+03  0.82514806632E+02 -0.26925048433E+03  0.40241612850E+03  0.12500000000E+03 0.  0.
</event>
<event>
 5    0  0.5590591E-005  0.4050864E+03  0.7546771E-02  0.1042033E+00
         21   -1    0    0  502  501  0.00000000000E+00  0.00000000000E+00  0.25460981527E+03  0.25460981527E+03  0.00000000000E+00 0.  1.
         21   -1    0    0  501  502 -0.00000000000E+00 -0.00000000000E+00 -0.64449582398E+03  0.64449582398E+03  0.00000000000E+00 0.  1.
         25    1    1    2    0    0  0.45258660093E+02 -0.39818043986E+02 -0.49585691353E+02  0.14736880174E+03  0.12500000000E+03 0.  0.
         25    1    1    2    0    0  0.13890845402E+03  0.17035343700E+03  0.74160405490E+02  0.26351587777E+03  0.12500000000E+03 0.  0.
         25    1    1    2    0    0 -0.18416711412E+03 -0.13053539301E+03 -0.41446072284E+03  0.48822095974E+03  0.12500000000E+03 0.  0.
</event>
<event>
 5    0  0.5590591E-005  0.2545626E+03  0.7546771E-02  0.1110455E+00
         21   -1    0    0  502  501  0.00000000000E+00  0.00000000000E+00  0.12793458358E+03  0.12793458358E+03  0.00000000000E+00 0.  1.
         21   -1    0    0  501  502 -0.00000000000E+00 -0.00000000000E+00 -0.50652535134E+03  0.50652535134E+03  0.00000000000E+00 0.  1.
         25    1    1    2    0    0 -0.55937375396E+02 -0.33573702520E+02 -0.16146024161E+03  0.21436089449E+03  0.12500000000E+03 0.  0.
         25    1    1    2    0    0  0.25055822256E+02  0.11968343945E+03 -0.19778093612E+03  0.26399662611E+03  0.12500000000E+03 0.  0.
         25    1    1    2    0    0  0.30881553140E+02 -0.86109736930E+02 -0.19349590036E+02  0.15610241431E+03  0.12500000000E+03 0.  0.
</event>
<event>
 5    0  0.5590591E-005  0.2566080E+03  0.7546771E-02  0.1109199E+00
         21   -1    0    0  502  501  0.00000000000E+00  0.00000000000E+00  0.10676755956E+03  0.10676755956E+03  0.00000000000E+00 0. -1.
         21   -1    0    0  501  502 -0.00000000000E+00 -0.00000000000E+00 -0.61673844938E+03  0.61673844938E+03  0.00000000000E+00 0. -1.
         25    1    1    2    0    0  0.93967037860E+02  0.75762215477E+02 -0.17349027450E+03  0.24554753683E+03  0.12500000000E+03 0.  0.
         25    1    1    2    0    0  0.82828503581E+00  0.32727509392E+02 -0.21799672709E+03  0.25341536842E+03  0.12500000000E+03 0.  0.
         25    1    1    2    0    0 -0.94795322896E+02 -0.10848972487E+03 -0.11848388823E+03  0.22454310369E+03  0.12500000000E+03 0.  0.
</event>
<event>
 5    0  0.5590591E-005  0.5049818E+03  0.7546771E-02  0.1012487E+00
         21   -1    0    0  502  501  0.00000000000E+00  0.00000000000E+00  0.10858035967E+03  0.10858035967E+03  0.00000000000E+00 0. -1.
         21   -1    0    0  501  502 -0.00000000000E+00 -0.00000000000E+00 -0.23485517674E+04  0.23485517674E+04  0.00000000000E+00 0. -1.
         25    1    1    2    0    0  0.18340767456E+02  0.40170830943E+02 -0.31460118955E+03  0.34139271796E+03  0.12500000000E+03 0.  0.
         25    1    1    2    0    0 -0.83581582207E+02  0.26433416584E+03 -0.21419456754E+03  0.37197143019E+03  0.12500000000E+03 0.  0.
         25    1    1    2    0    0  0.65240814751E+02 -0.30450499678E+03 -0.17111756506E+04  0.17437679789E+04  0.12500000000E+03 0.  0.
</event>
<event>
 5    0  0.5590591E-005  0.2945469E+03  0.7546771E-02  0.1087999E+00
         21   -1    0    0  502  501  0.00000000000E+00  0.00000000000E+00  0.89346928343E+03  0.89346928343E+03  0.00000000000E+00 0. -1.
         21   -1    0    0  501  502 -0.00000000000E+00 -0.00000000000E+00 -0.97102218599E+02  0.97102218599E+02  0.00000000000E+00 0. -1.
         25    1    1    2    0    0 -0.14180923647E+03 -0.48441289949E+02  0.31099382962E+03  0.36714926144E+03  0.12500000000E+03 0.  0.
         25    1    1    2    0    0  0.20098265240E+03 -0.17021808285E+01  0.35609559804E+03  0.42758156991E+03  0.12500000000E+03 0.  0.
         25    1    1    2    0    0 -0.59173415934E+02  0.50143470778E+02  0.12927763717E+03  0.19584067067E+03  0.12500000000E+03 0.  0.
</event>
<event>
 5    0  0.5590591E-005  0.3529317E+03  0.7546771E-02  0.1061418E+00
         21   -1    0    0  502  501  0.00000000000E+00  0.00000000000E+00  0.15737887485E+04  0.15737887485E+04  0.00000000000E+00 0. -1.
         21   -1    0    0  501  502 -0.00000000000E+00 -0.00000000000E+00 -0.79147071115E+02  0.79147071115E+02  0.00000000000E+00 0.  1.
         25    1    1    2    0    0 -0.71400659722E+02  0.18320463402E+02  0.45854549386E+03  0.48096014755E+03  0.12500000000E+03 0.  0.
         25    1    1    2    0    0  0.25794524038E+03  0.77116588563E+02  0.47490318107E+03  0.56003637976E+03  0.12500000000E+03 0.  0.
         25    1    1    2    0    0 -0.18654458066E+03 -0.95437051965E+02  0.56119300240E+03  0.61193929226E+03  0.12500000000E+03 0.  0.
</event>
<event>
 5    0  0.5590591E-005  0.3967516E+03  0.7546771E-02  0.1044910E+00
         21   -1    0    0  502  501  0.00000000000E+00  0.00000000000E+00  0.43213324232E+03  0.43213324232E+03  0.00000000000E+00 0. -1.
         21   -1    0    0  501  502 -0.00000000000E+00 -0.00000000000E+00 -0.36426694072E+03  0.36426694072E+03  0.00000000000E+00 0. -1.
         25    1    1    2    0    0 -0.23945039805E+03 -0.18577692520E+02  0.14302628861E+03  0.30620767956E+03  0.12500000000E+03 0.  0.
         25    1    1    2    0    0  0.30595097465E+03  0.13997916641E+02 -0.10167371902E+03  0.34607005894E+03  0.12500000000E+03 0.  0.
         25    1    1    2    0    0 -0.66500576600E+02  0.45797758795E+01  0.26513732002E+02  0.14412244454E+03  0.12500000000E+03 0.  0.
</event>
<event>
 5    0  0.5590591E-005  0.3627680E+03  0.7546771E-02  0.1057493E+00
         21   -1    0    0  502  501  0.00000000000E+00  0.00000000000E+00  0.86942465356E+03  0.86942465356E+03  0.00000000000E+00 0. -1.
         21   -1    0    0  501  502 -0.00000000000E+00 -0.00000000000E+00 -0.15136517073E+03  0.15136517073E+03  0.00000000000E+00 0. -1.
         25    1    1    2    0    0 -0.11689298919E+03 -0.92931492386E+02  0.14268383721E+03  0.24142060931E+03  0.12500000000E+03 0.  0.
         25    1    1    2    0    0  0.18878519782E+03  0.23058953539E+03  0.31346827808E+03  0.45022077486E+03  0.12500000000E+03 0.  0.
         25    1    1    2    0    0 -0.71892208634E+02 -0.13765804300E+03  0.26190736754E+03  0.32914844012E+03  0.12500000000E+03 0.  0.
</event>
<event>
 5    0  0.5590591E-005  0.2726462E+03  0.7546771E-02  0.1099775E+00
         21   -1    0    0  502  501  0.00000000000E+00  0.00000000000E+00  0.11750504262E+03  0.11750504262E+03  0.00000000000E+00 0. -1.
         21   -1    0    0  501  502 -0.00000000000E+00 -0.00000000000E+00 -0.63261923191E+03  0.63261923191E+03  0.00000000000E+00 0. -1.
         25    1    1    2    0    0  0.40135051580E+02  0.22334301711E+02 -0.61854439318E+02  0.14683533315E+03  0.12500000000E+03 0.  0.
         25    1    1    2    0    0  0.90864847366E+02 -0.43951203715E+02 -0.63088953392E+02  0.17260748777E+03  0.12500000000E+03 0.  0.
         25    1    1    2    0    0 -0.13099989895E+03  0.21616902004E+02 -0.39017079658E+03  0.43068145360E+03  0.12500000000E+03 0.  0.
</event>
<event>
 5    0  0.5590591E-005  0.2308746E+03  0.7546771E-02  0.1126026E+00
         21   -1    0    0  502  501  0.00000000000E+00  0.00000000000E+00  0.30457208971E+03  0.30457208971E+03  0.00000000000E+00 0.  1.
         21   -1    0    0  501  502 -0.00000000000E+00 -0.00000000000E+00 -0.17500967091E+03  0.17500967091E+03  0.00000000000E+00 0.  1.
         25    1    1    2    0    0  0.53845070364E+00  0.48979716718E+02  0.30567739307E+01  0.13428941301E+03  0.12500000000E+03 0.  0.
         25    1    1    2    0    0  0.87545270379E+02 -0.49460791566E+02  0.26553604819E+02  0.16260577541E+03  0.12500000000E+03 0.  0.
         25    1    1    2    0    0 -0.88083721083E+02  0.48107484706E+00  0.99952040051E+02  0.18268657220E+03  0.12500000000E+03 0.  0.
</event>
<event>
 5    0  0.5590591E-005  0.3436440E+03  0.7546771E-02  0.1065254E+00
         21   -1    0    0  502  501  0.00000000000E+00  0.00000000000E+00  0.37919953437E+03  0.37919953437E+03  0.00000000000E+00 0. -1.
         21   -1    0    0  501  502 -0.00000000000E+00 -0.00000000000E+00 -0.31142238628E+03  0.31142238628E+03  0.00000000000E+00 0. -1.
         25    1    1    2    0    0  0.12196396546E+03 -0.85199938630E+02  0.64859380425E+02  0.20485599245E+03  0.12500000000E+03 0.  0.
         25    1    1    2    0    0  0.74515703177E+02  0.14151324130E+03 -0.98472592376E+02  0.22561125622E+03  0.12500000000E+03 0.  0.
         25    1    1    2    0    0 -0.19647966864E+03 -0.56313302666E+02  0.10139036004E+03  0.26015467198E+03  0.12500000000E+03 0.  0.
</event>
<event>
 5    0  0.5590591E-005  0.3142357E+03  0.7546771E-02  0.1078333E+00
         21   -1    0    0  502  501  0.00000000000E+00  0.00000000000E+00  0.17346613856E+03  0.17346613856E+03  0.00000000000E+00 0.  1.
         21   -1    0    0  501  502 -0.00000000000E+00 -0.00000000000E+00 -0.56924116487E+03  0.56924116487E+03  0.00000000000E+00 0.  1.
         25    1    1    2    0    0 -0.10772366799E+03 -0.61082773183E+02 -0.11452374849E+03  0.20994328471E+03  0.12500000000E+03 0.  0.
         25    1    1    2    0    0  0.26723266800E+02 -0.14211368957E+03 -0.17562529994E+03  0.25957596138E+03  0.12500000000E+03 0.  0.
         25    1    1    2    0    0  0.81000401194E+02  0.20319646275E+03 -0.10562597788E+03  0.27318805734E+03  0.12500000000E+03 0.  0.
</event>
<event>
 5    0  0.5590591E-005  0.2523377E+03  0.7546771E-02  0.1111836E+00
         21   -1    0    0  502  501  0.00000000000E+00  0.00000000000E+00  0.97732639511E+02  0.97732639511E+02  0.00000000000E+00 0. -1.
         21   -1    0    0  501  502 -0.00000000000E+00 -0.00000000000E+00 -0.65151531367E+03  0.65151531367E+03  0.00000000000E+00 0. -1.
         25    1    1    2    0    0 -0.29319109265E+02  0.43003890500E+02 -0.79851379212E+02  0.15719474396E+03  0.12500000000E+03 0.  0.
         25    1    1    2    0    0  0.92615095964E+02 -0.11250173720E+03 -0.20436143277E+03  0.28039756076E+03  0.12500000000E+03 0.  0.
         25    1    1    2    0    0 -0.63295986699E+02  0.69497846701E+02 -0.26956986218E+03  0.31165564847E+03  0.12500000000E+03 0.  0.
</event>
<event>
 5    0  0.5590591E-005  0.3114653E+03  0.7546771E-02  0.1079646E+00
         21   -1    0    0  502  501  0.00000000000E+00  0.00000000000E+00  0.38338999629E+02  0.38338999629E+02  0.00000000000E+00 0. -1.
         21   -1    0    0  501  502 -0.00000000000E+00 -0.00000000000E+00 -0.25303387806E+04  0.25303387806E+04  0.00000000000E+00 0. -1.
         25    1    1    2    0    0 -0.15124581977E+03 -0.88100991162E+02 -0.75038295972E+03  0.78060019785E+03  0.12500000000E+03 0.  0.
         25    1    1    2    0    0  0.61134485235E+02  0.13627626533E+03 -0.13576407539E+04  0.13715400331E+04  0.12500000000E+03 0.  0.
         25    1    1    2    0    0  0.90111334538E+02 -0.48175274168E+02 -0.38397606735E+03  0.41653754927E+03  0.12500000000E+03 0.  0.
</event>
<event>
 5    0  0.6674003E-005  0.2981917E+03  0.7546771E-02  0.1086148E+00
         21   -1    0    0  502  501  0.00000000000E+00  0.00000000000E+00  0.16279456979E+03  0.16279456979E+03  0.00000000000E+00 0.  1.
         21   -1    0    0  501  502 -0.00000000000E+00 -0.00000000000E+00 -0.54619918406E+03  0.54619918406E+03  0.00000000000E+00 0.  1.
         25    1    1    2    0    0  0.27456224862E+02 -0.27835312788E+02  0.37337296511E+02  0.13619002398E+03  0.12500000000E+03 0.  0.
         25    1    1    2    0    0 -0.82424250304E+02 -0.10775477071E+03 -0.13621946689E+03  0.22931548315E+03  0.12500000000E+03 0.  0.
         25    1    1    2    0    0  0.54968025442E+02  0.13559008350E+03 -0.28452244388E+03  0.34348824672E+03  0.12500000000E+03 0.  0.
</event>
<event>
 5    0  0.5590591E-005  0.2274668E+03  0.7546771E-02  0.1128436E+00
         21   -1    0    0  502  501  0.00000000000E+00  0.00000000000E+00  0.13740029502E+03  0.13740029502E+03  0.00000000000E+00 0. -1.
         21   -1    0    0  501  502 -0.00000000000E+00 -0.00000000000E+00 -0.37657215155E+03  0.37657215155E+03  0.00000000000E+00 0. -1.
         25    1    1    2    0    0  0.31462370771E+02  0.28081284651E+02  0.37745662207E+02  0.13721579478E+03  0.12500000000E+03 0.  0.
         25    1    1    2    0    0 -0.27259840512E+01 -0.74970676966E+01 -0.12668700392E+03  0.17815227749E+03  0.12500000000E+03 0.  0.
         25    1    1    2    0    0 -0.28736386720E+02 -0.20584216954E+02 -0.15023051482E+03  0.19860437430E+03  0.12500000000E+03 0.  0.
</event>
<event>
 5    0  0.5590591E-005  0.3723584E+03  0.7546771E-02  0.1053795E+00
         21   -1    0    0  502  501  0.00000000000E+00  0.00000000000E+00  0.58087749983E+03  0.58087749983E+03  0.00000000000E+00 0. -1.
         21   -1    0    0  501  502 -0.00000000000E+00 -0.00000000000E+00 -0.23869197674E+03  0.23869197674E+03  0.00000000000E+00 0. -1.
         25    1    1    2    0    0  0.62425615099E+02  0.17184889971E+03  0.39132133347E+03  0.44965140695E+03  0.12500000000E+03 0.  0.
         25    1    1    2    0    0 -0.11072359807E+03 -0.12430780213E+03 -0.82398431282E+02  0.22388980843E+03  0.12500000000E+03 0.  0.
         25    1    1    2    0    0  0.48297982972E+02 -0.47541097581E+02  0.33262620904E+02  0.14602826120E+03  0.12500000000E+03 0.  0.
</event>
<event>
 5    0  0.5590591E-005  0.2736897E+03  0.7546771E-02  0.1099186E+00
         21   -1    0    0  502  501  0.00000000000E+00  0.00000000000E+00  0.53256061750E+03  0.53256061750E+03  0.00000000000E+00 0. -1.
         21   -1    0    0  501  502 -0.00000000000E+00 -0.00000000000E+00 -0.14065265409E+03  0.14065265409E+03  0.00000000000E+00 0. -1.
         25    1    1    2    0    0  0.41089992865E+02 -0.49197398474E+02  0.16919596641E+03  0.21991145168E+03  0.12500000000E+03 0.  0.
         25    1    1    2    0    0 -0.12317931828E+03  0.65594422275E+02  0.23708516193E+03  0.30217568846E+03  0.12500000000E+03 0.  0.
         25    1    1    2    0    0  0.82089325420E+02 -0.16397023802E+02 -0.14373164926E+02  0.15112613145E+03  0.12500000000E+03 0.  0.
</event>
<event>
 5    0  0.5590591E-005  0.4306337E+03  0.7546771E-02  0.1033660E+00
         21   -1    0    0  502  501  0.00000000000E+00  0.00000000000E+00  0.88542152546E+03  0.88542152546E+03  0.00000000000E+00 0.  1.
         21   -1    0    0  501  502 -0.00000000000E+00 -0.00000000000E+00 -0.20944305157E+03  0.20944305157E+03  0.00000000000E+00 0.  1.
         25    1    1    2    0    0  0.87818687094E+02  0.76481327638E+02  0.40499932399E+02  0.17557551026E+03  0.12500000000E+03 0.  0.
         25    1    1    2    0    0 -0.56300220197E+02  0.22808703522E+03  0.89148851770E+02  0.28065268252E+03  0.12500000000E+03 0.  0.
         25    1    1    2    0    0 -0.31518466897E+02 -0.30456836286E+03  0.54632968973E+03  0.63863638425E+03  0.12500000000E+03 0.  0.
</event>
<event>
 5    0  0.5590591E-005  0.4109502E+03  0.7546771E-02  0.1040053E+00
         21   -1    0    0  502  501  0.00000000000E+00  0.00000000000E+00  0.14574177267E+04  0.14574177267E+04  0.00000000000E+00 0.  1.
         21   -1    0    0  501  502 -0.00000000000E+00 -0.00000000000E+00 -0.11587622910E+03  0.11587622910E+03  0.00000000000E+00 0.  1.
         25    1    1    2    0    0 -0.63784030362E+02  0.77626986800E+02  0.68030080173E+03  0.69894816148E+03  0.12500000000E+03 0.  0.
         25    1    1    2    0    0  0.70193975071E+02  0.13947492634E+03  0.39329318073E+02  0.20384367656E+03  0.12500000000E+03 0.  0.
         25    1    1    2    0    0 -0.64099447088E+01 -0.21710191315E+03  0.62191137777E+03  0.67050211773E+03  0.12500000000E+03 0.  0.
</event>
<event>
 5    0  0.5590591E-005  0.2932648E+03  0.7546771E-02  0.1088657E+00
         21   -1    0    0  502  501  0.00000000000E+00  0.00000000000E+00  0.68924818307E+03  0.68924818307E+03  0.00000000000E+00 0. -1.
         21   -1    0    0  501  502 -0.00000000000E+00 -0.00000000000E+00 -0.12477981740E+03  0.12477981740E+03  0.00000000000E+00 0. -1.
         25    1    1    2    0    0 -0.16734319236E+03  0.80539333232E+02  0.17394565138E+03  0.28350029605E+03  0.12500000000E+03 0.  0.
         25    1    1    2    0    0  0.68957308748E+02 -0.38806167222E+02  0.56773169292E+02  0.15845889623E+03  0.12500000000E+03 0.  0.
         25    1    1    2    0    0  0.98385883616E+02 -0.41733166011E+02  0.33374954500E+03  0.37206880819E+03  0.12500000000E+03 0.  0.
</event>
<event>
 5    0  0.5590591E-005  0.2895127E+03  0.7546771E-02  0.1090604E+00
         21   -1    0    0  502  501  0.00000000000E+00  0.00000000000E+00  0.42263830975E+03  0.42263830975E+03  0.00000000000E+00 0.  1.
         21   -1    0    0  501  502 -0.00000000000E+00 -0.00000000000E+00 -0.19831990286E+03  0.19831990286E+03  0.00000000000E+00 0.  1.
         25    1    1    2    0    0  0.53429928007E+02  0.64714123760E+02  0.91123150564E+02  0.17598608919E+03  0.12500000000E+03 0.  0.
         25    1    1    2    0    0 -0.99979552157E+02  0.99665267021E+02 -0.10934717767E+02  0.18887467896E+03  0.12500000000E+03 0.  0.
         25    1    1    2    0    0  0.46549624150E+02 -0.16437939078E+03  0.14412997409E+03  0.25609744445E+03  0.12500000000E+03 0.  0.
</event>
<event>
 5    0  0.5590591E-005  0.3521581E+03  0.7546771E-02  0.1061733E+00
         21   -1    0    0  502  501  0.00000000000E+00  0.00000000000E+00  0.21985130222E+03  0.21985130222E+03  0.00000000000E+00 0.  1.
         21   -1    0    0  501  502 -0.00000000000E+00 -0.00000000000E+00 -0.56408736799E+03  0.56408736799E+03  0.00000000000E+00 0.  1.
         25    1    1    2    0    0  0.99956126335E+02  0.79164896745E+02  0.16247007785E+01  0.17856636783E+03  0.12500000000E+03 0.  0.
         25    1    1    2    0    0  0.10693994635E+03 -0.16667953423E+02 -0.31241114018E+03  0.35346809376E+03  0.12500000000E+03 0.  0.
         25    1    1    2    0    0 -0.20689607269E+03 -0.62496943323E+02 -0.33449626377E+02  0.25190420862E+03  0.12500000000E+03 0.  0.
</event>
<event>
 5    0  0.5590591E-005  0.4334580E+03  0.7546771E-02  0.1032773E+00
         21   -1    0    0  502  501  0.00000000000E+00  0.00000000000E+00  0.11743459391E+03  0.11743459391E+03  0.00000000000E+00 0. -1.
         21   -1    0    0  501  502 -0.00000000000E+00 -0.00000000000E+00 -0.15999192106E+04  0.15999192106E+04  0.00000000000E+00 0. -1.
         25    1    1    2    0    0 -0.22681854319E+03  0.65980348976E+02 -0.12253283467E+03  0.29400570327E+03  0.12500000000E+03 0.  0.
         25    1    1    2    0    0 -0.18025814939E+02 -0.71041070262E+02 -0.49068006182E+03  0.51162846553E+03  0.12500000000E+03 0.  0.
         25    1    1    2    0    0  0.24484435812E+03  0.50607212858E+01 -0.86927172020E+03  0.91171963572E+03  0.12500000000E+03 0.  0.
</event>
<event>
 5    0  0.5590591E-005  0.3819739E+03  0.7546771E-02  0.1050207E+00
         21   -1    0    0  502  501  0.00000000000E+00  0.00000000000E+00  0.11502800462E+03  0.11502800462E+03  0.00000000000E+00 0. -1.
         21   -1    0    0  501  502 -0.00000000000E+00 -0.00000000000E+00 -0.12684218659E+04  0.12684218659E+04  0.00000000000E+00 0. -1.
         25    1    1    2    0    0  0.11746593942E+03  0.87613035199E+02 -0.64011863491E+02  0.20296997199E+03  0.12500000000E+03 0.  0.
         25    1    1    2    0    0 -0.13598398831E+03  0.85589652513E+02 -0.76518276430E+03  0.79179978308E+03  0.12500000000E+03 0.  0.
         25    1    1    2    0    0  0.18518048894E+02 -0.17320268771E+03 -0.32419923353E+03  0.38868011550E+03  0.12500000000E+03 0.  0.
</event>
<event>
 5    0  0.5590591E-005  0.2980647E+03  0.7546771E-02  0.1086212E+00
         21   -1    0    0  502  501  0.00000000000E+00  0.00000000000E+00  0.55123527014E+03  0.55123527014E+03  0.00000000000E+00 0. -1.
         21   -1    0    0  501  502 -0.00000000000E+00 -0.00000000000E+00 -0.16116997110E+03  0.16116997110E+03  0.00000000000E+00 0. -1.
         25    1    1    2    0    0  0.10326649999E+02  0.17386659446E+03  0.59135091850E+02  0.22239197706E+03  0.12500000000E+03 0.  0.
         25    1    1    2    0    0 -0.93778183332E+02 -0.13242017580E+03  0.17328267561E+03  0.26829337729E+03  0.12500000000E+03 0.  0.
         25    1    1    2    0    0  0.83451533333E+02 -0.41446418660E+02  0.15764753158E+03  0.22171988690E+03  0.12500000000E+03 0.  0.
</event>
<event>
 5    0  0.6281661E-005  0.3241259E+03  0.7546771E-02  0.1073766E+00
         21   -1    0    0  502  501  0.00000000000E+00  0.00000000000E+00  0.67664838363E+03  0.67664838363E+03  0.00000000000E+00 0. -1.
         21   -1    0    0  501  502 -0.00000000000E+00 -0.00000000000E+00 -0.15526172819E+03  0.15526172819E+03  0.00000000000E+00 0. -1.
         25    1    1    2    0    0 -0.53231690569E+01  0.97427230227E+02  0.34951730040E+03  0.38380691056E+03  0.12500000000E+03 0.  0.
         25    1    1    2    0    0  0.88689713194E+02  0.47981829675E+02 -0.23051799659E+02  0.16224828712E+03  0.12500000000E+03 0.  0.
         25    1    1    2    0    0 -0.83366544137E+02 -0.14540905990E+03  0.19492115471E+03  0.28585491413E+03  0.12500000000E+03 0.  0.
</event>
<event>
 5    0  0.5590591E-005  0.4044557E+03  0.7546771E-02  0.1042248E+00
         21   -1    0    0  502  501  0.00000000000E+00  0.00000000000E+00  0.16458899624E+03  0.16458899624E+03  0.00000000000E+00 0. -1.
         21   -1    0    0  501  502 -0.00000000000E+00 -0.00000000000E+00 -0.99389633204E+03  0.99389633204E+03  0.00000000000E+00 0. -1.
         25    1    1    2    0    0 -0.22252949647E+03 -0.27477306031E+02 -0.60652969727E+02  0.26377672733E+03  0.12500000000E+03 0.  0.
         25    1    1    2    0    0 -0.18728041193E+01  0.11369751172E+03 -0.42306198681E+03  0.45556237361E+03  0.12500000000E+03 0.  0.
         25    1    1    2    0    0  0.22440230059E+03 -0.86220205689E+02 -0.34559237927E+03  0.43914622734E+03  0.12500000000E+03 0.  0.
</event>
<event>
 5    0  0.5745842E-005  0.3123285E+03  0.7546771E-02  0.1079235E+00
         21   -1    0    0  502  501  0.00000000000E+00  0.00000000000E+00  0.13200367026E+03  0.13200367026E+03  0.00000000000E+00 0. -1.
         21   -1    0    0  501  502 -0.00000000000E+00 -0.00000000000E+00 -0.73898791297E+03  0.73898791297E+03  0.00000000000E+00 0. -1.
         25    1    1    2    0    0 -0.19718943600E+02  0.12418877673E+03 -0.11489041251E+03  0.21127350968E+03  0.12500000000E+03 0.  0.
         25    1    1    2    0    0 -0.52519166855E+02 -0.82381448955E+02 -0.48384136022E+03  0.50918800838E+03  0.12500000000E+03 0.  0.
         25    1    1    2    0    0  0.72238110455E+02 -0.41807327778E+02 -0.82524699726E+01  0.15053006517E+03  0.12500000000E+03 0.  0.
</event>
<event>
 5    0  0.5590591E-005  0.2947263E+03  0.7546771E-02  0.1087907E+00
         21   -1    0    0  502  501  0.00000000000E+00  0.00000000000E+00  0.98557031442E+03  0.98557031442E+03  0.00000000000E+00 0. -1.
         21   -1    0    0  501  502 -0.00000000000E+00 -0.00000000000E+00 -0.88135355765E+02  0.88135355765E+02  0.00000000000E+00 0. -1.
         25    1    1    2    0    0  0.12618451378E+03 -0.12350690343E+03  0.15386643733E+03  0.26547385417E+03  0.12500000000E+03 0.  0.
         25    1    1    2    0    0 -0.80840537030E+02  0.38221783043E+02  0.29455556800E+03  0.33224099652E+03  0.12500000000E+03 0.  0.
         25    1    1    2    0    0 -0.45343976752E+02  0.85285120391E+02  0.44901295333E+03  0.47599081949E+03  0.12500000000E+03 0.  0.
</event>
<event>
 5    0  0.5590591E-005  0.2890807E+03  0.7546771E-02  0.1090830E+00
         21   -1    0    0  502  501  0.00000000000E+00  0.00000000000E+00  0.15700530797E+03  0.15700530797E+03  0.00000000000E+00 0. -1.
         21   -1    0    0  501  502 -0.00000000000E+00 -0.00000000000E+00 -0.53225992938E+03  0.53225992938E+03  0.00000000000E+00 0. -1.
         25    1    1    2    0    0  0.59060854516E+02  0.41621360410E+02 -0.38419264166E+03  0.41042600805E+03  0.12500000000E+03 0.  0.
         25    1    1    2    0    0 -0.38869680133E+02 -0.65711821965E+02  0.26201949053E+02  0.14879663206E+03  0.12500000000E+03 0.  0.
         25    1    1    2    0    0 -0.20191174383E+02  0.24090461556E+02 -0.17263928806E+02  0.13004259725E+03  0.12500000000E+03 0.  0.
</event>
<event>
 5    0  0.5590591E-005  0.2575314E+03  0.7546771E-02  0.1108636E+00
         21   -1    0    0  502  501  0.00000000000E+00  0.00000000000E+00  0.25164013155E+03  0.25164013155E+03  0.00000000000E+00 0. -1.
         21   -1    0    0  501  502 -0.00000000000E+00 -0.00000000000E+00 -0.26356055094E+03  0.26356055094E+03  0.00000000000E+00 0. -1.
         25    1    1    2    0    0  0.97956701196E+02 -0.10002093861E+03  0.51830960184E+01  0.18775400915E+03  0.12500000000E+03 0.  0.
         25    1    1    2    0    0 -0.78502021299E+02 -0.14862454348E+02  0.27400323693E+02  0.15086165065E+03  0.12500000000E+03 0.  0.
         25    1    1    2    0    0 -0.19454679897E+02  0.11488339295E+03 -0.44503839101E+02  0.17658502270E+03  0.12500000000E+03 0.  0.
</event>
<event>
 5    0  0.5590591E-005  0.3315242E+03  0.7546771E-02  0.1070464E+00
         21   -1    0    0  502  501  0.00000000000E+00  0.00000000000E+00  0.24400205086E+02  0.24400205086E+02  0.00000000000E+00 0. -1.
         21   -1    0    0  501  502 -0.00000000000E+00 -0.00000000000E+00 -0.45044007183E+04  0.45044007183E+04  0.00000000000E+00 0. -1.
         25    1    1    2    0    0  0.15386797173E+03 -0.16960103572E+02 -0.15890681490E+04  0.16014760629E+04  0.12500000000E+03 0.  0.
         25    1    1    2    0    0 -0.16272038962E+03  0.16643106405E+03 -0.15717542614E+04  0.15938047818E+04  0.12500000000E+03 0.  0.
         25    1    1    2    0    0  0.88524178939E+01 -0.14947096048E+03 -0.13191781028E+04  0.13335200787E+04  0.12500000000E+03 0.  0.
</event>
<event>
 5    0  0.5757856E-005  0.2574863E+03  0.7546771E-02  0.1108663E+00
         21   -1    0    0  502  501  0.00000000000E+00  0.00000000000E+00  0.30474530036E+03  0.30474530036E+03  0.00000000000E+00 0.  1.
         21   -1    0    0  501  502 -0.00000000000E+00 -0.00000000000E+00 -0.21755605503E+03  0.21755605503E+03  0.00000000000E+00 0.  1.
         25    1    1    2    0    0 -0.79270869123E+02 -0.98229016898E+01  0.18261916517E+03  0.23527668728E+03  0.12500000000E+03 0.  0.
         25    1    1    2    0    0  0.71056965271E+01  0.13804297355E+02 -0.51694467285E+02  0.13615567376E+03  0.12500000000E+03 0.  0.
         25    1    1    2    0    0  0.72165172596E+02 -0.39813956647E+01 -0.43735452563E+02  0.15086899436E+03  0.12500000000E+03 0.  0.
</event>
<event>
 5    0  0.5590591E-005  0.3011004E+03  0.7546771E-02  0.1084692E+00
         21   -1    0    0  502  501  0.00000000000E+00  0.00000000000E+00  0.19483399171E+03  0.19483399171E+03  0.00000000000E+00 0. -1.
         21   -1    0    0  501  502 -0.00000000000E+00 -0.00000000000E+00 -0.46532658971E+03  0.46532658971E+03  0.00000000000E+00 0. -1.
         25    1    1    2    0    0 -0.70219235884E+02  0.10276525014E+03 -0.95848455163E+02  0.20075697767E+03  0.12500000000E+03 0.  0.
         25    1    1    2    0    0  0.13284095122E+03  0.56076310241E+02 -0.15690821582E+03  0.24705557894E+03  0.12500000000E+03 0.  0.
         25    1    1    2    0    0 -0.62621715333E+02 -0.15884156038E+03 -0.17735927005E+02  0.21234802482E+03  0.12500000000E+03 0.  0.
</event>
<event>
 5    0  0.5590591E-005  0.4948199E+03  0.7546771E-02  0.1015140E+00
         21   -1    0    0  502  501  0.00000000000E+00  0.00000000000E+00  0.23402596568E+03  0.23402596568E+03  0.00000000000E+00 0.  1.
         21   -1    0    0  501  502 -0.00000000000E+00 -0.00000000000E+00 -0.10462374754E+04  0.10462374754E+04  0.00000000000E+00 0.  1.
         25    1    1    2    0    0 -0.15382982405E+03 -0.71147431799E+02 -0.29343626559E+02  0.21263024300E+03  0.12500000000E+03 0.  0.
         25    1    1    2    0    0  0.26399293845E+03 -0.16661026220E+03 -0.68180383052E+03  0.76021885950E+03  0.12500000000E+03 0.  0.
         25    1    1    2    0    0 -0.11016311439E+03  0.23775769400E+03 -0.10106405265E+03  0.30741433859E+03  0.12500000000E+03 0.  0.
</event>
<event>
 5    0  0.5590591E-005  0.3189570E+03  0.7546771E-02  0.1076130E+00
         21   -1    0    0  502  501  0.00000000000E+00  0.00000000000E+00  0.10057829376E+03  0.10057829376E+03  0.00000000000E+00 0.  1.
         21   -1    0    0  501  502 -0.00000000000E+00 -0.00000000000E+00 -0.10114864043E+04  0.10114864043E+04  0.00000000000E+00 0.  1.
         25    1    1    2    0    0  0.12542296694E+03  0.14834155999E+03 -0.62587361799E+03  0.66714235719E+03  0.12500000000E+03 0.  0.
         25    1    1    2    0    0 -0.87693901481E+02 -0.12453008917E+03 -0.11131822744E+03  0.22630667517E+03  0.12500000000E+03 0.  0.
         25    1    1    2    0    0 -0.37729065460E+02 -0.23811470821E+02 -0.17371626511E+03  0.21861566569E+03  0.12500000000E+03 0.  0.
</event>
<event>
 5    0  0.5590591E-005  0.2547287E+03  0.7546771E-02  0.1110352E+00
         21   -1    0    0  502  501  0.00000000000E+00  0.00000000000E+00  0.13141737450E+04  0.13141737450E+04  0.00000000000E+00 0. -1.
         21   -1    0    0  501  502 -0.00000000000E+00 -0.00000000000E+00 -0.49374538928E+02  0.49374538928E+02  0.00000000000E+00 0. -1.
         25    1    1    2    0    0 -0.11475899222E+03 -0.29799246230E+02  0.34411868515E+03  0.38483800597E+03  0.12500000000E+03 0.  0.
         25    1    1    2    0    0  0.10227325924E+03  0.69637467628E+02  0.33475838828E+03  0.37814993716E+03  0.12500000000E+03 0.  0.
         25    1    1    2    0    0  0.12485732987E+02 -0.39838221397E+02  0.58592213265E+03  0.60056034080E+03  0.12500000000E+03 0.  0.
</event>
<event>
 5    0  0.5590591E-005  0.2980460E+03  0.7546771E-02  0.1086222E+00
         21   -1    0    0  502  501  0.00000000000E+00  0.00000000000E+00  0.71394929679E+03  0.71394929679E+03  0.00000000000E+00 0.  1.
         21   -1    0    0  501  502 -0.00000000000E+00 -0.00000000000E+00 -0.12442256774E+03  0.12442256774E+03  0.00000000000E+00 0.  1.
         25    1    1    2    0    0 -0.67269441268E+02 -0.29947711439E+02 -0.27183425402E+02  0.14760075124E+03  0.12500000000E+03 0.  0.
         25    1    1    2    0    0  0.74507779892E+02  0.46141039550E+02  0.17920743316E+03  0.23541603364E+03  0.12500000000E+03 0.  0.
         25    1    1    2    0    0 -0.72383386240E+01 -0.16193328111E+02  0.43750272129E+03  0.45535507965E+03  0.12500000000E+03 0.  0.
</event>
<event>
 5    0  0.5590591E-005  0.2644683E+03  0.7546771E-02  0.1104488E+00
         21   -1    0    0  502  501  0.00000000000E+00  0.00000000000E+00  0.17185901735E+03  0.17185901735E+03  0.00000000000E+00 0. -1.
         21   -1    0    0  501  502 -0.00000000000E+00 -0.00000000000E+00 -0.40698181872E+03  0.40698181872E+03  0.00000000000E+00 0. -1.
         25    1    1    2    0    0 -0.80884284076E+02 -0.18840779875E+02 -0.16089793057E+03  0.22002360432E+03  0.12500000000E+03 0.  0.
         25    1    1    2    0    0  0.48715569532E+02  0.10123182634E+03 -0.11090140622E+03  0.20135841497E+03  0.12500000000E+03 0.  0.
         25    1    1    2    0    0  0.32168714544E+02 -0.82391046461E+02  0.36676535411E+02  0.15745881678E+03  0.12500000000E+03 0.  0.
</event>
<event>
 5    0  0.5590591E-005  0.2622129E+03  0.7546771E-02  0.1105821E+00
         21   -1    0    0  502  501  0.00000000000E+00  0.00000000000E+00  0.23008086669E+03  0.23008086669E+03  0.00000000000E+00 0. -1.
         21   -1    0    0  501  502 -0.00000000000E+00 -0.00000000000E+00 -0.29883223302E+03  0.29883223302E+03  0.00000000000E+00 0. -1.
         25    1    1    2    0    0  0.75957192568E+02 -0.35112807065E+02 -0.76969737879E+02  0.16897261575E+03  0.12500000000E+03 0.  0.
         25    1    1    2    0    0  0.20689578950E+02  0.12493713959E+03 -0.12136626483E+01  0.17794330699E+03  0.12500000000E+03 0.  0.
         25    1    1    2    0    0 -0.96646771518E+02 -0.89824332522E+02  0.94320341989E+01  0.18199717698E+03  0.12500000000E+03 0.  0.
</event>
<event>
 5    0  0.5590591E-005  0.3074259E+03  0.7546771E-02  0.1081586E+00
         21   -1    0    0  502  501  0.00000000000E+00  0.00000000000E+00  0.54983631012E+03  0.54983631012E+03  0.00000000000E+00 0. -1.
         21   -1    0    0  501  502 -0.00000000000E+00 -0.00000000000E+00 -0.17188881254E+03  0.17188881254E+03  0.00000000000E+00 0. -1.
         25    1    1    2    0    0  0.44975196000E+02  0.47641469834E+02 -0.70794251925E+01  0.14130674494E+03  0.12500000000E+03 0.  0.
         25    1    1    2    0    0 -0.13698610403E+02  0.10795525541E+03  0.33275307391E+03  0.37174130426E+03  0.12500000000E+03 0.  0.
         25    1    1    2    0    0 -0.31276585597E+02 -0.15559672525E+03  0.52273848868E+02  0.20867707346E+03  0.12500000000E+03 0.  0.
</event>
<event>
 5    0  0.5590591E-005  0.4679660E+03  0.7546771E-02  0.1022496E+00
         21   -1    0    0  502  501  0.00000000000E+00  0.00000000000E+00  0.56710814835E+03  0.56710814835E+03  0.00000000000E+00 0.  1.
         21   -1    0    0  501  502 -0.00000000000E+00 -0.00000000000E+00 -0.38615597745E+03  0.38615597745E+03  0.00000000000E+00 0.  1.
         25    1    1    2    0    0  0.38607042752E+03 -0.27368513023E+02  0.24637201012E+03  0.47552452921E+03  0.12500000000E+03 0.  0.
         25    1    1    2    0    0 -0.11740296694E+03 -0.19105446976E+02 -0.36815393782E+02  0.17643369284E+03  0.12500000000E+03 0.  0.
         25    1    1    2    0    0 -0.26866746058E+03  0.46473959999E+02 -0.28604445449E+02  0.30130590375E+03  0.12500000000E+03 0.  0.
</event>
<event>
 5    0  0.5621317E-005  0.2874547E+03  0.7546771E-02  0.1091686E+00
         21   -1    0    0  502  501  0.00000000000E+00  0.00000000000E+00  0.32765417144E+03  0.32765417144E+03  0.00000000000E+00 0. -1.
         21   -1    0    0  501  502 -0.00000000000E+00 -0.00000000000E+00 -0.25218731504E+03  0.25218731504E+03  0.00000000000E+00 0. -1.
         25    1    1    2    0    0  0.13472015769E+03  0.10711679427E+02  0.12730304900E+02  0.18453000197E+03  0.12500000000E+03 0.  0.
         25    1    1    2    0    0 -0.58261785955E+02  0.66020882078E+02  0.14487509027E+03  0.21063471782E+03  0.12500000000E+03 0.  0.
         25    1    1    2    0    0 -0.76458371736E+02 -0.76732561504E+02 -0.82138538766E+02  0.18467676669E+03  0.12500000000E+03 0.  0.
</event>
<event>
 5    0  0.5590591E-005  0.2993117E+03  0.7546771E-02  0.1085585E+00
         21   -1    0    0  502  501  0.00000000000E+00  0.00000000000E+00  0.61234701886E+02  0.61234701886E+02  0.00000000000E+00 0. -1.
         21   -1    0    0  501  502 -0.00000000000E+00 -0.00000000000E+00 -0.14630182886E+04  0.14630182886E+04  0.00000000000E+00 0. -1.
         25    1    1    2    0    0  0.24852037050E+01  0.50232616345E+01 -0.81719632678E+02  0.14944734109E+03  0.12500000000E+03 0.  0.
         25    1    1    2    0    0 -0.93810936306E+02  0.23339266433E+02 -0.26865092018E+03  0.31167856847E+03  0.12500000000E+03 0.  0.
         25    1    1    2    0    0  0.91325732601E+02 -0.28362528067E+02 -0.10514130339E+04  0.10631270810E+04  0.12500000000E+03 0.  0.
</event>
<event>
 5    0  0.5590591E-005  0.3041262E+03  0.7546771E-02  0.1083196E+00
         21   -1    0    0  502  501  0.00000000000E+00  0.00000000000E+00  0.32165829549E+03  0.32165829549E+03  0.00000000000E+00 0. -1.
         21   -1    0    0  501  502 -0.00000000000E+00 -0.00000000000E+00 -0.28754969710E+03  0.28754969710E+03  0.00000000000E+00 0. -1.
         25    1    1    2    0    0 -0.88561731178E+02 -0.63477049228E+02 -0.87263996294E+01  0.16605320249E+03  0.12500000000E+03 0.  0.
         25    1    1    2    0    0 -0.57159763117E+02  0.10961781645E+02 -0.12246933436E+03  0.18442108620E+03  0.12500000000E+03 0.  0.
         25    1    1    2    0    0  0.14572149429E+03  0.52515267583E+02  0.16530433238E+03  0.25873370390E+03  0.12500000000E+03 0.  0.
</event>
<event>
 5    0  0.5590591E-005  0.3907654E+03  0.7546771E-02  0.1047025E+00
         21   -1    0    0  502  501  0.00000000000E+00  0.00000000000E+00  0.19639560123E+03  0.19639560123E+03  0.00000000000E+00 0. -1.
         21   -1    0    0  501  502 -0.00000000000E+00 -0.00000000000E+00 -0.77749990450E+03  0.77749990450E+03  0.00000000000E+00 0. -1.
         25    1    1    2    0    0 -0.29044249181E+02 -0.19804052976E+03 -0.29510708002E+02  0.23782241637E+03  0.12500000000E+03 0.  0.
         25    1    1    2    0    0 -0.88381488628E+02 -0.85667685777E+01 -0.40262706984E+02  0.15852685145E+03  0.12500000000E+03 0.  0.
         25    1    1    2    0    0  0.11742573781E+03  0.20660729834E+03 -0.51133088828E+03  0.57754623792E+03  0.12500000000E+03 0.  0.
</event>
<event>
 5    0  0.5590591E-005  0.3282660E+03  0.7546771E-02  0.1071907E+00
         21   -1    0    0  502  501  0.00000000000E+00  0.00000000000E+00  0.11959999512E+04  0.11959999512E+04  0.00000000000E+00 0. -1.
         21   -1    0    0  501  502 -0.00000000000E+00 -0.00000000000E+00 -0.90099145565E+02  0.90099145565E+02  0.00000000000E+00 0. -1.
         25    1    1    2    0    0 -0.81471101069E+02 -0.34004443424E+02  0.47793257498E+03  0.50183502141E+03  0.12500000000E+03 0.  0.
         25    1    1    2    0    0  0.74765929041E+02  0.19340095497E+03  0.21310678277E+03  0.32254205058E+03  0.12500000000E+03 0.  0.
         25    1    1    2    0    0  0.67051720288E+01 -0.15939651155E+03  0.41486144790E+03  0.46172202479E+03  0.12500000000E+03 0.  0.
</event>
<event>
 5    0  0.5590591E-005  0.3601875E+03  0.7546771E-02  0.1058510E+00
         21   -1    0    0  502  501  0.00000000000E+00  0.00000000000E+00  0.91160035421E+03  0.91160035421E+03  0.00000000000E+00 0.  1.
         21   -1    0    0  501  502 -0.00000000000E+00 -0.00000000000E+00 -0.14231570722E+03  0.14231570722E+03  0.00000000000E+00 0.  1.
         25    1    1    2    0    0  0.43024530974E+02  0.10052080015E+03  0.12066723022E+03  0.20528302895E+03  0.12500000000E+03 0.  0.
         25    1    1    2    0    0  0.44496905143E+02  0.10152058100E+03  0.16724290576E+02  0.16790206917E+03  0.12500000000E+03 0.  0.
         25    1    1    2    0    0 -0.87521436117E+02 -0.20204138115E+03  0.63189312620E+03  0.68073096332E+03  0.12500000000E+03 0.  0.
</event>
<event>
 5    0  0.5590591E-005  0.3588060E+03  0.7546771E-02  0.1059058E+00
         21   -1    0    0  502  501  0.00000000000E+00  0.00000000000E+00  0.63916040235E+03  0.63916040235E+03  0.00000000000E+00 0. -1.
         21   -1    0    0  501  502 -0.00000000000E+00 -0.00000000000E+00 -0.20142326834E+03  0.20142326834E+03  0.00000000000E+00 0. -1.
         25    1    1    2    0    0  0.54833681068E+02 -0.22609182162E+03  0.24391393446E+03  0.35950417495E+03  0.12500000000E+03 0.  0.
         25    1    1    2    0    0 -0.71919948309E+02  0.25000826697E+03  0.20219423456E+03  0.35239767452E+03  0.12500000000E+03 0.  0.
         25    1    1    2    0    0  0.17086267242E+02 -0.23916445350E+02 -0.83710350044E+01  0.12868182122E+03  0.12500000000E+03 0.  0.
</event>
<event>
 5    0  0.5590591E-005  0.3464097E+03  0.7546771E-02  0.1064098E+00
         21   -1    0    0  502  501  0.00000000000E+00  0.00000000000E+00  0.12176115101E+04  0.12176115101E+04  0.00000000000E+00 0. -1.
         21   -1    0    0  501  502 -0.00000000000E+00 -0.00000000000E+00 -0.98553329625E+02  0.98553329625E+02  0.00000000000E+00 0. -1.
         25    1    1    2    0    0  0.14814408835E+03  0.16339945689E+03  0.23629526359E+03  0.34656385417E+03  0.12500000000E+03 0.  0.
         25    1    1    2    0    0 -0.46312574192E+02 -0.34860803131E+01  0.55542219950E+03  0.57120559082E+03  0.12500000000E+03 0.  0.
         25    1    1    2    0    0 -0.10183151416E+03 -0.15991337658E+03  0.32734071738E+03  0.39839539473E+03  0.12500000000E+03 0.  0.
</event>
<event>
 5    0  0.5590591E-005  0.2652830E+03  0.7546771E-02  0.1104010E+00
         21   -1    0    0  502  501  0.00000000000E+00  0.00000000000E+00  0.50565891997E+03  0.50565891997E+03  0.00000000000E+00 0.  1.
         21   -1    0    0  501  502 -0.00000000000E+00 -0.00000000000E+00 -0.13917501432E+03  0.13917501432E+03  0.00000000000E+00 0.  1.
         25    1    1    2    0    0 -0.78652040032E+02  0.47361465564E+01  0.76405492254E+02  0.16634714825E+03  0.12500000000E+03 0.  0.
         25    1    1    2    0    0  0.16656838898E+02 -0.13066093109E+03  0.85607366218E+02  0.20075694345E+03  0.12500000000E+03 0.  0.
         25    1    1    2    0    0  0.61995201133E+02  0.12592478453E+03  0.20447104718E+03  0.27772984258E+03  0.12500000000E+03 0.  0.
</event>
<event>
 5    0  0.5590591E-005  0.4765739E+03  0.7546771E-02  0.1020081E+00
         21   -1    0    0  502  501  0.00000000000E+00  0.00000000000E+00  0.97025624388E+03  0.97025624388E+03  0.00000000000E+00 0.  1.
         21   -1    0    0  501  502 -0.00000000000E+00 -0.00000000000E+00 -0.23408525247E+03  0.23408525247E+03  0.00000000000E+00 0.  1.
         25    1    1    2    0    0 -0.11070456620E+03 -0.20585309019E+03  0.10857574943E+03  0.28643444116E+03  0.12500000000E+03 0.  0.
         25    1    1    2    0    0 -0.11794903183E+03  0.33684893273E+03  0.35703423987E+03  0.52007463505E+03  0.12500000000E+03 0.  0.
         25    1    1    2    0    0  0.22865359803E+03 -0.13099584254E+03  0.27056100210E+03  0.39783242014E+03  0.12500000000E+03 0.  0.
</event>
<event>
 5    0  0.5590591E-005  0.2434447E+03  0.7546771E-02  0.1117519E+00
         21   -1    0    0  502  501  0.00000000000E+00  0.00000000000E+00  0.40705156973E+02  0.40705156973E+02  0.00000000000E+00 0.  1.
         21   -1    0    0  501  502 -0.00000000000E+00 -0.00000000000E+00 -0.14559653905E+04  0.14559653905E+04  0.00000000000E+00 0.  1.
         25    1    1    2    0    0 -0.67016871548E+02  0.18204428550E+02 -0.57721095292E+03  0.59465968962E+03  0.12500000000E+03 0.  0.
         25    1    1    2    0    0  0.64134836477E+02  0.53487009794E+02 -0.63786066987E+03  0.65533607533E+03  0.12500000000E+03 0.  0.
         25    1    1    2    0    0  0.28820350704E+01 -0.71691438344E+02 -0.20018861071E+03  0.24667478249E+03  0.12500000000E+03 0.  0.
</event>
<event>
 5    0  0.5590591E-005  0.2868015E+03  0.7546771E-02  0.1092031E+00
         21   -1    0    0  502  501  0.00000000000E+00  0.00000000000E+00  0.26140342107E+03  0.26140342107E+03  0.00000000000E+00 0. -1.
         21   -1    0    0  501  502 -0.00000000000E+00 -0.00000000000E+00 -0.31466737369E+03  0.31466737369E+03  0.00000000000E+00 0. -1.
         25    1    1    2    0    0  0.20948250519E+02 -0.83164172594E+02  0.68475375044E+02  0.16633997051E+03  0.12500000000E+03 0.  0.
         25    1    1    2    0    0  0.38463937259E+02  0.24993637569E+02  0.82209053471E+02  0.15648477517E+03  0.12500000000E+03 0.  0.
         25    1    1    2    0    0 -0.59412187778E+02  0.58170535025E+02 -0.20394838113E+03  0.25324604907E+03  0.12500000000E+03 0.  0.
</event>
<event>
 5    0  0.5633426E-005  0.3524663E+03  0.7546771E-02  0.1061607E+00
         21   -1    0    0  502  501  0.00000000000E+00  0.00000000000E+00  0.28379228399E+03  0.28379228399E+03  0.00000000000E+00 0.  1.
         21   -1    0    0  501  502 -0.00000000000E+00 -0.00000000000E+00 -0.43775851872E+03  0.43775851872E+03  0.00000000000E+00 0.  1.
         25    1    1    2    0    0 -0.37483678319E+01 -0.14169689868E+03  0.38573385731E+02  0.19288589229E+03  0.12500000000E+03 0.  0.
         25    1    1    2    0    0  0.96946386291E+02  0.25433575404E+03 -0.12871390194E+03  0.32600237139E+03  0.12500000000E+03 0.  0.
         25    1    1    2    0    0 -0.93198018459E+02 -0.11263885536E+03 -0.63825718522E+02  0.20266253903E+03  0.12500000000E+03 0.  0.
</event>
<event>
 5    0  0.5590591E-005  0.4742510E+03  0.7546771E-02  0.1020727E+00
         21   -1    0    0  502  501  0.00000000000E+00  0.00000000000E+00  0.49080229427E+03  0.49080229427E+03  0.00000000000E+00 0.  1.
         21   -1    0    0  501  502 -0.00000000000E+00 -0.00000000000E+00 -0.45825785457E+03  0.45825785457E+03  0.00000000000E+00 0.  1.
         25    1    1    2    0    0  0.98488308244E+02 -0.12040613713E+02 -0.16065164729E+03  0.22644839371E+03  0.12500000000E+03 0.  0.
         25    1    1    2    0    0  0.15871990551E+02 -0.40187541714E+02  0.41678403988E+03  0.43726524501E+03  0.12500000000E+03 0.  0.
         25    1    1    2    0    0 -0.11436029880E+03  0.52228155426E+02 -0.22358795289E+03  0.28534651012E+03  0.12500000000E+03 0.  0.
</event>
<event>
 5    0  0.5590591E-005  0.2220051E+03  0.7546771E-02  0.1132397E+00
         21   -1    0    0  502  501  0.00000000000E+00  0.00000000000E+00  0.77337952483E+02  0.77337952483E+02  0.00000000000E+00 0.  1.
         21   -1    0    0  501  502 -0.00000000000E+00 -0.00000000000E+00 -0.63728423487E+03  0.63728423487E+03  0.00000000000E+00 0.  1.
         25    1    1    2    0    0 -0.27111791556E+02 -0.51935729032E+02 -0.21023507363E+03  0.25150776405E+03  0.12500000000E+03 0.  0.
         25    1    1    2    0    0  0.18615894092E+02  0.10771771089E+03 -0.17957726989E+03  0.24458669754E+03  0.12500000000E+03 0.  0.
         25    1    1    2    0    0  0.84958974642E+01 -0.55781981861E+02 -0.17013393887E+03  0.21852772577E+03  0.12500000000E+03 0.  0.
</event>
<event>
 5    0  0.6246955E-005  0.2819789E+03  0.7546771E-02  0.1094613E+00
         21   -1    0    0  502  501  0.00000000000E+00  0.00000000000E+00  0.37472171859E+03  0.37472171859E+03  0.00000000000E+00 0.  1.
         21   -1    0    0  501  502 -0.00000000000E+00 -0.00000000000E+00 -0.21218968161E+03  0.21218968161E+03  0.00000000000E+00 0.  1.
         25    1    1    2    0    0  0.14706891412E+02 -0.61143169801E+02 -0.65575839822E+02  0.15453145517E+03  0.12500000000E+03 0.  0.
         25    1    1    2    0    0  0.30119751952E+02  0.92412780143E+02 -0.92454740908E+01  0.15861210604E+03  0.12500000000E+03 0.  0.
         25    1    1    2    0    0 -0.44826643363E+02 -0.31269610342E+02  0.23735335089E+03  0.27376783899E+03  0.12500000000E+03 0.  0.
</event>
<event>
 5    0  0.5590591E-005  0.2270415E+03  0.7546771E-02  0.1128740E+00
         21   -1    0    0  502  501  0.00000000000E+00  0.00000000000E+00  0.10037077038E+03  0.10037077038E+03  0.00000000000E+00 0. -1.
         21   -1    0    0  501  502 -0.00000000000E+00 -0.00000000000E+00 -0.51357436595E+03  0.51357436595E+03  0.00000000000E+00 0. -1.
         25    1    1    2    0    0 -0.54979449704E+02  0.33071344538E+02 -0.18502160291E+03  0.23232401353E+03  0.12500000000E+03 0.  0.
         25    1    1    2    0    0 -0.21481288274E+02 -0.81578417432E+02 -0.99554990850E+02  0.18070052612E+03  0.12500000000E+03 0.  0.
         25    1    1    2    0    0  0.76460737978E+02  0.48507072894E+02 -0.12862700181E+03  0.20092059667E+03  0.12500000000E+03 0.  0.
</event>
<event>
 5    0  0.5590591E-005  0.3136124E+03  0.7546771E-02  0.1078627E+00
         21   -1    0    0  502  501  0.00000000000E+00  0.00000000000E+00  0.17647437571E+03  0.17647437571E+03  0.00000000000E+00 0. -1.
         21   -1    0    0  501  502 -0.00000000000E+00 -0.00000000000E+00 -0.55732025613E+03  0.55732025613E+03  0.00000000000E+00 0. -1.
         25    1    1    2    0    0  0.96600991974E+02 -0.14026959108E+01 -0.23767666942E+03  0.28539256891E+03  0.12500000000E+03 0.  0.
         25    1    1    2    0    0  0.17877583375E+00 -0.11676814626E+03  0.43755770686E+02  0.17656273505E+03  0.12500000000E+03 0.  0.
         25    1    1    2    0    0 -0.96779767808E+02  0.11817084217E+03 -0.18692498170E+03  0.27183932787E+03  0.12500000000E+03 0.  0.
</event>
<event>
 5    0  0.5590591E-005  0.3047057E+03  0.7546771E-02  0.1082912E+00
         21   -1    0    0  502  501  0.00000000000E+00  0.00000000000E+00  0.14693555592E+04  0.14693555592E+04  0.00000000000E+00 0.  1.
         21   -1    0    0  501  502 -0.00000000000E+00 -0.00000000000E+00 -0.63187955294E+02  0.63187955294E+02  0.00000000000E+00 0.  1.
         25    1    1    2    0    0 -0.53217233539E+02  0.20472081031E+03  0.48436218300E+03  0.54311546511E+03  0.12500000000E+03 0.  0.
         25    1    1    2    0    0 -0.45539062811E+02 -0.11949241456E+03  0.45459526082E+03  0.48850188795E+03  0.12500000000E+03 0.  0.
         25    1    1    2    0    0  0.98756296349E+02 -0.85228395751E+02  0.46721016006E+03  0.50092616140E+03  0.12500000000E+03 0.  0.
</event>
<event>
 5    0  0.5590591E-005  0.3704414E+03  0.7546771E-02  0.1054524E+00
         21   -1    0    0  502  501  0.00000000000E+00  0.00000000000E+00  0.21764888217E+04  0.21764888217E+04  0.00000000000E+00 0.  1.
         21   -1    0    0  501  502 -0.00000000000E+00 -0.00000000000E+00 -0.63049626073E+02  0.63049626073E+02  0.00000000000E+00 0.  1.
         25    1    1    2    0    0  0.39651087407E+02 -0.16267821043E+03  0.14970048571E+04  0.15115174333E+04  0.12500000000E+03 0.  0.
         25    1    1    2    0    0  0.20577836357E+02 -0.45371817596E+02  0.17604942516E+03  0.22158621185E+03  0.12500000000E+03 0.  0.
         25    1    1    2    0    0 -0.60228923764E+02  0.20805002802E+03  0.44038491329E+03  0.50643480259E+03  0.12500000000E+03 0.  0.
</event>
<event>
 5    0  0.5590591E-005  0.2764711E+03  0.7546771E-02  0.1097632E+00
         21   -1    0    0  502  501  0.00000000000E+00  0.00000000000E+00  0.14789331986E+04  0.14789331986E+04  0.00000000000E+00 0.  1.
         21   -1    0    0  501  502 -0.00000000000E+00 -0.00000000000E+00 -0.51683372580E+02  0.51683372580E+02  0.00000000000E+00 0.  1.
         25    1    1    2    0    0 -0.16089035592E+02  0.19972190452E+02  0.53882737449E+03  0.55373069714E+03  0.12500000000E+03 0.  0.
         25    1    1    2    0    0  0.71845702084E+02  0.24173734638E+02  0.10404664155E+03  0.17943488505E+03  0.12500000000E+03 0.  0.
         25    1    1    2    0    0 -0.55756666492E+02 -0.44145925091E+02  0.78437580998E+03  0.79745098899E+03  0.12500000000E+03 0.  0.
</event>
<event>
 5    0  0.5590591E-005  0.4699637E+03  0.7546771E-02  0.1021930E+00
         21   -1    0    0  502  501  0.00000000000E+00  0.00000000000E+00  0.21822678556E+03  0.21822678556E+03  0.00000000000E+00 0.  1.
         21   -1    0    0  501  502 -0.00000000000E+00 -0.00000000000E+00 -0.10120934683E+04  0.10120934683E+04  0.00000000000E+00 0.  1.
         25    1    1    2    0    0 -0.21588565138E+03  0.30146165560E+03 -0.30367681720E+03  0.49530834192E+03  0.12500000000E+03 0.  0.
         25    1    1    2    0    0  0.17200483405E+03 -0.29292053144E+03 -0.19453874762E+03  0.41092386765E+03  0.12500000000E+03 0.  0.
         25    1    1    2    0    0  0.43880817328E+02 -0.85411241568E+01 -0.29565111793E+03  0.32408804431E+03  0.12500000000E+03 0.  0.
</event>
<event>
 5    0  0.5590591E-005  0.3079397E+03  0.7546771E-02  0.1081338E+00
         21   -1    0    0  502  501  0.00000000000E+00  0.00000000000E+00  0.10013397106E+04  0.10013397106E+04  0.00000000000E+00 0. -1.
         21   -1    0    0  501  502 -0.00000000000E+00 -0.00000000000E+00 -0.94700018404E+02  0.94700018404E+02  0.00000000000E+00 0. -1.
         25    1    1    2    0    0  0.33083433933E+02 -0.20655909056E+03  0.31937590095E+03  0.40173018009E+03  0.12500000000E+03 0.  0.
         25    1    1    2    0    0  0.61555285678E+02  0.12418353363E+03  0.36645708583E+03  0.41124980119E+03  0.12500000000E+03 0.  0.
         25    1    1    2    0    0 -0.94638719611E+02  0.82375556930E+02  0.22080670545E+03  0.28305974776E+03  0.12500000000E+03 0.  0.
</event>
<event>
 5    0  0.5590591E-005  0.5541405E+03  0.7546771E-02  0.1000540E+00
         21   -1    0    0  502  501  0.00000000000E+00  0.00000000000E+00  0.29108611697E+03  0.29108611697E+03  0.00000000000E+00 0. -1.
         21   -1    0    0  501  502 -0.00000000000E+00 -0.00000000000E+00 -0.10549169435E+04  0.10549169435E+04  0.00000000000E+00 0. -1.
         25    1    1    2    0    0  0.95287056520E+02  0.35625937383E+03 -0.17853711306E+03  0.42837000983E+03  0.12500000000E+03 0.  0.
         25    1    1    2    0    0 -0.34201919024E+02 -0.31634524107E+03 -0.66838554749E+03  0.75073851833E+03  0.12500000000E+03 0.  0.
         25    1    1    2    0    0 -0.61085137496E+02 -0.39914132758E+02  0.83091834052E+02  0.16689453227E+03  0.12500000000E+03 0.  0.
</event>
<event>
 5    0  0.5590591E-005  0.3209554E+03  0.7546771E-02  0.1075210E+00
         21   -1    0    0  502  501  0.00000000000E+00  0.00000000000E+00  0.11648771893E+03  0.11648771893E+03  0.00000000000E+00 0. -1.
         21   -1    0    0  501  502 -0.00000000000E+00 -0.00000000000E+00 -0.88431958472E+03  0.88431958472E+03  0.00000000000E+00 0. -1.
         25    1    1    2    0    0  0.11649217109E+03  0.27566739339E+02 -0.41354708475E+02  0.17794820302E+03  0.12500000000E+03 0.  0.
         25    1    1    2    0    0 -0.37492828484E+02 -0.78319996642E+02 -0.60783296506E+03  0.62659847389E+03  0.12500000000E+03 0.  0.
         25    1    1    2    0    0 -0.78999342608E+02  0.50753257304E+02 -0.11864419225E+03  0.19626062676E+03  0.12500000000E+03 0.  0.
</event>
<event>
 5    0  0.5590591E-005  0.3219567E+03  0.7546771E-02  0.1074752E+00
         21   -1    0    0  502  501  0.00000000000E+00  0.00000000000E+00  0.19802101178E+03  0.19802101178E+03  0.00000000000E+00 0.  1.
         21   -1    0    0  501  502 -0.00000000000E+00 -0.00000000000E+00 -0.52346004969E+03  0.52346004969E+03  0.00000000000E+00 0.  1.
         25    1    1    2    0    0 -0.15568488018E+03 -0.63546585531E+02 -0.74440313186E+02  0.22235626971E+03  0.12500000000E+03 0.  0.
         25    1    1    2    0    0  0.26411570440E+01 -0.11116537184E+03 -0.10735030427E+03  0.19878079242E+03  0.12500000000E+03 0.  0.
         25    1    1    2    0    0  0.15304372314E+03  0.17471195738E+03 -0.14364842045E+03  0.30034399934E+03  0.12500000000E+03 0.  0.
</event>
<event>
 5    0  0.5590591E-005  0.3995835E+03  0.7546771E-02  0.1043924E+00
         21   -1    0    0  502  501  0.00000000000E+00  0.00000000000E+00  0.37241127641E+03  0.37241127641E+03  0.00000000000E+00 0. -1.
         21   -1    0    0  501  502 -0.00000000000E+00 -0.00000000000E+00 -0.42873835809E+03  0.42873835809E+03  0.00000000000E+00 0. -1.
         25    1    1    2    0    0 -0.89070807857E+02 -0.10763561501E+03 -0.17047715076E+03  0.25339000249E+03  0.12500000000E+03 0.  0.
         25    1    1    2    0    0  0.90206436966E+02  0.18935899099E+03 -0.11841537284E+03  0.27136917522E+03  0.12500000000E+03 0.  0.
         25    1    1    2    0    0 -0.11356291095E+01 -0.81723375979E+02  0.23256544191E+03  0.27639045680E+03  0.12500000000E+03 0.  0.
</event>
<event>
 5    0  0.5590591E-005  0.2353242E+03  0.7546771E-02  0.1122947E+00
         21   -1    0    0  502  501  0.00000000000E+00  0.00000000000E+00  0.23747763437E+04  0.23747763437E+04  0.00000000000E+00 0. -1.
         21   -1    0    0  501  502 -0.00000000000E+00 -0.00000000000E+00 -0.23319025558E+02  0.23319025558E+02  0.00000000000E+00 0. -1.
         25    1    1    2    0    0 -0.70817238060E+02  0.83074305360E+02  0.11349920808E+04  0.11470607851E+04  0.12500000000E+03 0.  0.
         25    1    1    2    0    0  0.70341837725E+02 -0.57410291410E+02  0.50106433009E+03  0.52434185279E+03  0.12500000000E+03 0.  0.
         25    1    1    2    0    0  0.47540033562E+00 -0.25664013950E+02  0.71540090725E+03  0.72669273129E+03  0.12500000000E+03 0.  0.
</event>
