<event>
 5    0  0.5815084E-005  0.2523331E+03  0.7546771E-02  0.1111839E+00
         21   -1    0    0  502  501  0.00000000000E+00  0.00000000000E+00  0.62144249066E+03  0.62144249066E+03  0.00000000000E+00 0.  1.
         21   -1    0    0  501  502 -0.00000000000E+00 -0.00000000000E+00 -0.10245840252E+03  0.10245840252E+03  0.00000000000E+00 0.  1.
         25    1    1    2    0    0  0.90547823582E+02  0.18802786963E+02  0.14148341201E+03  0.21022609026E+03  0.12500000000E+03 0.  0.
         25    1    1    2    0    0  0.25960414974E+02 -0.11907339434E+02  0.38329615857E+02  0.13382782719E+03  0.12500000000E+03 0.  0.
         25    1    1    2    0    0 -0.11650823856E+03 -0.68954475292E+01  0.33917106027E+03  0.37984697573E+03  0.12500000000E+03 0.  0.
</event>
<event>
 5    0  0.5815084E-005  0.3557733E+03  0.7546771E-02  0.1060270E+00
         21   -1    0    0  502  501  0.00000000000E+00  0.00000000000E+00  0.25989991917E+03  0.25989991917E+03  0.00000000000E+00 0.  1.
         21   -1    0    0  501  502 -0.00000000000E+00 -0.00000000000E+00 -0.48701288516E+03  0.48701288516E+03  0.00000000000E+00 0.  1.
         25    1    1    2    0    0  0.15207524571E+03 -0.71364998144E+02  0.98786776823E+02  0.23152466520E+03  0.12500000000E+03 0.  0.
         25    1    1    2    0    0  0.19694488995E+02  0.12087850007E+03 -0.10087222809E+03  0.20198933406E+03  0.12500000000E+03 0.  0.
         25    1    1    2    0    0 -0.17176973471E+03 -0.49513501923E+02 -0.22502751472E+03  0.31339880507E+03  0.12500000000E+03 0.  0.
</event>
<event>
 5    0  0.5815084E-005  0.2818869E+03  0.7546771E-02  0.1094663E+00
         21   -1    0    0  502  501  0.00000000000E+00  0.00000000000E+00  0.22630728002E+03  0.22630728002E+03  0.00000000000E+00 0. -1.
         21   -1    0    0  501  502 -0.00000000000E+00 -0.00000000000E+00 -0.35111662534E+03  0.35111662534E+03  0.00000000000E+00 0. -1.
         25    1    1    2    0    0 -0.51997542466E+02 -0.79848041673E+02 -0.18197598779E+03  0.24045730248E+03  0.12500000000E+03 0.  0.
         25    1    1    2    0    0 -0.51826951610E+02  0.10751787568E+02 -0.31541519441E+02  0.13936104656E+03  0.12500000000E+03 0.  0.
         25    1    1    2    0    0  0.10382449408E+03  0.69096254105E+02  0.88708161918E+02  0.19760555633E+03  0.12500000000E+03 0.  0.
</event>
<event>
 5    0  0.6973111E-005  0.3312286E+03  0.7546771E-02  0.1070595E+00
         21   -1    0    0  502  501  0.00000000000E+00  0.00000000000E+00  0.44342162536E+03  0.44342162536E+03  0.00000000000E+00 0. -1.
         21   -1    0    0  501  502 -0.00000000000E+00 -0.00000000000E+00 -0.24742234045E+03  0.24742234045E+03  0.00000000000E+00 0. -1.
         25    1    1    2    0    0 -0.17594152964E+03 -0.38756296910E+01  0.16257634958E+02  0.21647113676E+03  0.12500000000E+03 0.  0.
         25    1    1    2    0    0  0.14808563171E+03 -0.71094686050E+02 -0.38973987501E+02  0.21006613341E+03  0.12500000000E+03 0.  0.
         25    1    1    2    0    0  0.27855897923E+02  0.74970315741E+02  0.21871563745E+03  0.26430669564E+03  0.12500000000E+03 0.  0.
</event>
<event>
 5    0  0.7521974E-005  0.2919756E+03  0.7546771E-02  0.1089322E+00
         21   -1    0    0  502  501  0.00000000000E+00  0.00000000000E+00  0.53611476370E+03  0.53611476370E+03  0.00000000000E+00 0.  1.
         21   -1    0    0  501  502 -0.00000000000E+00 -0.00000000000E+00 -0.15901396963E+03  0.15901396963E+03  0.00000000000E+00 0.  1.
         25    1    1    2    0    0 -0.36352670500E+02 -0.10906594454E+03  0.12773386549E+03  0.21250373480E+03  0.12500000000E+03 0.  0.
         25    1    1    2    0    0 -0.33344315328E+02  0.19446275719E+03  0.20346791710E+03  0.30976087646E+03  0.12500000000E+03 0.  0.
         25    1    1    2    0    0  0.69696985828E+02 -0.85396812655E+02  0.45899011484E+02  0.17286412207E+03  0.12500000000E+03 0.  0.
</event>
<event>
 5    0  0.5815084E-005  0.3143360E+03  0.7546771E-02  0.1078286E+00
         21   -1    0    0  502  501  0.00000000000E+00  0.00000000000E+00  0.20961147036E+03  0.20961147036E+03  0.00000000000E+00 0. -1.
         21   -1    0    0  501  502 -0.00000000000E+00 -0.00000000000E+00 -0.47138215869E+03  0.47138215869E+03  0.00000000000E+00 0. -1.
         25    1    1    2    0    0 -0.42872594060E+02 -0.50038682545E+02 -0.17150922643E+03  0.22222138471E+03  0.12500000000E+03 0.  0.
         25    1    1    2    0    0  0.56232627316E+02 -0.12517715918E+03 -0.14585645235E+03  0.23607315444E+03  0.12500000000E+03 0.  0.
         25    1    1    2    0    0 -0.13360033256E+02  0.17521584173E+03  0.55594990437E+02  0.22269908990E+03  0.12500000000E+03 0.  0.
</event>
<event>
 5    0  0.5815084E-005  0.2867736E+03  0.7546771E-02  0.1092046E+00
         21   -1    0    0  502  501  0.00000000000E+00  0.00000000000E+00  0.98080185220E+02  0.98080185220E+02  0.00000000000E+00 0. -1.
         21   -1    0    0  501  502 -0.00000000000E+00 -0.00000000000E+00 -0.83848840608E+03  0.83848840608E+03  0.00000000000E+00 0. -1.
         25    1    1    2    0    0 -0.70144804088E+02 -0.72122201090E+02 -0.12404199262E+03  0.20281351376E+03  0.12500000000E+03 0.  0.
         25    1    1    2    0    0  0.17304106506E+03  0.85052069665E+02 -0.29753339764E+03  0.37593641412E+03  0.12500000000E+03 0.  0.
         25    1    1    2    0    0 -0.10289626097E+03 -0.12929868576E+02 -0.31883283060E+03  0.35781866342E+03  0.12500000000E+03 0.  0.
</event>
<event>
 5    0  0.5815084E-005  0.3392278E+03  0.7546771E-02  0.1067125E+00
         21   -1    0    0  502  501  0.00000000000E+00  0.00000000000E+00  0.11207354492E+03  0.11207354492E+03  0.00000000000E+00 0. -1.
         21   -1    0    0  501  502 -0.00000000000E+00 -0.00000000000E+00 -0.10267858603E+04  0.10267858603E+04  0.00000000000E+00 0. -1.
         25    1    1    2    0    0  0.42397295783E+02 -0.12830252241E+03 -0.14651123373E+03  0.23526497732E+03  0.12500000000E+03 0.  0.
         25    1    1    2    0    0 -0.77869624248E+02  0.12295972670E+03 -0.87999091158E+02  0.21107252975E+03  0.12500000000E+03 0.  0.
         25    1    1    2    0    0  0.35472328465E+02  0.53427957092E+01 -0.68020199047E+03  0.69252189813E+03  0.12500000000E+03 0.  0.
</event>
<event>
 5    0  0.5815084E-005  0.5499484E+03  0.7546771E-02  0.1001506E+00
         21   -1    0    0  502  501  0.00000000000E+00  0.00000000000E+00  0.85088958197E+03  0.85088958197E+03  0.00000000000E+00 0. -1.
         21   -1    0    0  501  502 -0.00000000000E+00 -0.00000000000E+00 -0.35544362980E+03  0.35544362980E+03  0.00000000000E+00 0. -1.
         25    1    1    2    0    0  0.12668781388E+03  0.27108329868E+03 -0.18081353560E+03  0.37128761313E+03  0.12500000000E+03 0.  0.
         25    1    1    2    0    0 -0.89202632121E+02  0.34516044395E+02  0.20690552435E+03  0.25996800362E+03  0.12500000000E+03 0.  0.
         25    1    1    2    0    0 -0.37485181757E+02 -0.30559934307E+03  0.46935396341E+03  0.57507759503E+03  0.12500000000E+03 0.  0.
</event>
<event>
 5    0  0.5815084E-005  0.2900118E+03  0.7546771E-02  0.1090343E+00
         21   -1    0    0  502  501  0.00000000000E+00  0.00000000000E+00  0.41241424833E+03  0.41241424833E+03  0.00000000000E+00 0.  1.
         21   -1    0    0  501  502 -0.00000000000E+00 -0.00000000000E+00 -0.20393772788E+03  0.20393772788E+03  0.00000000000E+00 0.  1.
         25    1    1    2    0    0  0.15140239852E+03  0.57169431683E+02  0.16816326358E+03  0.26475443984E+03  0.12500000000E+03 0.  0.
         25    1    1    2    0    0 -0.86796906407E+02  0.13809141803E+02  0.10050698941E+03  0.18289628285E+03  0.12500000000E+03 0.  0.
         25    1    1    2    0    0 -0.64605492112E+02 -0.70978573487E+02 -0.60193732537E+02  0.16870125353E+03  0.12500000000E+03 0.  0.
</event>
<event>
 5    0  0.5815084E-005  0.3465245E+03  0.7546771E-02  0.1064051E+00
         21   -1    0    0  502  501  0.00000000000E+00  0.00000000000E+00  0.66800076655E+03  0.66800076655E+03  0.00000000000E+00 0. -1.
         21   -1    0    0  501  502 -0.00000000000E+00 -0.00000000000E+00 -0.17975914406E+03  0.17975914406E+03  0.00000000000E+00 0. -1.
         25    1    1    2    0    0  0.59606219477E+02  0.75576138286E+02 -0.23520090520E+02  0.15950814630E+03  0.12500000000E+03 0.  0.
         25    1    1    2    0    0 -0.28326131298E+02 -0.12736862710E+03  0.51863235070E+03  0.54920820467E+03  0.12500000000E+03 0.  0.
         25    1    1    2    0    0 -0.31280088179E+02  0.51792488814E+02 -0.68706376852E+01  0.13904355964E+03  0.12500000000E+03 0.  0.
</event>
<event>
 5    0  0.5815084E-005  0.2681903E+03  0.7546771E-02  0.1102320E+00
         21   -1    0    0  502  501  0.00000000000E+00  0.00000000000E+00  0.63125081894E+02  0.63125081894E+02  0.00000000000E+00 0. -1.
         21   -1    0    0  501  502 -0.00000000000E+00 -0.00000000000E+00 -0.11394208849E+04  0.11394208849E+04  0.00000000000E+00 0. -1.
         25    1    1    2    0    0  0.46869541348E+02  0.17365843559E+02 -0.39413981278E+03  0.41649672081E+03  0.12500000000E+03 0.  0.
         25    1    1    2    0    0 -0.10355745173E+03  0.79103161291E+02 -0.17340506764E+03  0.25035130001E+03  0.12500000000E+03 0.  0.
         25    1    1    2    0    0  0.56687910383E+02 -0.96469004849E+02 -0.50875092255E+03  0.53569794593E+03  0.12500000000E+03 0.  0.
</event>
<event>
 5    0  0.5815084E-005  0.4280187E+03  0.7546771E-02  0.1034488E+00
         21   -1    0    0  502  501  0.00000000000E+00  0.00000000000E+00  0.13458961877E+03  0.13458961877E+03  0.00000000000E+00 0. -1.
         21   -1    0    0  501  502 -0.00000000000E+00 -0.00000000000E+00 -0.13611750479E+04  0.13611750479E+04  0.00000000000E+00 0. -1.
         25    1    1    2    0    0 -0.11029300708E+03 -0.15993242728E+03 -0.54851221964E+03  0.59517525469E+03  0.12500000000E+03 0.  0.
         25    1    1    2    0    0 -0.73088209029E+02  0.17398803991E+03 -0.46602495885E+02  0.23110715470E+03  0.12500000000E+03 0.  0.
         25    1    1    2    0    0  0.18338121611E+03 -0.14055612624E+02 -0.63147071363E+03  0.66948225730E+03  0.12500000000E+03 0.  0.
</event>
<event>
 5    0  0.5815084E-005  0.2661522E+03  0.7546771E-02  0.1103502E+00
         21   -1    0    0  502  501  0.00000000000E+00  0.00000000000E+00  0.33711294691E+03  0.33711294691E+03  0.00000000000E+00 0. -1.
         21   -1    0    0  501  502 -0.00000000000E+00 -0.00000000000E+00 -0.21012839514E+03  0.21012839514E+03  0.00000000000E+00 0. -1.
         25    1    1    2    0    0 -0.52079127411E+02 -0.27336992568E+00  0.15634780051E+03  0.20683796791E+03  0.12500000000E+03 0.  0.
         25    1    1    2    0    0 -0.55873348177E+02 -0.76199901839E+02 -0.50248127100E+01  0.15677533231E+03  0.12500000000E+03 0.  0.
         25    1    1    2    0    0  0.10795247559E+03  0.76473271765E+02 -0.24338436026E+02  0.18362804183E+03  0.12500000000E+03 0.  0.
</event>
<event>
 5    0  0.5815084E-005  0.2414291E+03  0.7546771E-02  0.1118844E+00
         21   -1    0    0  502  501  0.00000000000E+00  0.00000000000E+00  0.18691559340E+03  0.18691559340E+03  0.00000000000E+00 0.  1.
         21   -1    0    0  501  502 -0.00000000000E+00 -0.00000000000E+00 -0.31184144183E+03  0.31184144183E+03  0.00000000000E+00 0.  1.
         25    1    1    2    0    0 -0.98578163717E+02  0.37120202638E+02 -0.53113648321E+02  0.17187676819E+03  0.12500000000E+03 0.  0.
         25    1    1    2    0    0  0.61442368029E+02 -0.64893169888E+02  0.33152427624E+02  0.15719532927E+03  0.12500000000E+03 0.  0.
         25    1    1    2    0    0  0.37135795688E+02  0.27772967250E+02 -0.10496462773E+03  0.16968493777E+03  0.12500000000E+03 0.  0.
</event>
<event>
 5    0  0.5815084E-005  0.2767795E+03  0.7546771E-02  0.1097461E+00
         21   -1    0    0  502  501  0.00000000000E+00  0.00000000000E+00  0.94314778118E+03  0.94314778118E+03  0.00000000000E+00 0.  1.
         21   -1    0    0  501  502 -0.00000000000E+00 -0.00000000000E+00 -0.81224717846E+02  0.81224717846E+02  0.00000000000E+00 0.  1.
         25    1    1    2    0    0 -0.13001616174E+03  0.85087519681E+02  0.15469585227E+03  0.25238838133E+03  0.12500000000E+03 0.  0.
         25    1    1    2    0    0  0.23945093966E+02 -0.62698637465E+01  0.27884611463E+03  0.30658250824E+03  0.12500000000E+03 0.  0.
         25    1    1    2    0    0  0.10607106777E+03 -0.78817655935E+02  0.42838109644E+03  0.46540160946E+03  0.12500000000E+03 0.  0.
</event>
<event>
 5    0  0.5815084E-005  0.3910913E+03  0.7546771E-02  0.1046909E+00
         21   -1    0    0  502  501  0.00000000000E+00  0.00000000000E+00  0.50052350311E+03  0.50052350311E+03  0.00000000000E+00 0.  1.
         21   -1    0    0  501  502 -0.00000000000E+00 -0.00000000000E+00 -0.30558481687E+03  0.30558481687E+03  0.00000000000E+00 0. -1.
         25    1    1    2    0    0  0.25767118721E+03  0.22308739541E+02  0.21368142089E+03  0.35801797471E+03  0.12500000000E+03 0.  0.
         25    1    1    2    0    0 -0.11306854983E+03  0.35352536742E+02 -0.13341674151E+03  0.21785161402E+03  0.12500000000E+03 0.  0.
         25    1    1    2    0    0 -0.14460263738E+03 -0.57661276283E+02  0.11467400686E+03  0.23023873125E+03  0.12500000000E+03 0.  0.
</event>
<event>
 5    0  0.5815084E-005  0.2494899E+03  0.7546771E-02  0.1113628E+00
         21   -1    0    0  502  501  0.00000000000E+00  0.00000000000E+00  0.10152869404E+03  0.10152869404E+03  0.00000000000E+00 0.  1.
         21   -1    0    0  501  502 -0.00000000000E+00 -0.00000000000E+00 -0.61307989026E+03  0.61307989026E+03  0.00000000000E+00 0.  1.
         25    1    1    2    0    0 -0.35097822090E+02 -0.10410719619E+03 -0.27966348894E+03  0.32543329956E+03  0.12500000000E+03 0.  0.
         25    1    1    2    0    0 -0.38274332493E+01 -0.90315834684E+00 -0.16835035945E+03  0.20971959486E+03  0.12500000000E+03 0.  0.
         25    1    1    2    0    0  0.38925255339E+02  0.10501035454E+03 -0.63537347831E+02  0.17945568989E+03  0.12500000000E+03 0.  0.
</event>
<event>
 5    0  0.5815084E-005  0.3125053E+03  0.7546771E-02  0.1079151E+00
         21   -1    0    0  502  501  0.00000000000E+00  0.00000000000E+00  0.65201284248E+03  0.65201284248E+03  0.00000000000E+00 0. -1.
         21   -1    0    0  501  502 -0.00000000000E+00 -0.00000000000E+00 -0.14978166828E+03  0.14978166828E+03  0.00000000000E+00 0. -1.
         25    1    1    2    0    0 -0.13736806606E+03  0.53118727434E+01  0.56309634343E+02  0.19414936643E+03  0.12500000000E+03 0.  0.
         25    1    1    2    0    0  0.22406088450E+03 -0.16512001870E+02  0.24279548546E+03  0.35362490569E+03  0.12500000000E+03 0.  0.
         25    1    1    2    0    0 -0.86692818434E+02  0.11200129126E+02  0.20312605439E+03  0.25402023863E+03  0.12500000000E+03 0.  0.
</event>
<event>
 5    0  0.3549109E-004  0.8797245E+03  0.7546771E-02  0.9451288E-01
         21   -1    0    0  502  501  0.00000000000E+00  0.00000000000E+00  0.19875329889E+04  0.19875329889E+04  0.00000000000E+00 0. -1.
         21   -1    0    0  501  502 -0.00000000000E+00 -0.00000000000E+00 -0.38938482187E+03  0.38938482187E+03  0.00000000000E+00 0. -1.
         25    1    1    2    0    0  0.36217735788E+03 -0.50330978136E+03  0.11680985758E+04  0.13283721080E+04  0.12500000000E+03 0.  0.
         25    1    1    2    0    0 -0.35933595477E+03  0.24409381788E+03  0.57085540467E+03  0.72815177907E+03  0.12500000000E+03 0.  0.
         25    1    1    2    0    0 -0.28414031064E+01  0.25921596348E+03 -0.14080581337E+03  0.32039392375E+03  0.12500000000E+03 0.  0.
</event>
<event>
 5    0  0.5815084E-005  0.3012707E+03  0.7546771E-02  0.1084607E+00
         21   -1    0    0  502  501  0.00000000000E+00  0.00000000000E+00  0.11497533485E+03  0.11497533485E+03  0.00000000000E+00 0. -1.
         21   -1    0    0  501  502 -0.00000000000E+00 -0.00000000000E+00 -0.78942169999E+03  0.78942169999E+03  0.00000000000E+00 0. -1.
         25    1    1    2    0    0  0.10431298772E+03 -0.67845463962E+02 -0.17935554509E+03  0.25155042823E+03  0.12500000000E+03 0.  0.
         25    1    1    2    0    0 -0.12399700222E+03 -0.70001445215E+00 -0.47618922643E+03  0.50769767179E+03  0.12500000000E+03 0.  0.
         25    1    1    2    0    0  0.19684014510E+02  0.68545478414E+02 -0.18901593622E+02  0.14514893482E+03  0.12500000000E+03 0.  0.
</event>
<event>
 5    0  0.5815084E-005  0.4280799E+03  0.7546771E-02  0.1034468E+00
         21   -1    0    0  502  501  0.00000000000E+00  0.00000000000E+00  0.78930720842E+03  0.78930720842E+03  0.00000000000E+00 0.  1.
         21   -1    0    0  501  502 -0.00000000000E+00 -0.00000000000E+00 -0.23216870262E+03  0.23216870262E+03  0.00000000000E+00 0.  1.
         25    1    1    2    0    0  0.30392851766E+02  0.39230981650E+02  0.32512049682E+03  0.35183964076E+03  0.12500000000E+03 0.  0.
         25    1    1    2    0    0  0.20139306510E+03  0.43474077545E+02  0.30054784458E+03  0.38523131878E+03  0.12500000000E+03 0.  0.
         25    1    1    2    0    0 -0.23178591686E+03 -0.82705059194E+02 -0.68529835592E+02  0.28440495150E+03  0.12500000000E+03 0.  0.
</event>
<event>
 5    0  0.5815084E-005  0.3605527E+03  0.7546771E-02  0.1058365E+00
         21   -1    0    0  502  501  0.00000000000E+00  0.00000000000E+00  0.58826376933E+02  0.58826376933E+02  0.00000000000E+00 0. -1.
         21   -1    0    0  501  502 -0.00000000000E+00 -0.00000000000E+00 -0.22098637734E+04  0.22098637734E+04  0.00000000000E+00 0. -1.
         25    1    1    2    0    0  0.13922582486E+03 -0.12394010045E+03 -0.11629638520E+04  0.11844217576E+04  0.12500000000E+03 0.  0.
         25    1    1    2    0    0 -0.13908622321E+03 -0.25845786533E+02 -0.21119787008E+03  0.28327111129E+03  0.12500000000E+03 0.  0.
         25    1    1    2    0    0 -0.13960165379E+00  0.14978588698E+03 -0.77687567443E+03  0.80099728148E+03  0.12500000000E+03 0.  0.
</event>
<event>
 5    0  0.5815084E-005  0.3659918E+03  0.7546771E-02  0.1056236E+00
         21   -1    0    0  502  501  0.00000000000E+00  0.00000000000E+00  0.95089319411E+02  0.95089319411E+02  0.00000000000E+00 0.  1.
         21   -1    0    0  501  502 -0.00000000000E+00 -0.00000000000E+00 -0.14086756847E+04  0.14086756847E+04  0.00000000000E+00 0.  1.
         25    1    1    2    0    0  0.12244746433E+03 -0.76536166950E+02 -0.31340507924E+03  0.36701350121E+03  0.12500000000E+03 0.  0.
         25    1    1    2    0    0 -0.25811479141E+03  0.15228332151E+03 -0.47868812602E+03  0.57842957873E+03  0.12500000000E+03 0.  0.
         25    1    1    2    0    0  0.13566732708E+03 -0.75747154557E+02 -0.52149316002E+03  0.55832192417E+03  0.12500000000E+03 0.  0.
</event>
<event>
 5    0  0.5815084E-005  0.3453167E+03  0.7546771E-02  0.1064554E+00
         21   -1    0    0  502  501  0.00000000000E+00  0.00000000000E+00  0.44173243022E+03  0.44173243022E+03  0.00000000000E+00 0.  1.
         21   -1    0    0  501  502 -0.00000000000E+00 -0.00000000000E+00 -0.26994535942E+03  0.26994535942E+03  0.00000000000E+00 0.  1.
         25    1    1    2    0    0  0.87498784789E+02  0.23372921950E+02 -0.13150845324E+02  0.15492022319E+03  0.12500000000E+03 0.  0.
         25    1    1    2    0    0 -0.13602922350E+03 -0.17671419563E+03 -0.33782583491E+02  0.25787229307E+03  0.12500000000E+03 0.  0.
         25    1    1    2    0    0  0.48530438713E+02  0.15334127368E+03  0.21872049961E+03  0.29888527339E+03  0.12500000000E+03 0.  0.
</event>
<event>
 5    0  0.5815084E-005  0.5309190E+03  0.7546771E-02  0.1006009E+00
         21   -1    0    0  502  501  0.00000000000E+00  0.00000000000E+00  0.25051348109E+03  0.25051348109E+03  0.00000000000E+00 0.  1.
         21   -1    0    0  501  502 -0.00000000000E+00 -0.00000000000E+00 -0.11251889699E+04  0.11251889699E+04  0.00000000000E+00 0.  1.
         25    1    1    2    0    0  0.39742956209E+02  0.43070898460E+02  0.11087928153E+03  0.17707009893E+03  0.12500000000E+03 0.  0.
         25    1    1    2    0    0 -0.21642019031E+02  0.17305615833E+03 -0.91318283564E+03  0.93805367769E+03  0.12500000000E+03 0.  0.
         25    1    1    2    0    0 -0.18100937178E+02 -0.21612705678E+03 -0.72371934701E+02  0.26057867436E+03  0.12500000000E+03 0.  0.
</event>
<event>
 5    0  0.5815084E-005  0.3833276E+03  0.7546771E-02  0.1049711E+00
         21   -1    0    0  502  501  0.00000000000E+00  0.00000000000E+00  0.33012282683E+03  0.33012282683E+03  0.00000000000E+00 0. -1.
         21   -1    0    0  501  502 -0.00000000000E+00 -0.00000000000E+00 -0.44510721862E+03  0.44510721862E+03  0.00000000000E+00 0. -1.
         25    1    1    2    0    0  0.19283550403E+03  0.27836204961E+02 -0.18637274156E+03  0.29718712071E+03  0.12500000000E+03 0.  0.
         25    1    1    2    0    0 -0.14885397237E+03  0.75008241351E+02  0.18238969465E+03  0.27690204419E+03  0.12500000000E+03 0.  0.
         25    1    1    2    0    0 -0.43981531656E+02 -0.10284444631E+03 -0.11100134488E+03  0.20114088055E+03  0.12500000000E+03 0.  0.
</event>
<event>
 5    0  0.5815084E-005  0.2461433E+03  0.7546771E-02  0.1115767E+00
         21   -1    0    0  502  501  0.00000000000E+00  0.00000000000E+00  0.43400720940E+03  0.43400720940E+03  0.00000000000E+00 0. -1.
         21   -1    0    0  501  502 -0.00000000000E+00 -0.00000000000E+00 -0.13959801529E+03  0.13959801529E+03  0.00000000000E+00 0. -1.
         25    1    1    2    0    0 -0.16322181686E+02  0.55220144111E+02  0.78594881839E+02  0.15848606684E+03  0.12500000000E+03 0.  0.
         25    1    1    2    0    0  0.11058321021E+02  0.64606900960E+02  0.19487727762E+03  0.24062105363E+03  0.12500000000E+03 0.  0.
         25    1    1    2    0    0  0.52638606650E+01 -0.11982704507E+03  0.20937034645E+02  0.17449810423E+03  0.12500000000E+03 0.  0.
</event>
<event>
 5    0  0.5815084E-005  0.3793857E+03  0.7546771E-02  0.1051161E+00
         21   -1    0    0  502  501  0.00000000000E+00  0.00000000000E+00  0.11896965648E+03  0.11896965648E+03  0.00000000000E+00 0.  1.
         21   -1    0    0  501  502 -0.00000000000E+00 -0.00000000000E+00 -0.12098339592E+04  0.12098339592E+04  0.00000000000E+00 0.  1.
         25    1    1    2    0    0 -0.54648507933E+02  0.28275394631E+03 -0.62387719414E+03  0.69841535417E+03  0.12500000000E+03 0.  0.
         25    1    1    2    0    0  0.10651417558E+03 -0.21464627412E+03 -0.27177174270E+03  0.38327949687E+03  0.12500000000E+03 0.  0.
         25    1    1    2    0    0 -0.51865667645E+02 -0.68107672192E+02 -0.19521536591E+03  0.24710876467E+03  0.12500000000E+03 0.  0.
</event>
<event>
 5    0  0.5815084E-005  0.4960419E+03  0.7546771E-02  0.1014817E+00
         21   -1    0    0  502  501  0.00000000000E+00  0.00000000000E+00  0.16861341723E+03  0.16861341723E+03  0.00000000000E+00 0. -1.
         21   -1    0    0  501  502 -0.00000000000E+00 -0.00000000000E+00 -0.14592997711E+04  0.14592997711E+04  0.00000000000E+00 0. -1.
         25    1    1    2    0    0 -0.36416410044E+02  0.31355493516E+03 -0.65020020890E+03  0.73350403130E+03  0.12500000000E+03 0.  0.
         25    1    1    2    0    0 -0.14924197138E+03 -0.14085139984E+03 -0.58364877904E+02  0.24727260631E+03  0.12500000000E+03 0.  0.
         25    1    1    2    0    0  0.18565838142E+03 -0.17270353532E+03 -0.58212126710E+03  0.64713655075E+03  0.12500000000E+03 0.  0.
</event>
<event>
 5    0  0.5815084E-005  0.5931594E+03  0.7546771E-02  0.9919701E-01
         21   -1    0    0  502  501  0.00000000000E+00  0.00000000000E+00  0.97925790292E+03  0.97925790292E+03  0.00000000000E+00 0. -1.
         21   -1    0    0  501  502 -0.00000000000E+00 -0.00000000000E+00 -0.35929047423E+03  0.35929047423E+03  0.00000000000E+00 0. -1.
         25    1    1    2    0    0 -0.42888263642E+02  0.13402933885E+03  0.30022800628E+03  0.35435169336E+03  0.12500000000E+03 0.  0.
         25    1    1    2    0    0  0.13003425902E+03 -0.47726543964E+03  0.32217548621E+02  0.51122810841E+03  0.12500000000E+03 0.  0.
         25    1    1    2    0    0 -0.87145995374E+02  0.34323610079E+03  0.28752187378E+03  0.47296857538E+03  0.12500000000E+03 0.  0.
</event>
<event>
 5    0  0.5815084E-005  0.2344883E+03  0.7546771E-02  0.1123520E+00
         21   -1    0    0  502  501  0.00000000000E+00  0.00000000000E+00  0.23592116609E+04  0.23592116609E+04  0.00000000000E+00 0. -1.
         21   -1    0    0  501  502 -0.00000000000E+00 -0.00000000000E+00 -0.23306409123E+02  0.23306409123E+02  0.00000000000E+00 0. -1.
         25    1    1    2    0    0 -0.53244831451E+02 -0.74159211917E+02  0.58934762221E+03  0.60933588487E+03  0.12500000000E+03 0.  0.
         25    1    1    2    0    0  0.45831723112E+02  0.56094608130E+01  0.12321147157E+04  0.12392996754E+04  0.12500000000E+03 0.  0.
         25    1    1    2    0    0  0.74131083399E+01  0.68549751104E+02  0.51444291390E+03  0.53388250975E+03  0.12500000000E+03 0.  0.
</event>
<event>
 5    0  0.5815084E-005  0.2616181E+03  0.7546771E-02  0.1106175E+00
         21   -1    0    0  502  501  0.00000000000E+00  0.00000000000E+00  0.31505751338E+03  0.31505751338E+03  0.00000000000E+00 0. -1.
         21   -1    0    0  501  502 -0.00000000000E+00 -0.00000000000E+00 -0.21724294425E+03  0.21724294425E+03  0.00000000000E+00 0. -1.
         25    1    1    2    0    0 -0.54524907061E+02  0.77511257266E+02 -0.79566980105E+02  0.17588878536E+03  0.12500000000E+03 0.  0.
         25    1    1    2    0    0  0.10117384297E+03 -0.60483333627E+02  0.12314083818E+03  0.21138364690E+03  0.12500000000E+03 0.  0.
         25    1    1    2    0    0 -0.46648935912E+02 -0.17027923639E+02  0.54240711049E+02  0.14502802536E+03  0.12500000000E+03 0.  0.
</event>
<event>
 5    0  0.5815084E-005  0.4640581E+03  0.7546771E-02  0.1023611E+00
         21   -1    0    0  502  501  0.00000000000E+00  0.00000000000E+00  0.38264481095E+04  0.38264481095E+04  0.00000000000E+00 0.  1.
         21   -1    0    0  501  502 -0.00000000000E+00 -0.00000000000E+00 -0.56279333615E+02  0.56279333615E+02  0.00000000000E+00 0.  1.
         25    1    1    2    0    0 -0.19255660275E+02 -0.56640188180E+02  0.56881483796E+03  0.58545214259E+03  0.12500000000E+03 0.  0.
         25    1    1    2    0    0  0.15932572787E+03 -0.21369134311E+03  0.25554306640E+04  0.25723334846E+04  0.12500000000E+03 0.  0.
         25    1    1    2    0    0 -0.14007006759E+03  0.27033153129E+03  0.64592327399E+03  0.72494181596E+03  0.12500000000E+03 0.  0.
</event>
<event>
 5    0  0.5815084E-005  0.2076000E+03  0.7546771E-02  0.1143481E+00
         21   -1    0    0  502  501  0.00000000000E+00  0.00000000000E+00  0.27176537404E+02  0.27176537404E+02  0.00000000000E+00 0. -1.
         21   -1    0    0  501  502 -0.00000000000E+00 -0.00000000000E+00 -0.15858445428E+04  0.15858445428E+04  0.00000000000E+00 0. -1.
         25    1    1    2    0    0 -0.18024117966E+02  0.10832089531E+02 -0.61597695464E+03  0.62888378230E+03  0.12500000000E+03 0.  0.
         25    1    1    2    0    0  0.30585616345E+02  0.71562270728E+00 -0.68777503472E+03  0.69971100493E+03  0.12500000000E+03 0.  0.
         25    1    1    2    0    0 -0.12561498379E+02 -0.11547712238E+02 -0.25491601602E+03  0.28442629295E+03  0.12500000000E+03 0.  0.
</event>
<event>
 5    0  0.7075852E-005  0.2554507E+03  0.7546771E-02  0.1109908E+00
         21   -1    0    0  502  501  0.00000000000E+00  0.00000000000E+00  0.38754749519E+03  0.38754749519E+03  0.00000000000E+00 0.  1.
         21   -1    0    0  501  502 -0.00000000000E+00 -0.00000000000E+00 -0.16837949278E+03  0.16837949278E+03  0.00000000000E+00 0.  1.
         25    1    1    2    0    0 -0.11249677938E+03  0.93814151953E+02  0.10925978637E+02  0.19287560107E+03  0.12500000000E+03 0.  0.
         25    1    1    2    0    0  0.51241513105E+02 -0.63437802072E+02  0.71192576013E+02  0.16535849019E+03  0.12500000000E+03 0.  0.
         25    1    1    2    0    0  0.61255266275E+02 -0.30376349882E+02  0.13704944776E+03  0.19769289671E+03  0.12500000000E+03 0.  0.
</event>
<event>
 5    0  0.5815084E-005  0.2421766E+03  0.7546771E-02  0.1118351E+00
         21   -1    0    0  502  501  0.00000000000E+00  0.00000000000E+00  0.35310574859E+03  0.35310574859E+03  0.00000000000E+00 0. -1.
         21   -1    0    0  501  502 -0.00000000000E+00 -0.00000000000E+00 -0.16609614075E+03  0.16609614075E+03  0.00000000000E+00 0. -1.
         25    1    1    2    0    0  0.10092989201E+03  0.62222646726E+02  0.76651163474E+02  0.18857068099E+03  0.12500000000E+03 0.  0.
         25    1    1    2    0    0 -0.12539223495E+03 -0.48373313708E+02  0.64124037689E+02  0.19442243254E+03  0.12500000000E+03 0.  0.
         25    1    1    2    0    0  0.24462342941E+02 -0.13849333018E+02  0.46234406681E+02  0.13620877581E+03  0.12500000000E+03 0.  0.
</event>
<event>
 5    0  0.5815084E-005  0.2843675E+03  0.7546771E-02  0.1093327E+00
         21   -1    0    0  502  501  0.00000000000E+00  0.00000000000E+00  0.58471050341E+03  0.58471050341E+03  0.00000000000E+00 0. -1.
         21   -1    0    0  501  502 -0.00000000000E+00 -0.00000000000E+00 -0.13829899157E+03  0.13829899157E+03  0.00000000000E+00 0. -1.
         25    1    1    2    0    0 -0.11294767920E+02 -0.29791574630E+02  0.75747219960E+02  0.14959194842E+03  0.12500000000E+03 0.  0.
         25    1    1    2    0    0 -0.14785096385E+03  0.10395092706E+03  0.15818939248E+03  0.27076666457E+03  0.12500000000E+03 0.  0.
         25    1    1    2    0    0  0.15914573177E+03 -0.74159352433E+02  0.21247489940E+03  0.30265088199E+03  0.12500000000E+03 0.  0.
</event>
<event>
 5    0  0.5815084E-005  0.2879713E+03  0.7546771E-02  0.1091413E+00
         21   -1    0    0  502  501  0.00000000000E+00  0.00000000000E+00  0.51492643742E+03  0.51492643742E+03  0.00000000000E+00 0. -1.
         21   -1    0    0  501  502 -0.00000000000E+00 -0.00000000000E+00 -0.16104722734E+03  0.16104722734E+03  0.00000000000E+00 0. -1.
         25    1    1    2    0    0 -0.39045516676E+02  0.56517860780E+02  0.68222173372E+02  0.15810782997E+03  0.12500000000E+03 0.  0.
         25    1    1    2    0    0  0.13610180061E+03 -0.15755352696E+03  0.14065395144E+03  0.28063383267E+03  0.12500000000E+03 0.  0.
         25    1    1    2    0    0 -0.97056283932E+02  0.10103566618E+03  0.14500308527E+03  0.23723200212E+03  0.12500000000E+03 0.  0.
</event>
<event>
 5    0  0.5815084E-005  0.4995895E+03  0.7546771E-02  0.1013886E+00
         21   -1    0    0  502  501  0.00000000000E+00  0.00000000000E+00  0.22627469262E+03  0.22627469262E+03  0.00000000000E+00 0. -1.
         21   -1    0    0  501  502 -0.00000000000E+00 -0.00000000000E+00 -0.11030382477E+04  0.11030382477E+04  0.00000000000E+00 0. -1.
         25    1    1    2    0    0  0.25622525957E+02 -0.20268971666E+03  0.76487416473E+02  0.25142585379E+03  0.12500000000E+03 0.  0.
         25    1    1    2    0    0 -0.20121235054E+03  0.12555382584E+03 -0.59684721061E+03  0.65429486167E+03  0.12500000000E+03 0.  0.
         25    1    1    2    0    0  0.17558982458E+03  0.77135890824E+02 -0.35640376096E+03  0.42359222488E+03  0.12500000000E+03 0.  0.
</event>
<event>
 5    0  0.5815084E-005  0.3012826E+03  0.7546771E-02  0.1084601E+00
         21   -1    0    0  502  501  0.00000000000E+00  0.00000000000E+00  0.36995376040E+03  0.36995376040E+03  0.00000000000E+00 0.  1.
         21   -1    0    0  501  502 -0.00000000000E+00 -0.00000000000E+00 -0.24535818214E+03  0.24535818214E+03  0.00000000000E+00 0.  1.
         25    1    1    2    0    0  0.18448235894E+03 -0.59131159753E+02  0.23344469298E+02  0.23173303403E+03  0.12500000000E+03 0.  0.
         25    1    1    2    0    0 -0.96460361482E+02  0.12121078132E+03  0.21191035761E+02  0.20017670904E+03  0.12500000000E+03 0.  0.
         25    1    1    2    0    0 -0.88021997455E+02 -0.62079621565E+02  0.80060073204E+02  0.18340219947E+03  0.12500000000E+03 0.  0.
</event>
<event>
 5    0  0.5815084E-005  0.2214378E+03  0.7546771E-02  0.1132816E+00
         21   -1    0    0  502  501  0.00000000000E+00  0.00000000000E+00  0.23526686010E+03  0.23526686010E+03  0.00000000000E+00 0.  1.
         21   -1    0    0  501  502 -0.00000000000E+00 -0.00000000000E+00 -0.20842161996E+03  0.20842161996E+03  0.00000000000E+00 0.  1.
         25    1    1    2    0    0 -0.34688923340E+02 -0.47034733708E+02 -0.26662303584E+02  0.14053990896E+03  0.12500000000E+03 0.  0.
         25    1    1    2    0    0 -0.15306568680E+02 -0.46566363676E+02  0.19262377586E+02  0.13564201584E+03  0.12500000000E+03 0.  0.
         25    1    1    2    0    0  0.49995492020E+02  0.93601097384E+02  0.34245166135E+02  0.16750655527E+03  0.12500000000E+03 0.  0.
</event>
<event>
 5    0  0.5815084E-005  0.2816266E+03  0.7546771E-02  0.1094804E+00
         21   -1    0    0  502  501  0.00000000000E+00  0.00000000000E+00  0.44861447771E+03  0.44861447771E+03  0.00000000000E+00 0. -1.
         21   -1    0    0  501  502 -0.00000000000E+00 -0.00000000000E+00 -0.17679664157E+03  0.17679664157E+03  0.00000000000E+00 0. -1.
         25    1    1    2    0    0  0.75454723480E+02 -0.61614745192E+02  0.22167571382E+03  0.27249754901E+03  0.12500000000E+03 0.  0.
         25    1    1    2    0    0 -0.13746296610E+03 -0.19064950654E+02  0.42519178166E+02  0.19155265569E+03  0.12500000000E+03 0.  0.
         25    1    1    2    0    0  0.62008242616E+02  0.80679695846E+02  0.76229441623E+01  0.16136091457E+03  0.12500000000E+03 0.  0.
</event>
<event>
 5    0  0.5815084E-005  0.3251848E+03  0.7546771E-02  0.1073288E+00
         21   -1    0    0  502  501  0.00000000000E+00  0.00000000000E+00  0.11107112769E+04  0.11107112769E+04  0.00000000000E+00 0. -1.
         21   -1    0    0  501  502 -0.00000000000E+00 -0.00000000000E+00 -0.95204875640E+02  0.95204875640E+02  0.00000000000E+00 0. -1.
         25    1    1    2    0    0  0.75148275553E+02 -0.54595140111E+02  0.33214381065E+03  0.36684111492E+03  0.12500000000E+03 0.  0.
         25    1    1    2    0    0  0.88865755621E+02 -0.94544023366E+02  0.48193671209E+03  0.51451306042E+03  0.12500000000E+03 0.  0.
         25    1    1    2    0    0 -0.16401403117E+03  0.14913916348E+03  0.20142587849E+03  0.32456197718E+03  0.12500000000E+03 0.  0.
</event>
<event>
 5    0  0.5815084E-005  0.3061169E+03  0.7546771E-02  0.1082222E+00
         21   -1    0    0  502  501  0.00000000000E+00  0.00000000000E+00  0.14961042186E+03  0.14961042186E+03  0.00000000000E+00 0. -1.
         21   -1    0    0  501  502 -0.00000000000E+00 -0.00000000000E+00 -0.62634374450E+03  0.62634374450E+03  0.00000000000E+00 0. -1.
         25    1    1    2    0    0  0.13885577243E+03 -0.39017547666E+02 -0.39645588291E+03  0.44000632002E+03  0.12500000000E+03 0.  0.
         25    1    1    2    0    0 -0.77599410233E+02 -0.19859573050E+02 -0.10628356226E+03  0.18258495753E+03  0.12500000000E+03 0.  0.
         25    1    1    2    0    0 -0.61256362196E+02  0.58877120716E+02  0.26006122527E+02  0.15336288880E+03  0.12500000000E+03 0.  0.
</event>
<event>
 5    0  0.5815084E-005  0.4100999E+03  0.7546771E-02  0.1040337E+00
         21   -1    0    0  502  501  0.00000000000E+00  0.00000000000E+00  0.19674386048E+03  0.19674386048E+03  0.00000000000E+00 0. -1.
         21   -1    0    0  501  502 -0.00000000000E+00 -0.00000000000E+00 -0.85482698449E+03  0.85482698449E+03  0.00000000000E+00 0. -1.
         25    1    1    2    0    0 -0.27230906423E+03  0.11267047726E+02 -0.18040275959E+03  0.34992760465E+03  0.12500000000E+03 0.  0.
         25    1    1    2    0    0  0.10611880851E+03 -0.17648872516E+03 -0.28689552185E+03  0.37462449477E+03  0.12500000000E+03 0.  0.
         25    1    1    2    0    0  0.16619025572E+03  0.16522167743E+03 -0.19078484256E+03  0.32701874555E+03  0.12500000000E+03 0.  0.
</event>
<event>
 5    0  0.5815084E-005  0.2804290E+03  0.7546771E-02  0.1095455E+00
         21   -1    0    0  502  501  0.00000000000E+00  0.00000000000E+00  0.43429660134E+02  0.43429660134E+02  0.00000000000E+00 0. -1.
         21   -1    0    0  501  502 -0.00000000000E+00 -0.00000000000E+00 -0.18107536813E+04  0.18107536813E+04  0.00000000000E+00 0. -1.
         25    1    1    2    0    0  0.80979766291E+02  0.10794023291E+03 -0.62023596861E+03  0.64693622034E+03  0.12500000000E+03 0.  0.
         25    1    1    2    0    0  0.47248402691E+02 -0.24851344241E+02 -0.76699730465E+03  0.77894792265E+03  0.12500000000E+03 0.  0.
         25    1    1    2    0    0 -0.12822816898E+03 -0.83088888667E+02 -0.38009074790E+03  0.42829919844E+03  0.12500000000E+03 0.  0.
</event>
<event>
 5    0  0.5815084E-005  0.2970340E+03  0.7546771E-02  0.1086733E+00
         21   -1    0    0  502  501  0.00000000000E+00  0.00000000000E+00  0.79289583755E+03  0.79289583755E+03  0.00000000000E+00 0. -1.
         21   -1    0    0  501  502 -0.00000000000E+00 -0.00000000000E+00 -0.11127462107E+03  0.11127462107E+03  0.00000000000E+00 0. -1.
         25    1    1    2    0    0  0.16389721999E+03 -0.12991422331E+02  0.22322178617E+03  0.30411188993E+03  0.12500000000E+03 0.  0.
         25    1    1    2    0    0 -0.20624433841E+03  0.17302178889E+01  0.36691002549E+03  0.43907594740E+03  0.12500000000E+03 0.  0.
         25    1    1    2    0    0  0.42347118423E+02  0.11261204442E+02  0.91489404820E+02  0.16098262129E+03  0.12500000000E+03 0.  0.
</event>
<event>
 5    0  0.5815084E-005  0.3119270E+03  0.7546771E-02  0.1079426E+00
         21   -1    0    0  502  501  0.00000000000E+00  0.00000000000E+00  0.53193827459E+03  0.53193827459E+03  0.00000000000E+00 0.  1.
         21   -1    0    0  501  502 -0.00000000000E+00 -0.00000000000E+00 -0.18291303789E+03  0.18291303789E+03  0.00000000000E+00 0.  1.
         25    1    1    2    0    0 -0.11989261916E+02 -0.12369227925E+03  0.38811794931E+03  0.42626759779E+03  0.12500000000E+03 0.  0.
         25    1    1    2    0    0  0.21903413337E+02  0.70171590962E+02 -0.45823042677E+02  0.15208077766E+03  0.12500000000E+03 0.  0.
         25    1    1    2    0    0 -0.99141514201E+01  0.53520688290E+02  0.67303300651E+01  0.13650293702E+03  0.12500000000E+03 0.  0.
</event>
<event>
 5    0  0.5815084E-005  0.4811605E+03  0.7546771E-02  0.1018817E+00
         21   -1    0    0  502  501  0.00000000000E+00  0.00000000000E+00  0.11975644783E+04  0.11975644783E+04  0.00000000000E+00 0. -1.
         21   -1    0    0  501  502 -0.00000000000E+00 -0.00000000000E+00 -0.19332190830E+03  0.19332190830E+03  0.00000000000E+00 0. -1.
         25    1    1    2    0    0 -0.56131155322E+02 -0.31083209048E+01  0.68370620847E+03  0.69730878939E+03  0.12500000000E+03 0.  0.
         25    1    1    2    0    0  0.23322674176E+03  0.11618320295E+03 -0.18120677766E+01  0.28900092268E+03  0.12500000000E+03 0.  0.
         25    1    1    2    0    0 -0.17709558644E+03 -0.11307488204E+03  0.32234842927E+03  0.40457667449E+03  0.12500000000E+03 0.  0.
</event>
<event>
 5    0  0.5815084E-005  0.3497597E+03  0.7546771E-02  0.1062714E+00
         21   -1    0    0  502  501  0.00000000000E+00  0.00000000000E+00  0.28567316838E+03  0.28567316838E+03  0.00000000000E+00 0.  1.
         21   -1    0    0  501  502 -0.00000000000E+00 -0.00000000000E+00 -0.42822311204E+03  0.42822311204E+03  0.00000000000E+00 0. -1.
         25    1    1    2    0    0 -0.35527123479E+02 -0.19247571470E+02 -0.29140996313E+02  0.13456167053E+03  0.12500000000E+03 0.  0.
         25    1    1    2    0    0 -0.23383880817E+03  0.35349405528E+02 -0.84565109269E+02  0.28054665634E+03  0.12500000000E+03 0.  0.
         25    1    1    2    0    0  0.26936593165E+03 -0.16101834059E+02 -0.28843838080E+02  0.29878795355E+03  0.12500000000E+03 0.  0.
</event>
<event>
 5    0  0.5815084E-005  0.2871950E+03  0.7546771E-02  0.1091823E+00
         21   -1    0    0  502  501  0.00000000000E+00  0.00000000000E+00  0.16104267186E+04  0.16104267186E+04  0.00000000000E+00 0. -1.
         21   -1    0    0  501  502 -0.00000000000E+00 -0.00000000000E+00 -0.51216843181E+02  0.51216843181E+02  0.00000000000E+00 0. -1.
         25    1    1    2    0    0  0.87244023029E+02 -0.70462436405E+02  0.38221875566E+03  0.41748371427E+03  0.12500000000E+03 0.  0.
         25    1    1    2    0    0 -0.13245082724E+03 -0.71547902524E+02  0.43295925116E+03  0.47512212867E+03  0.12500000000E+03 0.  0.
         25    1    1    2    0    0  0.45206804208E+02  0.14201033893E+03  0.74403186857E+03  0.76903771881E+03  0.12500000000E+03 0.  0.
</event>
<event>
 5    0  0.5815084E-005  0.3463349E+03  0.7546771E-02  0.1064129E+00
         21   -1    0    0  502  501  0.00000000000E+00  0.00000000000E+00  0.15265408779E+03  0.15265408779E+03  0.00000000000E+00 0. -1.
         21   -1    0    0  501  502 -0.00000000000E+00 -0.00000000000E+00 -0.78574952293E+03  0.78574952293E+03  0.00000000000E+00 0. -1.
         25    1    1    2    0    0 -0.12973871170E+03 -0.57227891650E+02 -0.39198066519E+03  0.43517928119E+03  0.12500000000E+03 0.  0.
         25    1    1    2    0    0  0.10744792314E+03 -0.17748393669E+02  0.53136456466E+02  0.17409349405E+03  0.12500000000E+03 0.  0.
         25    1    1    2    0    0  0.22290788566E+02  0.74976285319E+02 -0.29425122642E+03  0.32913083549E+03  0.12500000000E+03 0.  0.
</event>
<event>
 5    0  0.5815084E-005  0.2335312E+03  0.7546771E-02  0.1124179E+00
         21   -1    0    0  502  501  0.00000000000E+00  0.00000000000E+00  0.15176903207E+04  0.15176903207E+04  0.00000000000E+00 0.  1.
         21   -1    0    0  501  502 -0.00000000000E+00 -0.00000000000E+00 -0.35934075809E+02  0.35934075809E+02  0.00000000000E+00 0.  1.
         25    1    1    2    0    0 -0.51754085304E+02  0.25902194300E+01  0.70760694490E+03  0.72042888827E+03  0.12500000000E+03 0.  0.
         25    1    1    2    0    0 -0.20836170679E+02 -0.50034888211E+02  0.22203213968E+03  0.26050126122E+03  0.12500000000E+03 0.  0.
         25    1    1    2    0    0  0.72590255982E+02  0.47444668781E+02  0.55211716033E+03  0.57269424704E+03  0.12500000000E+03 0.  0.
</event>
<event>
 5    0  0.5815084E-005  0.2760454E+03  0.7546771E-02  0.1097869E+00
         21   -1    0    0  502  501  0.00000000000E+00  0.00000000000E+00  0.84875162566E+02  0.84875162566E+02  0.00000000000E+00 0.  1.
         21   -1    0    0  501  502 -0.00000000000E+00 -0.00000000000E+00 -0.89780152337E+03  0.89780152337E+03  0.00000000000E+00 0.  1.
         25    1    1    2    0    0  0.16184006540E+02 -0.29232681423E+02 -0.19932014734E+03  0.23763415762E+03  0.12500000000E+03 0.  0.
         25    1    1    2    0    0  0.61924324395E+01 -0.26283920336E+02 -0.59092769273E+03  0.60460708623E+03  0.12500000000E+03 0.  0.
         25    1    1    2    0    0 -0.22376438979E+02  0.55516601759E+02 -0.22678520739E+02  0.14043544209E+03  0.12500000000E+03 0.  0.
</event>
<event>
 5    0  0.5815084E-005  0.2861932E+03  0.7546771E-02  0.1092354E+00
         21   -1    0    0  502  501  0.00000000000E+00  0.00000000000E+00  0.26873095688E+03  0.26873095688E+03  0.00000000000E+00 0. -1.
         21   -1    0    0  501  502 -0.00000000000E+00 -0.00000000000E+00 -0.30479011661E+03  0.30479011661E+03  0.00000000000E+00 0. -1.
         25    1    1    2    0    0 -0.10543791954E+03  0.54746377412E+02 -0.16665452082E+03  0.23981878581E+03  0.12500000000E+03 0.  0.
         25    1    1    2    0    0  0.13909783762E+02 -0.23260374492E+02 -0.11501801187E+01  0.12790953843E+03  0.12500000000E+03 0.  0.
         25    1    1    2    0    0  0.91528135778E+02 -0.31486002919E+02  0.13174554120E+03  0.20579274926E+03  0.12500000000E+03 0.  0.
</event>
<event>
 5    0  0.5815084E-005  0.2285740E+03  0.7546771E-02  0.1127648E+00
         21   -1    0    0  502  501  0.00000000000E+00  0.00000000000E+00  0.34344537035E+03  0.34344537035E+03  0.00000000000E+00 0.  1.
         21   -1    0    0  501  502 -0.00000000000E+00 -0.00000000000E+00 -0.15212334986E+03  0.15212334986E+03  0.00000000000E+00 0.  1.
         25    1    1    2    0    0 -0.53556611045E+02  0.23815708494E+02 -0.33064953959E+02  0.14196404382E+03  0.12500000000E+03 0.  0.
         25    1    1    2    0    0 -0.19524888060E+02 -0.80403805399E+01  0.11848816597E+03  0.17352323893E+03  0.12500000000E+03 0.  0.
         25    1    1    2    0    0  0.73081499104E+02 -0.15775327954E+02  0.10589880848E+03  0.18008143747E+03  0.12500000000E+03 0.  0.
</event>
<event>
 5    0  0.5815084E-005  0.3430315E+03  0.7546771E-02  0.1065512E+00
         21   -1    0    0  502  501  0.00000000000E+00  0.00000000000E+00  0.80982572083E+03  0.80982572083E+03  0.00000000000E+00 0.  1.
         21   -1    0    0  501  502 -0.00000000000E+00 -0.00000000000E+00 -0.14530364593E+03  0.14530364593E+03  0.00000000000E+00 0.  1.
         25    1    1    2    0    0  0.99577005547E+02  0.60268852476E+02  0.18445785935E+03  0.25139136121E+03  0.12500000000E+03 0.  0.
         25    1    1    2    0    0 -0.24650954328E+03 -0.60927962986E+02  0.14721010147E+03  0.31902192021E+03  0.12500000000E+03 0.  0.
         25    1    1    2    0    0  0.14693253773E+03  0.65911051001E+00  0.33285411407E+03  0.38471608534E+03  0.12500000000E+03 0.  0.
</event>
<event>
 5    0  0.5815084E-005  0.3102128E+03  0.7546771E-02  0.1080244E+00
         21   -1    0    0  502  501  0.00000000000E+00  0.00000000000E+00  0.18484621996E+03  0.18484621996E+03  0.00000000000E+00 0. -1.
         21   -1    0    0  501  502 -0.00000000000E+00 -0.00000000000E+00 -0.52060555952E+03  0.52060555952E+03  0.00000000000E+00 0. -1.
         25    1    1    2    0    0  0.12498341026E+03 -0.10264895011E+03 -0.22452615138E+02  0.20563749591E+03  0.12500000000E+03 0.  0.
         25    1    1    2    0    0 -0.98628151120E+02 -0.65005126518E+02 -0.95504284746E+02  0.19672124205E+03  0.12500000000E+03 0.  0.
         25    1    1    2    0    0 -0.26355259138E+02  0.16765407663E+03 -0.21780243967E+03  0.30309304152E+03  0.12500000000E+03 0.  0.
</event>
<event>
 5    0  0.5991926E-005  0.2973906E+03  0.7546771E-02  0.1086552E+00
         21   -1    0    0  502  501  0.00000000000E+00  0.00000000000E+00  0.42128931965E+03  0.42128931965E+03  0.00000000000E+00 0. -1.
         21   -1    0    0  501  502 -0.00000000000E+00 -0.00000000000E+00 -0.20992972397E+03  0.20992972397E+03  0.00000000000E+00 0. -1.
         25    1    1    2    0    0  0.67436071099E+02 -0.66374761123E+02  0.29776186426E+03  0.33651205091E+03  0.12500000000E+03 0.  0.
         25    1    1    2    0    0 -0.58169766059E+02  0.88549825066E+01 -0.72701270402E+02  0.15611728641E+03  0.12500000000E+03 0.  0.
         25    1    1    2    0    0 -0.92663050404E+01  0.57519778617E+02 -0.13700998179E+02  0.13858970630E+03  0.12500000000E+03 0.  0.
</event>
<event>
 5    0  0.5815084E-005  0.4307957E+03  0.7546771E-02  0.1033609E+00
         21   -1    0    0  502  501  0.00000000000E+00  0.00000000000E+00  0.57555750890E+03  0.57555750890E+03  0.00000000000E+00 0. -1.
         21   -1    0    0  501  502 -0.00000000000E+00 -0.00000000000E+00 -0.32244376368E+03  0.32244376368E+03  0.00000000000E+00 0. -1.
         25    1    1    2    0    0  0.33063755186E+03  0.57891026602E+02  0.10017277345E+03  0.37193029751E+03  0.12500000000E+03 0.  0.
         25    1    1    2    0    0 -0.14700024868E+03 -0.91977748688E+02 -0.54095293781E+02  0.22050006843E+03  0.12500000000E+03 0.  0.
         25    1    1    2    0    0 -0.18363730318E+03  0.34086722086E+02  0.20703626555E+03  0.30557090665E+03  0.12500000000E+03 0.  0.
</event>
<event>
 5    0  0.5815084E-005  0.3162749E+03  0.7546771E-02  0.1077377E+00
         21   -1    0    0  502  501  0.00000000000E+00  0.00000000000E+00  0.30759935501E+03  0.30759935501E+03  0.00000000000E+00 0.  1.
         21   -1    0    0  501  502 -0.00000000000E+00 -0.00000000000E+00 -0.32519510476E+03  0.32519510476E+03  0.00000000000E+00 0.  1.
         25    1    1    2    0    0 -0.51697535501E+02 -0.11300528949E+03 -0.99035345499E+02  0.20217771956E+03  0.12500000000E+03 0.  0.
         25    1    1    2    0    0 -0.54497854629E+01 -0.10543551653E+03  0.47063450540E+02  0.17025368332E+03  0.12500000000E+03 0.  0.
         25    1    1    2    0    0  0.57147320964E+02  0.21844080602E+03  0.34376145209E+02  0.26036305688E+03  0.12500000000E+03 0.  0.
</event>
<event>
 5    0  0.5815084E-005  0.3074292E+03  0.7546771E-02  0.1081585E+00
         21   -1    0    0  502  501  0.00000000000E+00  0.00000000000E+00  0.32942378301E+03  0.32942378301E+03  0.00000000000E+00 0.  1.
         21   -1    0    0  501  502 -0.00000000000E+00 -0.00000000000E+00 -0.28690319715E+03  0.28690319715E+03  0.00000000000E+00 0.  1.
         25    1    1    2    0    0 -0.10657129363E+03 -0.16940996016E+03  0.43962412355E+02  0.24003097493E+03  0.12500000000E+03 0.  0.
         25    1    1    2    0    0  0.26216123189E+02  0.10462661980E+03  0.92182920168E+02  0.18909443529E+03  0.12500000000E+03 0.  0.
         25    1    1    2    0    0  0.80355170438E+02  0.64783340353E+02 -0.93624746653E+02  0.18720156994E+03  0.12500000000E+03 0.  0.
</event>
<event>
 5    0  0.5815084E-005  0.2739804E+03  0.7546771E-02  0.1099023E+00
         21   -1    0    0  502  501  0.00000000000E+00  0.00000000000E+00  0.19113266591E+03  0.19113266591E+03  0.00000000000E+00 0. -1.
         21   -1    0    0  501  502 -0.00000000000E+00 -0.00000000000E+00 -0.39273894226E+03  0.39273894226E+03  0.00000000000E+00 0. -1.
         25    1    1    2    0    0 -0.45241811269E+02  0.29017971847E+02  0.16124595679E+01  0.13607521524E+03  0.12500000000E+03 0.  0.
         25    1    1    2    0    0 -0.12709592692E+03 -0.20564521601E+02 -0.53034058490E+02  0.18711997635E+03  0.12500000000E+03 0.  0.
         25    1    1    2    0    0  0.17233773819E+03 -0.84534502463E+01 -0.15018467743E+03  0.26067641658E+03  0.12500000000E+03 0.  0.
</event>
<event>
 5    0  0.6317618E-005  0.3060530E+03  0.7546771E-02  0.1082253E+00
         21   -1    0    0  502  501  0.00000000000E+00  0.00000000000E+00  0.15299447847E+03  0.15299447847E+03  0.00000000000E+00 0.  1.
         21   -1    0    0  501  502 -0.00000000000E+00 -0.00000000000E+00 -0.61223393019E+03  0.61223393019E+03  0.00000000000E+00 0.  1.
         25    1    1    2    0    0  0.92591215937E+02 -0.16595596169E+03 -0.25433789918E+03  0.34121442151E+03  0.12500000000E+03 0.  0.
         25    1    1    2    0    0 -0.11651130439E+03  0.55761056459E+02 -0.31777022536E+02  0.18253481484E+03  0.12500000000E+03 0.  0.
         25    1    1    2    0    0  0.23920088449E+02  0.11019490523E+03 -0.17312453001E+03  0.24147917231E+03  0.12500000000E+03 0.  0.
</event>
<event>
 5    0  0.5815084E-005  0.2844417E+03  0.7546771E-02  0.1093287E+00
         21   -1    0    0  502  501  0.00000000000E+00  0.00000000000E+00  0.17365296256E+03  0.17365296256E+03  0.00000000000E+00 0. -1.
         21   -1    0    0  501  502 -0.00000000000E+00 -0.00000000000E+00 -0.46591257072E+03  0.46591257072E+03  0.00000000000E+00 0. -1.
         25    1    1    2    0    0  0.87052259549E+02 -0.14411323724E+03 -0.14249941368E+03  0.25353067652E+03  0.12500000000E+03 0.  0.
         25    1    1    2    0    0 -0.28641294456E+01  0.82890157192E+02  0.19505277411E+02  0.15127602997E+03  0.12500000000E+03 0.  0.
         25    1    1    2    0    0 -0.84188130104E+02  0.61223080045E+02 -0.16926547189E+03  0.23475882679E+03  0.12500000000E+03 0.  0.
</event>
<event>
 5    0  0.5815084E-005  0.3928568E+03  0.7546771E-02  0.1046282E+00
         21   -1    0    0  502  501  0.00000000000E+00  0.00000000000E+00  0.27843682537E+03  0.27843682537E+03  0.00000000000E+00 0.  1.
         21   -1    0    0  501  502 -0.00000000000E+00 -0.00000000000E+00 -0.55429614669E+03  0.55429614669E+03  0.00000000000E+00 0.  1.
         25    1    1    2    0    0 -0.47232065088E+02 -0.25940605881E+03 -0.13555149740E+03  0.32174769582E+03  0.12500000000E+03 0.  0.
         25    1    1    2    0    0 -0.44672498118E+01 -0.14270677151E+02  0.66376875989E+02  0.14231829894E+03  0.12500000000E+03 0.  0.
         25    1    1    2    0    0  0.51699314899E+02  0.27367673596E+03 -0.20668469991E+03  0.36866697729E+03  0.12500000000E+03 0.  0.
</event>
<event>
 5    0  0.5815084E-005  0.2767712E+03  0.7546771E-02  0.1097466E+00
         21   -1    0    0  502  501  0.00000000000E+00  0.00000000000E+00  0.50778855976E+03  0.50778855976E+03  0.00000000000E+00 0. -1.
         21   -1    0    0  501  502 -0.00000000000E+00 -0.00000000000E+00 -0.15085474556E+03  0.15085474556E+03  0.00000000000E+00 0. -1.
         25    1    1    2    0    0  0.32360304017E+02 -0.11989845894E+03  0.19598137415E+03  0.26354606570E+03  0.12500000000E+03 0.  0.
         25    1    1    2    0    0  0.78003031840E+02 -0.70249155207E+01  0.38759924058E+02  0.15251607826E+03  0.12500000000E+03 0.  0.
         25    1    1    2    0    0 -0.11036333586E+03  0.12692337446E+03  0.12219251599E+03  0.24258116136E+03  0.12500000000E+03 0.  0.
</event>
<event>
 5    0  0.5815084E-005  0.3106379E+03  0.7546771E-02  0.1080040E+00
         21   -1    0    0  502  501  0.00000000000E+00  0.00000000000E+00  0.20123985638E+04  0.20123985638E+04  0.00000000000E+00 0.  1.
         21   -1    0    0  501  502 -0.00000000000E+00 -0.00000000000E+00 -0.47950706254E+02  0.47950706254E+02  0.00000000000E+00 0.  1.
         25    1    1    2    0    0 -0.16903550750E+03 -0.43128936508E+02  0.39160595748E+03  0.44655720114E+03  0.12500000000E+03 0.  0.
         25    1    1    2    0    0  0.14522877184E+03 -0.26429135481E+02  0.60563552609E+03  0.63577455583E+03  0.12500000000E+03 0.  0.
         25    1    1    2    0    0  0.23806735660E+02  0.69558071989E+02  0.96720637394E+03  0.97801751305E+03  0.12500000000E+03 0.  0.
</event>
<event>
 5    0  0.5815084E-005  0.2821488E+03  0.7546771E-02  0.1094521E+00
         21   -1    0    0  502  501  0.00000000000E+00  0.00000000000E+00  0.15129679309E+03  0.15129679309E+03  0.00000000000E+00 0. -1.
         21   -1    0    0  501  502 -0.00000000000E+00 -0.00000000000E+00 -0.52617064467E+03  0.52617064467E+03  0.00000000000E+00 0. -1.
         25    1    1    2    0    0  0.14984880805E+03  0.65127173003E+02 -0.12911855121E+03  0.24288436385E+03  0.12500000000E+03 0.  0.
         25    1    1    2    0    0 -0.17013884271E+03 -0.80444700714E+02 -0.19069223778E+03  0.29564692662E+03  0.12500000000E+03 0.  0.
         25    1    1    2    0    0  0.20290034660E+02  0.15317527711E+02 -0.55063062583E+02  0.13893614729E+03  0.12500000000E+03 0.  0.
</event>
<event>
 5    0  0.5815084E-005  0.2810816E+03  0.7546771E-02  0.1095100E+00
         21   -1    0    0  502  501  0.00000000000E+00  0.00000000000E+00  0.61707298262E+03  0.61707298262E+03  0.00000000000E+00 0. -1.
         21   -1    0    0  501  502 -0.00000000000E+00 -0.00000000000E+00 -0.12803491965E+03  0.12803491965E+03  0.00000000000E+00 0. -1.
         25    1    1    2    0    0  0.35497707782E+02 -0.68596642271E+02  0.43635314417E+02  0.15327957220E+03  0.12500000000E+03 0.  0.
         25    1    1    2    0    0  0.27232017178E+01  0.13449547143E+03  0.39739580074E+03  0.43777262376E+03  0.12500000000E+03 0.  0.
         25    1    1    2    0    0 -0.38220909499E+02 -0.65898829163E+02  0.48006947814E+02  0.15405570631E+03  0.12500000000E+03 0.  0.
</event>
<event>
 5    0  0.5815084E-005  0.4170332E+03  0.7546771E-02  0.1038036E+00
         21   -1    0    0  502  501  0.00000000000E+00  0.00000000000E+00  0.16512526862E+04  0.16512526862E+04  0.00000000000E+00 0. -1.
         21   -1    0    0  501  502 -0.00000000000E+00 -0.00000000000E+00 -0.10532410593E+03  0.10532410593E+03  0.00000000000E+00 0. -1.
         25    1    1    2    0    0  0.10772215910E+02  0.39406664321E+02  0.23326065337E+03  0.26777688145E+03  0.12500000000E+03 0.  0.
         25    1    1    2    0    0  0.25658678624E+03 -0.18878359123E+02  0.23178950900E+03  0.36816375134E+03  0.12500000000E+03 0.  0.
         25    1    1    2    0    0 -0.26735900215E+03 -0.20528305198E+02  0.10808784179E+04  0.11206361593E+04  0.12500000000E+03 0.  0.
</event>
<event>
 5    0  0.5815084E-005  0.3521129E+03  0.7546771E-02  0.1061751E+00
         21   -1    0    0  502  501  0.00000000000E+00  0.00000000000E+00  0.13759540122E+03  0.13759540122E+03  0.00000000000E+00 0.  1.
         21   -1    0    0  501  502 -0.00000000000E+00 -0.00000000000E+00 -0.90107294112E+03  0.90107294112E+03  0.00000000000E+00 0.  1.
         25    1    1    2    0    0 -0.21412969933E+02  0.20056836396E+03 -0.12639587150E+03  0.26886260475E+03  0.12500000000E+03 0.  0.
         25    1    1    2    0    0 -0.59585913345E+02 -0.12779918754E+03 -0.55239842713E+03  0.58365412335E+03  0.12500000000E+03 0.  0.
         25    1    1    2    0    0  0.80998883277E+02 -0.72769176421E+02 -0.84683241270E+02  0.18615161423E+03  0.12500000000E+03 0.  0.
</event>
<event>
 5    0  0.5815084E-005  0.2204548E+03  0.7546771E-02  0.1133544E+00
         21   -1    0    0  502  501  0.00000000000E+00  0.00000000000E+00  0.10308464370E+03  0.10308464370E+03  0.00000000000E+00 0.  1.
         21   -1    0    0  501  502 -0.00000000000E+00 -0.00000000000E+00 -0.47146044540E+03  0.47146044540E+03  0.00000000000E+00 0.  1.
         25    1    1    2    0    0 -0.36954973412E+02 -0.73825884366E+02 -0.10406832407E+03  0.18240380297E+03  0.12500000000E+03 0.  0.
         25    1    1    2    0    0 -0.35830642297E+02  0.83631293516E+01 -0.10653904081E+03  0.16831323203E+03  0.12500000000E+03 0.  0.
         25    1    1    2    0    0  0.72785615709E+02  0.65462755015E+02 -0.15776843681E+03  0.22382805410E+03  0.12500000000E+03 0.  0.
</event>
<event>
 5    0  0.5815084E-005  0.5603218E+03  0.7546771E-02  0.9991327E-01
         21   -1    0    0  502  501  0.00000000000E+00  0.00000000000E+00  0.58031354719E+03  0.58031354719E+03  0.00000000000E+00 0. -1.
         21   -1    0    0  501  502 -0.00000000000E+00 -0.00000000000E+00 -0.54101867691E+03  0.54101867691E+03  0.00000000000E+00 0. -1.
         25    1    1    2    0    0  0.16928367540E+03  0.22093746792E+03  0.32968190474E+03  0.44920539378E+03  0.12500000000E+03 0.  0.
         25    1    1    2    0    0 -0.19199112387E+03  0.48140148442E+02  0.28666019031E+02  0.23584911741E+03  0.12500000000E+03 0.  0.
         25    1    1    2    0    0  0.22707448466E+02 -0.26907761636E+03 -0.31905305349E+03  0.43627771291E+03  0.12500000000E+03 0.  0.
</event>
<event>
 5    0  0.5924925E-005  0.3386779E+03  0.7546771E-02  0.1067360E+00
         21   -1    0    0  502  501  0.00000000000E+00  0.00000000000E+00  0.52476986500E+03  0.52476986500E+03  0.00000000000E+00 0.  1.
         21   -1    0    0  501  502 -0.00000000000E+00 -0.00000000000E+00 -0.21857718488E+03  0.21857718488E+03  0.00000000000E+00 0.  1.
         25    1    1    2    0    0 -0.98951335294E+02  0.18465453481E+03  0.71640876380E+02  0.25425593238E+03  0.12500000000E+03 0.  0.
         25    1    1    2    0    0 -0.16700454245E+02 -0.17173506834E+03  0.23646484495E+03  0.31829618560E+03  0.12500000000E+03 0.  0.
         25    1    1    2    0    0  0.11565178954E+03 -0.12919466461E+02 -0.19130412056E+01  0.17079493190E+03  0.12500000000E+03 0.  0.
</event>
<event>
 5    0  0.5815084E-005  0.2785959E+03  0.7546771E-02  0.1096458E+00
         21   -1    0    0  502  501  0.00000000000E+00  0.00000000000E+00  0.59317504988E+02  0.59317504988E+02  0.00000000000E+00 0. -1.
         21   -1    0    0  501  502 -0.00000000000E+00 -0.00000000000E+00 -0.13084784547E+04  0.13084784547E+04  0.00000000000E+00 0. -1.
         25    1    1    2    0    0  0.54571445408E+02 -0.70255399014E+02 -0.28113727411E+03  0.32027649092E+03  0.12500000000E+03 0.  0.
         25    1    1    2    0    0 -0.37515712809E+02 -0.16797637903E+02 -0.83276206138E+03  0.84309385019E+03  0.12500000000E+03 0.  0.
         25    1    1    2    0    0 -0.17055732599E+02  0.87053036917E+02 -0.13526161424E+03  0.20442561859E+03  0.12500000000E+03 0.  0.
</event>
<event>
 5    0  0.5815084E-005  0.2813082E+03  0.7546771E-02  0.1094977E+00
         21   -1    0    0  502  501  0.00000000000E+00  0.00000000000E+00  0.67890307431E+03  0.67890307431E+03  0.00000000000E+00 0.  1.
         21   -1    0    0  501  502 -0.00000000000E+00 -0.00000000000E+00 -0.11656198052E+03  0.11656198052E+03  0.00000000000E+00 0.  1.
         25    1    1    2    0    0 -0.47830434942E+02  0.15292168005E+02  0.16070118720E+03  0.20969375879E+03  0.12500000000E+03 0.  0.
         25    1    1    2    0    0 -0.10412168903E+02  0.14155861707E+03  0.87149044296E+02  0.20824795617E+03  0.12500000000E+03 0.  0.
         25    1    1    2    0    0  0.58242603845E+02 -0.15685078507E+03  0.31449086229E+03  0.37752333987E+03  0.12500000000E+03 0.  0.
</event>
<event>
 5    0  0.5815084E-005  0.3195522E+03  0.7546771E-02  0.1075856E+00
         21   -1    0    0  502  501  0.00000000000E+00  0.00000000000E+00  0.50433621302E+03  0.50433621302E+03  0.00000000000E+00 0. -1.
         21   -1    0    0  501  502 -0.00000000000E+00 -0.00000000000E+00 -0.20247126789E+03  0.20247126789E+03  0.00000000000E+00 0. -1.
         25    1    1    2    0    0 -0.23846372020E+03  0.49302500970E+02  0.12374762692E+03  0.30039000919E+03  0.12500000000E+03 0.  0.
         25    1    1    2    0    0  0.96308425285E+02 -0.69462894992E+02  0.10855582015E+03  0.20373947249E+03  0.12500000000E+03 0.  0.
         25    1    1    2    0    0  0.14215529492E+03  0.20160394022E+02  0.69561498068E+02  0.20267799923E+03  0.12500000000E+03 0.  0.
</event>
<event>
 5    0  0.5815084E-005  0.3922773E+03  0.7546771E-02  0.1046487E+00
         21   -1    0    0  502  501  0.00000000000E+00  0.00000000000E+00  0.36973800710E+03  0.36973800710E+03  0.00000000000E+00 0.  1.
         21   -1    0    0  501  502 -0.00000000000E+00 -0.00000000000E+00 -0.41619061517E+03  0.41619061517E+03  0.00000000000E+00 0.  1.
         25    1    1    2    0    0 -0.31152562374E+02 -0.16560522269E+03  0.20304886463E+02  0.21079103477E+03  0.12500000000E+03 0.  0.
         25    1    1    2    0    0 -0.31260865218E+00 -0.12979555584E+03 -0.15855092236E+03  0.24002162199E+03  0.12500000000E+03 0.  0.
         25    1    1    2    0    0  0.31465171026E+02  0.29540077853E+03  0.91793427836E+02  0.33511596551E+03  0.12500000000E+03 0.  0.
</event>
<event>
 5    0  0.5815084E-005  0.3801506E+03  0.7546771E-02  0.1050878E+00
         21   -1    0    0  502  501  0.00000000000E+00  0.00000000000E+00  0.13261606584E+04  0.13261606584E+04  0.00000000000E+00 0. -1.
         21   -1    0    0  501  502 -0.00000000000E+00 -0.00000000000E+00 -0.10897208486E+03  0.10897208486E+03  0.00000000000E+00 0. -1.
         25    1    1    2    0    0 -0.11855357541E+03  0.16323274140E+03  0.50345745286E+03  0.55659166805E+03  0.12500000000E+03 0.  0.
         25    1    1    2    0    0 -0.74904405090E+02 -0.22769321239E+03  0.42391126400E+03  0.50277293943E+03  0.12500000000E+03 0.  0.
         25    1    1    2    0    0  0.19345798050E+03  0.64460470990E+02  0.28981985670E+03  0.37576813579E+03  0.12500000000E+03 0.  0.
</event>
<event>
 5    0  0.5815084E-005  0.2369246E+03  0.7546771E-02  0.1121859E+00
         21   -1    0    0  502  501  0.00000000000E+00  0.00000000000E+00  0.28332358342E+03  0.28332358342E+03  0.00000000000E+00 0. -1.
         21   -1    0    0  501  502 -0.00000000000E+00 -0.00000000000E+00 -0.19812423984E+03  0.19812423984E+03  0.00000000000E+00 0. -1.
         25    1    1    2    0    0 -0.68005098882E+02  0.79346122722E+02  0.86232263420E+02  0.18434072778E+03  0.12500000000E+03 0.  0.
         25    1    1    2    0    0 -0.13290889973E+02 -0.31771269550E+02 -0.40233282176E+02  0.13575631963E+03  0.12500000000E+03 0.  0.
         25    1    1    2    0    0  0.81295988855E+02 -0.47574853171E+02  0.39200362339E+02  0.16135077584E+03  0.12500000000E+03 0.  0.
</event>
<event>
 5    0  0.5815084E-005  0.3672132E+03  0.7546771E-02  0.1055764E+00
         21   -1    0    0  502  501  0.00000000000E+00  0.00000000000E+00  0.36743668164E+03  0.36743668164E+03  0.00000000000E+00 0. -1.
         21   -1    0    0  501  502 -0.00000000000E+00 -0.00000000000E+00 -0.36698980292E+03  0.36698980292E+03  0.00000000000E+00 0. -1.
         25    1    1    2    0    0 -0.14048133742E+03 -0.12808977182E+02  0.15652076580E+03  0.24499556360E+03  0.12500000000E+03 0.  0.
         25    1    1    2    0    0  0.14096958251E+03 -0.15465443782E+03 -0.30555799086E+02  0.24566048764E+03  0.12500000000E+03 0.  0.
         25    1    1    2    0    0 -0.48824508818E+00  0.16746341500E+03 -0.12551808799E+03  0.24377043332E+03  0.12500000000E+03 0.  0.
</event>
<event>
 5    0  0.5815084E-005  0.3372780E+03  0.7546771E-02  0.1067961E+00
         21   -1    0    0  502  501  0.00000000000E+00  0.00000000000E+00  0.85398438552E+02  0.85398438552E+02  0.00000000000E+00 0.  1.
         21   -1    0    0  501  502 -0.00000000000E+00 -0.00000000000E+00 -0.13320674193E+04  0.13320674193E+04  0.00000000000E+00 0.  1.
         25    1    1    2    0    0 -0.12590258790E+03  0.15715798385E+03 -0.28971606760E+03  0.37431336251E+03  0.12500000000E+03 0.  0.
         25    1    1    2    0    0 -0.63488290917E+02 -0.36610369876E+01 -0.29031442910E+03  0.32241531295E+03  0.12500000000E+03 0.  0.
         25    1    1    2    0    0  0.18939087882E+03 -0.15349694686E+03 -0.66663848401E+03  0.72073718236E+03  0.12500000000E+03 0.  0.
</event>
<event>
 5    0  0.5815084E-005  0.2438456E+03  0.7546771E-02  0.1117257E+00
         21   -1    0    0  502  501  0.00000000000E+00  0.00000000000E+00  0.73988915273E+03  0.73988915273E+03  0.00000000000E+00 0. -1.
         21   -1    0    0  501  502 -0.00000000000E+00 -0.00000000000E+00 -0.80364314679E+02  0.80364314679E+02  0.00000000000E+00 0. -1.
         25    1    1    2    0    0 -0.13707601873E+02  0.50436794110E+02  0.23115261445E+03  0.26793338672E+03  0.12500000000E+03 0.  0.
         25    1    1    2    0    0 -0.82047337325E+02  0.41908957784E+02  0.12990203128E+03  0.20245410353E+03  0.12500000000E+03 0.  0.
         25    1    1    2    0    0  0.95754939198E+02 -0.92345751894E+02  0.29847019233E+03  0.34986597717E+03  0.12500000000E+03 0.  0.
</event>
<event>
 5    0  0.5815084E-005  0.3764656E+03  0.7546771E-02  0.1052248E+00
         21   -1    0    0  502  501  0.00000000000E+00  0.00000000000E+00  0.16881127681E+03  0.16881127681E+03  0.00000000000E+00 0. -1.
         21   -1    0    0  501  502 -0.00000000000E+00 -0.00000000000E+00 -0.83955477518E+03  0.83955477518E+03  0.00000000000E+00 0. -1.
         25    1    1    2    0    0  0.76182091414E+02  0.20921937116E+03 -0.32412943177E+03  0.41262736804E+03  0.12500000000E+03 0.  0.
         25    1    1    2    0    0  0.63606420963E+02  0.62732067261E+02 -0.97052894275E+02  0.18172879061E+03  0.12500000000E+03 0.  0.
         25    1    1    2    0    0 -0.13978851238E+03 -0.27195143842E+03 -0.24956117233E+03  0.41400989334E+03  0.12500000000E+03 0.  0.
</event>
<event>
 5    0  0.5815084E-005  0.3301261E+03  0.7546771E-02  0.1071081E+00
         21   -1    0    0  502  501  0.00000000000E+00  0.00000000000E+00  0.20783569735E+03  0.20783569735E+03  0.00000000000E+00 0. -1.
         21   -1    0    0  501  502 -0.00000000000E+00 -0.00000000000E+00 -0.52437205559E+03  0.52437205559E+03  0.00000000000E+00 0. -1.
         25    1    1    2    0    0  0.93499013215E+02  0.21082263559E+03 -0.26615521706E+03  0.37370021236E+03  0.12500000000E+03 0.  0.
         25    1    1    2    0    0 -0.10382251512E+02 -0.11992242801E+03 -0.57674355514E+02  0.18286746887E+03  0.12500000000E+03 0.  0.
         25    1    1    2    0    0 -0.83116761703E+02 -0.90900207578E+02  0.72932143333E+01  0.17564007171E+03  0.12500000000E+03 0.  0.
</event>
<event>
 5    0  0.5815084E-005  0.3278327E+03  0.7546771E-02  0.1072100E+00
         21   -1    0    0  502  501  0.00000000000E+00  0.00000000000E+00  0.67513458021E+03  0.67513458021E+03  0.00000000000E+00 0.  1.
         21   -1    0    0  501  502 -0.00000000000E+00 -0.00000000000E+00 -0.15918937856E+03  0.15918937856E+03  0.00000000000E+00 0.  1.
         25    1    1    2    0    0 -0.15918504547E+03 -0.16277869592E+03  0.11088695680E+03  0.28241405725E+03  0.12500000000E+03 0.  0.
         25    1    1    2    0    0  0.47686188677E+02  0.63207713447E+02  0.68596820697E+02  0.16309417966E+03  0.12500000000E+03 0.  0.
         25    1    1    2    0    0  0.11149885679E+03  0.99570982474E+02  0.33646142416E+03  0.38881572185E+03  0.12500000000E+03 0.  0.
</event>
<event>
 5    0  0.5815084E-005  0.3612753E+03  0.7546771E-02  0.1058080E+00
         21   -1    0    0  502  501  0.00000000000E+00  0.00000000000E+00  0.20862345985E+03  0.20862345985E+03  0.00000000000E+00 0.  1.
         21   -1    0    0  501  502 -0.00000000000E+00 -0.00000000000E+00 -0.62562392200E+03  0.62562392200E+03  0.00000000000E+00 0.  1.
         25    1    1    2    0    0 -0.20784428744E+03 -0.17462334729E+03 -0.93795150741E+02  0.31323328613E+03  0.12500000000E+03 0.  0.
         25    1    1    2    0    0  0.18553612350E+03  0.67107303107E+02 -0.24036066733E+03  0.33514965859E+03  0.12500000000E+03 0.  0.
         25    1    1    2    0    0  0.22308163944E+02  0.10751604418E+03 -0.82844644076E+02  0.18586443712E+03  0.12500000000E+03 0.  0.
</event>
<event>
 5    0  0.5815084E-005  0.3786598E+03  0.7546771E-02  0.1051430E+00
         21   -1    0    0  502  501  0.00000000000E+00  0.00000000000E+00  0.12697328798E+03  0.12697328798E+03  0.00000000000E+00 0.  1.
         21   -1    0    0  501  502 -0.00000000000E+00 -0.00000000000E+00 -0.11292396296E+04  0.11292396296E+04  0.00000000000E+00 0.  1.
         25    1    1    2    0    0  0.12850657058E+03 -0.12110970699E+03 -0.30178689304E+02  0.21844279136E+03  0.12500000000E+03 0.  0.
         25    1    1    2    0    0 -0.76243952712E+02  0.21302084170E+02 -0.71747632764E+03  0.73257368220E+03  0.12500000000E+03 0.  0.
         25    1    1    2    0    0 -0.52262617867E+02  0.99807622819E+02 -0.25461132467E+03  0.30519644403E+03  0.12500000000E+03 0.  0.
</event>
<event>
 5    0  0.5815084E-005  0.2959837E+03  0.7546771E-02  0.1087266E+00
         21   -1    0    0  502  501  0.00000000000E+00  0.00000000000E+00  0.48010297177E+03  0.48010297177E+03  0.00000000000E+00 0. -1.
         21   -1    0    0  501  502 -0.00000000000E+00 -0.00000000000E+00 -0.18247414484E+03  0.18247414484E+03  0.00000000000E+00 0. -1.
         25    1    1    2    0    0  0.34264887011E+02  0.32804512245E+02  0.20814763770E+03  0.24738766660E+03  0.12500000000E+03 0.  0.
         25    1    1    2    0    0 -0.42017256916E+02 -0.65177564748E+02 -0.10562639141E+03  0.18109527710E+03  0.12500000000E+03 0.  0.
         25    1    1    2    0    0  0.77523699055E+01  0.32373052503E+02  0.19510758065E+03  0.23409417292E+03  0.12500000000E+03 0.  0.
</event>
<event>
 5    0  0.5815084E-005  0.2818529E+03  0.7546771E-02  0.1094681E+00
         21   -1    0    0  502  501  0.00000000000E+00  0.00000000000E+00  0.86536225962E+02  0.86536225962E+02  0.00000000000E+00 0. -1.
         21   -1    0    0  501  502 -0.00000000000E+00 -0.00000000000E+00 -0.91800936483E+03  0.91800936483E+03  0.00000000000E+00 0. -1.
         25    1    1    2    0    0  0.46090906149E+02  0.83631488505E+02 -0.17421096531E+03  0.23471910432E+03  0.12500000000E+03 0.  0.
         25    1    1    2    0    0 -0.17275580758E+02 -0.92621787376E+02 -0.75070850909E+02  0.17360263202E+03  0.12500000000E+03 0.  0.
         25    1    1    2    0    0 -0.28815325391E+02  0.89902988704E+01 -0.58219132265E+03  0.59622385445E+03  0.12500000000E+03 0.  0.
</event>
<event>
 5    0  0.5815084E-005  0.2914445E+03  0.7546771E-02  0.1089597E+00
         21   -1    0    0  502  501  0.00000000000E+00  0.00000000000E+00  0.50418710646E+03  0.50418710646E+03  0.00000000000E+00 0.  1.
         21   -1    0    0  501  502 -0.00000000000E+00 -0.00000000000E+00 -0.16846904137E+03  0.16846904137E+03  0.00000000000E+00 0.  1.
         25    1    1    2    0    0 -0.10168076750E+03 -0.18698255710E+02  0.91290046558E+02  0.18613832450E+03  0.12500000000E+03 0.  0.
         25    1    1    2    0    0  0.59367329866E+02  0.18662081704E+02  0.30938050435E+03  0.33943195138E+03  0.12500000000E+03 0.  0.
         25    1    1    2    0    0  0.42313437635E+02  0.36174005581E-01 -0.64952485817E+02  0.14708587195E+03  0.12500000000E+03 0.  0.
</event>
<event>
 5    0  0.5815084E-005  0.3041258E+03  0.7546771E-02  0.1083196E+00
         21   -1    0    0  502  501  0.00000000000E+00  0.00000000000E+00  0.41074301710E+03  0.41074301710E+03  0.00000000000E+00 0.  1.
         21   -1    0    0  501  502 -0.00000000000E+00 -0.00000000000E+00 -0.22518345403E+03  0.22518345403E+03  0.00000000000E+00 0.  1.
         25    1    1    2    0    0 -0.15812148654E+03 -0.53188750446E+02 -0.68366635611E+02  0.21938651860E+03  0.12500000000E+03 0.  0.
         25    1    1    2    0    0  0.10079043933E+03  0.98709880843E+01  0.53293664735E+02  0.16947378489E+03  0.12500000000E+03 0.  0.
         25    1    1    2    0    0  0.57331047216E+02  0.43317762361E+02  0.20063253394E+03  0.24706616763E+03  0.12500000000E+03 0.  0.
</event>
<event>
 5    0  0.5815084E-005  0.4550146E+03  0.7546771E-02  0.1026237E+00
         21   -1    0    0  502  501  0.00000000000E+00  0.00000000000E+00  0.20679722307E+03  0.20679722307E+03  0.00000000000E+00 0. -1.
         21   -1    0    0  501  502 -0.00000000000E+00 -0.00000000000E+00 -0.10011658461E+04  0.10011658461E+04  0.00000000000E+00 0. -1.
         25    1    1    2    0    0  0.22708965731E+03 -0.34255813706E+02 -0.80650918714E+03  0.84783562214E+03  0.12500000000E+03 0.  0.
         25    1    1    2    0    0 -0.12427626021E+03 -0.28733756575E+02  0.43086330391E+02  0.18371621998E+03  0.12500000000E+03 0.  0.
         25    1    1    2    0    0 -0.10281339710E+03  0.62989570282E+02 -0.30945766317E+02  0.17641122708E+03  0.12500000000E+03 0.  0.
</event>
<event>
 5    0  0.5815084E-005  0.4456503E+03  0.7546771E-02  0.1029027E+00
         21   -1    0    0  502  501  0.00000000000E+00  0.00000000000E+00  0.80883300339E+03  0.80883300339E+03  0.00000000000E+00 0.  1.
         21   -1    0    0  501  502 -0.00000000000E+00 -0.00000000000E+00 -0.24554415421E+03  0.24554415421E+03  0.00000000000E+00 0.  1.
         25    1    1    2    0    0  0.34762796632E+02  0.19875958846E+03  0.27165511519E+02  0.23890749475E+03  0.12500000000E+03 0.  0.
         25    1    1    2    0    0 -0.16555294783E+03 -0.30708962949E+03  0.20670457374E+03  0.42433901528E+03  0.12500000000E+03 0.  0.
         25    1    1    2    0    0  0.13079015120E+03  0.10833004104E+03  0.32941876392E+03  0.39113064757E+03  0.12500000000E+03 0.  0.
</event>
<event>
 5    0  0.5815084E-005  0.3000116E+03  0.7546771E-02  0.1085235E+00
         21   -1    0    0  502  501  0.00000000000E+00  0.00000000000E+00  0.20441128221E+03  0.20441128221E+03  0.00000000000E+00 0. -1.
         21   -1    0    0  501  502 -0.00000000000E+00 -0.00000000000E+00 -0.44032276367E+03  0.44032276367E+03  0.00000000000E+00 0.  1.
         25    1    1    2    0    0 -0.15764063375E+03  0.13486484550E+03 -0.25035876570E+02  0.24349720959E+03  0.12500000000E+03 0.  0.
         25    1    1    2    0    0  0.51835393832E+02 -0.25542301806E+02 -0.12658084349E+03  0.18704819479E+03  0.12500000000E+03 0.  0.
         25    1    1    2    0    0  0.10580523992E+03 -0.10932254369E+03 -0.84294761404E+02  0.21418864151E+03  0.12500000000E+03 0.  0.
</event>
<event>
 5    0  0.5815084E-005  0.4007932E+03  0.7546771E-02  0.1043505E+00
         21   -1    0    0  502  501  0.00000000000E+00  0.00000000000E+00  0.61658596641E+03  0.61658596641E+03  0.00000000000E+00 0.  1.
         21   -1    0    0  501  502 -0.00000000000E+00 -0.00000000000E+00 -0.26052359849E+03  0.26052359849E+03  0.00000000000E+00 0.  1.
         25    1    1    2    0    0  0.18334241318E+03 -0.74834608121E+02  0.27327185618E+03  0.35988493498E+03  0.12500000000E+03 0.  0.
         25    1    1    2    0    0 -0.20134187802E+03  0.61669626387E+02  0.22077488822E+03  0.32970933552E+03  0.12500000000E+03 0.  0.
         25    1    1    2    0    0  0.17999464836E+02  0.13164981734E+02 -0.13798437648E+03  0.18751529439E+03  0.12500000000E+03 0.  0.
</event>
<event>
 5    0  0.5815084E-005  0.2900678E+03  0.7546771E-02  0.1090314E+00
         21   -1    0    0  502  501  0.00000000000E+00  0.00000000000E+00  0.11758154520E+04  0.11758154520E+04  0.00000000000E+00 0.  1.
         21   -1    0    0  501  502 -0.00000000000E+00 -0.00000000000E+00 -0.71558298122E+02  0.71558298122E+02  0.00000000000E+00 0.  1.
         25    1    1    2    0    0 -0.92213809267E+02 -0.24645928947E+02  0.25305405362E+03  0.29794657656E+03  0.12500000000E+03 0.  0.
         25    1    1    2    0    0  0.99436335998E+01 -0.40614331859E+02  0.74058986158E+03  0.75222785303E+03  0.12500000000E+03 0.  0.
         25    1    1    2    0    0  0.82270175667E+02  0.65260260806E+02  0.11061323868E+03  0.19719932053E+03  0.12500000000E+03 0.  0.
</event>
<event>
 5    0  0.5815084E-005  0.2957681E+03  0.7546771E-02  0.1087375E+00
         21   -1    0    0  502  501  0.00000000000E+00  0.00000000000E+00  0.12336400069E+03  0.12336400069E+03  0.00000000000E+00 0. -1.
         21   -1    0    0  501  502 -0.00000000000E+00 -0.00000000000E+00 -0.70911099174E+03  0.70911099174E+03  0.00000000000E+00 0. -1.
         25    1    1    2    0    0  0.85637003536E+02  0.90793801252E+02 -0.36675744516E+03  0.40707890426E+03  0.12500000000E+03 0.  0.
         25    1    1    2    0    0 -0.14070090701E+03 -0.11980707104E+03 -0.11299985154E+03  0.25008887611E+03  0.12500000000E+03 0.  0.
         25    1    1    2    0    0  0.55063903477E+02  0.29013269786E+02 -0.10598969436E+03  0.17530721206E+03  0.12500000000E+03 0.  0.
</event>
<event>
 5    0  0.5815084E-005  0.4055907E+03  0.7546771E-02  0.1041861E+00
         21   -1    0    0  502  501  0.00000000000E+00  0.00000000000E+00  0.17695333508E+04  0.17695333508E+04  0.00000000000E+00 0.  1.
         21   -1    0    0  501  502 -0.00000000000E+00 -0.00000000000E+00 -0.92964514361E+02  0.92964514361E+02  0.00000000000E+00 0.  1.
         25    1    1    2    0    0 -0.54349585471E+02  0.23558962199E+02  0.68999118699E+02  0.15457936642E+03  0.12500000000E+03 0.  0.
         25    1    1    2    0    0  0.18522041929E+03 -0.18883138593E+03  0.11736953121E+04  0.12096072014E+04  0.12500000000E+03 0.  0.
         25    1    1    2    0    0 -0.13087083382E+03  0.16527242373E+03  0.43387440563E+03  0.49831129734E+03  0.12500000000E+03 0.  0.
</event>
<event>
 5    0  0.5815084E-005  0.3073228E+03  0.7546771E-02  0.1081636E+00
         21   -1    0    0  502  501  0.00000000000E+00  0.00000000000E+00  0.73425182352E+03  0.73425182352E+03  0.00000000000E+00 0.  1.
         21   -1    0    0  501  502 -0.00000000000E+00 -0.00000000000E+00 -0.12863070193E+03  0.12863070193E+03  0.00000000000E+00 0.  1.
         25    1    1    2    0    0  0.17312652022E+02  0.69254778162E+02  0.38007290015E+02  0.14888084602E+03  0.12500000000E+03 0.  0.
         25    1    1    2    0    0 -0.14469505453E+03  0.57472880982E+02  0.36343764024E+03  0.41467060324E+03  0.12500000000E+03 0.  0.
         25    1    1    2    0    0  0.12738240251E+03 -0.12672765914E+03  0.20417619133E+03  0.29933107618E+03  0.12500000000E+03 0.  0.
</event>
<event>
 5    0  0.5815084E-005  0.3034025E+03  0.7546771E-02  0.1083552E+00
         21   -1    0    0  502  501  0.00000000000E+00  0.00000000000E+00  0.36068948109E+02  0.36068948109E+02  0.00000000000E+00 0.  1.
         21   -1    0    0  501  502 -0.00000000000E+00 -0.00000000000E+00 -0.25521424528E+04  0.25521424528E+04  0.00000000000E+00 0.  1.
         25    1    1    2    0    0 -0.40995553444E+02  0.93907194204E+02 -0.45461331164E+03  0.48249089074E+03  0.12500000000E+03 0.  0.
         25    1    1    2    0    0 -0.10073986797E+03  0.52350297856E+02 -0.54539873432E+03  0.57094120020E+03  0.12500000000E+03 0.  0.
         25    1    1    2    0    0  0.14173542142E+03 -0.14625749206E+03 -0.15160614587E+04  0.15347793099E+04  0.12500000000E+03 0.  0.
</event>
<event>
 5    0  0.5815084E-005  0.2621618E+03  0.7546771E-02  0.1105851E+00
         21   -1    0    0  502  501  0.00000000000E+00  0.00000000000E+00  0.81702395934E+02  0.81702395934E+02  0.00000000000E+00 0. -1.
         21   -1    0    0  501  502 -0.00000000000E+00 -0.00000000000E+00 -0.84120949181E+03  0.84120949181E+03  0.00000000000E+00 0. -1.
         25    1    1    2    0    0 -0.16107874260E+02  0.12866430913E+03 -0.12911239779E+03  0.22160545869E+03  0.12500000000E+03 0.  0.
         25    1    1    2    0    0  0.46237705251E+02 -0.62690250869E+02 -0.20794971019E+03  0.25482557742E+03  0.12500000000E+03 0.  0.
         25    1    1    2    0    0 -0.30129830991E+02 -0.65974058259E+02 -0.42244498789E+03  0.44648085163E+03  0.12500000000E+03 0.  0.
</event>
<event>
 5    0  0.5815084E-005  0.4148154E+03  0.7546771E-02  0.1038767E+00
         21   -1    0    0  502  501  0.00000000000E+00  0.00000000000E+00  0.63774450634E+03  0.63774450634E+03  0.00000000000E+00 0.  1.
         21   -1    0    0  501  502 -0.00000000000E+00 -0.00000000000E+00 -0.26981310146E+03  0.26981310146E+03  0.00000000000E+00 0.  1.
         25    1    1    2    0    0 -0.21858862120E+03  0.97334414180E+02 -0.31661215204E+02  0.27181318226E+03  0.12500000000E+03 0.  0.
         25    1    1    2    0    0  0.12938751832E+03  0.48434993202E+02  0.37986495085E+03  0.42309509492E+03  0.12500000000E+03 0.  0.
         25    1    1    2    0    0  0.89201102878E+02 -0.14576940738E+03  0.19727669239E+02  0.21264933063E+03  0.12500000000E+03 0.  0.
</event>
<event>
 5    0  0.5815084E-005  0.2788648E+03  0.7546771E-02  0.1096311E+00
         21   -1    0    0  502  501  0.00000000000E+00  0.00000000000E+00  0.21258329304E+03  0.21258329304E+03  0.00000000000E+00 0. -1.
         21   -1    0    0  501  502 -0.00000000000E+00 -0.00000000000E+00 -0.36581215334E+03  0.36581215334E+03  0.00000000000E+00 0. -1.
         25    1    1    2    0    0 -0.29249178217E+02 -0.10564391071E+03 -0.55195475686E+02  0.17517902509E+03  0.12500000000E+03 0.  0.
         25    1    1    2    0    0  0.13221134789E+03 -0.74284130449E+00  0.84050956124E+01  0.18214290532E+03  0.12500000000E+03 0.  0.
         25    1    1    2    0    0 -0.10296216967E+03  0.10638675202E+03 -0.10643848023E+03  0.22107351597E+03  0.12500000000E+03 0.  0.
</event>
<event>
 5    0  0.5815084E-005  0.3720990E+03  0.7546771E-02  0.1053893E+00
         21   -1    0    0  502  501  0.00000000000E+00  0.00000000000E+00  0.34022209822E+03  0.34022209822E+03  0.00000000000E+00 0. -1.
         21   -1    0    0  501  502 -0.00000000000E+00 -0.00000000000E+00 -0.40696267930E+03  0.40696267930E+03  0.00000000000E+00 0. -1.
         25    1    1    2    0    0  0.99741969432E+02 -0.18829311322E+03 -0.21922475293E+03  0.33028358913E+03  0.12500000000E+03 0.  0.
         25    1    1    2    0    0 -0.40659487865E+02  0.19454908111E+03  0.14973139051E+03  0.27847267050E+03  0.12500000000E+03 0.  0.
         25    1    1    2    0    0 -0.59082481567E+02 -0.62559678882E+01  0.27527813357E+01  0.13842851790E+03  0.12500000000E+03 0.  0.
</event>
<event>
 5    0  0.5815084E-005  0.2597053E+03  0.7546771E-02  0.1107320E+00
         21   -1    0    0  502  501  0.00000000000E+00  0.00000000000E+00  0.38055386464E+03  0.38055386464E+03  0.00000000000E+00 0. -1.
         21   -1    0    0  501  502 -0.00000000000E+00 -0.00000000000E+00 -0.17723333174E+03  0.17723333174E+03  0.00000000000E+00 0. -1.
         25    1    1    2    0    0  0.19880442134E+02 -0.51407576199E+02  0.91069030585E+02  0.16418446699E+03  0.12500000000E+03 0.  0.
         25    1    1    2    0    0 -0.65977665513E+02  0.15381111815E+03  0.70351364020E+02  0.22042056808E+03  0.12500000000E+03 0.  0.
         25    1    1    2    0    0  0.46097223380E+02 -0.10240354195E+03  0.41900138298E+02  0.17318216131E+03  0.12500000000E+03 0.  0.
</event>
<event>
 5    0  0.5815084E-005  0.4300021E+03  0.7546771E-02  0.1033859E+00
         21   -1    0    0  502  501  0.00000000000E+00  0.00000000000E+00  0.44948675944E+03  0.44948675944E+03  0.00000000000E+00 0. -1.
         21   -1    0    0  501  502 -0.00000000000E+00 -0.00000000000E+00 -0.41136201895E+03  0.41136201895E+03  0.00000000000E+00 0. -1.
         25    1    1    2    0    0  0.39457215939E+02  0.28012652776E+02  0.37032441341E+03  0.39383594525E+03  0.12500000000E+03 0.  0.
         25    1    1    2    0    0  0.50647181610E+02 -0.78820247347E+02 -0.21970183044E+03  0.26957682151E+03  0.12500000000E+03 0.  0.
         25    1    1    2    0    0 -0.90104397548E+02  0.50807594572E+02 -0.11249784249E+03  0.19743601163E+03  0.12500000000E+03 0.  0.
</event>
<event>
 5    0  0.5815084E-005  0.3089142E+03  0.7546771E-02  0.1080867E+00
         21   -1    0    0  502  501  0.00000000000E+00  0.00000000000E+00  0.43509133622E+03  0.43509133622E+03  0.00000000000E+00 0. -1.
         21   -1    0    0  501  502 -0.00000000000E+00 -0.00000000000E+00 -0.21932868371E+03  0.21932868371E+03  0.00000000000E+00 0. -1.
         25    1    1    2    0    0  0.94934473217E+02  0.98151302967E+02  0.24572084684E+03  0.30765234771E+03  0.12500000000E+03 0.  0.
         25    1    1    2    0    0  0.13531000433E+02  0.62258287158E+01 -0.74254170910E+02  0.14615242322E+03  0.12500000000E+03 0.  0.
         25    1    1    2    0    0 -0.10846547365E+03 -0.10437713168E+03  0.44295976575E+02  0.20061524900E+03  0.12500000000E+03 0.  0.
</event>
<event>
 5    0  0.5815084E-005  0.2102707E+03  0.7546771E-02  0.1141352E+00
         21   -1    0    0  502  501  0.00000000000E+00  0.00000000000E+00  0.36307659403E+03  0.36307659403E+03  0.00000000000E+00 0.  1.
         21   -1    0    0  501  502 -0.00000000000E+00 -0.00000000000E+00 -0.12177532409E+03  0.12177532409E+03  0.00000000000E+00 0.  1.
         25    1    1    2    0    0 -0.21514953738E+02  0.41847179251E+02  0.14647563633E+03  0.19822762593E+03  0.12500000000E+03 0.  0.
         25    1    1    2    0    0  0.34306147246E+02 -0.57235738384E+02  0.31842252233E+02  0.14523006064E+03  0.12500000000E+03 0.  0.
         25    1    1    2    0    0 -0.12791193508E+02  0.15388559133E+02  0.62983381375E+02  0.14139423154E+03  0.12500000000E+03 0.  0.
</event>
<event>
 5    0  0.5815084E-005  0.3234483E+03  0.7546771E-02  0.1074073E+00
         21   -1    0    0  502  501  0.00000000000E+00  0.00000000000E+00  0.46157871994E+03  0.46157871994E+03  0.00000000000E+00 0. -1.
         21   -1    0    0  501  502 -0.00000000000E+00 -0.00000000000E+00 -0.22665430656E+03  0.22665430656E+03  0.00000000000E+00 0. -1.
         25    1    1    2    0    0  0.22242144511E+03 -0.86282758904E+02  0.64016376982E+02  0.27683769658E+03  0.12500000000E+03 0.  0.
         25    1    1    2    0    0 -0.18062794731E+03  0.69556972223E+02  0.59404352297E+02  0.23794643264E+03  0.12500000000E+03 0.  0.
         25    1    1    2    0    0 -0.41793497800E+02  0.16725786681E+02  0.11150368411E+03  0.17344889728E+03  0.12500000000E+03 0.  0.
</event>
<event>
 5    0  0.6367953E-005  0.3601258E+03  0.7546771E-02  0.1058534E+00
         21   -1    0    0  502  501  0.00000000000E+00  0.00000000000E+00  0.63193467006E+03  0.63193467006E+03  0.00000000000E+00 0.  1.
         21   -1    0    0  501  502 -0.00000000000E+00 -0.00000000000E+00 -0.20522782239E+03  0.20522782239E+03  0.00000000000E+00 0.  1.
         25    1    1    2    0    0  0.14726168042E+03 -0.53354738763E+02  0.13501013926E+03  0.24163085145E+03  0.12500000000E+03 0.  0.
         25    1    1    2    0    0  0.10478463923E+03  0.84011141756E+02  0.24904252897E+03  0.30932971696E+03  0.12500000000E+03 0.  0.
         25    1    1    2    0    0 -0.25204631965E+03 -0.30656402993E+02  0.42654179437E+02  0.28620192403E+03  0.12500000000E+03 0.  0.
</event>
<event>
 5    0  0.5815084E-005  0.2440522E+03  0.7546771E-02  0.1117122E+00
         21   -1    0    0  502  501  0.00000000000E+00  0.00000000000E+00  0.93998934792E+02  0.93998934792E+02  0.00000000000E+00 0. -1.
         21   -1    0    0  501  502 -0.00000000000E+00 -0.00000000000E+00 -0.63363992770E+03  0.63363992770E+03  0.00000000000E+00 0. -1.
         25    1    1    2    0    0  0.10653875222E+03  0.22727702557E+02 -0.93401258782E+02  0.19030462246E+03  0.12500000000E+03 0.  0.
         25    1    1    2    0    0 -0.80278576445E+02 -0.65553350256E+02 -0.21096346626E+03  0.26621884919E+03  0.12500000000E+03 0.  0.
         25    1    1    2    0    0 -0.26260175772E+02  0.42825647699E+02 -0.23527626786E+03  0.27111539084E+03  0.12500000000E+03 0.  0.
</event>
<event>
 5    0  0.5815084E-005  0.2526894E+03  0.7546771E-02  0.1111617E+00
         21   -1    0    0  502  501  0.00000000000E+00  0.00000000000E+00  0.87488016800E+03  0.87488016800E+03  0.00000000000E+00 0.  1.
         21   -1    0    0  501  502 -0.00000000000E+00 -0.00000000000E+00 -0.72983621546E+02  0.72983621546E+02  0.00000000000E+00 0.  1.
         25    1    1    2    0    0  0.12213071340E+03  0.95354645145E+02  0.25956589760E+03  0.32712058129E+03  0.12500000000E+03 0.  0.
         25    1    1    2    0    0 -0.55189340051E+02 -0.12003188284E+02  0.26144679390E+03  0.29524458644E+03  0.12500000000E+03 0.  0.
         25    1    1    2    0    0 -0.66941373353E+02 -0.83351456861E+02  0.28088385495E+03  0.32549862181E+03  0.12500000000E+03 0.  0.
</event>
<event>
 5    0  0.5815084E-005  0.3610307E+03  0.7546771E-02  0.1058176E+00
         21   -1    0    0  502  501  0.00000000000E+00  0.00000000000E+00  0.17209490272E+03  0.17209490272E+03  0.00000000000E+00 0.  1.
         21   -1    0    0  501  502 -0.00000000000E+00 -0.00000000000E+00 -0.75739123506E+03  0.75739123506E+03  0.00000000000E+00 0.  1.
         25    1    1    2    0    0  0.24716287454E+03 -0.76200267757E+02 -0.30628718407E+03  0.41992000010E+03  0.12500000000E+03 0.  0.
         25    1    1    2    0    0 -0.18824368653E+03  0.12464365024E+03 -0.96367234087E+02  0.27546936103E+03  0.12500000000E+03 0.  0.
         25    1    1    2    0    0 -0.58919188009E+02 -0.48443382479E+02 -0.18264191418E+03  0.23409677665E+03  0.12500000000E+03 0.  0.
</event>
<event>
 5    0  0.5815084E-005  0.2294037E+03  0.7546771E-02  0.1127060E+00
         21   -1    0    0  502  501  0.00000000000E+00  0.00000000000E+00  0.34717821688E+02  0.34717821688E+02  0.00000000000E+00 0. -1.
         21   -1    0    0  501  502 -0.00000000000E+00 -0.00000000000E+00 -0.15158228500E+04  0.15158228500E+04  0.00000000000E+00 0. -1.
         25    1    1    2    0    0 -0.93283878900E+02  0.35009777647E+02 -0.56074438245E+03  0.58308389538E+03  0.12500000000E+03 0.  0.
         25    1    1    2    0    0  0.33504101518E+02 -0.44007415040E+02 -0.64196421221E+03  0.65635525987E+03  0.12500000000E+03 0.  0.
         25    1    1    2    0    0  0.59779777383E+02  0.89976373937E+01 -0.27839643360E+03  0.31110151640E+03  0.12500000000E+03 0.  0.
</event>
<event>
 5    0  0.5815084E-005  0.2502049E+03  0.7546771E-02  0.1113175E+00
         21   -1    0    0  502  501  0.00000000000E+00  0.00000000000E+00  0.48994586693E+03  0.48994586693E+03  0.00000000000E+00 0.  1.
         21   -1    0    0  501  502 -0.00000000000E+00 -0.00000000000E+00 -0.12777426596E+03  0.12777426596E+03  0.00000000000E+00 0.  1.
         25    1    1    2    0    0 -0.81030493442E+02  0.15715835001E+02  0.14259653235E+03  0.20681319923E+03  0.12500000000E+03 0.  0.
         25    1    1    2    0    0  0.13474582952E+03  0.53300049836E+02  0.15040854371E+03  0.24340308935E+03  0.12500000000E+03 0.  0.
         25    1    1    2    0    0 -0.53715336075E+02 -0.69015884837E+02  0.69166524914E+02  0.16750384431E+03  0.12500000000E+03 0.  0.
</event>
<event>
 5    0  0.6400913E-005  0.2720042E+03  0.7546771E-02  0.1100138E+00
         21   -1    0    0  502  501  0.00000000000E+00  0.00000000000E+00  0.61241748621E+03  0.61241748621E+03  0.00000000000E+00 0.  1.
         21   -1    0    0  501  502 -0.00000000000E+00 -0.00000000000E+00 -0.12081019420E+03  0.12081019420E+03  0.00000000000E+00 0.  1.
         25    1    1    2    0    0  0.15863787078E+03  0.41612795071E+02  0.26504324449E+03  0.33581322220E+03  0.12500000000E+03 0.  0.
         25    1    1    2    0    0 -0.77667668142E+02  0.24374820065E+02  0.50339545367E+02  0.15743401270E+03  0.12500000000E+03 0.  0.
         25    1    1    2    0    0 -0.80970202639E+02 -0.65987615136E+02  0.17622450215E+03  0.23998044550E+03  0.12500000000E+03 0.  0.
</event>
<event>
 5    0  0.5815084E-005  0.2747145E+03  0.7546771E-02  0.1098611E+00
         21   -1    0    0  502  501  0.00000000000E+00  0.00000000000E+00  0.10536167932E+03  0.10536167932E+03  0.00000000000E+00 0. -1.
         21   -1    0    0  501  502 -0.00000000000E+00 -0.00000000000E+00 -0.71627634501E+03  0.71627634501E+03  0.00000000000E+00 0. -1.
         25    1    1    2    0    0 -0.73976610712E+02 -0.11034367898E+03 -0.21159170972E+03  0.27936413164E+03  0.12500000000E+03 0.  0.
         25    1    1    2    0    0  0.28056070998E+02  0.12008743854E+02 -0.22407348860E+02  0.13060797193E+03  0.12500000000E+03 0.  0.
         25    1    1    2    0    0  0.45920539715E+02  0.98334935129E+02 -0.37691560711E+03  0.41166592077E+03  0.12500000000E+03 0.  0.
</event>
<event>
 5    0  0.5815084E-005  0.4867484E+03  0.7546771E-02  0.1017297E+00
         21   -1    0    0  502  501  0.00000000000E+00  0.00000000000E+00  0.34812418464E+04  0.34812418464E+04  0.00000000000E+00 0. -1.
         21   -1    0    0  501  502 -0.00000000000E+00 -0.00000000000E+00 -0.68057328066E+02  0.68057328066E+02  0.00000000000E+00 0. -1.
         25    1    1    2    0    0 -0.80776207191E+02 -0.10045220506E+02  0.11471251689E+03  0.18817455629E+03  0.12500000000E+03 0.  0.
         25    1    1    2    0    0  0.13718007330E+03 -0.98533584625E+02  0.30501659075E+04  0.30573950192E+04  0.12500000000E+03 0.  0.
         25    1    1    2    0    0 -0.56403866112E+02  0.10857880513E+03  0.24830609391E+03  0.30372959900E+03  0.12500000000E+03 0.  0.
</event>
<event>
 5    0  0.5815084E-005  0.2544199E+03  0.7546771E-02  0.1110543E+00
         21   -1    0    0  502  501  0.00000000000E+00  0.00000000000E+00  0.69264150120E+02  0.69264150120E+02  0.00000000000E+00 0. -1.
         21   -1    0    0  501  502 -0.00000000000E+00 -0.00000000000E+00 -0.93453089680E+03  0.93453089680E+03  0.00000000000E+00 0. -1.
         25    1    1    2    0    0  0.25613459426E+02 -0.15466646761E+02 -0.38811497006E+03  0.40884409798E+03  0.12500000000E+03 0.  0.
         25    1    1    2    0    0  0.24413602682E+02  0.11152305910E+02 -0.34739552811E+02  0.13248484612E+03  0.12500000000E+03 0.  0.
         25    1    1    2    0    0 -0.50027062108E+02  0.43143408507E+01 -0.44241222381E+03  0.46246610282E+03  0.12500000000E+03 0.  0.
</event>
<event>
 5    0  0.5815084E-005  0.4198605E+03  0.7546771E-02  0.1037112E+00
         21   -1    0    0  502  501  0.00000000000E+00  0.00000000000E+00  0.83455432985E+03  0.83455432985E+03  0.00000000000E+00 0.  1.
         21   -1    0    0  501  502 -0.00000000000E+00 -0.00000000000E+00 -0.21122989355E+03  0.21122989355E+03  0.00000000000E+00 0.  1.
         25    1    1    2    0    0 -0.10820714842E+03 -0.91992571768E+02  0.49222882588E+03  0.52733825696E+03  0.12500000000E+03 0.  0.
         25    1    1    2    0    0 -0.15120838913E+03  0.50228384170E+02  0.84766644942E+01  0.20269119705E+03  0.12500000000E+03 0.  0.
         25    1    1    2    0    0  0.25941553755E+03  0.41764187599E+02  0.12261894593E+03  0.31575476939E+03  0.12500000000E+03 0.  0.
</event>
<event>
 5    0  0.5815084E-005  0.3255473E+03  0.7546771E-02  0.1073124E+00
         21   -1    0    0  502  501  0.00000000000E+00  0.00000000000E+00  0.94586334715E+03  0.94586334715E+03  0.00000000000E+00 0.  1.
         21   -1    0    0  501  502 -0.00000000000E+00 -0.00000000000E+00 -0.11204690823E+03  0.11204690823E+03  0.00000000000E+00 0.  1.
         25    1    1    2    0    0  0.15322207505E+03  0.35152547512E+02  0.22072589371E+03  0.29842524363E+03  0.12500000000E+03 0.  0.
         25    1    1    2    0    0 -0.23670743553E+03  0.43760648849E+02  0.44107297760E+03  0.51779897257E+03  0.12500000000E+03 0.  0.
         25    1    1    2    0    0  0.83485360480E+02 -0.78913196361E+02  0.17201756761E+03  0.24168603919E+03  0.12500000000E+03 0.  0.
</event>
<event>
 5    0  0.5815084E-005  0.3103960E+03  0.7546771E-02  0.1080156E+00
         21   -1    0    0  502  501  0.00000000000E+00  0.00000000000E+00  0.14096645729E+04  0.14096645729E+04  0.00000000000E+00 0. -1.
         21   -1    0    0  501  502 -0.00000000000E+00 -0.00000000000E+00 -0.68346540772E+02  0.68346540772E+02  0.00000000000E+00 0. -1.
         25    1    1    2    0    0 -0.14732284160E+03 -0.47059504104E+02  0.70141529076E+03  0.72905900083E+03  0.12500000000E+03 0.  0.
         25    1    1    2    0    0  0.17026499792E+03  0.10547842475E+03  0.49009010105E+03  0.54399372676E+03  0.12500000000E+03 0.  0.
         25    1    1    2    0    0 -0.22942156328E+02 -0.58418920644E+02  0.14981264032E+03  0.20495838608E+03  0.12500000000E+03 0.  0.
</event>
<event>
 5    0  0.5815084E-005  0.4603157E+03  0.7546771E-02  0.1024690E+00
         21   -1    0    0  502  501  0.00000000000E+00  0.00000000000E+00  0.30490113206E+03  0.30490113206E+03  0.00000000000E+00 0.  1.
         21   -1    0    0  501  502 -0.00000000000E+00 -0.00000000000E+00 -0.69494841497E+03  0.69494841497E+03  0.00000000000E+00 0.  1.
         25    1    1    2    0    0 -0.26951970275E+03 -0.13870996451E+03 -0.13790112395E+03  0.35570077932E+03  0.12500000000E+03 0.  0.
         25    1    1    2    0    0  0.16588397275E+03  0.11848887616E+03  0.97397219275E+02  0.25820210013E+03  0.12500000000E+03 0.  0.
         25    1    1    2    0    0  0.10363572999E+03  0.20221088348E+02 -0.34954337823E+03  0.38594666758E+03  0.12500000000E+03 0.  0.
</event>
<event>
 5    0  0.5815084E-005  0.3469187E+03  0.7546771E-02  0.1063887E+00
         21   -1    0    0  502  501  0.00000000000E+00  0.00000000000E+00  0.10325663377E+03  0.10325663377E+03  0.00000000000E+00 0.  1.
         21   -1    0    0  501  502 -0.00000000000E+00 -0.00000000000E+00 -0.11655675067E+04  0.11655675067E+04  0.00000000000E+00 0.  1.
         25    1    1    2    0    0  0.20279123532E+03 -0.13442243207E+02 -0.27467737806E+03  0.36383738269E+03  0.12500000000E+03 0.  0.
         25    1    1    2    0    0 -0.27263585973E+03 -0.80091611843E+00 -0.56981128202E+03  0.64392612200E+03  0.12500000000E+03 0.  0.
         25    1    1    2    0    0  0.69844624408E+02  0.14243159325E+02 -0.21782221286E+03  0.26106063580E+03  0.12500000000E+03 0.  0.
</event>
<event>
 5    0  0.5815084E-005  0.3145076E+03  0.7546771E-02  0.1078205E+00
         21   -1    0    0  502  501  0.00000000000E+00  0.00000000000E+00  0.62550593844E+03  0.62550593844E+03  0.00000000000E+00 0. -1.
         21   -1    0    0  501  502 -0.00000000000E+00 -0.00000000000E+00 -0.15813602001E+03  0.15813602001E+03  0.00000000000E+00 0. -1.
         25    1    1    2    0    0  0.50961194075E+02  0.47039007256E+02  0.38902699205E+03  0.41445954211E+03  0.12500000000E+03 0.  0.
         25    1    1    2    0    0 -0.12140679892E+03 -0.10274319825E+03  0.15339698594E+02  0.20286961814E+03  0.12500000000E+03 0.  0.
         25    1    1    2    0    0  0.70445604845E+02  0.55704190990E+02  0.63003227787E+02  0.16631279821E+03  0.12500000000E+03 0.  0.
</event>
<event>
 5    0  0.5815084E-005  0.3503945E+03  0.7546771E-02  0.1062453E+00
         21   -1    0    0  502  501  0.00000000000E+00  0.00000000000E+00  0.83320388275E+03  0.83320388275E+03  0.00000000000E+00 0.  1.
         21   -1    0    0  501  502 -0.00000000000E+00 -0.00000000000E+00 -0.14735448934E+03  0.14735448934E+03  0.00000000000E+00 0.  1.
         25    1    1    2    0    0  0.14203027091E+02  0.87851085604E+02  0.11419961257E+03  0.19127490878E+03  0.12500000000E+03 0.  0.
         25    1    1    2    0    0  0.87948192407E+02  0.57897369410E+02 -0.14504167228E+02  0.16408034861E+03  0.12500000000E+03 0.  0.
         25    1    1    2    0    0 -0.10215121950E+03 -0.14574845501E+03  0.58615394808E+03  0.62520311470E+03  0.12500000000E+03 0.  0.
</event>
<event>
 5    0  0.5815084E-005  0.3208884E+03  0.7546771E-02  0.1075241E+00
         21   -1    0    0  502  501  0.00000000000E+00  0.00000000000E+00  0.15219249038E+04  0.15219249038E+04  0.00000000000E+00 0.  1.
         21   -1    0    0  501  502 -0.00000000000E+00 -0.00000000000E+00 -0.67657334296E+02  0.67657334296E+02  0.00000000000E+00 0.  1.
         25    1    1    2    0    0  0.29231844899E+01  0.60749575954E+02  0.30223034186E+03  0.33266685367E+03  0.12500000000E+03 0.  0.
         25    1    1    2    0    0 -0.31018189505E+02 -0.24444194500E+03  0.69654558195E+03  0.74934287232E+03  0.12500000000E+03 0.  0.
         25    1    1    2    0    0  0.28095005015E+02  0.18369236905E+03  0.45549164565E+03  0.50757251207E+03  0.12500000000E+03 0.  0.
</event>
<event>
 5    0  0.5815084E-005  0.5724536E+03  0.7546771E-02  0.9964264E-01
         21   -1    0    0  502  501  0.00000000000E+00  0.00000000000E+00  0.17486374223E+03  0.17486374223E+03  0.00000000000E+00 0.  1.
         21   -1    0    0  501  502 -0.00000000000E+00 -0.00000000000E+00 -0.18740483208E+04  0.18740483208E+04  0.00000000000E+00 0.  1.
         25    1    1    2    0    0 -0.90882150024E+02 -0.23105463236E+03 -0.52037417410E+02  0.28280505855E+03  0.12500000000E+03 0.  0.
         25    1    1    2    0    0  0.10791274410E+03  0.27727930326E+03 -0.15859783625E+04  0.16184811826E+04  0.12500000000E+03 0.  0.
         25    1    1    2    0    0 -0.17030594076E+02 -0.46224670901E+02 -0.61168798665E+02  0.14762582181E+03  0.12500000000E+03 0.  0.
</event>
<event>
 5    0  0.5815084E-005  0.2885694E+03  0.7546771E-02  0.1091098E+00
         21   -1    0    0  502  501  0.00000000000E+00  0.00000000000E+00  0.18643313741E+04  0.18643313741E+04  0.00000000000E+00 0. -1.
         21   -1    0    0  501  502 -0.00000000000E+00 -0.00000000000E+00 -0.44666023964E+02  0.44666023964E+02  0.00000000000E+00 0. -1.
         25    1    1    2    0    0  0.21820882115E+01  0.15936914488E+03  0.57256901994E+03  0.60734139365E+03  0.12500000000E+03 0.  0.
         25    1    1    2    0    0  0.67092814482E+01 -0.18797128026E+03  0.58257963096E+03  0.62482176905E+03  0.12500000000E+03 0.  0.
         25    1    1    2    0    0 -0.88913696597E+01  0.28602135379E+02  0.66451669925E+03  0.67683423538E+03  0.12500000000E+03 0.  0.
</event>
<event>
 5    0  0.5815084E-005  0.3347166E+03  0.7546771E-02  0.1069069E+00
         21   -1    0    0  502  501  0.00000000000E+00  0.00000000000E+00  0.31502456090E+03  0.31502456090E+03  0.00000000000E+00 0. -1.
         21   -1    0    0  501  502 -0.00000000000E+00 -0.00000000000E+00 -0.35563957430E+03  0.35563957430E+03  0.00000000000E+00 0. -1.
         25    1    1    2    0    0  0.67037671008E+02  0.86773780638E+02 -0.14340716061E+03  0.21957766747E+03  0.12500000000E+03 0.  0.
         25    1    1    2    0    0 -0.14182600980E+03 -0.83323310261E+02  0.19049874910E+03  0.28101986495E+03  0.12500000000E+03 0.  0.
         25    1    1    2    0    0  0.74788338793E+02 -0.34504703766E+01 -0.87706601888E+02  0.17006660278E+03  0.12500000000E+03 0.  0.
</event>
<event>
 5    0  0.5815084E-005  0.3744853E+03  0.7546771E-02  0.1052991E+00
         21   -1    0    0  502  501  0.00000000000E+00  0.00000000000E+00  0.20916099025E+03  0.20916099025E+03  0.00000000000E+00 0. -1.
         21   -1    0    0  501  502 -0.00000000000E+00 -0.00000000000E+00 -0.67048458630E+03  0.67048458630E+03  0.00000000000E+00 0. -1.
         25    1    1    2    0    0  0.98921161632E+02 -0.10102626509E+03 -0.10822509324E+03  0.21755315043E+03  0.12500000000E+03 0.  0.
         25    1    1    2    0    0 -0.13812038630E+03 -0.16427504290E+03 -0.23985051281E+03  0.34527785815E+03  0.12500000000E+03 0.  0.
         25    1    1    2    0    0  0.39199224670E+02  0.26530130799E+03 -0.11324799001E+03  0.31681456797E+03  0.12500000000E+03 0.  0.
</event>
<event>
 5    0  0.5815084E-005  0.2533803E+03  0.7546771E-02  0.1111187E+00
         21   -1    0    0  502  501  0.00000000000E+00  0.00000000000E+00  0.52263307120E+03  0.52263307120E+03  0.00000000000E+00 0.  1.
         21   -1    0    0  501  502 -0.00000000000E+00 -0.00000000000E+00 -0.12284255053E+03  0.12284255053E+03  0.00000000000E+00 0.  1.
         25    1    1    2    0    0 -0.61689895177E+01  0.51544366273E+02  0.69037813393E+01  0.13552689889E+03  0.12500000000E+03 0.  0.
         25    1    1    2    0    0 -0.44829911027E+02  0.56604478634E+02  0.12439805801E+03  0.19056144615E+03  0.12500000000E+03 0.  0.
         25    1    1    2    0    0  0.50998900545E+02 -0.10814884491E+03  0.26848868132E+03  0.31938727668E+03  0.12500000000E+03 0.  0.
</event>
<event>
 5    0  0.5999015E-005  0.2856347E+03  0.7546771E-02  0.1092651E+00
         21   -1    0    0  502  501  0.00000000000E+00  0.00000000000E+00  0.64609694610E+03  0.64609694610E+03  0.00000000000E+00 0.  1.
         21   -1    0    0  501  502 -0.00000000000E+00 -0.00000000000E+00 -0.12627697096E+03  0.12627697096E+03  0.00000000000E+00 0.  1.
         25    1    1    2    0    0 -0.61143244264E+02 -0.38197522911E+02  0.90883508195E+02  0.17053550697E+03  0.12500000000E+03 0.  0.
         25    1    1    2    0    0  0.14439742346E+03  0.13551114088E+03  0.18054968395E+03  0.29569760496E+03  0.12500000000E+03 0.  0.
         25    1    1    2    0    0 -0.83254179200E+02 -0.97313617973E+02  0.24838678300E+03  0.30614080513E+03  0.12500000000E+03 0.  0.
</event>
<event>
 5    0  0.5815084E-005  0.2964785E+03  0.7546771E-02  0.1087014E+00
         21   -1    0    0  502  501  0.00000000000E+00  0.00000000000E+00  0.68937800685E+03  0.68937800685E+03  0.00000000000E+00 0.  1.
         21   -1    0    0  501  502 -0.00000000000E+00 -0.00000000000E+00 -0.12750555716E+03  0.12750555716E+03  0.00000000000E+00 0.  1.
         25    1    1    2    0    0  0.90676763126E+02 -0.27676106418E+01  0.30397650963E+03  0.34096429938E+03  0.12500000000E+03 0.  0.
         25    1    1    2    0    0  0.20752671758E+02 -0.87590297521E+02  0.23949145679E+03  0.28475233358E+03  0.12500000000E+03 0.  0.
         25    1    1    2    0    0 -0.11142943488E+03  0.90357908162E+02  0.18404483274E+02  0.19116693106E+03  0.12500000000E+03 0.  0.
</event>
<event>
 5    0  0.5815084E-005  0.2687431E+03  0.7546771E-02  0.1102001E+00
         21   -1    0    0  502  501  0.00000000000E+00  0.00000000000E+00  0.87111222212E+03  0.87111222212E+03  0.00000000000E+00 0. -1.
         21   -1    0    0  501  502 -0.00000000000E+00 -0.00000000000E+00 -0.82908769867E+02  0.82908769867E+02  0.00000000000E+00 0. -1.
         25    1    1    2    0    0 -0.10889207287E+03  0.86513724157E+02  0.15706975968E+03  0.24420896259E+03  0.12500000000E+03 0.  0.
         25    1    1    2    0    0 -0.10401678608E+02 -0.56805489515E+02  0.37446344734E+03  0.39897735769E+03  0.12500000000E+03 0.  0.
         25    1    1    2    0    0  0.11929375148E+03 -0.29708234642E+02  0.25667024523E+03  0.31083467170E+03  0.12500000000E+03 0.  0.
</event>
<event>
 5    0  0.5815084E-005  0.2961760E+03  0.7546771E-02  0.1087168E+00
         21   -1    0    0  502  501  0.00000000000E+00  0.00000000000E+00  0.55126152128E+03  0.55126152128E+03  0.00000000000E+00 0. -1.
         21   -1    0    0  501  502 -0.00000000000E+00 -0.00000000000E+00 -0.15912630233E+03  0.15912630233E+03  0.00000000000E+00 0. -1.
         25    1    1    2    0    0  0.80649440052E+02  0.10429732651E+03  0.26468946050E+03  0.32104170290E+03  0.12500000000E+03 0.  0.
         25    1    1    2    0    0 -0.83508363150E+02 -0.10295789617E+03 -0.33784362975E+02  0.18531151686E+03  0.12500000000E+03 0.  0.
         25    1    1    2    0    0  0.28589230983E+01 -0.13394303443E+01  0.16123012142E+03  0.20403460385E+03  0.12500000000E+03 0.  0.
</event>
<event>
 5    0  0.5815084E-005  0.2363675E+03  0.7546771E-02  0.1122237E+00
         21   -1    0    0  502  501  0.00000000000E+00  0.00000000000E+00  0.60172588921E+03  0.60172588921E+03  0.00000000000E+00 0. -1.
         21   -1    0    0  501  502 -0.00000000000E+00 -0.00000000000E+00 -0.92848937936E+02  0.92848937936E+02  0.00000000000E+00 0. -1.
         25    1    1    2    0    0  0.55837813420E+02 -0.43283652669E+02  0.66660260706E+02  0.15830327335E+03  0.12500000000E+03 0.  0.
         25    1    1    2    0    0  0.10164734605E+02  0.62705838128E+02  0.12261196485E+03  0.18626335627E+03  0.12500000000E+03 0.  0.
         25    1    1    2    0    0 -0.66002548025E+02 -0.19422185459E+02  0.31960472572E+03  0.35000819753E+03  0.12500000000E+03 0.  0.
</event>
<event>
 5    0  0.5815084E-005  0.2558042E+03  0.7546771E-02  0.1109691E+00
         21   -1    0    0  502  501  0.00000000000E+00  0.00000000000E+00  0.34883159027E+02  0.34883159027E+02  0.00000000000E+00 0. -1.
         21   -1    0    0  501  502 -0.00000000000E+00 -0.00000000000E+00 -0.18758568393E+04  0.18758568393E+04  0.00000000000E+00 0. -1.
         25    1    1    2    0    0 -0.90178513770E+02 -0.84461548322E+02 -0.11129898273E+04  0.11267818214E+04  0.12500000000E+03 0.  0.
         25    1    1    2    0    0  0.27486276765E+02  0.29920732480E+02 -0.43989862943E+03  0.45911496362E+03  0.12500000000E+03 0.  0.
         25    1    1    2    0    0  0.62692237006E+02  0.54540815842E+02 -0.28808522354E+03  0.32484321325E+03  0.12500000000E+03 0.  0.
</event>
<event>
 5    0  0.5815084E-005  0.4078368E+03  0.7546771E-02  0.1041099E+00
         21   -1    0    0  502  501  0.00000000000E+00  0.00000000000E+00  0.13656213323E+04  0.13656213323E+04  0.00000000000E+00 0. -1.
         21   -1    0    0  501  502 -0.00000000000E+00 -0.00000000000E+00 -0.12179869467E+03  0.12179869467E+03  0.00000000000E+00 0. -1.
         25    1    1    2    0    0 -0.14705773507E+03  0.12924131663E+03  0.24950394735E+03  0.34089076713E+03  0.12500000000E+03 0.  0.
         25    1    1    2    0    0  0.30499499250E+03 -0.60580545494E+01  0.50273394286E+03  0.60118637940E+03  0.12500000000E+03 0.  0.
         25    1    1    2    0    0 -0.15793725743E+03 -0.12318326209E+03  0.49158474740E+03  0.54534288042E+03  0.12500000000E+03 0.  0.
</event>
<event>
 5    0  0.5815084E-005  0.2562145E+03  0.7546771E-02  0.1109439E+00
         21   -1    0    0  502  501  0.00000000000E+00  0.00000000000E+00  0.24621638464E+03  0.24621638464E+03  0.00000000000E+00 0.  1.
         21   -1    0    0  501  502 -0.00000000000E+00 -0.00000000000E+00 -0.26661860300E+03  0.26661860300E+03  0.00000000000E+00 0.  1.
         25    1    1    2    0    0 -0.42861674457E+02 -0.46893474884E+02  0.49528573445E+02  0.14870844196E+03  0.12500000000E+03 0.  0.
         25    1    1    2    0    0  0.78719328007E+02  0.43870501486E+02  0.73301490825E+02  0.17064425586E+03  0.12500000000E+03 0.  0.
         25    1    1    2    0    0 -0.35857653549E+02  0.30229733979E+01 -0.14323228263E+03  0.19348228982E+03  0.12500000000E+03 0.  0.
</event>
<event>
 5    0  0.5815084E-005  0.4626221E+03  0.7546771E-02  0.1024023E+00
         21   -1    0    0  502  501  0.00000000000E+00  0.00000000000E+00  0.10926494988E+03  0.10926494988E+03  0.00000000000E+00 0. -1.
         21   -1    0    0  501  502 -0.00000000000E+00 -0.00000000000E+00 -0.19587177244E+04  0.19587177244E+04  0.00000000000E+00 0. -1.
         25    1    1    2    0    0 -0.35656560393E+02 -0.16851201235E+03 -0.52802739107E+03  0.56930274400E+03  0.12500000000E+03 0.  0.
         25    1    1    2    0    0  0.28360390711E+03  0.10507358794E+03 -0.10694206366E+04  0.11183725376E+04  0.12500000000E+03 0.  0.
         25    1    1    2    0    0 -0.24794734672E+03  0.63438424412E+02 -0.25200474684E+03  0.38030739260E+03  0.12500000000E+03 0.  0.
</event>
<event>
 5    0  0.5815084E-005  0.3932533E+03  0.7546771E-02  0.1046141E+00
         21   -1    0    0  502  501  0.00000000000E+00  0.00000000000E+00  0.76925269916E+03  0.76925269916E+03  0.00000000000E+00 0. -1.
         21   -1    0    0  501  502 -0.00000000000E+00 -0.00000000000E+00 -0.20103684216E+03  0.20103684216E+03  0.00000000000E+00 0. -1.
         25    1    1    2    0    0 -0.11327234237E+02 -0.62395634975E+01 -0.30043156417E+02  0.12920847354E+03  0.12500000000E+03 0.  0.
         25    1    1    2    0    0  0.27059007287E+03  0.29154281555E+02  0.34660122619E+03  0.45806808409E+03  0.12500000000E+03 0.  0.
         25    1    1    2    0    0 -0.25926283863E+03 -0.22914718058E+02  0.25165778722E+03  0.38301298368E+03  0.12500000000E+03 0.  0.
</event>
<event>
 5    0  0.5815084E-005  0.4107175E+03  0.7546771E-02  0.1040130E+00
         21   -1    0    0  502  501  0.00000000000E+00  0.00000000000E+00  0.11586308608E+03  0.11586308608E+03  0.00000000000E+00 0.  1.
         21   -1    0    0  501  502 -0.00000000000E+00 -0.00000000000E+00 -0.14559329087E+04  0.14559329087E+04  0.00000000000E+00 0.  1.
         25    1    1    2    0    0  0.15065796873E+03  0.27084688444E+03 -0.62677345517E+03  0.71029981167E+03  0.12500000000E+03 0.  0.
         25    1    1    2    0    0  0.93417470890E+01  0.21362345907E+02 -0.17949468338E+03  0.21997036033E+03  0.12500000000E+03 0.  0.
         25    1    1    2    0    0 -0.15999971582E+03 -0.29220923035E+03 -0.53380168401E+03  0.64152582272E+03  0.12500000000E+03 0.  0.
</event>
<event>
 5    0  0.5815084E-005  0.3353833E+03  0.7546771E-02  0.1068779E+00
         21   -1    0    0  502  501  0.00000000000E+00  0.00000000000E+00  0.27400821957E+03  0.27400821957E+03  0.00000000000E+00 0. -1.
         21   -1    0    0  501  502 -0.00000000000E+00 -0.00000000000E+00 -0.41050584345E+03  0.41050584345E+03  0.00000000000E+00 0. -1.
         25    1    1    2    0    0  0.92914575667E+02  0.44082324315E+02 -0.30896773123E+03  0.34880141719E+03  0.12500000000E+03 0.  0.
         25    1    1    2    0    0 -0.60803343644E+02  0.16139369831E+02  0.11864077169E+03  0.18346159970E+03  0.12500000000E+03 0.  0.
         25    1    1    2    0    0 -0.32111232023E+02 -0.60221694146E+02  0.53829335663E+02  0.15225104612E+03  0.12500000000E+03 0.  0.
</event>
<event>
 5    0  0.5815084E-005  0.5853504E+03  0.7546771E-02  0.9936274E-01
         21   -1    0    0  502  501  0.00000000000E+00  0.00000000000E+00  0.28567261156E+03  0.28567261156E+03  0.00000000000E+00 0. -1.
         21   -1    0    0  501  502 -0.00000000000E+00 -0.00000000000E+00 -0.11993977172E+04  0.11993977172E+04  0.00000000000E+00 0. -1.
         25    1    1    2    0    0 -0.14985286317E+02  0.10783722521E+03 -0.54519928244E+03  0.56984268313E+03  0.12500000000E+03 0.  0.
         25    1    1    2    0    0 -0.34290157580E+03 -0.23938448774E+03 -0.18944545054E+03  0.47581614347E+03  0.12500000000E+03 0.  0.
         25    1    1    2    0    0  0.35788686212E+03  0.13154726253E+03 -0.17908037267E+03  0.43941150216E+03  0.12500000000E+03 0.  0.
</event>
<event>
 5    0  0.5815084E-005  0.2608323E+03  0.7546771E-02  0.1106644E+00
         21   -1    0    0  502  501  0.00000000000E+00  0.00000000000E+00  0.75533254009E+03  0.75533254009E+03  0.00000000000E+00 0.  1.
         21   -1    0    0  501  502 -0.00000000000E+00 -0.00000000000E+00 -0.90070936745E+02  0.90070936745E+02  0.00000000000E+00 0.  1.
         25    1    1    2    0    0 -0.10780578605E+03 -0.12484104254E+03  0.18455350963E+03  0.27729473729E+03  0.12500000000E+03 0.  0.
         25    1    1    2    0    0  0.48352879243E+02  0.81167135271E+02  0.27175767225E+03  0.31369306209E+03  0.12500000000E+03 0.  0.
         25    1    1    2    0    0  0.59452906811E+02  0.43673907272E+02  0.20895042147E+03  0.25441567746E+03  0.12500000000E+03 0.  0.
</event>
<event>
 5    0  0.5815084E-005  0.2296761E+03  0.7546771E-02  0.1126868E+00
         21   -1    0    0  502  501  0.00000000000E+00  0.00000000000E+00  0.10529511971E+03  0.10529511971E+03  0.00000000000E+00 0.  1.
         21   -1    0    0  501  502 -0.00000000000E+00 -0.00000000000E+00 -0.50098362316E+03  0.50098362316E+03  0.00000000000E+00 0.  1.
         25    1    1    2    0    0  0.25386735162E+02  0.79552008579E+01 -0.72339977315E+02  0.14685313705E+03  0.12500000000E+03 0.  0.
         25    1    1    2    0    0 -0.10432808767E+03 -0.11976621473E+02 -0.23818058625E+03  0.28876076777E+03  0.12500000000E+03 0.  0.
         25    1    1    2    0    0  0.78941352511E+02  0.40214206154E+01 -0.85167939893E+02  0.17066483805E+03  0.12500000000E+03 0.  0.
</event>
<event>
 5    0  0.5815084E-005  0.3551906E+03  0.7546771E-02  0.1060505E+00
         21   -1    0    0  502  501  0.00000000000E+00  0.00000000000E+00  0.64161213210E+03  0.64161213210E+03  0.00000000000E+00 0.  1.
         21   -1    0    0  501  502 -0.00000000000E+00 -0.00000000000E+00 -0.19663030296E+03  0.19663030296E+03  0.00000000000E+00 0.  1.
         25    1    1    2    0    0  0.19250712700E+03 -0.42916822745E+02  0.13485477552E+03  0.26965099314E+03  0.12500000000E+03 0.  0.
         25    1    1    2    0    0 -0.22455894860E+02  0.24434282180E+02  0.33132800329E+03  0.35567477718E+03  0.12500000000E+03 0.  0.
         25    1    1    2    0    0 -0.17005123214E+03  0.18482540565E+02 -0.21200949656E+02  0.21291666474E+03  0.12500000000E+03 0.  0.
</event>
<event>
 5    0  0.5815084E-005  0.2929807E+03  0.7546771E-02  0.1088803E+00
         21   -1    0    0  502  501  0.00000000000E+00  0.00000000000E+00  0.10285909169E+04  0.10285909169E+04  0.00000000000E+00 0. -1.
         21   -1    0    0  501  502 -0.00000000000E+00 -0.00000000000E+00 -0.83451709958E+02  0.83451709958E+02  0.00000000000E+00 0. -1.
         25    1    1    2    0    0 -0.84934297152E+02  0.16243804056E+02  0.21889506404E+03  0.26649154783E+03  0.12500000000E+03 0.  0.
         25    1    1    2    0    0 -0.10749532218E+03 -0.85084530995E+02  0.39863797957E+03  0.43969519040E+03  0.12500000000E+03 0.  0.
         25    1    1    2    0    0  0.19242961933E+03  0.68840726939E+02  0.32760616332E+03  0.40585588862E+03  0.12500000000E+03 0.  0.
</event>
<event>
 5    0  0.5815084E-005  0.3223966E+03  0.7546771E-02  0.1074552E+00
         21   -1    0    0  502  501  0.00000000000E+00  0.00000000000E+00  0.54058402710E+03  0.54058402710E+03  0.00000000000E+00 0. -1.
         21   -1    0    0  501  502 -0.00000000000E+00 -0.00000000000E+00 -0.19227275074E+03  0.19227275074E+03  0.00000000000E+00 0. -1.
         25    1    1    2    0    0  0.18024813837E+03 -0.76029516582E+01  0.15642012214E+03  0.26951706971E+03  0.12500000000E+03 0.  0.
         25    1    1    2    0    0  0.12049058051E+02 -0.10643521400E+03  0.90574008778E+02  0.18788902481E+03  0.12500000000E+03 0.  0.
         25    1    1    2    0    0 -0.19229719642E+03  0.11403816566E+03  0.10131714545E+03  0.27545068331E+03  0.12500000000E+03 0.  0.
</event>
<event>
 5    0  0.5815084E-005  0.2599779E+03  0.7546771E-02  0.1107156E+00
         21   -1    0    0  502  501  0.00000000000E+00  0.00000000000E+00  0.14583972703E+04  0.14583972703E+04  0.00000000000E+00 0. -1.
         21   -1    0    0  501  502 -0.00000000000E+00 -0.00000000000E+00 -0.46344387767E+02  0.46344387767E+02  0.00000000000E+00 0. -1.
         25    1    1    2    0    0 -0.68057403041E+01 -0.36867163741E+02  0.25115314202E+03  0.28303428522E+03  0.12500000000E+03 0.  0.
         25    1    1    2    0    0 -0.12718497985E+03  0.64883179324E+02  0.48365409309E+03  0.51954992813E+03  0.12500000000E+03 0.  0.
         25    1    1    2    0    0  0.13399072015E+03 -0.28016015584E+02  0.67724564744E+03  0.70215744473E+03  0.12500000000E+03 0.  0.
</event>
<event>
 5    0  0.5815084E-005  0.2162944E+03  0.7546771E-02  0.1136676E+00
         21   -1    0    0  502  501  0.00000000000E+00  0.00000000000E+00  0.13089995940E+04  0.13089995940E+04  0.00000000000E+00 0.  1.
         21   -1    0    0  501  502 -0.00000000000E+00 -0.00000000000E+00 -0.35739722156E+02  0.35739722156E+02  0.00000000000E+00 0.  1.
         25    1    1    2    0    0 -0.31940098784E+02  0.76468017064E+02  0.44902738103E+03  0.47341114949E+03  0.12500000000E+03 0.  0.
         25    1    1    2    0    0 -0.14762923572E+02  0.54807310037E+01  0.36886380046E+03  0.38978646156E+03  0.12500000000E+03 0.  0.
         25    1    1    2    0    0  0.46703022356E+02 -0.81948748067E+02  0.45536869036E+03  0.48154170512E+03  0.12500000000E+03 0.  0.
</event>
<event>
 5    0  0.5815084E-005  0.3212683E+03  0.7546771E-02  0.1075067E+00
         21   -1    0    0  502  501  0.00000000000E+00  0.00000000000E+00  0.14109793578E+04  0.14109793578E+04  0.00000000000E+00 0.  1.
         21   -1    0    0  501  502 -0.00000000000E+00 -0.00000000000E+00 -0.73150134820E+02  0.73150134820E+02  0.00000000000E+00 0.  1.
         25    1    1    2    0    0  0.93212956610E+01  0.12888778802E+03  0.41808687283E+03  0.45510502270E+03  0.12500000000E+03 0.  0.
         25    1    1    2    0    0  0.33163469920E+02 -0.33571421041E+02  0.83468849570E+03  0.84531458103E+03  0.12500000000E+03 0.  0.
         25    1    1    2    0    0 -0.42484765581E+02 -0.95316366974E+02  0.85053854449E+02  0.18370988889E+03  0.12500000000E+03 0.  0.
</event>
<event>
 5    0  0.5815084E-005  0.2469456E+03  0.7546771E-02  0.1115250E+00
         21   -1    0    0  502  501  0.00000000000E+00  0.00000000000E+00  0.22892245510E+04  0.22892245510E+04  0.00000000000E+00 0.  1.
         21   -1    0    0  501  502 -0.00000000000E+00 -0.00000000000E+00 -0.26638780889E+02  0.26638780889E+02  0.00000000000E+00 0.  1.
         25    1    1    2    0    0 -0.29654570576E+02  0.43920431723E+02  0.62317797814E+03  0.63779635490E+03  0.12500000000E+03 0.  0.
         25    1    1    2    0    0 -0.78687587094E+02 -0.46480416149E+01  0.38847350909E+03  0.41563205834E+03  0.12500000000E+03 0.  0.
         25    1    1    2    0    0  0.10834215767E+03 -0.39272390108E+02  0.12509342828E+04  0.12624349186E+04  0.12500000000E+03 0.  0.
</event>
<event>
 5    0  0.6277284E-005  0.5867276E+03  0.7546771E-02  0.9933331E-01
         21   -1    0    0  502  501  0.00000000000E+00  0.00000000000E+00  0.63385264358E+03  0.63385264358E+03  0.00000000000E+00 0.  1.
         21   -1    0    0  501  502 -0.00000000000E+00 -0.00000000000E+00 -0.54310607106E+03  0.54310607106E+03  0.00000000000E+00 0.  1.
         25    1    1    2    0    0  0.94879545291E+01 -0.36181272661E+03  0.36072745734E+02  0.38460981969E+03  0.12500000000E+03 0.  0.
         25    1    1    2    0    0  0.27848451016E+03  0.11810144528E+03 -0.13243354333E+03  0.35307961875E+03  0.12500000000E+03 0.  0.
         25    1    1    2    0    0 -0.28797246469E+03  0.24371128133E+03  0.18710737011E+03  0.43926927620E+03  0.12500000000E+03 0.  0.
</event>
<event>
 5    0  0.5815084E-005  0.3117385E+03  0.7546771E-02  0.1079516E+00
         21   -1    0    0  502  501  0.00000000000E+00  0.00000000000E+00  0.52712659684E+03  0.52712659684E+03  0.00000000000E+00 0.  1.
         21   -1    0    0  501  502 -0.00000000000E+00 -0.00000000000E+00 -0.18435968054E+03  0.18435968054E+03  0.00000000000E+00 0.  1.
         25    1    1    2    0    0 -0.15365780218E+03  0.44363436663E+02 -0.11781731197E+02  0.20332890565E+03  0.12500000000E+03 0.  0.
         25    1    1    2    0    0  0.77614737877E+02 -0.12805174772E+03  0.20234349686E+03  0.28105015273E+03  0.12500000000E+03 0.  0.
         25    1    1    2    0    0  0.76043064307E+02  0.83688311053E+02  0.15220515064E+03  0.22710721899E+03  0.12500000000E+03 0.  0.
</event>
<event>
 5    0  0.5815084E-005  0.4057994E+03  0.7546771E-02  0.1041790E+00
         21   -1    0    0  502  501  0.00000000000E+00  0.00000000000E+00  0.15239275598E+04  0.15239275598E+04  0.00000000000E+00 0. -1.
         21   -1    0    0  501  502 -0.00000000000E+00 -0.00000000000E+00 -0.10805838196E+03  0.10805838196E+03  0.00000000000E+00 0. -1.
         25    1    1    2    0    0 -0.21632207939E+03  0.13224091039E+03  0.10311487359E+04  0.10691939094E+04  0.12500000000E+03 0.  0.
         25    1    1    2    0    0  0.17814733413E+03 -0.15957002959E+03  0.30513741768E+03  0.40734863529E+03  0.12500000000E+03 0.  0.
         25    1    1    2    0    0  0.38174745262E+02  0.27329119203E+02  0.79583024248E+02  0.15544339703E+03  0.12500000000E+03 0.  0.
</event>
<event>
 5    0  0.5815084E-005  0.4065389E+03  0.7546771E-02  0.1041539E+00
         21   -1    0    0  502  501  0.00000000000E+00  0.00000000000E+00  0.79104910034E+03  0.79104910034E+03  0.00000000000E+00 0. -1.
         21   -1    0    0  501  502 -0.00000000000E+00 -0.00000000000E+00 -0.20892999795E+03  0.20892999795E+03  0.00000000000E+00 0. -1.
         25    1    1    2    0    0 -0.10526722919E+03  0.64625585834E+02  0.15656788910E+03  0.23536388802E+03  0.12500000000E+03 0.  0.
         25    1    1    2    0    0  0.47441560922E+02 -0.15616290641E+03  0.53037234008E+03  0.56882103878E+03  0.12500000000E+03 0.  0.
         25    1    1    2    0    0  0.57825668266E+02  0.91537320580E+02 -0.10482112679E+03  0.19579417149E+03  0.12500000000E+03 0.  0.
</event>
<event>
 5    0  0.5815084E-005  0.5100477E+03  0.7546771E-02  0.1011189E+00
         21   -1    0    0  502  501  0.00000000000E+00  0.00000000000E+00  0.16284357621E+03  0.16284357621E+03  0.00000000000E+00 0. -1.
         21   -1    0    0  501  502 -0.00000000000E+00 -0.00000000000E+00 -0.15975368874E+04  0.15975368874E+04  0.00000000000E+00 0. -1.
         25    1    1    2    0    0 -0.19318147236E+03  0.28749111199E+03 -0.36827356671E+03  0.52078847978E+03  0.12500000000E+03 0.  0.
         25    1    1    2    0    0  0.15620691976E+03 -0.18093874875E+03 -0.10333961890E+04  0.10680225260E+04  0.12500000000E+03 0.  0.
         25    1    1    2    0    0  0.36974552594E+02 -0.10655236325E+03 -0.33023555496E+02  0.17156945786E+03  0.12500000000E+03 0.  0.
</event>
<event>
 5    0  0.5961467E-005  0.3116121E+03  0.7546771E-02  0.1079576E+00
         21   -1    0    0  502  501  0.00000000000E+00  0.00000000000E+00  0.29806845685E+03  0.29806845685E+03  0.00000000000E+00 0. -1.
         21   -1    0    0  501  502 -0.00000000000E+00 -0.00000000000E+00 -0.32577120862E+03  0.32577120862E+03  0.00000000000E+00 0. -1.
         25    1    1    2    0    0  0.70418192891E+02  0.35715754850E+02  0.11648286351E+03  0.18822219456E+03  0.12500000000E+03 0.  0.
         25    1    1    2    0    0 -0.62117357747E+02 -0.11220595471E+02  0.91715313309E+02  0.16739524065E+03  0.12500000000E+03 0.  0.
         25    1    1    2    0    0 -0.83008351445E+01 -0.24495159379E+02 -0.23590092859E+03  0.26822223026E+03  0.12500000000E+03 0.  0.
</event>
<event>
 5    0  0.5815084E-005  0.4628123E+03  0.7546771E-02  0.1023969E+00
         21   -1    0    0  502  501  0.00000000000E+00  0.00000000000E+00  0.15475321205E+03  0.15475321205E+03  0.00000000000E+00 0.  1.
         21   -1    0    0  501  502 -0.00000000000E+00 -0.00000000000E+00 -0.13841082019E+04  0.13841082019E+04  0.00000000000E+00 0.  1.
         25    1    1    2    0    0  0.13272389955E+03 -0.17477373310E+03 -0.84542807983E+03  0.88234637726E+03  0.12500000000E+03 0.  0.
         25    1    1    2    0    0  0.65552889487E+02  0.46842988278E+02  0.41347033033E+02  0.15435680747E+03  0.12500000000E+03 0.  0.
         25    1    1    2    0    0 -0.19827678904E+03  0.12793074482E+03 -0.42527394301E+03  0.50215822920E+03  0.12500000000E+03 0.  0.
</event>
<event>
 5    0  0.5815084E-005  0.2632289E+03  0.7546771E-02  0.1105219E+00
         21   -1    0    0  502  501  0.00000000000E+00  0.00000000000E+00  0.94893166841E+02  0.94893166841E+02  0.00000000000E+00 0. -1.
         21   -1    0    0  501  502 -0.00000000000E+00 -0.00000000000E+00 -0.73018407020E+03  0.73018407020E+03  0.00000000000E+00 0. -1.
         25    1    1    2    0    0 -0.15944505329E+03 -0.72388968453E+02 -0.26117367799E+03  0.33837786253E+03  0.12500000000E+03 0.  0.
         25    1    1    2    0    0  0.10651017537E+03  0.52754115641E+02 -0.18324050342E+03  0.25165352425E+03  0.12500000000E+03 0.  0.
         25    1    1    2    0    0  0.52934877920E+02  0.19634852812E+02 -0.19087672195E+03  0.23504585027E+03  0.12500000000E+03 0.  0.
</event>
<event>
 5    0  0.5815084E-005  0.2229136E+03  0.7546771E-02  0.1131729E+00
         21   -1    0    0  502  501  0.00000000000E+00  0.00000000000E+00  0.13011477657E+03  0.13011477657E+03  0.00000000000E+00 0.  1.
         21   -1    0    0  501  502 -0.00000000000E+00 -0.00000000000E+00 -0.38189711392E+03  0.38189711392E+03  0.00000000000E+00 0.  1.
         25    1    1    2    0    0 -0.60267938886E+02 -0.90328548679E+02 -0.10784414239E+03  0.19760270801E+03  0.12500000000E+03 0.  0.
         25    1    1    2    0    0  0.59093039816E+01  0.64011835618E+02 -0.77389446905E+02  0.16045735092E+03  0.12500000000E+03 0.  0.
         25    1    1    2    0    0  0.54358634904E+02  0.26316713061E+02 -0.66548748056E+02  0.15395183157E+03  0.12500000000E+03 0.  0.
</event>
<event>
 5    0  0.5815084E-005  0.2876516E+03  0.7546771E-02  0.1091582E+00
         21   -1    0    0  502  501  0.00000000000E+00  0.00000000000E+00  0.87986740767E+03  0.87986740767E+03  0.00000000000E+00 0. -1.
         21   -1    0    0  501  502 -0.00000000000E+00 -0.00000000000E+00 -0.94040815477E+02  0.94040815477E+02  0.00000000000E+00 0. -1.
         25    1    1    2    0    0 -0.64006599904E+02 -0.25690998541E+02  0.42417961409E+03  0.44756029453E+03  0.12500000000E+03 0.  0.
         25    1    1    2    0    0 -0.31179928900E+01  0.13034115006E+03  0.27723027613E+03  0.33087786762E+03  0.12500000000E+03 0.  0.
         25    1    1    2    0    0  0.67124592794E+02 -0.10465015152E+03  0.84416701977E+02  0.19547006099E+03  0.12500000000E+03 0.  0.
</event>
<event>
 5    0  0.6237445E-005  0.4862408E+03  0.7546771E-02  0.1017434E+00
         21   -1    0    0  502  501  0.00000000000E+00  0.00000000000E+00  0.77749326925E+03  0.77749326925E+03  0.00000000000E+00 0.  1.
         21   -1    0    0  501  502 -0.00000000000E+00 -0.00000000000E+00 -0.30409284529E+03  0.30409284529E+03  0.00000000000E+00 0.  1.
         25    1    1    2    0    0 -0.56854401487E+02 -0.17484371531E+03  0.48679856385E+03  0.53516407720E+03  0.12500000000E+03 0.  0.
         25    1    1    2    0    0  0.73700523292E+02 -0.60697326005E+02 -0.17410017963E+03  0.23463121077E+03  0.12500000000E+03 0.  0.
         25    1    1    2    0    0 -0.16846121805E+02  0.23554104132E+03  0.16070203973E+03  0.31179082658E+03  0.12500000000E+03 0.  0.
</event>
<event>
 5    0  0.5815084E-005  0.2914281E+03  0.7546771E-02  0.1089606E+00
         21   -1    0    0  502  501  0.00000000000E+00  0.00000000000E+00  0.80942177950E+02  0.80942177950E+02  0.00000000000E+00 0.  1.
         21   -1    0    0  501  502 -0.00000000000E+00 -0.00000000000E+00 -0.10492719477E+04  0.10492719477E+04  0.00000000000E+00 0.  1.
         25    1    1    2    0    0  0.13576535534E+03  0.70835176457E+02 -0.26144624646E+03  0.32776362477E+03  0.12500000000E+03 0.  0.
         25    1    1    2    0    0 -0.14915131578E+03 -0.10344534955E+03 -0.58176437862E+03  0.62211080008E+03  0.12500000000E+03 0.  0.
         25    1    1    2    0    0  0.13385960439E+02  0.32610173090E+02 -0.12511914469E+03  0.18033970083E+03  0.12500000000E+03 0.  0.
</event>
<event>
 5    0  0.5815084E-005  0.2353828E+03  0.7546771E-02  0.1122907E+00
         21   -1    0    0  502  501  0.00000000000E+00  0.00000000000E+00  0.82778673508E+03  0.82778673508E+03  0.00000000000E+00 0.  1.
         21   -1    0    0  501  502 -0.00000000000E+00 -0.00000000000E+00 -0.66931593676E+02  0.66931593676E+02  0.00000000000E+00 0.  1.
         25    1    1    2    0    0 -0.55415420477E+01 -0.62450611658E+02  0.26980369235E+03  0.30389113181E+03  0.12500000000E+03 0.  0.
         25    1    1    2    0    0  0.97002910994E+02  0.67559365967E+02  0.22973704138E+03  0.28701557598E+03  0.12500000000E+03 0.  0.
         25    1    1    2    0    0 -0.91461368946E+02 -0.51087543092E+01  0.26131440767E+03  0.30381162097E+03  0.12500000000E+03 0.  0.
</event>
<event>
 5    0  0.5815084E-005  0.3178945E+03  0.7546771E-02  0.1076622E+00
         21   -1    0    0  502  501  0.00000000000E+00  0.00000000000E+00  0.46826110520E+03  0.46826110520E+03  0.00000000000E+00 0.  1.
         21   -1    0    0  501  502 -0.00000000000E+00 -0.00000000000E+00 -0.21581313310E+03  0.21581313310E+03  0.00000000000E+00 0.  1.
         25    1    1    2    0    0 -0.13690829992E+03  0.44918028770E+02  0.65015552147E+02  0.20152799785E+03  0.12500000000E+03 0.  0.
         25    1    1    2    0    0 -0.14380171823E+02 -0.10715768136E+03 -0.45745482710E+02  0.17148529734E+03  0.12500000000E+03 0.  0.
         25    1    1    2    0    0  0.15128847175E+03  0.62239652591E+02  0.23317790266E+03  0.31106094311E+03  0.12500000000E+03 0.  0.
</event>
<event>
 5    0  0.5815084E-005  0.2681898E+03  0.7546771E-02  0.1102320E+00
         21   -1    0    0  502  501  0.00000000000E+00  0.00000000000E+00  0.19645649635E+03  0.19645649635E+03  0.00000000000E+00 0.  1.
         21   -1    0    0  501  502 -0.00000000000E+00 -0.00000000000E+00 -0.36611539254E+03  0.36611539254E+03  0.00000000000E+00 0.  1.
         25    1    1    2    0    0 -0.94300382577E+02  0.57880132877E+01  0.86379244050E+02  0.17892019745E+03  0.12500000000E+03 0.  0.
         25    1    1    2    0    0  0.89180162134E+02 -0.23836151386E+02 -0.10930948165E+03  0.18998638428E+03  0.12500000000E+03 0.  0.
         25    1    1    2    0    0  0.51202204431E+01  0.18048138098E+02 -0.14672865859E+03  0.19366530716E+03  0.12500000000E+03 0.  0.
</event>
<event>
 5    0  0.5815084E-005  0.5985119E+03  0.7546771E-02  0.9908498E-01
         21   -1    0    0  502  501  0.00000000000E+00  0.00000000000E+00  0.54221294979E+03  0.54221294979E+03  0.00000000000E+00 0. -1.
         21   -1    0    0  501  502 -0.00000000000E+00 -0.00000000000E+00 -0.66065637807E+03  0.66065637807E+03  0.00000000000E+00 0. -1.
         25    1    1    2    0    0  0.64970897014E+02  0.30592046097E+03  0.91237922051E+02  0.34893825288E+03  0.12500000000E+03 0.  0.
         25    1    1    2    0    0  0.96112280486E+02  0.12091524285E+03  0.15876091041E+03  0.25433854031E+03  0.12500000000E+03 0.  0.
         25    1    1    2    0    0 -0.16108317750E+03 -0.42683570382E+03 -0.36844226074E+03  0.59959253467E+03  0.12500000000E+03 0.  0.
</event>
<event>
 5    0  0.5815084E-005  0.3230284E+03  0.7546771E-02  0.1074264E+00
         21   -1    0    0  502  501  0.00000000000E+00  0.00000000000E+00  0.16697007386E+04  0.16697007386E+04  0.00000000000E+00 0. -1.
         21   -1    0    0  501  502 -0.00000000000E+00 -0.00000000000E+00 -0.62494649093E+02  0.62494649093E+02  0.00000000000E+00 0.  1.
         25    1    1    2    0    0  0.81656404943E+01 -0.42068975582E+02  0.11223085251E+04  0.11300610169E+04  0.12500000000E+03 0.  0.
         25    1    1    2    0    0  0.10132900402E+03  0.39834392085E+02  0.13143833915E+03  0.21155468051E+03  0.12500000000E+03 0.  0.
         25    1    1    2    0    0 -0.10949464451E+03  0.22345834974E+01  0.35345922519E+03  0.39057969022E+03  0.12500000000E+03 0.  0.
</event>
<event>
 5    0  0.5815084E-005  0.2417828E+03  0.7546771E-02  0.1118611E+00
         21   -1    0    0  502  501  0.00000000000E+00  0.00000000000E+00  0.72423850908E+02  0.72423850908E+02  0.00000000000E+00 0.  1.
         21   -1    0    0  501  502 -0.00000000000E+00 -0.00000000000E+00 -0.80717778338E+03  0.80717778338E+03  0.00000000000E+00 0.  1.
         25    1    1    2    0    0  0.10971638942E+03 -0.55397981701E+02 -0.29481734168E+03  0.34299983592E+03  0.12500000000E+03 0.  0.
         25    1    1    2    0    0 -0.34351399192E+02  0.10828020394E+02 -0.30991681250E+03  0.33611113537E+03  0.12500000000E+03 0.  0.
         25    1    1    2    0    0 -0.75364990226E+02  0.44569961307E+02 -0.13001977830E+03  0.20049066300E+03  0.12500000000E+03 0.  0.
</event>
<event>
 5    0  0.5815084E-005  0.3529733E+03  0.7546771E-02  0.1061401E+00
         21   -1    0    0  502  501  0.00000000000E+00  0.00000000000E+00  0.83530221829E+03  0.83530221829E+03  0.00000000000E+00 0.  1.
         21   -1    0    0  501  502 -0.00000000000E+00 -0.00000000000E+00 -0.14915580119E+03  0.14915580119E+03  0.00000000000E+00 0.  1.
         25    1    1    2    0    0 -0.15042543173E+03 -0.15826168347E+03  0.37619873019E+03  0.45257602186E+03  0.12500000000E+03 0.  0.
         25    1    1    2    0    0  0.13023708325E+03  0.57531063819E+02  0.31769039109E+03  0.36989688529E+03  0.12500000000E+03 0.  0.
         25    1    1    2    0    0  0.20188348478E+02  0.10073061965E+03 -0.77427041808E+01  0.16198511233E+03  0.12500000000E+03 0.  0.
</event>
<event>
 5    0  0.5815084E-005  0.3669665E+03  0.7546771E-02  0.1055859E+00
         21   -1    0    0  502  501  0.00000000000E+00  0.00000000000E+00  0.25133584025E+03  0.25133584025E+03  0.00000000000E+00 0.  1.
         21   -1    0    0  501  502 -0.00000000000E+00 -0.00000000000E+00 -0.53579479754E+03  0.53579479754E+03  0.00000000000E+00 0.  1.
         25    1    1    2    0    0  0.10359412421E+03 -0.94377616271E+01 -0.39911631401E+02  0.16744775972E+03  0.12500000000E+03 0.  0.
         25    1    1    2    0    0  0.94643474688E+02  0.57286393036E+02 -0.32661912732E+03  0.36680263420E+03  0.12500000000E+03 0.  0.
         25    1    1    2    0    0 -0.19823759890E+03 -0.47848631409E+02  0.82071801431E+02  0.25288024386E+03  0.12500000000E+03 0.  0.
</event>
<event>
 5    0  0.5815084E-005  0.4012488E+03  0.7546771E-02  0.1043348E+00
         21   -1    0    0  502  501  0.00000000000E+00  0.00000000000E+00  0.94831821294E+03  0.94831821294E+03  0.00000000000E+00 0.  1.
         21   -1    0    0  501  502 -0.00000000000E+00 -0.00000000000E+00 -0.16977489386E+03  0.16977489386E+03  0.00000000000E+00 0.  1.
         25    1    1    2    0    0 -0.16379969066E+03  0.16593220157E+03  0.11985047774E+03  0.29043582974E+03  0.12500000000E+03 0.  0.
         25    1    1    2    0    0  0.16837499671E+03 -0.22688835415E+03  0.25480888179E+03  0.40047600553E+03  0.12500000000E+03 0.  0.
         25    1    1    2    0    0 -0.45753060444E+01  0.60956152579E+02  0.40388395955E+03  0.42718127153E+03  0.12500000000E+03 0.  0.
</event>
<event>
 5    0  0.5815084E-005  0.2220582E+03  0.7546771E-02  0.1132358E+00
         21   -1    0    0  502  501  0.00000000000E+00  0.00000000000E+00  0.37118110465E+02  0.37118110465E+02  0.00000000000E+00 0.  1.
         21   -1    0    0  501  502 -0.00000000000E+00 -0.00000000000E+00 -0.13284583150E+04  0.13284583150E+04  0.00000000000E+00 0.  1.
         25    1    1    2    0    0  0.10589614238E+03 -0.25775958849E+02 -0.50468758773E+03  0.53123719206E+03  0.12500000000E+03 0.  0.
         25    1    1    2    0    0 -0.58575948327E+02  0.18596340865E+02 -0.32302709456E+03  0.35177900653E+03  0.12500000000E+03 0.  0.
         25    1    1    2    0    0 -0.47320194052E+02  0.71796179847E+01 -0.46362552227E+03  0.48256022689E+03  0.12500000000E+03 0.  0.
</event>
<event>
 5    0  0.5815084E-005  0.6544350E+03  0.7546771E-02  0.9798493E-01
         21   -1    0    0  502  501  0.00000000000E+00  0.00000000000E+00  0.11812602300E+04  0.11812602300E+04  0.00000000000E+00 0.  1.
         21   -1    0    0  501  502 -0.00000000000E+00 -0.00000000000E+00 -0.36256629004E+03  0.36256629004E+03  0.00000000000E+00 0.  1.
         25    1    1    2    0    0  0.13350864103E+03 -0.51083732732E+02  0.90126930477E+03  0.92105671091E+03  0.12500000000E+03 0.  0.
         25    1    1    2    0    0 -0.16871579118E+03 -0.78077500431E+02 -0.27660638741E+03  0.35594551244E+03  0.12500000000E+03 0.  0.
         25    1    1    2    0    0  0.35207150149E+02  0.12916123316E+03  0.19403102257E+03  0.26682429667E+03  0.12500000000E+03 0.  0.
</event>
<event>
 5    0  0.5815084E-005  0.3100364E+03  0.7546771E-02  0.1080328E+00
         21   -1    0    0  502  501  0.00000000000E+00  0.00000000000E+00  0.27152792133E+03  0.27152792133E+03  0.00000000000E+00 0. -1.
         21   -1    0    0  501  502 -0.00000000000E+00 -0.00000000000E+00 -0.35400627457E+03  0.35400627457E+03  0.00000000000E+00 0. -1.
         25    1    1    2    0    0  0.12770544913E+02  0.52372680664E+02  0.11683516503E+03  0.17939186237E+03  0.12500000000E+03 0.  0.
         25    1    1    2    0    0  0.13265106850E+02 -0.35908600801E+02  0.69525331674E+02  0.14806810060E+03  0.12500000000E+03 0.  0.
         25    1    1    2    0    0 -0.26035651763E+02 -0.16464079863E+02 -0.26883884995E+03  0.29807423292E+03  0.12500000000E+03 0.  0.
</event>
<event>
 5    0  0.5815084E-005  0.2609805E+03  0.7546771E-02  0.1106556E+00
         21   -1    0    0  502  501  0.00000000000E+00  0.00000000000E+00  0.12937314269E+03  0.12937314269E+03  0.00000000000E+00 0. -1.
         21   -1    0    0  501  502 -0.00000000000E+00 -0.00000000000E+00 -0.52646783458E+03  0.52646783458E+03  0.00000000000E+00 0. -1.
         25    1    1    2    0    0  0.71642794289E+02 -0.10855811213E+03 -0.17370135154E+03  0.25042905824E+03  0.12500000000E+03 0.  0.
         25    1    1    2    0    0  0.22788782582E+02  0.24157129351E+01 -0.16318695602E+03  0.20683362129E+03  0.12500000000E+03 0.  0.
         25    1    1    2    0    0 -0.94431576870E+02  0.10614239920E+03 -0.60206384337E+02  0.19857829774E+03  0.12500000000E+03 0.  0.
</event>
<event>
 5    0  0.5815084E-005  0.3989961E+03  0.7546771E-02  0.1044128E+00
         21   -1    0    0  502  501  0.00000000000E+00  0.00000000000E+00  0.35731097498E+03  0.35731097498E+03  0.00000000000E+00 0.  1.
         21   -1    0    0  501  502 -0.00000000000E+00 -0.00000000000E+00 -0.44554445200E+03  0.44554445200E+03  0.00000000000E+00 0.  1.
         25    1    1    2    0    0  0.18335486458E+03  0.23861401820E+03 -0.90701345540E+02  0.33824161502E+03  0.12500000000E+03 0.  0.
         25    1    1    2    0    0 -0.17682094918E+03 -0.62691255855E+02 -0.71315585637E+02  0.23644609192E+03  0.12500000000E+03 0.  0.
         25    1    1    2    0    0 -0.65339154049E+01 -0.17592276234E+03  0.73783454157E+02  0.22816772004E+03  0.12500000000E+03 0.  0.
</event>
<event>
 5    0  0.5815084E-005  0.3368139E+03  0.7546771E-02  0.1068161E+00
         21   -1    0    0  502  501  0.00000000000E+00  0.00000000000E+00  0.32287983416E+03  0.32287983416E+03  0.00000000000E+00 0. -1.
         21   -1    0    0  501  502 -0.00000000000E+00 -0.00000000000E+00 -0.35134919820E+03  0.35134919820E+03  0.00000000000E+00 0. -1.
         25    1    1    2    0    0 -0.11526362431E+02  0.60490818558E+02 -0.72162003724E+02  0.15692148018E+03  0.12500000000E+03 0.  0.
         25    1    1    2    0    0 -0.18430556541E+03  0.65201089190E+02 -0.49384542540E+02  0.23724155731E+03  0.12500000000E+03 0.  0.
         25    1    1    2    0    0  0.19583192784E+03 -0.12569190775E+03  0.93077182224E+02  0.28006599487E+03  0.12500000000E+03 0.  0.
</event>
<event>
 5    0  0.5815084E-005  0.3693100E+03  0.7546771E-02  0.1054957E+00
         21   -1    0    0  502  501  0.00000000000E+00  0.00000000000E+00  0.19115709243E+03  0.19115709243E+03  0.00000000000E+00 0.  1.
         21   -1    0    0  501  502 -0.00000000000E+00 -0.00000000000E+00 -0.71349623921E+03  0.71349623921E+03  0.00000000000E+00 0. -1.
         25    1    1    2    0    0  0.15281558316E+03  0.21127552425E+02 -0.53920220431E+02  0.20574587748E+03  0.12500000000E+03 0.  0.
         25    1    1    2    0    0  0.13476439292E+03  0.44494634197E+02 -0.23946700942E+03  0.30514039830E+03  0.12500000000E+03 0.  0.
         25    1    1    2    0    0 -0.28757997609E+03 -0.65622186622E+02 -0.22895191692E+03  0.39376705587E+03  0.12500000000E+03 0.  0.
</event>
<event>
 5    0  0.5815084E-005  0.3653526E+03  0.7546771E-02  0.1056484E+00
         21   -1    0    0  502  501  0.00000000000E+00  0.00000000000E+00  0.95830139374E+02  0.95830139374E+02  0.00000000000E+00 0. -1.
         21   -1    0    0  501  502 -0.00000000000E+00 -0.00000000000E+00 -0.13929073542E+04  0.13929073542E+04  0.00000000000E+00 0. -1.
         25    1    1    2    0    0 -0.26713697877E+03 -0.38893011744E+02 -0.70703885713E+03  0.76707481857E+03  0.12500000000E+03 0.  0.
         25    1    1    2    0    0  0.10833801328E+02 -0.10060332640E+02 -0.19188013044E+03  0.22948107983E+03  0.12500000000E+03 0.  0.
         25    1    1    2    0    0  0.25630317744E+03  0.48953344385E+02 -0.39815822723E+03  0.49218159515E+03  0.12500000000E+03 0.  0.
</event>
<event>
 5    0  0.5815084E-005  0.4099047E+03  0.7546771E-02  0.1040403E+00
         21   -1    0    0  502  501  0.00000000000E+00  0.00000000000E+00  0.43641012316E+03  0.43641012316E+03  0.00000000000E+00 0.  1.
         21   -1    0    0  501  502 -0.00000000000E+00 -0.00000000000E+00 -0.38500909084E+03  0.38500909084E+03  0.00000000000E+00 0.  1.
         25    1    1    2    0    0 -0.23322494904E+03 -0.17908611655E+03 -0.67497535584E+02  0.32656795818E+03  0.12500000000E+03 0.  0.
         25    1    1    2    0    0  0.20001078618E+03  0.14242886053E+02 -0.29460981881E+02  0.23811787804E+03  0.12500000000E+03 0.  0.
         25    1    1    2    0    0  0.33214162866E+02  0.16484323050E+03  0.14835954978E+03  0.25673337778E+03  0.12500000000E+03 0.  0.
</event>
<event>
 5    0  0.6108920E-005  0.3327574E+03  0.7546771E-02  0.1069923E+00
         21   -1    0    0  502  501  0.00000000000E+00  0.00000000000E+00  0.10401768552E+04  0.10401768552E+04  0.00000000000E+00 0.  1.
         21   -1    0    0  501  502 -0.00000000000E+00 -0.00000000000E+00 -0.10645065120E+03  0.10645065120E+03  0.00000000000E+00 0.  1.
         25    1    1    2    0    0  0.12811008393E+03  0.11088254243E+03  0.15673648375E+03  0.26248515607E+03  0.12500000000E+03 0.  0.
         25    1    1    2    0    0 -0.17070009897E+03 -0.37006052420E+02  0.22200814087E+03  0.30890222776E+03  0.12500000000E+03 0.  0.
         25    1    1    2    0    0  0.42590015041E+02 -0.73876490010E+02  0.55498157936E+03  0.57524012255E+03  0.12500000000E+03 0.  0.
</event>
<event>
 5    0  0.5815084E-005  0.2248768E+03  0.7546771E-02  0.1130299E+00
         21   -1    0    0  502  501  0.00000000000E+00  0.00000000000E+00  0.55672207757E+02  0.55672207757E+02  0.00000000000E+00 0. -1.
         21   -1    0    0  501  502 -0.00000000000E+00 -0.00000000000E+00 -0.90834475208E+03  0.90834475208E+03  0.00000000000E+00 0. -1.
         25    1    1    2    0    0 -0.54131700058E+02 -0.48011615079E+01 -0.42095352615E+03  0.44247052250E+03  0.12500000000E+03 0.  0.
         25    1    1    2    0    0  0.93578214370E+01  0.66447346254E+02 -0.25743333134E+03  0.29393832470E+03  0.12500000000E+03 0.  0.
         25    1    1    2    0    0  0.44773878621E+02 -0.61646184746E+02 -0.17428568683E+03  0.22760811263E+03  0.12500000000E+03 0.  0.
</event>
<event>
 5    0  0.5815084E-005  0.3230225E+03  0.7546771E-02  0.1074267E+00
         21   -1    0    0  502  501  0.00000000000E+00  0.00000000000E+00  0.21647501486E+03  0.21647501486E+03  0.00000000000E+00 0.  1.
         21   -1    0    0  501  502 -0.00000000000E+00 -0.00000000000E+00 -0.48201180884E+03  0.48201180884E+03  0.00000000000E+00 0.  1.
         25    1    1    2    0    0 -0.15492292346E+03 -0.10343152517E+03 -0.18012680074E+03  0.28769750947E+03  0.12500000000E+03 0.  0.
         25    1    1    2    0    0  0.63906263820E+01 -0.43397457891E+02  0.38097956230E+02  0.13784278627E+03  0.12500000000E+03 0.  0.
         25    1    1    2    0    0  0.14853229708E+03  0.14682898306E+03 -0.12350794948E+03  0.27294652796E+03  0.12500000000E+03 0.  0.
</event>
<event>
 5    0  0.5815084E-005  0.2622934E+03  0.7546771E-02  0.1105773E+00
         21   -1    0    0  502  501  0.00000000000E+00  0.00000000000E+00  0.67630011252E+03  0.67630011252E+03  0.00000000000E+00 0. -1.
         21   -1    0    0  501  502 -0.00000000000E+00 -0.00000000000E+00 -0.10172679933E+03  0.10172679933E+03  0.00000000000E+00 0. -1.
         25    1    1    2    0    0  0.88131647403E+02 -0.51271884585E+02  0.12543161411E+03  0.20433815904E+03  0.12500000000E+03 0.  0.
         25    1    1    2    0    0  0.38516146824E+02  0.82896471650E+02  0.11184691956E+03  0.19102369485E+03  0.12500000000E+03 0.  0.
         25    1    1    2    0    0 -0.12664779423E+03 -0.31624587066E+02  0.33729477952E+03  0.38266505796E+03  0.12500000000E+03 0.  0.
</event>
<event>
 5    0  0.5815084E-005  0.3512453E+03  0.7546771E-02  0.1062105E+00
         21   -1    0    0  502  501  0.00000000000E+00  0.00000000000E+00  0.99984437385E+02  0.99984437385E+02  0.00000000000E+00 0. -1.
         21   -1    0    0  501  502 -0.00000000000E+00 -0.00000000000E+00 -0.12339249705E+04  0.12339249705E+04  0.00000000000E+00 0. -1.
         25    1    1    2    0    0 -0.17893706581E+03  0.10755416166E+03 -0.21313105238E+03  0.32347521806E+03  0.12500000000E+03 0.  0.
         25    1    1    2    0    0  0.16254337536E+03  0.22716683991E+02 -0.30291907411E+03  0.36649878863E+03  0.12500000000E+03 0.  0.
         25    1    1    2    0    0  0.16393690441E+02 -0.13027084566E+03 -0.61789040662E+03  0.64393540119E+03  0.12500000000E+03 0.  0.
</event>
<event>
 5    0  0.5815084E-005  0.3142769E+03  0.7546771E-02  0.1078314E+00
         21   -1    0    0  502  501  0.00000000000E+00  0.00000000000E+00  0.72045964945E+03  0.72045964945E+03  0.00000000000E+00 0. -1.
         21   -1    0    0  501  502 -0.00000000000E+00 -0.00000000000E+00 -0.13709298006E+03  0.13709298006E+03  0.00000000000E+00 0. -1.
         25    1    1    2    0    0  0.69958731080E+01  0.78611878006E+02  0.26948004988E+03  0.30736503849E+03  0.12500000000E+03 0.  0.
         25    1    1    2    0    0 -0.85863680054E+02  0.82104868669E+02  0.57659019192E+01  0.17254572332E+03  0.12500000000E+03 0.  0.
         25    1    1    2    0    0  0.78867806946E+02 -0.16071674668E+03  0.30812071759E+03  0.37764186771E+03  0.12500000000E+03 0.  0.
</event>
<event>
 5    0  0.5815084E-005  0.2382130E+03  0.7546771E-02  0.1120989E+00
         21   -1    0    0  502  501  0.00000000000E+00  0.00000000000E+00  0.27197801656E+03  0.27197801656E+03  0.00000000000E+00 0. -1.
         21   -1    0    0  501  502 -0.00000000000E+00 -0.00000000000E+00 -0.20863983957E+03  0.20863983957E+03  0.00000000000E+00 0. -1.
         25    1    1    2    0    0 -0.31126411606E+01  0.88381407106E+02 -0.35331834872E+02  0.15714420197E+03  0.12500000000E+03 0.  0.
         25    1    1    2    0    0  0.23453151874E+02 -0.14061028565E+02  0.11960038761E+03  0.17514855287E+03  0.12500000000E+03 0.  0.
         25    1    1    2    0    0 -0.20340510713E+02 -0.74320378542E+02 -0.20930375743E+02  0.14832510129E+03  0.12500000000E+03 0.  0.
</event>
<event>
 5    0  0.5815084E-005  0.3178574E+03  0.7546771E-02  0.1076640E+00
         21   -1    0    0  502  501  0.00000000000E+00  0.00000000000E+00  0.21213471944E+04  0.21213471944E+04  0.00000000000E+00 0.  1.
         21   -1    0    0  501  502 -0.00000000000E+00 -0.00000000000E+00 -0.47626963975E+02  0.47626963975E+02  0.00000000000E+00 0.  1.
         25    1    1    2    0    0  0.14699454907E+03  0.10649258375E+03  0.12140735841E+04  0.12339156112E+04  0.12500000000E+03 0.  0.
         25    1    1    2    0    0  0.57906932688E+01  0.21660997006E+02  0.22788660377E+03  0.26088318285E+03  0.12500000000E+03 0.  0.
         25    1    1    2    0    0 -0.15278524233E+03 -0.12815358075E+03  0.63176004248E+03  0.67417536429E+03  0.12500000000E+03 0.  0.
</event>
<event>
 5    0  0.5815084E-005  0.4147904E+03  0.7546771E-02  0.1038775E+00
         21   -1    0    0  502  501  0.00000000000E+00  0.00000000000E+00  0.86980222239E+03  0.86980222239E+03  0.00000000000E+00 0.  1.
         21   -1    0    0  501  502 -0.00000000000E+00 -0.00000000000E+00 -0.19780481490E+03  0.19780481490E+03  0.00000000000E+00 0.  1.
         25    1    1    2    0    0  0.69309270936E+01  0.12901516956E+03  0.51516225281E+02  0.18700768218E+03  0.12500000000E+03 0.  0.
         25    1    1    2    0    0 -0.22942562767E+03 -0.55959291437E+02  0.80762965119E+02  0.27913297452E+03  0.12500000000E+03 0.  0.
         25    1    1    2    0    0  0.22249470058E+03 -0.73055878121E+02  0.53971821710E+03  0.60146638059E+03  0.12500000000E+03 0.  0.
</event>
<event>
 5    0  0.5815084E-005  0.4519097E+03  0.7546771E-02  0.1027154E+00
         21   -1    0    0  502  501  0.00000000000E+00  0.00000000000E+00  0.94350611793E+03  0.94350611793E+03  0.00000000000E+00 0. -1.
         21   -1    0    0  501  502 -0.00000000000E+00 -0.00000000000E+00 -0.21645049734E+03  0.21645049734E+03  0.00000000000E+00 0. -1.
         25    1    1    2    0    0 -0.17093093545E+03  0.71826541728E+02  0.24869536993E+03  0.33444106179E+03  0.12500000000E+03 0.  0.
         25    1    1    2    0    0 -0.53998562109E+02  0.22881514274E+03  0.12163045914E+03  0.29273056357E+03  0.12500000000E+03 0.  0.
         25    1    1    2    0    0  0.22492949756E+03 -0.30064168446E+03  0.35672979152E+03  0.53278498990E+03  0.12500000000E+03 0.  0.
</event>
<event>
 5    0  0.5815084E-005  0.2555261E+03  0.7546771E-02  0.1109861E+00
         21   -1    0    0  502  501  0.00000000000E+00  0.00000000000E+00  0.42701647652E+03  0.42701647652E+03  0.00000000000E+00 0. -1.
         21   -1    0    0  501  502 -0.00000000000E+00 -0.00000000000E+00 -0.15290643083E+03  0.15290643083E+03  0.00000000000E+00 0. -1.
         25    1    1    2    0    0  0.10997640934E+03 -0.77467742425E+02  0.17802923950E+03  0.25576448511E+03  0.12500000000E+03 0.  0.
         25    1    1    2    0    0 -0.32150424967E+02  0.69040828967E+02  0.98881418828E+02  0.17664320219E+03  0.12500000000E+03 0.  0.
         25    1    1    2    0    0 -0.77825984374E+02  0.84269134586E+01 -0.28006126305E+01  0.14751522005E+03  0.12500000000E+03 0.  0.
</event>
<event>
 5    0  0.7300361E-005  0.3221486E+03  0.7546771E-02  0.1074665E+00
         21   -1    0    0  502  501  0.00000000000E+00  0.00000000000E+00  0.17973059116E+03  0.17973059116E+03  0.00000000000E+00 0.  1.
         21   -1    0    0  501  502 -0.00000000000E+00 -0.00000000000E+00 -0.57741828187E+03  0.57741828187E+03  0.00000000000E+00 0.  1.
         25    1    1    2    0    0 -0.11849094421E+03 -0.93200532993E+02 -0.51579737517E+02  0.20251398108E+03  0.12500000000E+03 0.  0.
         25    1    1    2    0    0  0.14284108448E+02  0.10970630846E+03  0.53115458980E+01  0.16701114451E+03  0.12500000000E+03 0.  0.
         25    1    1    2    0    0  0.10420683577E+03 -0.16505775462E+02 -0.35141949909E+03  0.38762374744E+03  0.12500000000E+03 0.  0.
</event>
<event>
 5    0  0.5815084E-005  0.3384120E+03  0.7546771E-02  0.1067474E+00
         21   -1    0    0  502  501  0.00000000000E+00  0.00000000000E+00  0.72315020181E+02  0.72315020181E+02  0.00000000000E+00 0. -1.
         21   -1    0    0  501  502 -0.00000000000E+00 -0.00000000000E+00 -0.15836633821E+04  0.15836633821E+04  0.00000000000E+00 0. -1.
         25    1    1    2    0    0  0.15373970994E+03 -0.11148857233E+03 -0.61535159170E+03  0.65600928467E+03  0.12500000000E+03 0.  0.
         25    1    1    2    0    0 -0.18900504484E+03  0.15036194671E+03 -0.38545158295E+03  0.47173037298E+03  0.12500000000E+03 0.  0.
         25    1    1    2    0    0  0.35265334909E+02 -0.38873374375E+02 -0.51054518729E+03  0.52823874464E+03  0.12500000000E+03 0.  0.
</event>
<event>
 5    0  0.5815084E-005  0.2528725E+03  0.7546771E-02  0.1111503E+00
         21   -1    0    0  502  501  0.00000000000E+00  0.00000000000E+00  0.65855238052E+02  0.65855238052E+02  0.00000000000E+00 0.  1.
         21   -1    0    0  501  502 -0.00000000000E+00 -0.00000000000E+00 -0.97098603917E+03  0.97098603917E+03  0.00000000000E+00 0.  1.
         25    1    1    2    0    0 -0.17672218013E+01 -0.10518259596E+03 -0.22694236066E+03  0.27963250281E+03  0.12500000000E+03 0.  0.
         25    1    1    2    0    0  0.67481900520E+01  0.15709356282E+03 -0.38516784278E+03  0.43439980739E+03  0.12500000000E+03 0.  0.
         25    1    1    2    0    0 -0.49809682507E+01 -0.51910966863E+02 -0.29302059768E+03  0.32280896702E+03  0.12500000000E+03 0.  0.
</event>
<event>
 5    0  0.5815084E-005  0.3090886E+03  0.7546771E-02  0.1080784E+00
         21   -1    0    0  502  501  0.00000000000E+00  0.00000000000E+00  0.35217688516E+03  0.35217688516E+03  0.00000000000E+00 0. -1.
         21   -1    0    0  501  502 -0.00000000000E+00 -0.00000000000E+00 -0.27127211721E+03  0.27127211721E+03  0.00000000000E+00 0. -1.
         25    1    1    2    0    0 -0.97786105006E+02  0.93340429501E+02 -0.61982673650E+02  0.19427148516E+03  0.12500000000E+03 0.  0.
         25    1    1    2    0    0 -0.24605911457E+01  0.72091164840E+02 -0.21920497670E+02  0.14597499366E+03  0.12500000000E+03 0.  0.
         25    1    1    2    0    0  0.10024669615E+03 -0.16543159434E+03  0.16480793927E+03  0.28320252355E+03  0.12500000000E+03 0.  0.
</event>
<event>
 5    0  0.5815084E-005  0.2560267E+03  0.7546771E-02  0.1109554E+00
         21   -1    0    0  502  501  0.00000000000E+00  0.00000000000E+00  0.62387257649E+02  0.62387257649E+02  0.00000000000E+00 0. -1.
         21   -1    0    0  501  502 -0.00000000000E+00 -0.00000000000E+00 -0.10506903478E+04  0.10506903478E+04  0.00000000000E+00 0. -1.
         25    1    1    2    0    0  0.76280078793E+02  0.14971577373E+02 -0.12941927395E+03  0.19600292605E+03  0.12500000000E+03 0.  0.
         25    1    1    2    0    0  0.51645860945E+02 -0.26298544909E+02 -0.45046469016E+03  0.47106511810E+03  0.12500000000E+03 0.  0.
         25    1    1    2    0    0 -0.12792593974E+03  0.11326967536E+02 -0.40841912607E+03  0.44600956132E+03  0.12500000000E+03 0.  0.
</event>
<event>
 5    0  0.5815084E-005  0.3385147E+03  0.7546771E-02  0.1067430E+00
         21   -1    0    0  502  501  0.00000000000E+00  0.00000000000E+00  0.15344242892E+04  0.15344242892E+04  0.00000000000E+00 0. -1.
         21   -1    0    0  501  502 -0.00000000000E+00 -0.00000000000E+00 -0.74680901557E+02  0.74680901557E+02  0.00000000000E+00 0. -1.
         25    1    1    2    0    0 -0.99470251006E+01  0.27804721149E+02  0.12343362144E+03  0.17813731987E+03  0.12500000000E+03 0.  0.
         25    1    1    2    0    0 -0.87759218906E+02  0.17234972198E+03  0.86237866678E+03  0.89259625369E+03  0.12500000000E+03 0.  0.
         25    1    1    2    0    0  0.97706244007E+02 -0.20015444313E+03  0.47393109945E+03  0.53837161724E+03  0.12500000000E+03 0.  0.
</event>
<event>
 5    0  0.5815084E-005  0.3277633E+03  0.7546771E-02  0.1072131E+00
         21   -1    0    0  502  501  0.00000000000E+00  0.00000000000E+00  0.18338039189E+03  0.18338039189E+03  0.00000000000E+00 0. -1.
         21   -1    0    0  501  502 -0.00000000000E+00 -0.00000000000E+00 -0.58582464293E+03  0.58582464293E+03  0.00000000000E+00 0. -1.
         25    1    1    2    0    0 -0.15830928507E+03  0.65134014464E+02 -0.12601992960E+03  0.24659742950E+03  0.12500000000E+03 0.  0.
         25    1    1    2    0    0  0.17812784418E+02  0.12237770433E+03 -0.85416708393E+02  0.19548557972E+03  0.12500000000E+03 0.  0.
         25    1    1    2    0    0  0.14049650066E+03 -0.18751171880E+03 -0.19100761305E+03  0.32712202559E+03  0.12500000000E+03 0.  0.
</event>
<event>
 5    0  0.5815084E-005  0.2676781E+03  0.7546771E-02  0.1102616E+00
         21   -1    0    0  502  501  0.00000000000E+00  0.00000000000E+00  0.21164207235E+02  0.21164207235E+02  0.00000000000E+00 0.  1.
         21   -1    0    0  501  502 -0.00000000000E+00 -0.00000000000E+00 -0.33855057017E+04  0.33855057017E+04  0.00000000000E+00 0.  1.
         25    1    1    2    0    0 -0.11749685364E+03 -0.21724549308E+02 -0.56540096835E+03  0.59125351726E+03  0.12500000000E+03 0.  0.
         25    1    1    2    0    0  0.90697127594E+02 -0.35631896941E+02 -0.12158123364E+04  0.12260996038E+04  0.12500000000E+03 0.  0.
         25    1    1    2    0    0  0.26799726041E+02  0.57356446249E+02 -0.15831281897E+04  0.15893167879E+04  0.12500000000E+03 0.  0.
</event>
<event>
 5    0  0.5815084E-005  0.2489017E+03  0.7546771E-02  0.1114001E+00
         21   -1    0    0  502  501  0.00000000000E+00  0.00000000000E+00  0.88215028051E+02  0.88215028051E+02  0.00000000000E+00 0.  1.
         21   -1    0    0  501  502 -0.00000000000E+00 -0.00000000000E+00 -0.70228436821E+03  0.70228436821E+03  0.00000000000E+00 0.  1.
         25    1    1    2    0    0 -0.20308615504E+02 -0.35475707439E+02 -0.76568090908E+02  0.15217962488E+03  0.12500000000E+03 0.  0.
         25    1    1    2    0    0 -0.90947642326E+02  0.55734542987E+02 -0.34704713629E+03  0.38398506187E+03  0.12500000000E+03 0.  0.
         25    1    1    2    0    0  0.11125625783E+03 -0.20258835547E+02 -0.19045411296E+03  0.25433470952E+03  0.12500000000E+03 0.  0.
</event>
<event>
 5    0  0.6297404E-005  0.2789870E+03  0.7546771E-02  0.1096243E+00
         21   -1    0    0  502  501  0.00000000000E+00  0.00000000000E+00  0.58915301088E+03  0.58915301088E+03  0.00000000000E+00 0. -1.
         21   -1    0    0  501  502 -0.00000000000E+00 -0.00000000000E+00 -0.13211128918E+03  0.13211128918E+03  0.00000000000E+00 0. -1.
         25    1    1    2    0    0 -0.18421931611E+02  0.29362760606E+02  0.36274160757E+03  0.38523760607E+03  0.12500000000E+03 0.  0.
         25    1    1    2    0    0 -0.37285158852E+02  0.20025956622E+02  0.13103072409E+03  0.18597116084E+03  0.12500000000E+03 0.  0.
         25    1    1    2    0    0  0.55707090463E+02 -0.49388717228E+02 -0.36730609955E+02  0.15005553314E+03  0.12500000000E+03 0.  0.
</event>
<event>
 5    0  0.5815084E-005  0.2399205E+03  0.7546771E-02  0.1119846E+00
         21   -1    0    0  502  501  0.00000000000E+00  0.00000000000E+00  0.17170319869E+04  0.17170319869E+04  0.00000000000E+00 0. -1.
         21   -1    0    0  501  502 -0.00000000000E+00 -0.00000000000E+00 -0.33524036206E+02  0.33524036206E+02  0.00000000000E+00 0. -1.
         25    1    1    2    0    0 -0.20939379787E+02  0.29694057626E+02  0.17042695460E+03  0.21445405461E+03  0.12500000000E+03 0.  0.
         25    1    1    2    0    0  0.18302554535E+02 -0.52733526599E+02  0.72063629623E+03  0.73352401445E+03  0.12500000000E+03 0.  0.
         25    1    1    2    0    0  0.26368252523E+01  0.23039468973E+02  0.79244469985E+03  0.80257795404E+03  0.12500000000E+03 0.  0.
</event>
<event>
 5    0  0.5815084E-005  0.2444292E+03  0.7546771E-02  0.1116877E+00
         21   -1    0    0  502  501  0.00000000000E+00  0.00000000000E+00  0.65286180659E+03  0.65286180659E+03  0.00000000000E+00 0.  1.
         21   -1    0    0  501  502 -0.00000000000E+00 -0.00000000000E+00 -0.91513422726E+02  0.91513422726E+02  0.00000000000E+00 0.  1.
         25    1    1    2    0    0 -0.11265243839E+02  0.62547996780E+02  0.42044165928E+03  0.44321027343E+03  0.12500000000E+03 0.  0.
         25    1    1    2    0    0 -0.23821614766E+02 -0.39390400652E+02  0.57243002442E+02  0.14498563488E+03  0.12500000000E+03 0.  0.
         25    1    1    2    0    0  0.35086858605E+02 -0.23157596128E+02  0.83663722142E+02  0.15617932100E+03  0.12500000000E+03 0.  0.
</event>
<event>
 5    0  0.5815084E-005  0.2814452E+03  0.7546771E-02  0.1094902E+00
         21   -1    0    0  502  501  0.00000000000E+00  0.00000000000E+00  0.17992462729E+03  0.17992462729E+03  0.00000000000E+00 0. -1.
         21   -1    0    0  501  502 -0.00000000000E+00 -0.00000000000E+00 -0.44024768541E+03  0.44024768541E+03  0.00000000000E+00 0. -1.
         25    1    1    2    0    0 -0.41514623054E+02  0.60020569021E+02 -0.27283318778E+02  0.14729328605E+03  0.12500000000E+03 0.  0.
         25    1    1    2    0    0  0.85639947464E+02  0.10758510497E+03 -0.16528959441E+03  0.24870545920E+03  0.12500000000E+03 0.  0.
         25    1    1    2    0    0 -0.44125324410E+02 -0.16760567399E+03 -0.67750144931E+02  0.22417356746E+03  0.12500000000E+03 0.  0.
</event>
<event>
 5    0  0.5815084E-005  0.3185807E+03  0.7546771E-02  0.1076304E+00
         21   -1    0    0  502  501  0.00000000000E+00  0.00000000000E+00  0.98607887735E+02  0.98607887735E+02  0.00000000000E+00 0. -1.
         21   -1    0    0  501  502 -0.00000000000E+00 -0.00000000000E+00 -0.10292654582E+04  0.10292654582E+04  0.00000000000E+00 0. -1.
         25    1    1    2    0    0 -0.53224573092E+02 -0.36843297897E+02 -0.55812043497E+03  0.57559856125E+03  0.12500000000E+03 0.  0.
         25    1    1    2    0    0 -0.93411744041E+01 -0.23319704012E+02 -0.37908610762E+03  0.39995292613E+03  0.12500000000E+03 0.  0.
         25    1    1    2    0    0  0.62565747497E+02  0.60163001909E+02  0.65489721171E+01  0.15232185856E+03  0.12500000000E+03 0.  0.
</event>
<event>
 5    0  0.6537684E-005  0.3759852E+03  0.7546771E-02  0.1052428E+00
         21   -1    0    0  502  501  0.00000000000E+00  0.00000000000E+00  0.74430643953E+03  0.74430643953E+03  0.00000000000E+00 0. -1.
         21   -1    0    0  501  502 -0.00000000000E+00 -0.00000000000E+00 -0.18992834542E+03  0.18992834542E+03  0.00000000000E+00 0. -1.
         25    1    1    2    0    0  0.20446318326E+03  0.32308746795E+02  0.21170856269E+03  0.32139471673E+03  0.12500000000E+03 0.  0.
         25    1    1    2    0    0 -0.13936049667E+03 -0.15858597401E+03  0.34529876298E+03  0.42358835548E+03  0.12500000000E+03 0.  0.
         25    1    1    2    0    0 -0.65102686589E+02  0.12627722721E+03 -0.26292315526E+01  0.18925171273E+03  0.12500000000E+03 0.  0.
</event>
<event>
 5    0  0.5815084E-005  0.2428341E+03  0.7546771E-02  0.1117919E+00
         21   -1    0    0  502  501  0.00000000000E+00  0.00000000000E+00  0.11658456299E+03  0.11658456299E+03  0.00000000000E+00 0.  1.
         21   -1    0    0  501  502 -0.00000000000E+00 -0.00000000000E+00 -0.50579946918E+03  0.50579946918E+03  0.00000000000E+00 0.  1.
         25    1    1    2    0    0  0.96522252532E+02  0.86824912391E+02 -0.14032645732E+03  0.22841108832E+03  0.12500000000E+03 0.  0.
         25    1    1    2    0    0 -0.92722881593E+02 -0.90971065753E+02 -0.14644452472E+03  0.23225905019E+03  0.12500000000E+03 0.  0.
         25    1    1    2    0    0 -0.37993709388E+01  0.41461533617E+01 -0.10244392415E+03  0.16171389366E+03  0.12500000000E+03 0.  0.
</event>
<event>
 5    0  0.5815084E-005  0.2812519E+03  0.7546771E-02  0.1095007E+00
         21   -1    0    0  502  501  0.00000000000E+00  0.00000000000E+00  0.27922906201E+03  0.27922906201E+03  0.00000000000E+00 0. -1.
         21   -1    0    0  501  502 -0.00000000000E+00 -0.00000000000E+00 -0.28328929279E+03  0.28328929279E+03  0.00000000000E+00 0. -1.
         25    1    1    2    0    0 -0.13772733022E+03 -0.39816977022E+02  0.48681929685E+02  0.19633934762E+03  0.12500000000E+03 0.  0.
         25    1    1    2    0    0  0.12778136709E+03 -0.48270692747E+02  0.36677951806E+02  0.18875489319E+03  0.12500000000E+03 0.  0.
         25    1    1    2    0    0  0.99459631285E+01  0.88087669770E+02 -0.89420112263E+02  0.17742411399E+03  0.12500000000E+03 0.  0.
</event>
<event>
 5    0  0.5815084E-005  0.4484526E+03  0.7546771E-02  0.1028184E+00
         21   -1    0    0  502  501  0.00000000000E+00  0.00000000000E+00  0.11199052603E+04  0.11199052603E+04  0.00000000000E+00 0. -1.
         21   -1    0    0  501  502 -0.00000000000E+00 -0.00000000000E+00 -0.17957746132E+03  0.17957746132E+03  0.00000000000E+00 0. -1.
         25    1    1    2    0    0 -0.15931549828E+03  0.13621733362E+03  0.52513222501E+03  0.57907291744E+03  0.12500000000E+03 0.  0.
         25    1    1    2    0    0 -0.15575574147E+03  0.20485459311E+02  0.72155923105E+02  0.21333303139E+03  0.12500000000E+03 0.  0.
         25    1    1    2    0    0  0.31507123974E+03 -0.15670279293E+03  0.34303965085E+03  0.50707677277E+03  0.12500000000E+03 0.  0.
</event>
<event>
 5    0  0.5815084E-005  0.3570605E+03  0.7546771E-02  0.1059754E+00
         21   -1    0    0  502  501  0.00000000000E+00  0.00000000000E+00  0.26107600727E+03  0.26107600727E+03  0.00000000000E+00 0.  1.
         21   -1    0    0  501  502 -0.00000000000E+00 -0.00000000000E+00 -0.48833354993E+03  0.48833354993E+03  0.00000000000E+00 0.  1.
         25    1    1    2    0    0 -0.16720763692E+03 -0.10858209060E+03 -0.26839984798E+03  0.35694809517E+03  0.12500000000E+03 0.  0.
         25    1    1    2    0    0  0.16782913123E+03  0.59692434269E+01 -0.37415537361E+02  0.21266680887E+03  0.12500000000E+03 0.  0.
         25    1    1    2    0    0 -0.62149431274E+00  0.10261284717E+03  0.78557842691E+02  0.17979465317E+03  0.12500000000E+03 0.  0.
</event>
<event>
 5    0  0.5815084E-005  0.2303066E+03  0.7546771E-02  0.1126424E+00
         21   -1    0    0  502  501  0.00000000000E+00  0.00000000000E+00  0.29643270133E+03  0.29643270133E+03  0.00000000000E+00 0. -1.
         21   -1    0    0  501  502 -0.00000000000E+00 -0.00000000000E+00 -0.17893143739E+03  0.17893143739E+03  0.00000000000E+00 0. -1.
         25    1    1    2    0    0  0.65628554994E+02  0.28605681903E+02  0.70845542119E+02  0.16052876099E+03  0.12500000000E+03 0.  0.
         25    1    1    2    0    0 -0.45225396828E+02  0.42862176726E+02  0.86200307687E+02  0.16412798590E+03  0.12500000000E+03 0.  0.
         25    1    1    2    0    0 -0.20403158165E+02 -0.71467858629E+02 -0.39544585866E+02  0.15070739183E+03  0.12500000000E+03 0.  0.
</event>
<event>
 5    0  0.5815084E-005  0.3705536E+03  0.7546771E-02  0.1054482E+00
         21   -1    0    0  502  501  0.00000000000E+00  0.00000000000E+00  0.60537488691E+02  0.60537488691E+02  0.00000000000E+00 0. -1.
         21   -1    0    0  501  502 -0.00000000000E+00 -0.00000000000E+00 -0.22681803086E+04  0.22681803086E+04  0.00000000000E+00 0. -1.
         25    1    1    2    0    0  0.14966025836E+03 -0.35297354983E+02 -0.14245966531E+04  0.14383131510E+04  0.12500000000E+03 0.  0.
         25    1    1    2    0    0 -0.34679159057E+02 -0.18649475328E+02 -0.66231355324E+03  0.67515530792E+03  0.12500000000E+03 0.  0.
         25    1    1    2    0    0 -0.11498109930E+03  0.53946830312E+02 -0.12073261350E+03  0.21524933835E+03  0.12500000000E+03 0.  0.
</event>
<event>
 5    0  0.5815084E-005  0.3593854E+03  0.7546771E-02  0.1058827E+00
         21   -1    0    0  502  501  0.00000000000E+00  0.00000000000E+00  0.29283796324E+03  0.29283796324E+03  0.00000000000E+00 0. -1.
         21   -1    0    0  501  502 -0.00000000000E+00 -0.00000000000E+00 -0.44105567544E+03  0.44105567544E+03  0.00000000000E+00 0. -1.
         25    1    1    2    0    0 -0.23779181326E+03  0.67231340681E+02  0.70881791861E+02  0.28585700628E+03  0.12500000000E+03 0.  0.
         25    1    1    2    0    0  0.20593388775E+03 -0.93414572097E+02 -0.15859102826E+03  0.30316853836E+03  0.12500000000E+03 0.  0.
         25    1    1    2    0    0  0.31857925507E+02  0.26183231416E+02 -0.60508475807E+02  0.14486809404E+03  0.12500000000E+03 0.  0.
</event>
<event>
 5    0  0.5815084E-005  0.2109194E+03  0.7546771E-02  0.1140840E+00
         21   -1    0    0  502  501  0.00000000000E+00  0.00000000000E+00  0.36920773405E+03  0.36920773405E+03  0.00000000000E+00 0.  1.
         21   -1    0    0  501  502 -0.00000000000E+00 -0.00000000000E+00 -0.12049318053E+03  0.12049318053E+03  0.00000000000E+00 0.  1.
         25    1    1    2    0    0 -0.37064796770E+01 -0.73136246844E+01 -0.45352276495E+01  0.12535068962E+03  0.12500000000E+03 0.  0.
         25    1    1    2    0    0  0.29215572149E+02 -0.48246891698E+01  0.90193868320E+02  0.15696101798E+03  0.12500000000E+03 0.  0.
         25    1    1    2    0    0 -0.25509092472E+02  0.12138313854E+02  0.16305591285E+03  0.20738920699E+03  0.12500000000E+03 0.  0.
</event>
<event>
 5    0  0.5815084E-005  0.3835676E+03  0.7546771E-02  0.1049623E+00
         21   -1    0    0  502  501  0.00000000000E+00  0.00000000000E+00  0.23061966758E+03  0.23061966758E+03  0.00000000000E+00 0. -1.
         21   -1    0    0  501  502 -0.00000000000E+00 -0.00000000000E+00 -0.63795121064E+03  0.63795121064E+03  0.00000000000E+00 0. -1.
         25    1    1    2    0    0 -0.21897758160E+02 -0.15708013518E+03  0.20081069921E+02  0.20293331429E+03  0.12500000000E+03 0.  0.
         25    1    1    2    0    0 -0.10165349064E+03  0.31883190977E+02  0.23344625183E+02  0.16589135466E+03  0.12500000000E+03 0.  0.
         25    1    1    2    0    0  0.12355124880E+03  0.12519694420E+03 -0.45075723817E+03  0.49974620927E+03  0.12500000000E+03 0.  0.
</event>
<event>
 5    0  0.5815084E-005  0.4405938E+03  0.7546771E-02  0.1030565E+00
         21   -1    0    0  502  501  0.00000000000E+00  0.00000000000E+00  0.25842145739E+03  0.25842145739E+03  0.00000000000E+00 0. -1.
         21   -1    0    0  501  502 -0.00000000000E+00 -0.00000000000E+00 -0.75118705325E+03  0.75118705325E+03  0.00000000000E+00 0. -1.
         25    1    1    2    0    0  0.31932845288E+03 -0.29086090699E+02 -0.41713283420E+03  0.54077857101E+03  0.12500000000E+03 0.  0.
         25    1    1    2    0    0 -0.24505779100E+03 -0.73103220029E+02 -0.37983335131E+02  0.28716743453E+03  0.12500000000E+03 0.  0.
         25    1    1    2    0    0 -0.74270661878E+02  0.10218931073E+03 -0.37649426523E+02  0.18166250510E+03  0.12500000000E+03 0.  0.
</event>
<event>
 5    0  0.5815084E-005  0.2122690E+03  0.7546771E-02  0.1139782E+00
         21   -1    0    0  502  501  0.00000000000E+00  0.00000000000E+00  0.31539671965E+02  0.31539671965E+02  0.00000000000E+00 0.  1.
         21   -1    0    0  501  502 -0.00000000000E+00 -0.00000000000E+00 -0.14286175282E+04  0.14286175282E+04  0.00000000000E+00 0.  1.
         25    1    1    2    0    0 -0.24435034253E+02  0.22289058109E+01 -0.38441408467E+03  0.40497065007E+03  0.12500000000E+03 0.  0.
         25    1    1    2    0    0 -0.65723726064E+02 -0.99026157114E+01 -0.44984749940E+03  0.47159881540E+03  0.12500000000E+03 0.  0.
         25    1    1    2    0    0  0.90158760317E+02  0.76737099004E+01 -0.56281627213E+03  0.58358773467E+03  0.12500000000E+03 0.  0.
</event>
<event>
 5    0  0.5815084E-005  0.3379277E+03  0.7546771E-02  0.1067682E+00
         21   -1    0    0  502  501  0.00000000000E+00  0.00000000000E+00  0.64655333935E+03  0.64655333935E+03  0.00000000000E+00 0.  1.
         21   -1    0    0  501  502 -0.00000000000E+00 -0.00000000000E+00 -0.17662139941E+03  0.17662139941E+03  0.00000000000E+00 0.  1.
         25    1    1    2    0    0 -0.10815520179E+03  0.29387344205E+02 -0.85156088155E+02  0.18824909833E+03  0.12500000000E+03 0.  0.
         25    1    1    2    0    0  0.98100736373E+02 -0.44060396448E+02  0.20701579955E+03  0.26466131995E+03  0.12500000000E+03 0.  0.
         25    1    1    2    0    0  0.10054465415E+02  0.14673052243E+02  0.34807222855E+03  0.37026432048E+03  0.12500000000E+03 0.  0.
</event>
<event>
 5    0  0.5815084E-005  0.2707346E+03  0.7546771E-02  0.1100860E+00
         21   -1    0    0  502  501  0.00000000000E+00  0.00000000000E+00  0.45466196730E+03  0.45466196730E+03  0.00000000000E+00 0.  1.
         21   -1    0    0  501  502 -0.00000000000E+00 -0.00000000000E+00 -0.16121258701E+03  0.16121258701E+03  0.00000000000E+00 0.  1.
         25    1    1    2    0    0  0.14709217006E+02 -0.27498029518E+01 -0.39300518560E+02  0.13188424182E+03  0.12500000000E+03 0.  0.
         25    1    1    2    0    0 -0.52988636106E+02 -0.47857417912E+01  0.32565039156E+03  0.35285106831E+03  0.12500000000E+03 0.  0.
         25    1    1    2    0    0  0.38279419100E+02  0.75355447430E+01  0.70995072960E+01  0.13113924418E+03  0.12500000000E+03 0.  0.
</event>
<event>
 5    0  0.5815084E-005  0.3333270E+03  0.7546771E-02  0.1069674E+00
         21   -1    0    0  502  501  0.00000000000E+00  0.00000000000E+00  0.87372270500E+02  0.87372270500E+02  0.00000000000E+00 0. -1.
         21   -1    0    0  501  502 -0.00000000000E+00 -0.00000000000E+00 -0.12716491582E+04  0.12716491582E+04  0.00000000000E+00 0. -1.
         25    1    1    2    0    0 -0.68521642589E+02 -0.11844930593E+03 -0.37915279888E+03  0.42202760393E+03  0.12500000000E+03 0.  0.
         25    1    1    2    0    0 -0.36464813606E+02  0.71798796933E+02 -0.74058677951E+03  0.75536648579E+03  0.12500000000E+03 0.  0.
         25    1    1    2    0    0  0.10498645619E+03  0.46650508993E+02 -0.64537309313E+02  0.18162733899E+03  0.12500000000E+03 0.  0.
</event>
<event>
 5    0  0.5815084E-005  0.3023498E+03  0.7546771E-02  0.1084072E+00
         21   -1    0    0  502  501  0.00000000000E+00  0.00000000000E+00  0.17572338984E+04  0.17572338984E+04  0.00000000000E+00 0. -1.
         21   -1    0    0  501  502 -0.00000000000E+00 -0.00000000000E+00 -0.52022330317E+02  0.52022330317E+02  0.00000000000E+00 0. -1.
         25    1    1    2    0    0 -0.51002384960E+02 -0.83411407869E+02  0.14846693221E+03  0.21731575229E+03  0.12500000000E+03 0.  0.
         25    1    1    2    0    0  0.16902603894E+02 -0.25360340725E+02  0.10465674785E+04  0.10544464576E+04  0.12500000000E+03 0.  0.
         25    1    1    2    0    0  0.34099781066E+02  0.10877174859E+03  0.51017715734E+03  0.53749401879E+03  0.12500000000E+03 0.  0.
</event>
<event>
 5    0  0.5815084E-005  0.3054923E+03  0.7546771E-02  0.1082527E+00
         21   -1    0    0  502  501  0.00000000000E+00  0.00000000000E+00  0.78017875091E+02  0.78017875091E+02  0.00000000000E+00 0. -1.
         21   -1    0    0  501  502 -0.00000000000E+00 -0.00000000000E+00 -0.11962074213E+04  0.11962074213E+04  0.00000000000E+00 0. -1.
         25    1    1    2    0    0  0.43772588023E+02 -0.54441473826E+02 -0.46074069116E+03  0.48247994572E+03  0.12500000000E+03 0.  0.
         25    1    1    2    0    0 -0.19881754941E+02  0.20372708311E+03 -0.42089080126E+03  0.48443170330E+03  0.12500000000E+03 0.  0.
         25    1    1    2    0    0 -0.23890833082E+02 -0.14928560928E+03 -0.23655805375E+03  0.30731364733E+03  0.12500000000E+03 0.  0.
</event>
<event>
 5    0  0.5815084E-005  0.3216959E+03  0.7546771E-02  0.1074871E+00
         21   -1    0    0  502  501  0.00000000000E+00  0.00000000000E+00  0.30979251401E+02  0.30979251401E+02  0.00000000000E+00 0. -1.
         21   -1    0    0  501  502 -0.00000000000E+00 -0.00000000000E+00 -0.33405676080E+04  0.33405676080E+04  0.00000000000E+00 0. -1.
         25    1    1    2    0    0 -0.20665527079E+03  0.67355738483E+02 -0.11023566010E+04  0.11305123936E+04  0.12500000000E+03 0.  0.
         25    1    1    2    0    0  0.15621045201E+03  0.20446934912E+02 -0.81088302336E+03  0.83544961550E+03  0.12500000000E+03 0.  0.
         25    1    1    2    0    0  0.50444818788E+02 -0.87802673395E+02 -0.13963487323E+04  0.14055848503E+04  0.12500000000E+03 0.  0.
</event>
<event>
 5    0  0.5815084E-005  0.2769798E+03  0.7546771E-02  0.1097350E+00
         21   -1    0    0  502  501  0.00000000000E+00  0.00000000000E+00  0.91437031006E+03  0.91437031006E+03  0.00000000000E+00 0. -1.
         21   -1    0    0  501  502 -0.00000000000E+00 -0.00000000000E+00 -0.83902318123E+02  0.83902318123E+02  0.00000000000E+00 0. -1.
         25    1    1    2    0    0  0.16201741856E+03 -0.90898743041E+01  0.26147842018E+03  0.33215694175E+03  0.12500000000E+03 0.  0.
         25    1    1    2    0    0  0.47401870448E+01  0.45994249179E+02  0.19095962393E+03  0.23287017478E+03  0.12500000000E+03 0.  0.
         25    1    1    2    0    0 -0.16675760561E+03 -0.36904374875E+02  0.37802994782E+03  0.43324551165E+03  0.12500000000E+03 0.  0.
</event>
<event>
 5    0  0.5815084E-005  0.5422473E+03  0.7546771E-02  0.1003304E+00
         21   -1    0    0  502  501  0.00000000000E+00  0.00000000000E+00  0.12944016124E+04  0.12944016124E+04  0.00000000000E+00 0. -1.
         21   -1    0    0  501  502 -0.00000000000E+00 -0.00000000000E+00 -0.22715681750E+03  0.22715681750E+03  0.00000000000E+00 0. -1.
         25    1    1    2    0    0 -0.37100898993E+03 -0.10047620559E+03  0.12075943124E+03  0.42184236242E+03  0.12500000000E+03 0.  0.
         25    1    1    2    0    0  0.17811183165E+03 -0.57618555953E+02  0.19393006323E+03  0.29711545229E+03  0.12500000000E+03 0.  0.
         25    1    1    2    0    0  0.19289715828E+03  0.15809476154E+03  0.75255530046E+03  0.80260061522E+03  0.12500000000E+03 0.  0.
</event>
<event>
 5    0  0.5815084E-005  0.3520108E+03  0.7546771E-02  0.1061793E+00
         21   -1    0    0  502  501  0.00000000000E+00  0.00000000000E+00  0.36098955450E+03  0.36098955450E+03  0.00000000000E+00 0.  1.
         21   -1    0    0  501  502 -0.00000000000E+00 -0.00000000000E+00 -0.34325546140E+03  0.34325546140E+03  0.00000000000E+00 0.  1.
         25    1    1    2    0    0  0.46416867495E+02 -0.10124003679E+03  0.27940087495E+02  0.16973426032E+03  0.12500000000E+03 0.  0.
         25    1    1    2    0    0 -0.23249473317E+03  0.15165550765E+03  0.17414065613E+01  0.30443591518E+03  0.12500000000E+03 0.  0.
         25    1    1    2    0    0  0.18607786567E+03 -0.50415470859E+02 -0.11947400959E+02  0.23007484040E+03  0.12500000000E+03 0.  0.
</event>
<event>
 5    0  0.5815084E-005  0.3572085E+03  0.7546771E-02  0.1059695E+00
         21   -1    0    0  502  501  0.00000000000E+00  0.00000000000E+00  0.61545365532E+03  0.61545365532E+03  0.00000000000E+00 0.  1.
         21   -1    0    0  501  502 -0.00000000000E+00 -0.00000000000E+00 -0.20732333272E+03  0.20732333272E+03  0.00000000000E+00 0.  1.
         25    1    1    2    0    0 -0.12284891712E+03 -0.39005371422E+02  0.22122828760E+03  0.28492144649E+03  0.12500000000E+03 0.  0.
         25    1    1    2    0    0  0.59919959070E+02  0.45858287579E+02  0.31551614841E+03  0.34766193916E+03  0.12500000000E+03 0.  0.
         25    1    1    2    0    0  0.62928958048E+02 -0.68529161576E+01 -0.12861411341E+03  0.19019360239E+03  0.12500000000E+03 0.  0.
</event>
<event>
 5    0  0.5815084E-005  0.3404036E+03  0.7546771E-02  0.1066624E+00
         21   -1    0    0  502  501  0.00000000000E+00  0.00000000000E+00  0.53189680055E+03  0.53189680055E+03  0.00000000000E+00 0. -1.
         21   -1    0    0  501  502 -0.00000000000E+00 -0.00000000000E+00 -0.21785171974E+03  0.21785171974E+03  0.00000000000E+00 0. -1.
         25    1    1    2    0    0 -0.10472568365E+03  0.31101030528E+02  0.67550435377E+02  0.17922835779E+03  0.12500000000E+03 0.  0.
         25    1    1    2    0    0 -0.33863384536E+02 -0.21502679567E+03  0.14220676149E+03  0.28849785906E+03  0.12500000000E+03 0.  0.
         25    1    1    2    0    0  0.13858906818E+03  0.18392576514E+03  0.10428788394E+03  0.28202230345E+03  0.12500000000E+03 0.  0.
</event>
<event>
 5    0  0.5815084E-005  0.5555436E+03  0.7546771E-02  0.1000219E+00
         21   -1    0    0  502  501  0.00000000000E+00  0.00000000000E+00  0.11325222701E+04  0.11325222701E+04  0.00000000000E+00 0. -1.
         21   -1    0    0  501  502 -0.00000000000E+00 -0.00000000000E+00 -0.27251441389E+03  0.27251441389E+03  0.00000000000E+00 0. -1.
         25    1    1    2    0    0 -0.27606245453E+00 -0.12296727127E+02  0.93855289402E+03  0.94692017646E+03  0.12500000000E+03 0.  0.
         25    1    1    2    0    0 -0.70313808213E+02 -0.11658499522E+03 -0.16401798655E+03  0.24710927269E+03  0.12500000000E+03 0.  0.
         25    1    1    2    0    0  0.70589870668E+02  0.12888172235E+03  0.85472948749E+02  0.21100723486E+03  0.12500000000E+03 0.  0.
</event>
<event>
 5    0  0.6322043E-005  0.3078314E+03  0.7546771E-02  0.1081390E+00
         21   -1    0    0  502  501  0.00000000000E+00  0.00000000000E+00  0.53152218134E+03  0.53152218134E+03  0.00000000000E+00 0.  1.
         21   -1    0    0  501  502 -0.00000000000E+00 -0.00000000000E+00 -0.17828073271E+03  0.17828073271E+03  0.00000000000E+00 0.  1.
         25    1    1    2    0    0  0.10637626356E+03 -0.29807474513E+02  0.28601700439E+02  0.16925558264E+03  0.12500000000E+03 0.  0.
         25    1    1    2    0    0  0.60983180793E+02 -0.97624333682E+02  0.21055311371E+03  0.27056805532E+03  0.12500000000E+03 0.  0.
         25    1    1    2    0    0 -0.16735944435E+03  0.12743180819E+03  0.11408663448E+03  0.26997927610E+03  0.12500000000E+03 0.  0.
</event>
<event>
 5    0  0.5815084E-005  0.3205568E+03  0.7546771E-02  0.1075393E+00
         21   -1    0    0  502  501  0.00000000000E+00  0.00000000000E+00  0.26974110945E+03  0.26974110945E+03  0.00000000000E+00 0.  1.
         21   -1    0    0  501  502 -0.00000000000E+00 -0.00000000000E+00 -0.38094559222E+03  0.38094559222E+03  0.00000000000E+00 0.  1.
         25    1    1    2    0    0  0.13266012417E+03  0.17574894695E+03 -0.10823080339E+03  0.27536395498E+03  0.12500000000E+03 0.  0.
         25    1    1    2    0    0 -0.10916101188E+03 -0.59031966847E+02  0.67815214104E+02  0.18874533872E+03  0.12500000000E+03 0.  0.
         25    1    1    2    0    0 -0.23499112296E+02 -0.11671698010E+03 -0.70788893492E+02  0.18657740797E+03  0.12500000000E+03 0.  0.
</event>
<event>
 5    0  0.5815084E-005  0.3297910E+03  0.7546771E-02  0.1071229E+00
         21   -1    0    0  502  501  0.00000000000E+00  0.00000000000E+00  0.52428717513E+03  0.52428717513E+03  0.00000000000E+00 0. -1.
         21   -1    0    0  501  502 -0.00000000000E+00 -0.00000000000E+00 -0.20744759899E+03  0.20744759899E+03  0.00000000000E+00 0. -1.
         25    1    1    2    0    0  0.17304937570E+03  0.39927065846E+02 -0.40937002215E+02  0.22100021531E+03  0.12500000000E+03 0.  0.
         25    1    1    2    0    0 -0.29153736625E+02  0.51607862568E+02  0.21476979933E+03  0.25546893851E+03  0.12500000000E+03 0.  0.
         25    1    1    2    0    0 -0.14389563907E+03 -0.91534928414E+02  0.14300677903E+03  0.25526562031E+03  0.12500000000E+03 0.  0.
</event>
<event>
 5    0  0.5815084E-005  0.4080214E+03  0.7546771E-02  0.1041037E+00
         21   -1    0    0  502  501  0.00000000000E+00  0.00000000000E+00  0.14114383130E+03  0.14114383130E+03  0.00000000000E+00 0.  1.
         21   -1    0    0  501  502 -0.00000000000E+00 -0.00000000000E+00 -0.11795165368E+04  0.11795165368E+04  0.00000000000E+00 0.  1.
         25    1    1    2    0    0 -0.18778914850E+03  0.12318311257E+03 -0.68774661861E+03  0.73420654786E+03  0.12500000000E+03 0.  0.
         25    1    1    2    0    0  0.15841200783E+03  0.26126878056E+02 -0.23772435558E+02  0.20485874810E+03  0.12500000000E+03 0.  0.
         25    1    1    2    0    0  0.29377140677E+02 -0.14930999063E+03 -0.32685365137E+03  0.38159507218E+03  0.12500000000E+03 0.  0.
</event>
<event>
 5    0  0.5815084E-005  0.3406551E+03  0.7546771E-02  0.1066517E+00
         21   -1    0    0  502  501  0.00000000000E+00  0.00000000000E+00  0.87433076216E+02  0.87433076216E+02  0.00000000000E+00 0. -1.
         21   -1    0    0  501  502 -0.00000000000E+00 -0.00000000000E+00 -0.13272536402E+04  0.13272536402E+04  0.00000000000E+00 0. -1.
         25    1    1    2    0    0 -0.13366130300E+03  0.20105494014E+03 -0.76230008725E+03  0.80932988076E+03  0.12500000000E+03 0.  0.
         25    1    1    2    0    0  0.25908126502E+02 -0.13977863637E+03 -0.18987353391E+03  0.26811612612E+03  0.12500000000E+03 0.  0.
         25    1    1    2    0    0  0.10775317650E+03 -0.61276303762E+02 -0.28764694280E+03  0.33724070951E+03  0.12500000000E+03 0.  0.
</event>
<event>
 5    0  0.5815084E-005  0.2588609E+03  0.7546771E-02  0.1107830E+00
         21   -1    0    0  502  501  0.00000000000E+00  0.00000000000E+00  0.15952655668E+04  0.15952655668E+04  0.00000000000E+00 0. -1.
         21   -1    0    0  501  502 -0.00000000000E+00 -0.00000000000E+00 -0.42004897829E+02  0.42004897829E+02  0.00000000000E+00 0. -1.
         25    1    1    2    0    0 -0.73267205357E+02  0.62136003226E+02  0.44424548285E+03  0.47138945184E+03  0.12500000000E+03 0.  0.
         25    1    1    2    0    0  0.13974740795E+02  0.42637425620E+02  0.80446849080E+03  0.81535746524E+03  0.12500000000E+03 0.  0.
         25    1    1    2    0    0  0.59292464562E+02 -0.10477342885E+03  0.30454669531E+03  0.35052354753E+03  0.12500000000E+03 0.  0.
</event>
<event>
 5    0  0.5815084E-005  0.2289546E+03  0.7546771E-02  0.1127378E+00
         21   -1    0    0  502  501  0.00000000000E+00  0.00000000000E+00  0.20572070919E+03  0.20572070919E+03  0.00000000000E+00 0. -1.
         21   -1    0    0  501  502 -0.00000000000E+00 -0.00000000000E+00 -0.25481254184E+03  0.25481254184E+03  0.00000000000E+00 0. -1.
         25    1    1    2    0    0  0.30870015925E+02 -0.60040008245E+02  0.28007315243E+02  0.14480044952E+03  0.12500000000E+03 0.  0.
         25    1    1    2    0    0 -0.76177293653E+02  0.55389110377E+02  0.98153971495E+01  0.15681924511E+03  0.12500000000E+03 0.  0.
         25    1    1    2    0    0  0.45307277727E+02  0.46508978678E+01 -0.86914545044E+02  0.15891355640E+03  0.12500000000E+03 0.  0.
</event>
<event>
 5    0  0.5815084E-005  0.3043161E+03  0.7546771E-02  0.1083103E+00
         21   -1    0    0  502  501  0.00000000000E+00  0.00000000000E+00  0.13855090835E+03  0.13855090835E+03  0.00000000000E+00 0.  1.
         21   -1    0    0  501  502 -0.00000000000E+00 -0.00000000000E+00 -0.66840620510E+03  0.66840620510E+03  0.00000000000E+00 0.  1.
         25    1    1    2    0    0  0.11424338103E+03 -0.17861713767E+02 -0.29275533714E+01  0.17030608180E+03  0.12500000000E+03 0.  0.
         25    1    1    2    0    0 -0.26459493388E+02 -0.54632262486E+02 -0.40505996647E+03  0.42823284009E+03  0.12500000000E+03 0.  0.
         25    1    1    2    0    0 -0.87783887645E+02  0.72493976253E+02 -0.12186777691E+03  0.20841819156E+03  0.12500000000E+03 0.  0.
</event>
<event>
 5    0  0.5815084E-005  0.3199116E+03  0.7546771E-02  0.1075690E+00
         21   -1    0    0  502  501  0.00000000000E+00  0.00000000000E+00  0.16490417806E+03  0.16490417806E+03  0.00000000000E+00 0. -1.
         21   -1    0    0  501  502 -0.00000000000E+00 -0.00000000000E+00 -0.62062379506E+03  0.62062379506E+03  0.00000000000E+00 0. -1.
         25    1    1    2    0    0  0.35635413127E+02  0.38293751631E+02 -0.79253047899E+02  0.15697878737E+03  0.12500000000E+03 0.  0.
         25    1    1    2    0    0  0.68971982805E+02 -0.13958557521E+03  0.69520048963E+01  0.19978637989E+03  0.12500000000E+03 0.  0.
         25    1    1    2    0    0 -0.10460739593E+03  0.10129182358E+03 -0.38341857400E+03  0.42876280586E+03  0.12500000000E+03 0.  0.
</event>
<event>
 5    0  0.5815084E-005  0.2520932E+03  0.7546771E-02  0.1111989E+00
         21   -1    0    0  502  501  0.00000000000E+00  0.00000000000E+00  0.82986578887E+02  0.82986578887E+02  0.00000000000E+00 0. -1.
         21   -1    0    0  501  502 -0.00000000000E+00 -0.00000000000E+00 -0.76579832686E+03  0.76579832686E+03  0.00000000000E+00 0. -1.
         25    1    1    2    0    0  0.14473886012E+02  0.38426815994E+02 -0.12087444907E+03  0.17866657774E+03  0.12500000000E+03 0.  0.
         25    1    1    2    0    0  0.18703123029E+02 -0.66468062695E+02 -0.66897449158E+02  0.15769615998E+03  0.12500000000E+03 0.  0.
         25    1    1    2    0    0 -0.33177009041E+02  0.28041246700E+02 -0.49503984975E+03  0.51242216803E+03  0.12500000000E+03 0.  0.
</event>
<event>
 5    0  0.5815084E-005  0.3336671E+03  0.7546771E-02  0.1069526E+00
         21   -1    0    0  502  501  0.00000000000E+00  0.00000000000E+00  0.18148675827E+04  0.18148675827E+04  0.00000000000E+00 0.  1.
         21   -1    0    0  501  502 -0.00000000000E+00 -0.00000000000E+00 -0.61345368564E+02  0.61345368564E+02  0.00000000000E+00 0.  1.
         25    1    1    2    0    0 -0.61527401980E+02 -0.94787086583E+02  0.14321415916E+03  0.22114589836E+03  0.12500000000E+03 0.  0.
         25    1    1    2    0    0  0.50074088739E+01  0.17888397335E+03  0.10290800155E+04  0.10519768193E+04  0.12500000000E+03 0.  0.
         25    1    1    2    0    0  0.56519993106E+02 -0.84096886765E+02  0.58122803945E+03  0.60309023357E+03  0.12500000000E+03 0.  0.
</event>
<event>
 5    0  0.5815084E-005  0.4385487E+03  0.7546771E-02  0.1031193E+00
         21   -1    0    0  502  501  0.00000000000E+00  0.00000000000E+00  0.93627302884E+03  0.93627302884E+03  0.00000000000E+00 0. -1.
         21   -1    0    0  501  502 -0.00000000000E+00 -0.00000000000E+00 -0.20541547146E+03  0.20541547146E+03  0.00000000000E+00 0. -1.
         25    1    1    2    0    0 -0.25846705474E+03  0.62577378718E+02  0.18386770301E+03  0.34663161847E+03  0.12500000000E+03 0.  0.
         25    1    1    2    0    0  0.92681852041E+02  0.92047304427E+02  0.50034581593E+03  0.53200899191E+03  0.12500000000E+03 0.  0.
         25    1    1    2    0    0  0.16578520270E+03 -0.15462468314E+03  0.46644038432E+02  0.26304788992E+03  0.12500000000E+03 0.  0.
</event>
<event>
 5    0  0.5815084E-005  0.2425008E+03  0.7546771E-02  0.1118138E+00
         21   -1    0    0  502  501  0.00000000000E+00  0.00000000000E+00  0.43420966935E+03  0.43420966935E+03  0.00000000000E+00 0.  1.
         21   -1    0    0  501  502 -0.00000000000E+00 -0.00000000000E+00 -0.13543373600E+03  0.13543373600E+03  0.00000000000E+00 0.  1.
         25    1    1    2    0    0 -0.67269596323E+02  0.10854212979E+03  0.45573246078E+02  0.18441397259E+03  0.12500000000E+03 0.  0.
         25    1    1    2    0    0 -0.38687152729E+01 -0.44886797224E+02  0.10931603956E+03  0.17206041970E+03  0.12500000000E+03 0.  0.
         25    1    1    2    0    0  0.71138311596E+02 -0.63655332562E+02  0.14388664771E+03  0.21316901306E+03  0.12500000000E+03 0.  0.
</event>
<event>
 5    0  0.5815084E-005  0.3443982E+03  0.7546771E-02  0.1064938E+00
         21   -1    0    0  502  501  0.00000000000E+00  0.00000000000E+00  0.78113873026E+02  0.78113873026E+02  0.00000000000E+00 0.  1.
         21   -1    0    0  501  502 -0.00000000000E+00 -0.00000000000E+00 -0.15184256616E+04  0.15184256616E+04  0.00000000000E+00 0.  1.
         25    1    1    2    0    0  0.97210907755E+02  0.21376647566E+03 -0.64158300022E+03  0.69455007945E+03  0.12500000000E+03 0.  0.
         25    1    1    2    0    0  0.62790591517E+01 -0.70595014501E+02 -0.56699001973E+03  0.58491517772E+03  0.12500000000E+03 0.  0.
         25    1    1    2    0    0 -0.10348996691E+03 -0.14317146116E+03 -0.23173876865E+03  0.31707427747E+03  0.12500000000E+03 0.  0.
</event>
<event>
 5    0  0.5815084E-005  0.4011533E+03  0.7546771E-02  0.1043381E+00
         21   -1    0    0  502  501  0.00000000000E+00  0.00000000000E+00  0.10358542414E+04  0.10358542414E+04  0.00000000000E+00 0.  1.
         21   -1    0    0  501  502 -0.00000000000E+00 -0.00000000000E+00 -0.15535389059E+03  0.15535389059E+03  0.00000000000E+00 0.  1.
         25    1    1    2    0    0 -0.70620649610E+02  0.11915015838E+03  0.14636953929E+03  0.23713514802E+03  0.12500000000E+03 0.  0.
         25    1    1    2    0    0 -0.23231586770E+03 -0.22685745141E+02  0.36752527980E+03  0.45297366006E+03  0.12500000000E+03 0.  0.
         25    1    1    2    0    0  0.30293651731E+03 -0.96464413234E+02  0.36660553173E+03  0.50109932392E+03  0.12500000000E+03 0.  0.
</event>
<event>
 5    0  0.5815084E-005  0.3160487E+03  0.7546771E-02  0.1077482E+00
         21   -1    0    0  502  501  0.00000000000E+00  0.00000000000E+00  0.21960057210E+04  0.21960057210E+04  0.00000000000E+00 0. -1.
         21   -1    0    0  501  502 -0.00000000000E+00 -0.00000000000E+00 -0.45485674583E+02  0.45485674583E+02  0.00000000000E+00 0. -1.
         25    1    1    2    0    0  0.50943715710E+02  0.89445195025E+02  0.25853189738E+03  0.30505646534E+03  0.12500000000E+03 0.  0.
         25    1    1    2    0    0 -0.15812026974E+03  0.28500807777E+02  0.77844564902E+03  0.80462223696E+03  0.12500000000E+03 0.  0.
         25    1    1    2    0    0  0.10717655403E+03 -0.11794600280E+03  0.11135425000E+04  0.11318126933E+04  0.12500000000E+03 0.  0.
</event>
<event>
 5    0  0.5815084E-005  0.2456366E+03  0.7546771E-02  0.1116094E+00
         21   -1    0    0  502  501  0.00000000000E+00  0.00000000000E+00  0.94328876015E+03  0.94328876015E+03  0.00000000000E+00 0. -1.
         21   -1    0    0  501  502 -0.00000000000E+00 -0.00000000000E+00 -0.63964883950E+02  0.63964883950E+02  0.00000000000E+00 0. -1.
         25    1    1    2    0    0 -0.25702576946E+02  0.38210635509E+02  0.17633586378E+03  0.22099776465E+03  0.12500000000E+03 0.  0.
         25    1    1    2    0    0 -0.69275850070E+02  0.47562534957E+02  0.46329921003E+03  0.48716783160E+03  0.12500000000E+03 0.  0.
         25    1    1    2    0    0  0.94978427016E+02 -0.85773170466E+02  0.23968880239E+03  0.29908804784E+03  0.12500000000E+03 0.  0.
</event>
<event>
 5    0  0.5815084E-005  0.2271896E+03  0.7546771E-02  0.1128634E+00
         21   -1    0    0  502  501  0.00000000000E+00  0.00000000000E+00  0.95166140456E+02  0.95166140456E+02  0.00000000000E+00 0.  1.
         21   -1    0    0  501  502 -0.00000000000E+00 -0.00000000000E+00 -0.54236854876E+03  0.54236854876E+03  0.00000000000E+00 0.  1.
         25    1    1    2    0    0 -0.65023106544E+02 -0.18400557056E+02 -0.29957604052E+03  0.33156807587E+03  0.12500000000E+03 0.  0.
         25    1    1    2    0    0  0.49828534135E+02 -0.19474140376E+02 -0.65372795525E+02  0.15086658793E+03  0.12500000000E+03 0.  0.
         25    1    1    2    0    0  0.15194572409E+02  0.37874697432E+02 -0.82253572266E+02  0.15510002542E+03  0.12500000000E+03 0.  0.
</event>
<event>
 5    0  0.5815084E-005  0.2423852E+03  0.7546771E-02  0.1118214E+00
         21   -1    0    0  502  501  0.00000000000E+00  0.00000000000E+00  0.11314073312E+04  0.11314073312E+04  0.00000000000E+00 0. -1.
         21   -1    0    0  501  502 -0.00000000000E+00 -0.00000000000E+00 -0.51926990597E+02  0.51926990597E+02  0.00000000000E+00 0. -1.
         25    1    1    2    0    0  0.71073913595E+02  0.25752417278E+02  0.13083326604E+03  0.19610464475E+03  0.12500000000E+03 0.  0.
         25    1    1    2    0    0 -0.49971917384E+02 -0.28214196605E+02  0.61763625619E+03  0.63276597441E+03  0.12500000000E+03 0.  0.
         25    1    1    2    0    0 -0.21101996211E+02  0.24617793272E+01  0.33101081833E+03  0.35446370259E+03  0.12500000000E+03 0.  0.
</event>
<event>
 5    0  0.5815084E-005  0.2459104E+03  0.7546771E-02  0.1115917E+00
         21   -1    0    0  502  501  0.00000000000E+00  0.00000000000E+00  0.39766135066E+03  0.39766135066E+03  0.00000000000E+00 0.  1.
         21   -1    0    0  501  502 -0.00000000000E+00 -0.00000000000E+00 -0.15206886552E+03  0.15206886552E+03  0.00000000000E+00 0.  1.
         25    1    1    2    0    0  0.11197465786E+02  0.47020603095E+02  0.11325142647E+03  0.17546283354E+03  0.12500000000E+03 0.  0.
         25    1    1    2    0    0  0.26434279140E+02 -0.11590049814E+03  0.14606041878E+03  0.22603172901E+03  0.12500000000E+03 0.  0.
         25    1    1    2    0    0 -0.37631744926E+02  0.68879895050E+02 -0.13719360101E+02  0.14823565364E+03  0.12500000000E+03 0.  0.
</event>
<event>
 5    0  0.5815084E-005  0.2301896E+03  0.7546771E-02  0.1126506E+00
         21   -1    0    0  502  501  0.00000000000E+00  0.00000000000E+00  0.65881496967E+03  0.65881496967E+03  0.00000000000E+00 0. -1.
         21   -1    0    0  501  502 -0.00000000000E+00 -0.00000000000E+00 -0.80428136928E+02  0.80428136928E+02  0.00000000000E+00 0. -1.
         25    1    1    2    0    0 -0.33265257714E+02 -0.47185429749E+02  0.28083109613E+03  0.31276851937E+03  0.12500000000E+03 0.  0.
         25    1    1    2    0    0  0.70203416547E+02  0.87953162267E+02  0.14925396562E+03  0.22486890559E+03  0.12500000000E+03 0.  0.
         25    1    1    2    0    0 -0.36938158833E+02 -0.40767732518E+02  0.14830177099E+03  0.20160568164E+03  0.12500000000E+03 0.  0.
</event>
<event>
 5    0  0.5815084E-005  0.2651443E+03  0.7546771E-02  0.1104091E+00
         21   -1    0    0  502  501  0.00000000000E+00  0.00000000000E+00  0.19989220083E+03  0.19989220083E+03  0.00000000000E+00 0.  1.
         21   -1    0    0  501  502 -0.00000000000E+00 -0.00000000000E+00 -0.35169705763E+03  0.35169705763E+03  0.00000000000E+00 0.  1.
         25    1    1    2    0    0  0.14394362735E+03 -0.49597331242E+02 -0.81517247837E+02  0.21318941066E+03  0.12500000000E+03 0.  0.
         25    1    1    2    0    0 -0.14983411071E+03 -0.31508365007E+01 -0.44716077501E+02  0.20021167821E+03  0.12500000000E+03 0.  0.
         25    1    1    2    0    0  0.58904833568E+01  0.52748167743E+02 -0.25571531466E+02  0.13818816959E+03  0.12500000000E+03 0.  0.
</event>
<event>
 5    0  0.5815084E-005  0.2373054E+03  0.7546771E-02  0.1121601E+00
         21   -1    0    0  502  501  0.00000000000E+00  0.00000000000E+00  0.88867703884E+03  0.88867703884E+03  0.00000000000E+00 0.  1.
         21   -1    0    0  501  502 -0.00000000000E+00 -0.00000000000E+00 -0.63368187172E+02  0.63368187172E+02  0.00000000000E+00 0. -1.
         25    1    1    2    0    0  0.13082686044E+03  0.32110853696E+02  0.32428465660E+03  0.37273625104E+03  0.12500000000E+03 0.  0.
         25    1    1    2    0    0 -0.78417004455E+02 -0.40078311121E+02  0.23021088833E+03  0.27636488691E+03  0.12500000000E+03 0.  0.
         25    1    1    2    0    0 -0.52409855989E+02  0.79674574253E+01  0.27081330674E+03  0.30294408806E+03  0.12500000000E+03 0.  0.
</event>
<event>
 5    0  0.5815084E-005  0.2106176E+03  0.7546771E-02  0.1141078E+00
         21   -1    0    0  502  501  0.00000000000E+00  0.00000000000E+00  0.53325305989E+03  0.53325305989E+03  0.00000000000E+00 0.  1.
         21   -1    0    0  501  502 -0.00000000000E+00 -0.00000000000E+00 -0.83187101390E+02  0.83187101390E+02  0.00000000000E+00 0.  1.
         25    1    1    2    0    0 -0.74068192726E+02 -0.30246225422E+01  0.12855618358E+03  0.19402818829E+03  0.12500000000E+03 0.  0.
         25    1    1    2    0    0  0.78346455097E+02 -0.11441699759E+02  0.16791024274E+03  0.22380332692E+03  0.12500000000E+03 0.  0.
         25    1    1    2    0    0 -0.42782623712E+01  0.14466322301E+02  0.15359953218E+03  0.19860864607E+03  0.12500000000E+03 0.  0.
</event>
<event>
 5    0  0.5815084E-005  0.2279664E+03  0.7546771E-02  0.1128079E+00
         21   -1    0    0  502  501  0.00000000000E+00  0.00000000000E+00  0.96856143902E+02  0.96856143902E+02  0.00000000000E+00 0.  1.
         21   -1    0    0  501  502 -0.00000000000E+00 -0.00000000000E+00 -0.53655545098E+03  0.53655545098E+03  0.00000000000E+00 0.  1.
         25    1    1    2    0    0 -0.43601617699E+02 -0.26296205315E+02 -0.17079142029E+03  0.21768624377E+03  0.12500000000E+03 0.  0.
         25    1    1    2    0    0 -0.57203448905E+01  0.10868792868E+02 -0.24916272751E+03  0.27903031696E+03  0.12500000000E+03 0.  0.
         25    1    1    2    0    0  0.49321962590E+02  0.15427412447E+02 -0.19745159283E+02  0.13669503416E+03  0.12500000000E+03 0.  0.
</event>
<event>
 5    0  0.5815084E-005  0.2734982E+03  0.7546771E-02  0.1099294E+00
         21   -1    0    0  502  501  0.00000000000E+00  0.00000000000E+00  0.30980559322E+03  0.30980559322E+03  0.00000000000E+00 0. -1.
         21   -1    0    0  501  502 -0.00000000000E+00 -0.00000000000E+00 -0.24144588751E+03  0.24144588751E+03  0.00000000000E+00 0. -1.
         25    1    1    2    0    0 -0.88902359566E+02  0.22333060447E+02  0.11786196694E+03  0.19472760045E+03  0.12500000000E+03 0.  0.
         25    1    1    2    0    0  0.12578090302E+03 -0.96001336720E+02 -0.11013932165E+02  0.20194900079E+03  0.12500000000E+03 0.  0.
         25    1    1    2    0    0 -0.36878543454E+02  0.73668276273E+02 -0.38488329071E+02  0.15457487950E+03  0.12500000000E+03 0.  0.
</event>
<event>
 5    0  0.5815084E-005  0.3425134E+03  0.7546771E-02  0.1065730E+00
         21   -1    0    0  502  501  0.00000000000E+00  0.00000000000E+00  0.45400942597E+03  0.45400942597E+03  0.00000000000E+00 0. -1.
         21   -1    0    0  501  502 -0.00000000000E+00 -0.00000000000E+00 -0.25839866751E+03  0.25839866751E+03  0.00000000000E+00 0. -1.
         25    1    1    2    0    0 -0.37638413277E+02  0.56670344947E+02  0.16718070158E+03  0.21955082585E+03  0.12500000000E+03 0.  0.
         25    1    1    2    0    0  0.30129609143E+02  0.16191318841E+03 -0.75825667495E+02  0.22022308185E+03  0.12500000000E+03 0.  0.
         25    1    1    2    0    0  0.75088041336E+01 -0.21858353335E+03  0.10425572438E+03  0.27263418579E+03  0.12500000000E+03 0.  0.
</event>
<event>
 5    0  0.5815084E-005  0.2666933E+03  0.7546771E-02  0.1103187E+00
         21   -1    0    0  502  501  0.00000000000E+00  0.00000000000E+00  0.32341281119E+03  0.32341281119E+03  0.00000000000E+00 0. -1.
         21   -1    0    0  501  502 -0.00000000000E+00 -0.00000000000E+00 -0.21992109589E+03  0.21992109589E+03  0.00000000000E+00 0. -1.
         25    1    1    2    0    0  0.46977985844E+02 -0.46882059624E+02 -0.41852053251E+01  0.14158875171E+03  0.12500000000E+03 0.  0.
         25    1    1    2    0    0 -0.13973110002E+03 -0.32147196024E+02 -0.11194733888E+02  0.19054801125E+03  0.12500000000E+03 0.  0.
         25    1    1    2    0    0  0.92753114174E+02  0.79029255648E+02  0.11887165451E+03  0.21119714412E+03  0.12500000000E+03 0.  0.
</event>
<event>
 5    0  0.5815084E-005  0.2809688E+03  0.7546771E-02  0.1095161E+00
         21   -1    0    0  502  501  0.00000000000E+00  0.00000000000E+00  0.76557259336E+02  0.76557259336E+02  0.00000000000E+00 0. -1.
         21   -1    0    0  501  502 -0.00000000000E+00 -0.00000000000E+00 -0.10311688339E+04  0.10311688339E+04  0.00000000000E+00 0. -1.
         25    1    1    2    0    0  0.84332746700E+02 -0.35842885805E+02 -0.72772175040E+03  0.74404346018E+03  0.12500000000E+03 0.  0.
         25    1    1    2    0    0 -0.52302962005E+02  0.52226694572E+02 -0.74123577170E+02  0.16304150439E+03  0.12500000000E+03 0.  0.
         25    1    1    2    0    0 -0.32029784695E+02 -0.16383808767E+02 -0.15276624703E+03  0.20064112871E+03  0.12500000000E+03 0.  0.
</event>
<event>
 5    0  0.5815084E-005  0.3298945E+03  0.7546771E-02  0.1071184E+00
         21   -1    0    0  502  501  0.00000000000E+00  0.00000000000E+00  0.89175329794E+03  0.89175329794E+03  0.00000000000E+00 0.  1.
         21   -1    0    0  501  502 -0.00000000000E+00 -0.00000000000E+00 -0.12204088544E+03  0.12204088544E+03  0.00000000000E+00 0.  1.
         25    1    1    2    0    0 -0.77611381670E+02  0.12616419882E+03  0.36108070757E+03  0.40981118702E+03  0.12500000000E+03 0.  0.
         25    1    1    2    0    0  0.44771028092E+02 -0.22887668379E+03  0.32446881445E+03  0.41868125452E+03  0.12500000000E+03 0.  0.
         25    1    1    2    0    0  0.32840353578E+02  0.10271248497E+03  0.84162890477E+02  0.18530174183E+03  0.12500000000E+03 0.  0.
</event>
<event>
 5    0  0.5815084E-005  0.3680320E+03  0.7546771E-02  0.1055448E+00
         21   -1    0    0  502  501  0.00000000000E+00  0.00000000000E+00  0.36538708482E+03  0.36538708482E+03  0.00000000000E+00 0.  1.
         21   -1    0    0  501  502 -0.00000000000E+00 -0.00000000000E+00 -0.37069615338E+03  0.37069615338E+03  0.00000000000E+00 0.  1.
         25    1    1    2    0    0 -0.86341593662E+02  0.25610981445E+02 -0.16210379522E+03  0.22363683416E+03  0.12500000000E+03 0.  0.
         25    1    1    2    0    0  0.70924533962E+02  0.58887395575E+02 -0.12036964158E+03  0.19649902160E+03  0.12500000000E+03 0.  0.
         25    1    1    2    0    0  0.15417059699E+02 -0.84498377020E+02  0.27716436824E+03  0.31594738244E+03  0.12500000000E+03 0.  0.
</event>
<event>
 5    0  0.5815084E-005  0.3545550E+03  0.7546771E-02  0.1060761E+00
         21   -1    0    0  502  501  0.00000000000E+00  0.00000000000E+00  0.28130246792E+03  0.28130246792E+03  0.00000000000E+00 0.  1.
         21   -1    0    0  501  502 -0.00000000000E+00 -0.00000000000E+00 -0.44688273083E+03  0.44688273083E+03  0.00000000000E+00 0.  1.
         25    1    1    2    0    0 -0.58744350015E+02 -0.11298417393E+02  0.19312749906E+03  0.23770103868E+03  0.12500000000E+03 0.  0.
         25    1    1    2    0    0  0.94281317700E+02 -0.72451994086E+02 -0.23996096191E+03  0.29554106576E+03  0.12500000000E+03 0.  0.
         25    1    1    2    0    0 -0.35536967685E+02  0.83750411479E+02 -0.11874680007E+03  0.19494309432E+03  0.12500000000E+03 0.  0.
</event>
<event>
 5    0  0.5815084E-005  0.3692815E+03  0.7546771E-02  0.1054968E+00
         21   -1    0    0  502  501  0.00000000000E+00  0.00000000000E+00  0.40084504360E+03  0.40084504360E+03  0.00000000000E+00 0. -1.
         21   -1    0    0  501  502 -0.00000000000E+00 -0.00000000000E+00 -0.34020334568E+03  0.34020334568E+03  0.00000000000E+00 0. -1.
         25    1    1    2    0    0  0.23728354552E+02  0.84298258927E+02 -0.12788160067E+03  0.19911789236E+03  0.12500000000E+03 0.  0.
         25    1    1    2    0    0  0.61071095996E+02 -0.24851211479E+03  0.98955936400E+02  0.30150493746E+03  0.12500000000E+03 0.  0.
         25    1    1    2    0    0 -0.84799450547E+02  0.16421385587E+03  0.89567362185E+02  0.24042555946E+03  0.12500000000E+03 0.  0.
</event>
<event>
 5    0  0.5815084E-005  0.2303028E+03  0.7546771E-02  0.1126427E+00
         21   -1    0    0  502  501  0.00000000000E+00  0.00000000000E+00  0.39865478091E+03  0.39865478091E+03  0.00000000000E+00 0.  1.
         21   -1    0    0  501  502 -0.00000000000E+00 -0.00000000000E+00 -0.13304585067E+03  0.13304585067E+03  0.00000000000E+00 0.  1.
         25    1    1    2    0    0 -0.89566820818E+02 -0.38095718150E+01  0.32259738945E+02  0.15717003208E+03  0.12500000000E+03 0.  0.
         25    1    1    2    0    0  0.78472725791E+01 -0.38476755420E+02  0.67528451599E+02  0.14740126244E+03  0.12500000000E+03 0.  0.
         25    1    1    2    0    0  0.81719548238E+02  0.42286327235E+02  0.16582073970E+03  0.22712933705E+03  0.12500000000E+03 0.  0.
</event>
<event>
 5    0  0.5815084E-005  0.2799100E+03  0.7546771E-02  0.1095738E+00
         21   -1    0    0  502  501  0.00000000000E+00  0.00000000000E+00  0.19787630698E+03  0.19787630698E+03  0.00000000000E+00 0.  1.
         21   -1    0    0  501  502 -0.00000000000E+00 -0.00000000000E+00 -0.39595247272E+03  0.39595247272E+03  0.00000000000E+00 0.  1.
         25    1    1    2    0    0 -0.82425277048E+02  0.70717647308E+01 -0.94527789401E+02  0.17721297673E+03  0.12500000000E+03 0.  0.
         25    1    1    2    0    0 -0.33956076722E+01 -0.11467915734E+03 -0.14833495940E+03  0.22536880764E+03  0.12500000000E+03 0.  0.
         25    1    1    2    0    0  0.85820884720E+02  0.10760739261E+03  0.44786583066E+02  0.19124699532E+03  0.12500000000E+03 0.  0.
</event>
<event>
 5    0  0.5815084E-005  0.2220056E+03  0.7546771E-02  0.1132397E+00
         21   -1    0    0  502  501  0.00000000000E+00  0.00000000000E+00  0.13762986393E+03  0.13762986393E+03  0.00000000000E+00 0. -1.
         21   -1    0    0  501  502 -0.00000000000E+00 -0.00000000000E+00 -0.35810899801E+03  0.35810899801E+03  0.00000000000E+00 0. -1.
         25    1    1    2    0    0  0.75661493848E+01 -0.20924763756E+02  0.23800419134E+02  0.12917643866E+03  0.12500000000E+03 0.  0.
         25    1    1    2    0    0 -0.83472330533E+01 -0.29543636346E+02 -0.70926246385E+02  0.14696269994E+03  0.12500000000E+03 0.  0.
         25    1    1    2    0    0  0.78108366848E+00  0.50468400102E+02 -0.17335330683E+03  0.21959972333E+03  0.12500000000E+03 0.  0.
</event>
<event>
 5    0  0.5815084E-005  0.2517489E+03  0.7546771E-02  0.1112205E+00
         21   -1    0    0  502  501  0.00000000000E+00  0.00000000000E+00  0.55296748571E+03  0.55296748571E+03  0.00000000000E+00 0.  1.
         21   -1    0    0  501  502 -0.00000000000E+00 -0.00000000000E+00 -0.11461346289E+03  0.11461346289E+03  0.00000000000E+00 0.  1.
         25    1    1    2    0    0 -0.90679812049E+02 -0.66253896401E+02  0.15236020368E+03  0.22682821422E+03  0.12500000000E+03 0.  0.
         25    1    1    2    0    0 -0.13146311018E+02 -0.42718316527E+02  0.72850516300E+02  0.15142614631E+03  0.12500000000E+03 0.  0.
         25    1    1    2    0    0  0.10382612307E+03  0.10897221293E+03  0.21314330284E+03  0.28932658808E+03  0.12500000000E+03 0.  0.
</event>
<event>
 5    0  0.6290426E-005  0.3789121E+03  0.7546771E-02  0.1051337E+00
         21   -1    0    0  502  501  0.00000000000E+00  0.00000000000E+00  0.65844207752E+03  0.65844207752E+03  0.00000000000E+00 0. -1.
         21   -1    0    0  501  502 -0.00000000000E+00 -0.00000000000E+00 -0.21805159767E+03  0.21805159767E+03  0.00000000000E+00 0. -1.
         25    1    1    2    0    0 -0.22014548207E+03 -0.21300875922E+02  0.11808155488E+03  0.28015355467E+03  0.12500000000E+03 0.  0.
         25    1    1    2    0    0  0.10797853700E+03  0.17855821240E+03  0.66262102899E+02  0.25210725089E+03  0.12500000000E+03 0.  0.
         25    1    1    2    0    0  0.11216694507E+03 -0.15725733648E+03  0.25604682207E+03  0.34423286963E+03  0.12500000000E+03 0.  0.
</event>
<event>
 5    0  0.5815084E-005  0.2510868E+03  0.7546771E-02  0.1112620E+00
         21   -1    0    0  502  501  0.00000000000E+00  0.00000000000E+00  0.12596276805E+03  0.12596276805E+03  0.00000000000E+00 0.  1.
         21   -1    0    0  501  502 -0.00000000000E+00 -0.00000000000E+00 -0.50050178124E+03  0.50050178124E+03  0.00000000000E+00 0.  1.
         25    1    1    2    0    0 -0.19539862816E+02  0.10436516450E+03 -0.83589097229E+02  0.18408158782E+03  0.12500000000E+03 0.  0.
         25    1    1    2    0    0 -0.41696987669E+02 -0.21113953232E+02 -0.23603283626E+03  0.27114744623E+03  0.12500000000E+03 0.  0.
         25    1    1    2    0    0  0.61236850485E+02 -0.83251211265E+02 -0.54917079702E+02  0.17123551523E+03  0.12500000000E+03 0.  0.
</event>
<event>
 5    0  0.5815084E-005  0.2511829E+03  0.7546771E-02  0.1112560E+00
         21   -1    0    0  502  501  0.00000000000E+00  0.00000000000E+00  0.28146723953E+03  0.28146723953E+03  0.00000000000E+00 0. -1.
         21   -1    0    0  501  502 -0.00000000000E+00 -0.00000000000E+00 -0.22415701723E+03  0.22415701723E+03  0.00000000000E+00 0. -1.
         25    1    1    2    0    0 -0.10547477009E+03  0.11186477588E+03  0.11817806138E+01  0.19815411127E+03  0.12500000000E+03 0.  0.
         25    1    1    2    0    0  0.39122110676E+02 -0.62674388507E+02  0.61170334619E+02  0.15756087191E+03  0.12500000000E+03 0.  0.
         25    1    1    2    0    0  0.66352659416E+02 -0.49190387374E+02 -0.50418929305E+01  0.14990927358E+03  0.12500000000E+03 0.  0.
</event>
<event>
 5    0  0.6261717E-005  0.3081609E+03  0.7546771E-02  0.1081231E+00
         21   -1    0    0  502  501  0.00000000000E+00  0.00000000000E+00  0.47649183500E+03  0.47649183500E+03  0.00000000000E+00 0.  1.
         21   -1    0    0  501  502 -0.00000000000E+00 -0.00000000000E+00 -0.19929646024E+03  0.19929646024E+03  0.00000000000E+00 0.  1.
         25    1    1    2    0    0 -0.93904213516E+02  0.58417512559E+02 -0.12705031880E+02  0.16738286927E+03  0.12500000000E+03 0.  0.
         25    1    1    2    0    0  0.17927199605E+03  0.54105012540E+02  0.19201915392E+03  0.29590903403E+03  0.12500000000E+03 0.  0.
         25    1    1    2    0    0 -0.85367782536E+02 -0.11252252510E+03  0.97881252729E+02  0.21249639194E+03  0.12500000000E+03 0.  0.
</event>
<event>
 5    0  0.5815084E-005  0.4181739E+03  0.7546771E-02  0.1037662E+00
         21   -1    0    0  502  501  0.00000000000E+00  0.00000000000E+00  0.18101570812E+03  0.18101570812E+03  0.00000000000E+00 0.  1.
         21   -1    0    0  501  502 -0.00000000000E+00 -0.00000000000E+00 -0.96604565514E+03  0.96604565514E+03  0.00000000000E+00 0.  1.
         25    1    1    2    0    0 -0.22251406802E+03 -0.58047639610E+02 -0.12755551138E+03  0.29116567005E+03  0.12500000000E+03 0.  0.
         25    1    1    2    0    0 -0.38495533212E+02  0.73268445203E+02 -0.50832051532E+03  0.52996690220E+03  0.12500000000E+03 0.  0.
         25    1    1    2    0    0  0.26100960124E+03 -0.15220805593E+02 -0.14915392032E+03  0.32592879101E+03  0.12500000000E+03 0.  0.
</event>
<event>
 5    0  0.5815084E-005  0.3550584E+03  0.7546771E-02  0.1060558E+00
         21   -1    0    0  502  501  0.00000000000E+00  0.00000000000E+00  0.11839960894E+04  0.11839960894E+04  0.00000000000E+00 0. -1.
         21   -1    0    0  501  502 -0.00000000000E+00 -0.00000000000E+00 -0.10647541162E+03  0.10647541162E+03  0.00000000000E+00 0. -1.
         25    1    1    2    0    0  0.21078179314E+03  0.11801511656E+03  0.63168208185E+03  0.68775270598E+03  0.12500000000E+03 0.  0.
         25    1    1    2    0    0 -0.18408486354E+03 -0.88930185287E+02  0.39523739947E+03  0.46220495106E+03  0.12500000000E+03 0.  0.
         25    1    1    2    0    0 -0.26696929598E+02 -0.29084931271E+02  0.50601196504E+02  0.14051384403E+03  0.12500000000E+03 0.  0.
</event>
<event>
 5    0  0.5815084E-005  0.3118868E+03  0.7546771E-02  0.1079445E+00
         21   -1    0    0  502  501  0.00000000000E+00  0.00000000000E+00  0.94205769435E+02  0.94205769435E+02  0.00000000000E+00 0.  1.
         21   -1    0    0  501  502 -0.00000000000E+00 -0.00000000000E+00 -0.10325628256E+04  0.10325628256E+04  0.00000000000E+00 0.  1.
         25    1    1    2    0    0 -0.65995683516E+02  0.10634243947E+03 -0.18491041972E+03  0.25589257120E+03  0.12500000000E+03 0.  0.
         25    1    1    2    0    0  0.18286591327E+03 -0.69334608280E+02 -0.26646432578E+03  0.35337723053E+03  0.12500000000E+03 0.  0.
         25    1    1    2    0    0 -0.11687022976E+03 -0.37007831193E+02 -0.48698231070E+03  0.51749879334E+03  0.12500000000E+03 0.  0.
</event>
<event>
 5    0  0.5815084E-005  0.5136846E+03  0.7546771E-02  0.1010268E+00
         21   -1    0    0  502  501  0.00000000000E+00  0.00000000000E+00  0.44175175762E+03  0.44175175762E+03  0.00000000000E+00 0. -1.
         21   -1    0    0  501  502 -0.00000000000E+00 -0.00000000000E+00 -0.59733057978E+03  0.59733057978E+03  0.00000000000E+00 0. -1.
         25    1    1    2    0    0 -0.30641180183E+02 -0.21780718370E+03 -0.28276377359E+03  0.37941956044E+03  0.12500000000E+03 0.  0.
         25    1    1    2    0    0 -0.20752830238E+03  0.27803991226E+03  0.42028413677E+02  0.37116785510E+03  0.12500000000E+03 0.  0.
         25    1    1    2    0    0  0.23816948256E+03 -0.60232728565E+02  0.85156537751E+02  0.28849492186E+03  0.12500000000E+03 0.  0.
</event>
<event>
 5    0  0.6677676E-005  0.2837961E+03  0.7546771E-02  0.1093633E+00
         21   -1    0    0  502  501  0.00000000000E+00  0.00000000000E+00  0.30726889781E+03  0.30726889781E+03  0.00000000000E+00 0. -1.
         21   -1    0    0  501  502 -0.00000000000E+00 -0.00000000000E+00 -0.26211642551E+03  0.26211642551E+03  0.00000000000E+00 0. -1.
         25    1    1    2    0    0 -0.11994209024E+03 -0.52092951832E+02  0.16388475483E+03  0.24409627918E+03  0.12500000000E+03 0.  0.
         25    1    1    2    0    0  0.21923015309E+02  0.18459823712E+02 -0.98413932041E+02  0.16165297928E+03  0.12500000000E+03 0.  0.
         25    1    1    2    0    0  0.98019074930E+02  0.33633128120E+02 -0.20318350493E+02  0.16363606486E+03  0.12500000000E+03 0.  0.
</event>
<event>
 5    0  0.5815084E-005  0.2708919E+03  0.7546771E-02  0.1100770E+00
         21   -1    0    0  502  501  0.00000000000E+00  0.00000000000E+00  0.15313672797E+03  0.15313672797E+03  0.00000000000E+00 0. -1.
         21   -1    0    0  501  502 -0.00000000000E+00 -0.00000000000E+00 -0.47919535104E+03  0.47919535104E+03  0.00000000000E+00 0. -1.
         25    1    1    2    0    0  0.62859723974E+02 -0.77614549237E+02 -0.31667912200E+02  0.16310493498E+03  0.12500000000E+03 0.  0.
         25    1    1    2    0    0 -0.10060723858E+03  0.61739288818E+02 -0.30833037476E+02  0.17466892236E+03  0.12500000000E+03 0.  0.
         25    1    1    2    0    0  0.37747514604E+02  0.15875260419E+02 -0.26355767339E+03  0.29455822167E+03  0.12500000000E+03 0.  0.
</event>
<event>
 5    0  0.5815084E-005  0.3217679E+03  0.7546771E-02  0.1074839E+00
         21   -1    0    0  502  501  0.00000000000E+00  0.00000000000E+00  0.33281242677E+03  0.33281242677E+03  0.00000000000E+00 0.  1.
         21   -1    0    0  501  502 -0.00000000000E+00 -0.00000000000E+00 -0.31108994132E+03  0.31108994132E+03  0.00000000000E+00 0.  1.
         25    1    1    2    0    0  0.64382372628E+02  0.63291311883E+01 -0.11911923803E+03  0.18438964362E+03  0.12500000000E+03 0.  0.
         25    1    1    2    0    0  0.18218882078E+02  0.29585080304E+02  0.24243136245E+03  0.27496394334E+03  0.12500000000E+03 0.  0.
         25    1    1    2    0    0 -0.82601254706E+02 -0.35914211492E+02 -0.10158963897E+03  0.18454878112E+03  0.12500000000E+03 0.  0.
</event>
<event>
 5    0  0.5815084E-005  0.2490886E+03  0.7546771E-02  0.1113882E+00
         21   -1    0    0  502  501  0.00000000000E+00  0.00000000000E+00  0.19774370460E+03  0.19774370460E+03  0.00000000000E+00 0.  1.
         21   -1    0    0  501  502 -0.00000000000E+00 -0.00000000000E+00 -0.31376534114E+03  0.31376534114E+03  0.00000000000E+00 0.  1.
         25    1    1    2    0    0 -0.21801304003E+02 -0.16278539805E+02 -0.19571609317E+03  0.23381633142E+03  0.12500000000E+03 0.  0.
         25    1    1    2    0    0  0.28168199696E+02  0.43279758798E+02  0.21105050780E+02  0.13688319168E+03  0.12500000000E+03 0.  0.
         25    1    1    2    0    0 -0.63668956933E+01 -0.27001218994E+02  0.58589405845E+02  0.14080952264E+03  0.12500000000E+03 0.  0.
</event>
<event>
 5    0  0.5815084E-005  0.5373009E+03  0.7546771E-02  0.1004477E+00
         21   -1    0    0  502  501  0.00000000000E+00  0.00000000000E+00  0.41280454146E+03  0.41280454146E+03  0.00000000000E+00 0. -1.
         21   -1    0    0  501  502 -0.00000000000E+00 -0.00000000000E+00 -0.69934381070E+03  0.69934381070E+03  0.00000000000E+00 0. -1.
         25    1    1    2    0    0 -0.15882033187E+03 -0.11486316350E+03 -0.28883929203E+02  0.23425781846E+03  0.12500000000E+03 0.  0.
         25    1    1    2    0    0 -0.79268185052E+02  0.51933865227E+02  0.25280164807E+03  0.29751343631E+03  0.12500000000E+03 0.  0.
         25    1    1    2    0    0  0.23808851692E+03  0.62929298270E+02 -0.51045698810E+03  0.58037709739E+03  0.12500000000E+03 0.  0.
</event>
<event>
 5    0  0.5815084E-005  0.3142574E+03  0.7546771E-02  0.1078323E+00
         21   -1    0    0  502  501  0.00000000000E+00  0.00000000000E+00  0.29361464317E+03  0.29361464317E+03  0.00000000000E+00 0.  1.
         21   -1    0    0  501  502 -0.00000000000E+00 -0.00000000000E+00 -0.33635135981E+03  0.33635135981E+03  0.00000000000E+00 0.  1.
         25    1    1    2    0    0 -0.51983691467E+02  0.15623952647E+03 -0.13768342256E+03  0.24838441710E+03  0.12500000000E+03 0.  0.
         25    1    1    2    0    0 -0.16484129556E+02 -0.52547376075E+02  0.14415219829E+03  0.19858955041E+03  0.12500000000E+03 0.  0.
         25    1    1    2    0    0  0.68467821023E+02 -0.10369215039E+03 -0.49205492370E+02  0.18299203548E+03  0.12500000000E+03 0.  0.
</event>
<event>
 5    0  0.5815084E-005  0.2236710E+03  0.7546771E-02  0.1131175E+00
         21   -1    0    0  502  501  0.00000000000E+00  0.00000000000E+00  0.32589264940E+02  0.32589264940E+02  0.00000000000E+00 0. -1.
         21   -1    0    0  501  502 -0.00000000000E+00 -0.00000000000E+00 -0.15351282793E+04  0.15351282793E+04  0.00000000000E+00 0. -1.
         25    1    1    2    0    0  0.74054081786E+01  0.48336809484E+02 -0.50617736505E+03  0.52367147346E+03  0.12500000000E+03 0.  0.
         25    1    1    2    0    0 -0.29382790959E+02 -0.91914763240E+02 -0.35108429863E+03  0.38496344872E+03  0.12500000000E+03 0.  0.
         25    1    1    2    0    0  0.21977382780E+02  0.43577953755E+02 -0.64527735066E+03  0.65908262204E+03  0.12500000000E+03 0.  0.
</event>
<event>
 5    0  0.5815084E-005  0.2863778E+03  0.7546771E-02  0.1092256E+00
         21   -1    0    0  502  501  0.00000000000E+00  0.00000000000E+00  0.11125271987E+03  0.11125271987E+03  0.00000000000E+00 0.  1.
         21   -1    0    0  501  502 -0.00000000000E+00 -0.00000000000E+00 -0.73717058188E+03  0.73717058188E+03  0.00000000000E+00 0.  1.
         25    1    1    2    0    0 -0.27616312692E+02 -0.14307133719E+03 -0.19393895054E+03  0.27289079278E+03  0.12500000000E+03 0.  0.
         25    1    1    2    0    0  0.13145553523E+03  0.11400680029E+03 -0.26423138380E+03  0.34017838326E+03  0.12500000000E+03 0.  0.
         25    1    1    2    0    0 -0.10383922253E+03  0.29064536900E+02 -0.16774752768E+03  0.23535412570E+03  0.12500000000E+03 0.  0.
</event>
<event>
 5    0  0.5815084E-005  0.3648819E+03  0.7546771E-02  0.1056667E+00
         21   -1    0    0  502  501  0.00000000000E+00  0.00000000000E+00  0.10700246946E+03  0.10700246946E+03  0.00000000000E+00 0. -1.
         21   -1    0    0  501  502 -0.00000000000E+00 -0.00000000000E+00 -0.12442593147E+04  0.12442593147E+04  0.00000000000E+00 0. -1.
         25    1    1    2    0    0 -0.47382933407E+02  0.14230727215E+03 -0.54593061389E+03  0.57979456471E+03  0.12500000000E+03 0.  0.
         25    1    1    2    0    0  0.17459038643E+03 -0.18324685066E+03 -0.48123555660E+03  0.55791923452E+03  0.12500000000E+03 0.  0.
         25    1    1    2    0    0 -0.12720745302E+03  0.40939578516E+02 -0.11009067472E+03  0.21354798490E+03  0.12500000000E+03 0.  0.
</event>
<event>
 5    0  0.5815084E-005  0.3448424E+03  0.7546771E-02  0.1064752E+00
         21   -1    0    0  502  501  0.00000000000E+00  0.00000000000E+00  0.13404948887E+04  0.13404948887E+04  0.00000000000E+00 0. -1.
         21   -1    0    0  501  502 -0.00000000000E+00 -0.00000000000E+00 -0.88710756228E+02  0.88710756228E+02  0.00000000000E+00 0. -1.
         25    1    1    2    0    0 -0.12162622531E+03  0.11947069951E+03  0.24456808426E+03  0.32327192047E+03  0.12500000000E+03 0.  0.
         25    1    1    2    0    0  0.12816270462E+03 -0.10890120083E+03  0.20226768498E+03  0.29124279697E+03  0.12500000000E+03 0.  0.
         25    1    1    2    0    0 -0.65364793145E+01 -0.10569498683E+02  0.80494836326E+03  0.81469092752E+03  0.12500000000E+03 0.  0.
</event>
<event>
 5    0  0.5815084E-005  0.4790659E+03  0.7546771E-02  0.1019392E+00
         21   -1    0    0  502  501  0.00000000000E+00  0.00000000000E+00  0.33288194216E+03  0.33288194216E+03  0.00000000000E+00 0.  1.
         21   -1    0    0  501  502 -0.00000000000E+00 -0.00000000000E+00 -0.68944600351E+03  0.68944600351E+03  0.00000000000E+00 0.  1.
         25    1    1    2    0    0 -0.34025636718E+03 -0.11911337822E+02 -0.31731331793E+02  0.36407163141E+03  0.12500000000E+03 0.  0.
         25    1    1    2    0    0  0.36218830951E+03  0.12224686489E+03 -0.20237639157E+03  0.45022868788E+03  0.12500000000E+03 0.  0.
         25    1    1    2    0    0 -0.21931942322E+02 -0.11033552707E+03 -0.12245633798E+03  0.20802762639E+03  0.12500000000E+03 0.  0.
</event>
<event>
 5    0  0.5815084E-005  0.3218016E+03  0.7546771E-02  0.1074823E+00
         21   -1    0    0  502  501  0.00000000000E+00  0.00000000000E+00  0.26331704037E+03  0.26331704037E+03  0.00000000000E+00 0.  1.
         21   -1    0    0  501  502 -0.00000000000E+00 -0.00000000000E+00 -0.39327587801E+03  0.39327587801E+03  0.00000000000E+00 0.  1.
         25    1    1    2    0    0 -0.13164936488E+03  0.24271638224E+02  0.19824254521E+02  0.18422450641E+03  0.12500000000E+03 0.  0.
         25    1    1    2    0    0  0.79734670494E+02 -0.12514938876E+03 -0.21662149852E+03  0.29080897649E+03  0.12500000000E+03 0.  0.
         25    1    1    2    0    0  0.51914694388E+02  0.10087775054E+03  0.66838406364E+02  0.18155943548E+03  0.12500000000E+03 0.  0.
</event>
<event>
 5    0  0.5815084E-005  0.2679884E+03  0.7546771E-02  0.1102436E+00
         21   -1    0    0  502  501  0.00000000000E+00  0.00000000000E+00  0.22705749101E+03  0.22705749101E+03  0.00000000000E+00 0.  1.
         21   -1    0    0  501  502 -0.00000000000E+00 -0.00000000000E+00 -0.31629784278E+03  0.31629784278E+03  0.00000000000E+00 0.  1.
         25    1    1    2    0    0  0.53293063686E+00 -0.31487724627E+01 -0.15552120856E+03  0.19955461682E+03  0.12500000000E+03 0.  0.
         25    1    1    2    0    0 -0.84815054503E+02 -0.73165349942E+02  0.23376368243E+02  0.16946449922E+03  0.12500000000E+03 0.  0.
         25    1    1    2    0    0  0.84282123866E+02  0.76314122405E+02  0.42904488550E+02  0.17433621775E+03  0.12500000000E+03 0.  0.
</event>
<event>
 5    0  0.5815084E-005  0.2892033E+03  0.7546771E-02  0.1090766E+00
         21   -1    0    0  502  501  0.00000000000E+00  0.00000000000E+00  0.14750644668E+03  0.14750644668E+03  0.00000000000E+00 0. -1.
         21   -1    0    0  501  502 -0.00000000000E+00 -0.00000000000E+00 -0.56701627466E+03  0.56701627466E+03  0.00000000000E+00 0. -1.
         25    1    1    2    0    0 -0.20400350556E+02  0.77755003513E+02  0.55744100070E+02  0.15872750098E+03  0.12500000000E+03 0.  0.
         25    1    1    2    0    0 -0.41791135001E+01 -0.64327241924E+01 -0.31512856176E+03  0.33910154138E+03  0.12500000000E+03 0.  0.
         25    1    1    2    0    0  0.24579464056E+02 -0.71322279321E+02 -0.16012536628E+03  0.21669367897E+03  0.12500000000E+03 0.  0.
</event>
<event>
 5    0  0.5815084E-005  0.2764993E+03  0.7546771E-02  0.1097616E+00
         21   -1    0    0  502  501  0.00000000000E+00  0.00000000000E+00  0.16823411060E+03  0.16823411060E+03  0.00000000000E+00 0.  1.
         21   -1    0    0  501  502 -0.00000000000E+00 -0.00000000000E+00 -0.45443741174E+03  0.45443741174E+03  0.00000000000E+00 0.  1.
         25    1    1    2    0    0 -0.14618387856E+02 -0.24484546502E+00 -0.19146264021E+03  0.22912158303E+03  0.12500000000E+03 0.  0.
         25    1    1    2    0    0  0.14540361668E+03 -0.41527524595E+02 -0.43968574360E+02  0.20105964929E+03  0.12500000000E+03 0.  0.
         25    1    1    2    0    0 -0.13078522882E+03  0.41772370060E+02 -0.50772086567E+02  0.19249029002E+03  0.12500000000E+03 0.  0.
</event>
<event>
 5    0  0.5815084E-005  0.2933576E+03  0.7546771E-02  0.1088609E+00
         21   -1    0    0  502  501  0.00000000000E+00  0.00000000000E+00  0.33161167001E+03  0.33161167001E+03  0.00000000000E+00 0. -1.
         21   -1    0    0  501  502 -0.00000000000E+00 -0.00000000000E+00 -0.25951648194E+03  0.25951648194E+03  0.00000000000E+00 0. -1.
         25    1    1    2    0    0  0.12248679391E+03  0.15335253371E+03  0.69133390468E+02  0.24274356831E+03  0.12500000000E+03 0.  0.
         25    1    1    2    0    0 -0.34569196257E+02 -0.10106888705E+03  0.62985258280E+02  0.17607410945E+03  0.12500000000E+03 0.  0.
         25    1    1    2    0    0 -0.87917597649E+02 -0.52283646659E+02 -0.60023460679E+02  0.17231047419E+03  0.12500000000E+03 0.  0.
</event>
<event>
 5    0  0.5815084E-005  0.6213218E+03  0.7546771E-02  0.9862132E-01
         21   -1    0    0  502  501  0.00000000000E+00  0.00000000000E+00  0.13116465059E+04  0.13116465059E+04  0.00000000000E+00 0.  1.
         21   -1    0    0  501  502 -0.00000000000E+00 -0.00000000000E+00 -0.29431766862E+03  0.29431766862E+03  0.00000000000E+00 0.  1.
         25    1    1    2    0    0 -0.32785572045E+03  0.21028702037E+03  0.94372987715E+03  0.10285723530E+04  0.12500000000E+03 0.  0.
         25    1    1    2    0    0  0.25737022305E+03 -0.37862725326E+01  0.13818377444E+03  0.31776331300E+03  0.12500000000E+03 0.  0.
         25    1    1    2    0    0  0.70485497407E+02 -0.20650074784E+03 -0.64584814277E+02  0.25962850852E+03  0.12500000000E+03 0.  0.
</event>
<event>
 5    0  0.5815084E-005  0.2983466E+03  0.7546771E-02  0.1086070E+00
         21   -1    0    0  502  501  0.00000000000E+00  0.00000000000E+00  0.25658281125E+03  0.25658281125E+03  0.00000000000E+00 0. -1.
         21   -1    0    0  501  502 -0.00000000000E+00 -0.00000000000E+00 -0.34690813954E+03  0.34690813954E+03  0.00000000000E+00 0. -1.
         25    1    1    2    0    0  0.59015284888E+02  0.71275446177E+02 -0.53116936713E+02  0.16434537427E+03  0.12500000000E+03 0.  0.
         25    1    1    2    0    0  0.11124161256E+03 -0.11368900751E+03 -0.83400504418E+02  0.21881620354E+03  0.12500000000E+03 0.  0.
         25    1    1    2    0    0 -0.17025689745E+03  0.42413561335E+02  0.46192112842E+02  0.22032937299E+03  0.12500000000E+03 0.  0.
</event>
<event>
 5    0  0.5815084E-005  0.2540345E+03  0.7546771E-02  0.1110781E+00
         21   -1    0    0  502  501  0.00000000000E+00  0.00000000000E+00  0.13490612077E+03  0.13490612077E+03  0.00000000000E+00 0. -1.
         21   -1    0    0  501  502 -0.00000000000E+00 -0.00000000000E+00 -0.47835891323E+03  0.47835891323E+03  0.00000000000E+00 0. -1.
         25    1    1    2    0    0 -0.25740494800E+02 -0.87443099863E+02 -0.22473958367E+03  0.27284015330E+03  0.12500000000E+03 0.  0.
         25    1    1    2    0    0  0.72350201646E+02  0.99451833325E+02 -0.10823203208E+03  0.20606890012E+03  0.12500000000E+03 0.  0.
         25    1    1    2    0    0 -0.46609706846E+02 -0.12008733461E+02 -0.10481176705E+02  0.13435598058E+03  0.12500000000E+03 0.  0.
</event>
<event>
 5    0  0.5815084E-005  0.2768086E+03  0.7546771E-02  0.1097445E+00
         21   -1    0    0  502  501  0.00000000000E+00  0.00000000000E+00  0.21743054189E+03  0.21743054189E+03  0.00000000000E+00 0.  1.
         21   -1    0    0  501  502 -0.00000000000E+00 -0.00000000000E+00 -0.35240213788E+03  0.35240213788E+03  0.00000000000E+00 0.  1.
         25    1    1    2    0    0 -0.27733120616E+02  0.90408339876E+02 -0.18319621227E+03  0.24109883054E+03  0.12500000000E+03 0.  0.
         25    1    1    2    0    0 -0.28308733290E+02 -0.23735530486E+02 -0.58346861847E+02  0.14280796923E+03  0.12500000000E+03 0.  0.
         25    1    1    2    0    0  0.56041853907E+02 -0.66672809390E+02  0.10657147813E+03  0.18592587999E+03  0.12500000000E+03 0.  0.
</event>
<event>
 5    0  0.5815084E-005  0.2172428E+03  0.7546771E-02  0.1135956E+00
         21   -1    0    0  502  501  0.00000000000E+00  0.00000000000E+00  0.54215422198E+03  0.54215422198E+03  0.00000000000E+00 0.  1.
         21   -1    0    0  501  502 -0.00000000000E+00 -0.00000000000E+00 -0.87049814381E+02  0.87049814381E+02  0.00000000000E+00 0.  1.
         25    1    1    2    0    0  0.31067476017E+02  0.58376864606E+02  0.19221100902E+03  0.23862757254E+03  0.12500000000E+03 0.  0.
         25    1    1    2    0    0 -0.13889429968E+02 -0.93372767185E+02  0.12483141753E+03  0.20029795985E+03  0.12500000000E+03 0.  0.
         25    1    1    2    0    0 -0.17178046049E+02  0.34995902578E+02  0.13806198104E+03  0.19027850397E+03  0.12500000000E+03 0.  0.
</event>
<event>
 5    0  0.5815084E-005  0.2582953E+03  0.7546771E-02  0.1108172E+00
         21   -1    0    0  502  501  0.00000000000E+00  0.00000000000E+00  0.28202445385E+02  0.28202445385E+02  0.00000000000E+00 0.  1.
         21   -1    0    0  501  502 -0.00000000000E+00 -0.00000000000E+00 -0.23656267407E+04  0.23656267407E+04  0.00000000000E+00 0.  1.
         25    1    1    2    0    0 -0.14273970923E+03  0.32117670643E+02 -0.12844716629E+04  0.12988066146E+04  0.12500000000E+03 0.  0.
         25    1    1    2    0    0  0.72344247124E+02 -0.20170172881E+02 -0.38403196944E+03  0.41078714624E+03  0.12500000000E+03 0.  0.
         25    1    1    2    0    0  0.70395462110E+02 -0.11947497761E+02 -0.66892066292E+03  0.68423542518E+03  0.12500000000E+03 0.  0.
</event>
<event>
 5    0  0.5815084E-005  0.3755011E+03  0.7546771E-02  0.1052609E+00
         21   -1    0    0  502  501  0.00000000000E+00  0.00000000000E+00  0.14818097084E+04  0.14818097084E+04  0.00000000000E+00 0. -1.
         21   -1    0    0  501  502 -0.00000000000E+00 -0.00000000000E+00 -0.95154642641E+02  0.95154642641E+02  0.00000000000E+00 0. -1.
         25    1    1    2    0    0 -0.38920229738E+02  0.13630820540E+03  0.68333217784E+02  0.20097049483E+03  0.12500000000E+03 0.  0.
         25    1    1    2    0    0 -0.97865042362E+02 -0.18321580359E+01  0.66592700007E+03  0.68459089443E+03  0.12500000000E+03 0.  0.
         25    1    1    2    0    0  0.13678527210E+03 -0.13447604736E+03  0.65239484794E+03  0.69140296181E+03  0.12500000000E+03 0.  0.
</event>
<event>
 5    0  0.5815084E-005  0.2719136E+03  0.7546771E-02  0.1100189E+00
         21   -1    0    0  502  501  0.00000000000E+00  0.00000000000E+00  0.17408316689E+03  0.17408316689E+03  0.00000000000E+00 0.  1.
         21   -1    0    0  501  502 -0.00000000000E+00 -0.00000000000E+00 -0.42472218660E+03  0.42472218660E+03  0.00000000000E+00 0.  1.
         25    1    1    2    0    0 -0.41483964759E+02 -0.11528179136E+03  0.19363541399E+02  0.17609871518E+03  0.12500000000E+03 0.  0.
         25    1    1    2    0    0  0.18865919821E+02  0.25698474058E+02 -0.23255954710E+02  0.13108079161E+03  0.12500000000E+03 0.  0.
         25    1    1    2    0    0  0.22618044938E+02  0.89583317303E+02 -0.24674660640E+03  0.29162584670E+03  0.12500000000E+03 0.  0.
</event>
<event>
 5    0  0.5815084E-005  0.3404836E+03  0.7546771E-02  0.1066590E+00
         21   -1    0    0  502  501  0.00000000000E+00  0.00000000000E+00  0.13236915785E+03  0.13236915785E+03  0.00000000000E+00 0.  1.
         21   -1    0    0  501  502 -0.00000000000E+00 -0.00000000000E+00 -0.87580123756E+03  0.87580123756E+03  0.00000000000E+00 0.  1.
         25    1    1    2    0    0  0.75822071669E+02 -0.24651571689E+03 -0.39964819553E+03  0.49179534912E+03  0.12500000000E+03 0.  0.
         25    1    1    2    0    0  0.31632247763E+02  0.12627288482E+03 -0.17792874434E+03  0.25343456474E+03  0.12500000000E+03 0.  0.
         25    1    1    2    0    0 -0.10745431943E+03  0.12024283207E+03 -0.16585513984E+03  0.26294048155E+03  0.12500000000E+03 0.  0.
</event>
<event>
 5    0  0.5815084E-005  0.2803471E+03  0.7546771E-02  0.1095499E+00
         21   -1    0    0  502  501  0.00000000000E+00  0.00000000000E+00  0.57112356686E+02  0.57112356686E+02  0.00000000000E+00 0. -1.
         21   -1    0    0  501  502 -0.00000000000E+00 -0.00000000000E+00 -0.13761385258E+04  0.13761385258E+04  0.00000000000E+00 0. -1.
         25    1    1    2    0    0  0.75132246053E+02 -0.16636984022E+03 -0.72268192337E+03  0.75578961391E+03  0.12500000000E+03 0.  0.
         25    1    1    2    0    0 -0.81246338695E+02  0.10245924546E+03 -0.33976380257E+03  0.38491986967E+03  0.12500000000E+03 0.  0.
         25    1    1    2    0    0  0.61140926419E+01  0.63910594760E+02 -0.25658044315E+03  0.29254139888E+03  0.12500000000E+03 0.  0.
</event>
<event>
 5    0  0.5815084E-005  0.2990386E+03  0.7546771E-02  0.1085722E+00
         21   -1    0    0  502  501  0.00000000000E+00  0.00000000000E+00  0.39810989492E+03  0.39810989492E+03  0.00000000000E+00 0.  1.
         21   -1    0    0  501  502 -0.00000000000E+00 -0.00000000000E+00 -0.22462160275E+03  0.22462160275E+03  0.00000000000E+00 0.  1.
         25    1    1    2    0    0  0.79560467602E+02  0.45330054310E+02  0.47902025359E+02  0.16218596074E+03  0.12500000000E+03 0.  0.
         25    1    1    2    0    0 -0.68584007017E+02 -0.17834718902E+03  0.15410441556E+03  0.27547169863E+03  0.12500000000E+03 0.  0.
         25    1    1    2    0    0 -0.10976460585E+02  0.13301713471E+03 -0.28518148756E+02  0.18507383829E+03  0.12500000000E+03 0.  0.
</event>
<event>
 5    0  0.5815084E-005  0.2214776E+03  0.7546771E-02  0.1132786E+00
         21   -1    0    0  502  501  0.00000000000E+00  0.00000000000E+00  0.83126356365E+03  0.83126356365E+03  0.00000000000E+00 0.  1.
         21   -1    0    0  501  502 -0.00000000000E+00 -0.00000000000E+00 -0.59009370798E+02  0.59009370798E+02  0.00000000000E+00 0.  1.
         25    1    1    2    0    0  0.63021331004E+02  0.41996554612E+02  0.14852423888E+03  0.20837429855E+03  0.12500000000E+03 0.  0.
         25    1    1    2    0    0 -0.46508755000E+02 -0.50366836148E+02  0.40410624853E+03  0.42851691049E+03  0.12500000000E+03 0.  0.
         25    1    1    2    0    0 -0.16512576004E+02  0.83702815353E+01  0.21962370544E+03  0.25338172541E+03  0.12500000000E+03 0.  0.
</event>
<event>
 5    0  0.5815084E-005  0.3968694E+03  0.7546771E-02  0.1044869E+00
         21   -1    0    0  502  501  0.00000000000E+00  0.00000000000E+00  0.16450709407E+03  0.16450709407E+03  0.00000000000E+00 0.  1.
         21   -1    0    0  501  502 -0.00000000000E+00 -0.00000000000E+00 -0.95743778105E+03  0.95743778105E+03  0.00000000000E+00 0.  1.
         25    1    1    2    0    0  0.14208661750E+03 -0.67300490905E+02 -0.60361849155E+03  0.63615897878E+03  0.12500000000E+03 0.  0.
         25    1    1    2    0    0 -0.11843989766E+03  0.19060461221E+03 -0.16894998180E+03  0.30745279947E+03  0.12500000000E+03 0.  0.
         25    1    1    2    0    0 -0.23646719833E+02 -0.12330412131E+03 -0.20362213630E+02  0.17833309685E+03  0.12500000000E+03 0.  0.
</event>
<event>
 5    0  0.5815084E-005  0.2507839E+03  0.7546771E-02  0.1112810E+00
         21   -1    0    0  502  501  0.00000000000E+00  0.00000000000E+00  0.48723390255E+02  0.48723390255E+02  0.00000000000E+00 0. -1.
         21   -1    0    0  501  502 -0.00000000000E+00 -0.00000000000E+00 -0.12908083489E+04  0.12908083489E+04  0.00000000000E+00 0. -1.
         25    1    1    2    0    0 -0.18924179829E+02  0.19517238698E+02 -0.47654519639E+03  0.49341602263E+03  0.12500000000E+03 0.  0.
         25    1    1    2    0    0  0.11128563420E+03 -0.88815909037E+02 -0.42999978326E+03  0.46989102107E+03  0.12500000000E+03 0.  0.
         25    1    1    2    0    0 -0.92361454367E+02  0.69298670339E+02 -0.33553997898E+03  0.37622469544E+03  0.12500000000E+03 0.  0.
</event>
<event>
 5    0  0.5815084E-005  0.3221032E+03  0.7546771E-02  0.1074685E+00
         21   -1    0    0  502  501  0.00000000000E+00  0.00000000000E+00  0.71115655096E+03  0.71115655096E+03  0.00000000000E+00 0. -1.
         21   -1    0    0  501  502 -0.00000000000E+00 -0.00000000000E+00 -0.14588979689E+03  0.14588979689E+03  0.00000000000E+00 0. -1.
         25    1    1    2    0    0 -0.91740751437E+02 -0.57073762030E+02  0.30266077793E+03  0.34482216617E+03  0.12500000000E+03 0.  0.
         25    1    1    2    0    0  0.10370856367E+03  0.14117074707E+02  0.32649068223E+03  0.36493276581E+03  0.12500000000E+03 0.  0.
         25    1    1    2    0    0 -0.11967812236E+02  0.42956687323E+02 -0.63884706090E+02  0.14729141587E+03  0.12500000000E+03 0.  0.
</event>
<event>
 5    0  0.5815084E-005  0.2866396E+03  0.7546771E-02  0.1092117E+00
         21   -1    0    0  502  501  0.00000000000E+00  0.00000000000E+00  0.24825938957E+03  0.24825938957E+03  0.00000000000E+00 0.  1.
         21   -1    0    0  501  502 -0.00000000000E+00 -0.00000000000E+00 -0.33095328237E+03  0.33095328237E+03  0.00000000000E+00 0.  1.
         25    1    1    2    0    0 -0.51789399731E+02 -0.18724034599E+02  0.18362018345E+02  0.13782196891E+03  0.12500000000E+03 0.  0.
         25    1    1    2    0    0 -0.12072788196E+03 -0.30634818734E+02 -0.13221205534E+03  0.22049657861E+03  0.12500000000E+03 0.  0.
         25    1    1    2    0    0  0.17251728169E+03  0.49358853333E+02  0.31156144199E+02  0.22089412443E+03  0.12500000000E+03 0.  0.
</event>
<event>
 5    0  0.5815084E-005  0.4414196E+03  0.7546771E-02  0.1030312E+00
         21   -1    0    0  502  501  0.00000000000E+00  0.00000000000E+00  0.25124868724E+03  0.25124868724E+03  0.00000000000E+00 0.  1.
         21   -1    0    0  501  502 -0.00000000000E+00 -0.00000000000E+00 -0.77553159264E+03  0.77553159264E+03  0.00000000000E+00 0.  1.
         25    1    1    2    0    0 -0.10548524223E+03  0.22472957599E+02 -0.21629662570E+03  0.27210549506E+03  0.12500000000E+03 0.  0.
         25    1    1    2    0    0 -0.13592398500E+03  0.21330976969E+03 -0.27387748757E+03  0.39320511917E+03  0.12500000000E+03 0.  0.
         25    1    1    2    0    0  0.24140922724E+03 -0.23578272729E+03 -0.34108792132E+02  0.36146966565E+03  0.12500000000E+03 0.  0.
</event>
<event>
 5    0  0.5815084E-005  0.4042672E+03  0.7546771E-02  0.1042312E+00
         21   -1    0    0  502  501  0.00000000000E+00  0.00000000000E+00  0.41845696154E+03  0.41845696154E+03  0.00000000000E+00 0.  1.
         21   -1    0    0  501  502 -0.00000000000E+00 -0.00000000000E+00 -0.39055857463E+03  0.39055857463E+03  0.00000000000E+00 0.  1.
         25    1    1    2    0    0 -0.16305607051E+03  0.57150425803E+02 -0.99259972200E+02  0.23522541398E+03  0.12500000000E+03 0.  0.
         25    1    1    2    0    0  0.24664812834E+03  0.14004823305E+03  0.49233257357E+02  0.31384346484E+03  0.12500000000E+03 0.  0.
         25    1    1    2    0    0 -0.83592057831E+02 -0.19719865885E+03  0.77925101758E+02  0.25994665735E+03  0.12500000000E+03 0.  0.
</event>
<event>
 5    0  0.5815084E-005  0.2314615E+03  0.7546771E-02  0.1125615E+00
         21   -1    0    0  502  501  0.00000000000E+00  0.00000000000E+00  0.99764819912E+02  0.99764819912E+02  0.00000000000E+00 0.  1.
         21   -1    0    0  501  502 -0.00000000000E+00 -0.00000000000E+00 -0.53700716399E+03  0.53700716399E+03  0.00000000000E+00 0.  1.
         25    1    1    2    0    0  0.84045507241E+02  0.41560107726E+01 -0.15950535982E+03  0.21942625076E+03  0.12500000000E+03 0.  0.
         25    1    1    2    0    0 -0.12604453369E+03  0.51283450447E+01 -0.13728269657E+03  0.22446617379E+03  0.12500000000E+03 0.  0.
         25    1    1    2    0    0  0.41999026453E+02 -0.92843558173E+01 -0.14045428769E+03  0.19287955935E+03  0.12500000000E+03 0.  0.
</event>
<event>
 5    0  0.5933345E-005  0.3417565E+03  0.7546771E-02  0.1066050E+00
         21   -1    0    0  502  501  0.00000000000E+00  0.00000000000E+00  0.24214597172E+03  0.24214597172E+03  0.00000000000E+00 0. -1.
         21   -1    0    0  501  502 -0.00000000000E+00 -0.00000000000E+00 -0.48234325091E+03  0.48234325091E+03  0.00000000000E+00 0. -1.
         25    1    1    2    0    0 -0.10242349237E+03 -0.11924543363E+03 -0.17782229419E+03  0.26824580807E+03  0.12500000000E+03 0.  0.
         25    1    1    2    0    0  0.13224882334E+03 -0.91702985326E+02 -0.44575111534E+02  0.20859321504E+03  0.12500000000E+03 0.  0.
         25    1    1    2    0    0 -0.29825330968E+02  0.21094841896E+03 -0.17799873457E+02  0.24765019952E+03  0.12500000000E+03 0.  0.
</event>
<event>
 5    0  0.5815084E-005  0.4691752E+03  0.7546771E-02  0.1022153E+00
         21   -1    0    0  502  501  0.00000000000E+00  0.00000000000E+00  0.21330815065E+03  0.21330815065E+03  0.00000000000E+00 0.  1.
         21   -1    0    0  501  502 -0.00000000000E+00 -0.00000000000E+00 -0.10319593716E+04  0.10319593716E+04  0.00000000000E+00 0.  1.
         25    1    1    2    0    0 -0.32495386893E+03 -0.13021524414E+03 -0.53243892098E+03  0.64935909273E+03  0.12500000000E+03 0.  0.
         25    1    1    2    0    0  0.23488784202E+03 -0.53790786444E+02 -0.21284443590E+03  0.34495434616E+03  0.12500000000E+03 0.  0.
         25    1    1    2    0    0  0.90066026902E+02  0.18400603058E+03 -0.73367864115E+02  0.25095408340E+03  0.12500000000E+03 0.  0.
</event>
<event>
 5    0  0.5815084E-005  0.3714218E+03  0.7546771E-02  0.1054151E+00
         21   -1    0    0  502  501  0.00000000000E+00  0.00000000000E+00  0.21691063626E+03  0.21691063626E+03  0.00000000000E+00 0.  1.
         21   -1    0    0  501  502 -0.00000000000E+00 -0.00000000000E+00 -0.63599531853E+03  0.63599531853E+03  0.00000000000E+00 0.  1.
         25    1    1    2    0    0  0.13507466873E+02 -0.31837398566E+01 -0.19220560873E+03  0.22969672154E+03  0.12500000000E+03 0.  0.
         25    1    1    2    0    0 -0.97823016056E+02 -0.24374777753E+03 -0.12280179815E+03  0.31573343685E+03  0.12500000000E+03 0.  0.
         25    1    1    2    0    0  0.84315549183E+02  0.24693151739E+03 -0.10407727539E+03  0.30747579639E+03  0.12500000000E+03 0.  0.
</event>
<event>
 5    0  0.5815084E-005  0.2615176E+03  0.7546771E-02  0.1106235E+00
         21   -1    0    0  502  501  0.00000000000E+00  0.00000000000E+00  0.50223048698E+03  0.50223048698E+03  0.00000000000E+00 0.  1.
         21   -1    0    0  501  502 -0.00000000000E+00 -0.00000000000E+00 -0.13617542493E+03  0.13617542493E+03  0.00000000000E+00 0.  1.
         25    1    1    2    0    0  0.52485246358E+02 -0.35314761721E+02 -0.43715570375E+01  0.14016398964E+03  0.12500000000E+03 0.  0.
         25    1    1    2    0    0  0.75050491821E+02  0.85006858098E+01  0.21540411986E+03  0.26024752225E+03  0.12500000000E+03 0.  0.
         25    1    1    2    0    0 -0.12753573818E+03  0.26814075911E+02  0.15502249922E+03  0.23799440003E+03  0.12500000000E+03 0.  0.
</event>
<event>
 5    0  0.5815084E-005  0.2683884E+03  0.7546771E-02  0.1102206E+00
         21   -1    0    0  502  501  0.00000000000E+00  0.00000000000E+00  0.75005472647E+02  0.75005472647E+02  0.00000000000E+00 0. -1.
         21   -1    0    0  501  502 -0.00000000000E+00 -0.00000000000E+00 -0.96036111411E+03  0.96036111411E+03  0.00000000000E+00 0. -1.
         25    1    1    2    0    0 -0.88580239922E+02  0.10701727571E+03 -0.38814843684E+03  0.43079387789E+03  0.12500000000E+03 0.  0.
         25    1    1    2    0    0  0.67543793528E+02 -0.79144382596E+02 -0.11038976421E+03  0.19656270598E+03  0.12500000000E+03 0.  0.
         25    1    1    2    0    0  0.21036446394E+02 -0.27872893116E+02 -0.38681744041E+03  0.40801000288E+03  0.12500000000E+03 0.  0.
</event>
<event>
 5    0  0.5815084E-005  0.5191758E+03  0.7546771E-02  0.1008892E+00
         21   -1    0    0  502  501  0.00000000000E+00  0.00000000000E+00  0.24223043821E+04  0.24223043821E+04  0.00000000000E+00 0. -1.
         21   -1    0    0  501  502 -0.00000000000E+00 -0.00000000000E+00 -0.11127564910E+03  0.11127564910E+03  0.00000000000E+00 0. -1.
         25    1    1    2    0    0 -0.38666577708E+03  0.31667600730E+02  0.98881069863E+03  0.10695255293E+04  0.12500000000E+03 0.  0.
         25    1    1    2    0    0  0.26882192826E+03 -0.11996947287E+03  0.35532714463E+03  0.47805887006E+03  0.12500000000E+03 0.  0.
         25    1    1    2    0    0  0.11784384882E+03  0.88301872142E+02  0.96689088977E+03  0.98599563186E+03  0.12500000000E+03 0.  0.
</event>
<event>
 5    0  0.5815084E-005  0.2630484E+03  0.7546771E-02  0.1105325E+00
         21   -1    0    0  502  501  0.00000000000E+00  0.00000000000E+00  0.93685976636E+03  0.93685976636E+03  0.00000000000E+00 0.  1.
         21   -1    0    0  501  502 -0.00000000000E+00 -0.00000000000E+00 -0.73857880213E+02  0.73857880213E+02  0.00000000000E+00 0.  1.
         25    1    1    2    0    0  0.69016269993E+02  0.36665980909E+02  0.48466136133E+03  0.50658590076E+03  0.12500000000E+03 0.  0.
         25    1    1    2    0    0 -0.11784640744E+03  0.37299232131E+02  0.24138866394E+03  0.29861764104E+03  0.12500000000E+03 0.  0.
         25    1    1    2    0    0  0.48830137446E+02 -0.73965213039E+02  0.13695186088E+03  0.20551410478E+03  0.12500000000E+03 0.  0.
</event>
<event>
 5    0  0.5815084E-005  0.2990401E+03  0.7546771E-02  0.1085721E+00
         21   -1    0    0  502  501  0.00000000000E+00  0.00000000000E+00  0.53162637462E+03  0.53162637462E+03  0.00000000000E+00 0.  1.
         21   -1    0    0  501  502 -0.00000000000E+00 -0.00000000000E+00 -0.16821025504E+03  0.16821025504E+03  0.00000000000E+00 0.  1.
         25    1    1    2    0    0  0.14638844693E+02 -0.12032667393E+03  0.18903648907E+02  0.17514323331E+03  0.12500000000E+03 0.  0.
         25    1    1    2    0    0 -0.59368954623E+02  0.19501453046E+03  0.17202953780E+03  0.29457512071E+03  0.12500000000E+03 0.  0.
         25    1    1    2    0    0  0.44730109930E+02 -0.74687856531E+02  0.17248293288E+03  0.23011827564E+03  0.12500000000E+03 0.  0.
</event>
<event>
 5    0  0.5815084E-005  0.3626520E+03  0.7546771E-02  0.1057539E+00
         21   -1    0    0  502  501  0.00000000000E+00  0.00000000000E+00  0.21610072084E+03  0.21610072084E+03  0.00000000000E+00 0. -1.
         21   -1    0    0  501  502 -0.00000000000E+00 -0.00000000000E+00 -0.60858866292E+03  0.60858866292E+03  0.00000000000E+00 0. -1.
         25    1    1    2    0    0 -0.19655383109E+03  0.20244887641E+03 -0.13513458897E+03  0.33690549597E+03  0.12500000000E+03 0.  0.
         25    1    1    2    0    0  0.11550990443E+03 -0.52464685498E+02 -0.20191496612E+03  0.26923917766E+03  0.12500000000E+03 0.  0.
         25    1    1    2    0    0  0.81043926662E+02 -0.14998419091E+03 -0.55438386991E+02  0.21854471013E+03  0.12500000000E+03 0.  0.
</event>
<event>
 5    0  0.5815084E-005  0.2825959E+03  0.7546771E-02  0.1094280E+00
         21   -1    0    0  502  501  0.00000000000E+00  0.00000000000E+00  0.46475824716E+03  0.46475824716E+03  0.00000000000E+00 0. -1.
         21   -1    0    0  501  502 -0.00000000000E+00 -0.00000000000E+00 -0.17183221310E+03  0.17183221310E+03  0.00000000000E+00 0. -1.
         25    1    1    2    0    0 -0.72551714046E+02 -0.78094938140E+02 -0.51095796925E+02  0.17204171307E+03  0.12500000000E+03 0.  0.
         25    1    1    2    0    0 -0.29603454145E+02 -0.86676292424E+01  0.13475738048E+03  0.18637608186E+03  0.12500000000E+03 0.  0.
         25    1    1    2    0    0  0.10215516819E+03  0.86762567382E+02  0.20926445050E+03  0.27817266532E+03  0.12500000000E+03 0.  0.
</event>
<event>
 5    0  0.5815084E-005  0.3099912E+03  0.7546771E-02  0.1080350E+00
         21   -1    0    0  502  501  0.00000000000E+00  0.00000000000E+00  0.18898834907E+03  0.18898834907E+03  0.00000000000E+00 0.  1.
         21   -1    0    0  501  502 -0.00000000000E+00 -0.00000000000E+00 -0.50846815956E+03  0.50846815956E+03  0.00000000000E+00 0.  1.
         25    1    1    2    0    0  0.71118365129E+02 -0.11469969824E+03 -0.46619828006E+02  0.18976894108E+03  0.12500000000E+03 0.  0.
         25    1    1    2    0    0 -0.65305553293E+02 -0.17534809973E+02 -0.29187958177E+03  0.32463976205E+03  0.12500000000E+03 0.  0.
         25    1    1    2    0    0 -0.58128118358E+01  0.13223450821E+03  0.19019599277E+02  0.18304780550E+03  0.12500000000E+03 0.  0.
</event>
<event>
 5    0  0.5815084E-005  0.4264757E+03  0.7546771E-02  0.1034979E+00
         21   -1    0    0  502  501  0.00000000000E+00  0.00000000000E+00  0.13523520264E+04  0.13523520264E+04  0.00000000000E+00 0. -1.
         21   -1    0    0  501  502 -0.00000000000E+00 -0.00000000000E+00 -0.13449270733E+03  0.13449270733E+03  0.00000000000E+00 0. -1.
         25    1    1    2    0    0  0.77472839502E+01  0.22553697185E+03  0.11404019047E+03  0.28205870156E+03  0.12500000000E+03 0.  0.
         25    1    1    2    0    0 -0.14902249663E+03 -0.90942294450E+02  0.30475437049E+03  0.37279811125E+03  0.12500000000E+03 0.  0.
         25    1    1    2    0    0  0.14127521268E+03 -0.13459467740E+03  0.79906475816E+03  0.83198792097E+03  0.12500000000E+03 0.  0.
</event>
<event>
 5    0  0.5815084E-005  0.3815832E+03  0.7546771E-02  0.1050350E+00
         21   -1    0    0  502  501  0.00000000000E+00  0.00000000000E+00  0.47158477461E+03  0.47158477461E+03  0.00000000000E+00 0. -1.
         21   -1    0    0  501  502 -0.00000000000E+00 -0.00000000000E+00 -0.30875835011E+03  0.30875835011E+03  0.00000000000E+00 0. -1.
         25    1    1    2    0    0  0.31882893335E+03  0.52476898284E+01  0.13334121869E+03  0.36753817161E+03  0.12500000000E+03 0.  0.
         25    1    1    2    0    0 -0.21280397164E+03 -0.40203337306E+01  0.31809035770E+02  0.24887448279E+03  0.12500000000E+03 0.  0.
         25    1    1    2    0    0 -0.10602496171E+03 -0.12273560977E+01 -0.23238299528E+01  0.16393047031E+03  0.12500000000E+03 0.  0.
</event>
<event>
 5    0  0.5815084E-005  0.2328918E+03  0.7546771E-02  0.1124621E+00
         21   -1    0    0  502  501  0.00000000000E+00  0.00000000000E+00  0.34060123611E+03  0.34060123611E+03  0.00000000000E+00 0. -1.
         21   -1    0    0  501  502 -0.00000000000E+00 -0.00000000000E+00 -0.15924364334E+03  0.15924364334E+03  0.00000000000E+00 0. -1.
         25    1    1    2    0    0  0.49537266204E+02  0.70611061985E+02  0.17292922915E+03  0.23015077908E+03  0.12500000000E+03 0.  0.
         25    1    1    2    0    0 -0.49303179202E+02 -0.46979244992E+02  0.42619133386E+01  0.14241143509E+03  0.12500000000E+03 0.  0.
         25    1    1    2    0    0 -0.23408700178E+00 -0.23631816993E+02  0.41664502867E+01  0.12728266527E+03  0.12500000000E+03 0.  0.
</event>
<event>
 5    0  0.5815084E-005  0.2833735E+03  0.7546771E-02  0.1093861E+00
         21   -1    0    0  502  501  0.00000000000E+00  0.00000000000E+00  0.38638025641E+03  0.38638025641E+03  0.00000000000E+00 0.  1.
         21   -1    0    0  501  502 -0.00000000000E+00 -0.00000000000E+00 -0.20782779332E+03  0.20782779332E+03  0.00000000000E+00 0.  1.
         25    1    1    2    0    0 -0.22169301776E+02 -0.98607520177E+02 -0.26076787335E+02  0.16284937769E+03  0.12500000000E+03 0.  0.
         25    1    1    2    0    0 -0.10340410324E+03  0.11205227853E+03  0.73078157545E+02  0.21027015670E+03  0.12500000000E+03 0.  0.
         25    1    1    2    0    0  0.12557340501E+03 -0.13444758353E+02  0.13155109289E+03  0.22108851534E+03  0.12500000000E+03 0.  0.
</event>
<event>
 5    0  0.5815084E-005  0.2190048E+03  0.7546771E-02  0.1134627E+00
         21   -1    0    0  502  501  0.00000000000E+00  0.00000000000E+00  0.13161021592E+03  0.13161021592E+03  0.00000000000E+00 0.  1.
         21   -1    0    0  501  502 -0.00000000000E+00 -0.00000000000E+00 -0.36443285330E+03  0.36443285330E+03  0.00000000000E+00 0.  1.
         25    1    1    2    0    0  0.21927364482E+01 -0.35935994307E+02 -0.22434544809E+02  0.13200194158E+03  0.12500000000E+03 0.  0.
         25    1    1    2    0    0 -0.55824690345E+02  0.32985438903E+02 -0.40769297491E+02  0.14660003700E+03  0.12500000000E+03 0.  0.
         25    1    1    2    0    0  0.53631953897E+02  0.29505554040E+01 -0.16961879507E+03  0.21744109064E+03  0.12500000000E+03 0.  0.
</event>
<event>
 5    0  0.5815084E-005  0.2435630E+03  0.7546771E-02  0.1117442E+00
         21   -1    0    0  502  501  0.00000000000E+00  0.00000000000E+00  0.10065129694E+03  0.10065129694E+03  0.00000000000E+00 0. -1.
         21   -1    0    0  501  502 -0.00000000000E+00 -0.00000000000E+00 -0.58939051985E+03  0.58939051985E+03  0.00000000000E+00 0. -1.
         25    1    1    2    0    0  0.21472672828E+02 -0.65197241379E+02 -0.98606286461E+02  0.17337807154E+03  0.12500000000E+03 0.  0.
         25    1    1    2    0    0  0.96166582587E+02  0.26297002954E+02 -0.21919065285E+03  0.27130994502E+03  0.12500000000E+03 0.  0.
         25    1    1    2    0    0 -0.11763925542E+03  0.38900238425E+02 -0.17094228360E+03  0.24535380023E+03  0.12500000000E+03 0.  0.
</event>
<event>
 5    0  0.5815084E-005  0.2913160E+03  0.7546771E-02  0.1089664E+00
         21   -1    0    0  502  501  0.00000000000E+00  0.00000000000E+00  0.23718306494E+03  0.23718306494E+03  0.00000000000E+00 0.  1.
         21   -1    0    0  501  502 -0.00000000000E+00 -0.00000000000E+00 -0.35780374266E+03  0.35780374266E+03  0.00000000000E+00 0.  1.
         25    1    1    2    0    0 -0.24673564222E+02 -0.17901947198E+03  0.61369690819E+02  0.22814029690E+03  0.12500000000E+03 0.  0.
         25    1    1    2    0    0  0.96877902643E+01  0.13483875370E+03 -0.11961824299E+03  0.21956517674E+03  0.12500000000E+03 0.  0.
         25    1    1    2    0    0  0.14985773957E+02  0.44180718280E+02 -0.62372125543E+02  0.14728133396E+03  0.12500000000E+03 0.  0.
</event>
<event>
 5    0  0.5815084E-005  0.2606518E+03  0.7546771E-02  0.1106752E+00
         21   -1    0    0  502  501  0.00000000000E+00  0.00000000000E+00  0.10432711892E+03  0.10432711892E+03  0.00000000000E+00 0. -1.
         21   -1    0    0  501  502 -0.00000000000E+00 -0.00000000000E+00 -0.65121471189E+03  0.65121471189E+03  0.00000000000E+00 0. -1.
         25    1    1    2    0    0  0.64218815999E+02  0.11940348437E+03 -0.21225761694E+03  0.28117529116E+03  0.12500000000E+03 0.  0.
         25    1    1    2    0    0 -0.58404728550E+02  0.84834092081E+01 -0.22637325316E+03  0.26524126808E+03  0.12500000000E+03 0.  0.
         25    1    1    2    0    0 -0.58140874484E+01 -0.12788689357E+03 -0.10825672287E+03  0.20912527157E+03  0.12500000000E+03 0.  0.
</event>
<event>
 5    0  0.5815084E-005  0.4027026E+03  0.7546771E-02  0.1042848E+00
         21   -1    0    0  502  501  0.00000000000E+00  0.00000000000E+00  0.31177936960E+03  0.31177936960E+03  0.00000000000E+00 0.  1.
         21   -1    0    0  501  502 -0.00000000000E+00 -0.00000000000E+00 -0.52014152863E+03  0.52014152863E+03  0.00000000000E+00 0.  1.
         25    1    1    2    0    0 -0.11566394262E+03 -0.24060533602E+03 -0.10908769609E+03  0.31431544789E+03  0.12500000000E+03 0.  0.
         25    1    1    2    0    0  0.98989617628E+02  0.29926599765E+03 -0.14834192116E+03  0.37012080099E+03  0.12500000000E+03 0.  0.
         25    1    1    2    0    0  0.16674324988E+02 -0.58660661635E+02  0.49067458226E+02  0.14748464935E+03  0.12500000000E+03 0.  0.
</event>
<event>
 5    0  0.5815084E-005  0.3592159E+03  0.7546771E-02  0.1058895E+00
         21   -1    0    0  502  501  0.00000000000E+00  0.00000000000E+00  0.87857823597E+03  0.87857823597E+03  0.00000000000E+00 0.  1.
         21   -1    0    0  501  502 -0.00000000000E+00 -0.00000000000E+00 -0.14686914218E+03  0.14686914218E+03  0.00000000000E+00 0. -1.
         25    1    1    2    0    0  0.20563820047E+03  0.13646981207E+03  0.45015006928E+03  0.52836650534E+03  0.12500000000E+03 0.  0.
         25    1    1    2    0    0 -0.52261378794E+02 -0.48136546959E+02  0.25397654652E+01  0.14380483050E+03  0.12500000000E+03 0.  0.
         25    1    1    2    0    0 -0.15337682167E+03 -0.88333265111E+02  0.27901925904E+03  0.35327604231E+03  0.12500000000E+03 0.  0.
</event>
<event>
 5    0  0.5815084E-005  0.2571880E+03  0.7546771E-02  0.1108845E+00
         21   -1    0    0  502  501  0.00000000000E+00  0.00000000000E+00  0.38316523229E+03  0.38316523229E+03  0.00000000000E+00 0. -1.
         21   -1    0    0  501  502 -0.00000000000E+00 -0.00000000000E+00 -0.17262956189E+03  0.17262956189E+03  0.00000000000E+00 0. -1.
         25    1    1    2    0    0 -0.18540252369E+02 -0.12916150105E+03  0.41336742225E+02  0.18536493889E+03  0.12500000000E+03 0.  0.
         25    1    1    2    0    0 -0.41174406017E+02  0.68602612665E+02  0.68315522195E+01  0.14857092677E+03  0.12500000000E+03 0.  0.
         25    1    1    2    0    0  0.59714658385E+02  0.60558888382E+02  0.16236737596E+03  0.22185892852E+03  0.12500000000E+03 0.  0.
</event>
<event>
 5    0  0.5815084E-005  0.2272910E+03  0.7546771E-02  0.1128561E+00
         21   -1    0    0  502  501  0.00000000000E+00  0.00000000000E+00  0.22355658900E+02  0.22355658900E+02  0.00000000000E+00 0.  1.
         21   -1    0    0  501  502 -0.00000000000E+00 -0.00000000000E+00 -0.23108776381E+04  0.23108776381E+04  0.00000000000E+00 0.  1.
         25    1    1    2    0    0  0.78797376673E+01  0.30795566517E+02 -0.57048878858E+03  0.58488709601E+03  0.12500000000E+03 0.  0.
         25    1    1    2    0    0 -0.38456334416E+02  0.23922448015E+02 -0.13157906444E+04  0.13224905266E+04  0.12500000000E+03 0.  0.
         25    1    1    2    0    0  0.30576596749E+02 -0.54718014532E+02 -0.40224254625E+03  0.42585567437E+03  0.12500000000E+03 0.  0.
</event>
<event>
 5    0  0.5815084E-005  0.3188978E+03  0.7546771E-02  0.1076158E+00
         21   -1    0    0  502  501  0.00000000000E+00  0.00000000000E+00  0.39711727433E+03  0.39711727433E+03  0.00000000000E+00 0.  1.
         21   -1    0    0  501  502 -0.00000000000E+00 -0.00000000000E+00 -0.25608510617E+03  0.25608510617E+03  0.00000000000E+00 0.  1.
         25    1    1    2    0    0  0.13886610592E+03 -0.10993788585E+01  0.35437307584E+02  0.19017309688E+03  0.12500000000E+03 0.  0.
         25    1    1    2    0    0 -0.92760514036E+02  0.99235519582E+02 -0.91209710942E+02  0.20590389186E+03  0.12500000000E+03 0.  0.
         25    1    1    2    0    0 -0.46105591885E+02 -0.98136140723E+02  0.19680457152E+03  0.25712539177E+03  0.12500000000E+03 0.  0.
</event>
<event>
 5    0  0.5815084E-005  0.2756041E+03  0.7546771E-02  0.1098114E+00
         21   -1    0    0  502  501  0.00000000000E+00  0.00000000000E+00  0.42190041313E+03  0.42190041313E+03  0.00000000000E+00 0.  1.
         21   -1    0    0  501  502 -0.00000000000E+00 -0.00000000000E+00 -0.18003681008E+03  0.18003681008E+03  0.00000000000E+00 0.  1.
         25    1    1    2    0    0  0.18557521120E+02  0.38290205195E+02  0.29683263998E+03  0.32487711148E+03  0.12500000000E+03 0.  0.
         25    1    1    2    0    0  0.26046048061E+01  0.14397744370E+02  0.78117393741E+01  0.12609560770E+03  0.12500000000E+03 0.  0.
         25    1    1    2    0    0 -0.21162125926E+02 -0.52687949565E+02 -0.62780776307E+02  0.15096450403E+03  0.12500000000E+03 0.  0.
</event>
<event>
 5    0  0.5815084E-005  0.5403998E+03  0.7546771E-02  0.1003741E+00
         21   -1    0    0  502  501  0.00000000000E+00  0.00000000000E+00  0.67987405688E+03  0.67987405688E+03  0.00000000000E+00 0. -1.
         21   -1    0    0  501  502 -0.00000000000E+00 -0.00000000000E+00 -0.42953830825E+03  0.42953830825E+03  0.00000000000E+00 0. -1.
         25    1    1    2    0    0 -0.13868082611E+03  0.47123679842E+03  0.19560415397E+03  0.54330698207E+03  0.12500000000E+03 0.  0.
         25    1    1    2    0    0  0.83280758347E+02 -0.14092676804E+03  0.20109858822E+02  0.20694309624E+03  0.12500000000E+03 0.  0.
         25    1    1    2    0    0  0.55400067767E+02 -0.33031003038E+03  0.34621735836E+02  0.35916228682E+03  0.12500000000E+03 0.  0.
</event>
<event>
 5    0  0.5815084E-005  0.5274363E+03  0.7546771E-02  0.1006856E+00
         21   -1    0    0  502  501  0.00000000000E+00  0.00000000000E+00  0.13966047793E+03  0.13966047793E+03  0.00000000000E+00 0.  1.
         21   -1    0    0  501  502 -0.00000000000E+00 -0.00000000000E+00 -0.19918955653E+04  0.19918955653E+04  0.00000000000E+00 0.  1.
         25    1    1    2    0    0 -0.23360039766E+02 -0.22943662386E+03 -0.15651381299E+04  0.15869685635E+04  0.12500000000E+03 0.  0.
         25    1    1    2    0    0  0.33822652905E+02  0.62164232204E+02  0.46416091002E+02  0.15095634176E+03  0.12500000000E+03 0.  0.
         25    1    1    2    0    0 -0.10462613139E+02  0.16727239165E+03 -0.33351304847E+03  0.39363113798E+03  0.12500000000E+03 0.  0.
</event>
<event>
 5    0  0.5815084E-005  0.4582100E+03  0.7546771E-02  0.1025302E+00
         21   -1    0    0  502  501  0.00000000000E+00  0.00000000000E+00  0.73923073072E+02  0.73923073072E+02  0.00000000000E+00 0. -1.
         21   -1    0    0  501  502 -0.00000000000E+00 -0.00000000000E+00 -0.28402007618E+04  0.28402007618E+04  0.00000000000E+00 0. -1.
         25    1    1    2    0    0  0.78990311800E+01 -0.34052795994E+02 -0.11609608161E+03  0.17414157394E+03  0.12500000000E+03 0.  0.
         25    1    1    2    0    0  0.22219553624E+03 -0.12311094904E+03 -0.55886346342E+03  0.62648266763E+03  0.12500000000E+03 0.  0.
         25    1    1    2    0    0 -0.23009456742E+03  0.15716374504E+03 -0.20913181437E+04  0.21134995933E+04  0.12500000000E+03 0.  0.
</event>
<event>
 5    0  0.5815084E-005  0.3158018E+03  0.7546771E-02  0.1077598E+00
         21   -1    0    0  502  501  0.00000000000E+00  0.00000000000E+00  0.63030085383E+02  0.63030085383E+02  0.00000000000E+00 0. -1.
         21   -1    0    0  501  502 -0.00000000000E+00 -0.00000000000E+00 -0.15822730257E+04  0.15822730257E+04  0.00000000000E+00 0. -1.
         25    1    1    2    0    0  0.10241456339E+03  0.15853505509E+02 -0.11089804824E+04  0.11208045266E+04  0.12500000000E+03 0.  0.
         25    1    1    2    0    0 -0.66485714057E+01  0.51664770990E+02 -0.94123125270E+02  0.16491699359E+03  0.12500000000E+03 0.  0.
         25    1    1    2    0    0 -0.95765991985E+02 -0.67518276499E+02 -0.31613933258E+03  0.35958159086E+03  0.12500000000E+03 0.  0.
</event>
<event>
 5    0  0.5815084E-005  0.2996742E+03  0.7546771E-02  0.1085404E+00
         21   -1    0    0  502  501  0.00000000000E+00  0.00000000000E+00  0.16655174358E+04  0.16655174358E+04  0.00000000000E+00 0. -1.
         21   -1    0    0  501  502 -0.00000000000E+00 -0.00000000000E+00 -0.53919957320E+02  0.53919957320E+02  0.00000000000E+00 0. -1.
         25    1    1    2    0    0 -0.27286719949E+02  0.13616497018E+03  0.45648180677E+03  0.49324041207E+03  0.12500000000E+03 0.  0.
         25    1    1    2    0    0 -0.65359750039E+02  0.19598274016E+02  0.76591165954E+03  0.77903893323E+03  0.12500000000E+03 0.  0.
         25    1    1    2    0    0  0.92646469988E+02 -0.15576324419E+03  0.38920401220E+03  0.44715804785E+03  0.12500000000E+03 0.  0.
</event>
<event>
 5    0  0.5815084E-005  0.1999349E+03  0.7546771E-02  0.1149794E+00
         21   -1    0    0  502  501  0.00000000000E+00  0.00000000000E+00  0.43042020769E+03  0.43042020769E+03  0.00000000000E+00 0. -1.
         21   -1    0    0  501  502 -0.00000000000E+00 -0.00000000000E+00 -0.92871991005E+02  0.92871991005E+02  0.00000000000E+00 0. -1.
         25    1    1    2    0    0  0.12463439020E+02 -0.31592175383E+02  0.80313310870E+02  0.15240941821E+03  0.12500000000E+03 0.  0.
         25    1    1    2    0    0  0.13750623882E+01  0.44568840411E+02  0.86436374878E+02  0.15838093078E+03  0.12500000000E+03 0.  0.
         25    1    1    2    0    0 -0.13838501408E+02 -0.12976665028E+02  0.17079853094E+03  0.21250184970E+03  0.12500000000E+03 0.  0.
</event>
<event>
 5    0  0.5815084E-005  0.2795417E+03  0.7546771E-02  0.1095940E+00
         21   -1    0    0  502  501  0.00000000000E+00  0.00000000000E+00  0.14161999691E+03  0.14161999691E+03  0.00000000000E+00 0.  1.
         21   -1    0    0  501  502 -0.00000000000E+00 -0.00000000000E+00 -0.55178334078E+03  0.55178334078E+03  0.00000000000E+00 0.  1.
         25    1    1    2    0    0  0.70481636452E+02  0.14758627617E+03 -0.30153549857E+03  0.36510002313E+03  0.12500000000E+03 0.  0.
         25    1    1    2    0    0 -0.26372017108E+02 -0.11264565857E+03 -0.39789992992E+02  0.17490789354E+03  0.12500000000E+03 0.  0.
         25    1    1    2    0    0 -0.44109619344E+02 -0.34940617596E+02 -0.68837852311E+02  0.15339542101E+03  0.12500000000E+03 0.  0.
</event>
<event>
 5    0  0.5815084E-005  0.2617114E+03  0.7546771E-02  0.1106119E+00
         21   -1    0    0  502  501  0.00000000000E+00  0.00000000000E+00  0.16343512976E+03  0.16343512976E+03  0.00000000000E+00 0. -1.
         21   -1    0    0  501  502 -0.00000000000E+00 -0.00000000000E+00 -0.41908270350E+03  0.41908270350E+03  0.00000000000E+00 0. -1.
         25    1    1    2    0    0  0.12976543390E+03 -0.54927199567E+02 -0.50312455290E+02  0.19496771077E+03  0.12500000000E+03 0.  0.
         25    1    1    2    0    0  0.15362783514E+02  0.49909173947E+02 -0.10408776407E+03  0.17083970086E+03  0.12500000000E+03 0.  0.
         25    1    1    2    0    0 -0.14512821741E+03  0.50180256198E+01 -0.10124735438E+03  0.21671042162E+03  0.12500000000E+03 0.  0.
</event>
<event>
 5    0  0.5815084E-005  0.3272136E+03  0.7546771E-02  0.1072376E+00
         21   -1    0    0  502  501  0.00000000000E+00  0.00000000000E+00  0.45931798980E+03  0.45931798980E+03  0.00000000000E+00 0. -1.
         21   -1    0    0  501  502 -0.00000000000E+00 -0.00000000000E+00 -0.23310378226E+03  0.23310378226E+03  0.00000000000E+00 0. -1.
         25    1    1    2    0    0  0.92843536212E+02 -0.24691383189E+02  0.17073225942E+02  0.15857516093E+03  0.12500000000E+03 0.  0.
         25    1    1    2    0    0  0.12677768328E+03  0.91040819298E+01 -0.35510442273E+02  0.18177309151E+03  0.12500000000E+03 0.  0.
         25    1    1    2    0    0 -0.21962121950E+03  0.15587301259E+02  0.24465142387E+03  0.35207351962E+03  0.12500000000E+03 0.  0.
</event>
<event>
 5    0  0.5815084E-005  0.4867068E+03  0.7546771E-02  0.1017308E+00
         21   -1    0    0  502  501  0.00000000000E+00  0.00000000000E+00  0.14334549477E+04  0.14334549477E+04  0.00000000000E+00 0. -1.
         21   -1    0    0  501  502 -0.00000000000E+00 -0.00000000000E+00 -0.16525351970E+03  0.16525351970E+03  0.00000000000E+00 0. -1.
         25    1    1    2    0    0 -0.22560714886E+03 -0.19233357368E+03  0.12301087831E+03  0.34445241379E+03  0.12500000000E+03 0.  0.
         25    1    1    2    0    0  0.75572154173E+02  0.25462399066E+03  0.53063742892E+03  0.60642032294E+03  0.12500000000E+03 0.  0.
         25    1    1    2    0    0  0.15003499469E+03 -0.62290416981E+02  0.61455312074E+03  0.64783573064E+03  0.12500000000E+03 0.  0.
</event>
<event>
 5    0  0.5815084E-005  0.3885163E+03  0.7546771E-02  0.1047830E+00
         21   -1    0    0  502  501  0.00000000000E+00  0.00000000000E+00  0.12998799032E+04  0.12998799032E+04  0.00000000000E+00 0.  1.
         21   -1    0    0  501  502 -0.00000000000E+00 -0.00000000000E+00 -0.11612221519E+03  0.11612221519E+03  0.00000000000E+00 0.  1.
         25    1    1    2    0    0 -0.15107137837E+03  0.15636312405E+03  0.86677521136E+02  0.26534879046E+03  0.12500000000E+03 0.  0.
         25    1    1    2    0    0  0.10336493302E+03 -0.12084754093E+03  0.54023120946E+03  0.57685630550E+03  0.12500000000E+03 0.  0.
         25    1    1    2    0    0  0.47706445354E+02 -0.35515583126E+02  0.55684895742E+03  0.57379702243E+03  0.12500000000E+03 0.  0.
</event>
<event>
 5    0  0.5815084E-005  0.2466449E+03  0.7546771E-02  0.1115444E+00
         21   -1    0    0  502  501  0.00000000000E+00  0.00000000000E+00  0.88226739562E+02  0.88226739562E+02  0.00000000000E+00 0.  1.
         21   -1    0    0  501  502 -0.00000000000E+00 -0.00000000000E+00 -0.68951548572E+03  0.68951548572E+03  0.00000000000E+00 0.  1.
         25    1    1    2    0    0  0.25000756526E+02  0.11486066865E+02 -0.19169195841E+03  0.23049463004E+03  0.12500000000E+03 0.  0.
         25    1    1    2    0    0  0.10872235053E+03  0.54218353731E+01 -0.26837604324E+03  0.31543723050E+03  0.12500000000E+03 0.  0.
         25    1    1    2    0    0 -0.13372310706E+03 -0.16907902239E+02 -0.14122074451E+03  0.23181036474E+03  0.12500000000E+03 0.  0.
</event>
<event>
 5    0  0.5815084E-005  0.2621157E+03  0.7546771E-02  0.1105879E+00
         21   -1    0    0  502  501  0.00000000000E+00  0.00000000000E+00  0.55646661465E+03  0.55646661465E+03  0.00000000000E+00 0. -1.
         21   -1    0    0  501  502 -0.00000000000E+00 -0.00000000000E+00 -0.12346586667E+03  0.12346586667E+03  0.00000000000E+00 0.  1.
         25    1    1    2    0    0 -0.11946521252E+03 -0.10611851324E+03  0.20378501495E+03  0.28755244421E+03  0.12500000000E+03 0.  0.
         25    1    1    2    0    0  0.91029581889E+02  0.31659749834E+02  0.63782554096E+02  0.17024082573E+03  0.12500000000E+03 0.  0.
         25    1    1    2    0    0  0.28435630634E+02  0.74458763404E+02  0.16543317894E+03  0.22213921138E+03  0.12500000000E+03 0.  0.
</event>
<event>
 5    0  0.5815084E-005  0.2889163E+03  0.7546771E-02  0.1090916E+00
         21   -1    0    0  502  501  0.00000000000E+00  0.00000000000E+00  0.25395755514E+03  0.25395755514E+03  0.00000000000E+00 0.  1.
         21   -1    0    0  501  502 -0.00000000000E+00 -0.00000000000E+00 -0.32868724474E+03  0.32868724474E+03  0.00000000000E+00 0.  1.
         25    1    1    2    0    0  0.15166733490E+03 -0.42192228747E+02 -0.84906883168E+02  0.21821398547E+03  0.12500000000E+03 0.  0.
         25    1    1    2    0    0 -0.79552284680E+02 -0.39650019104E+02  0.92616286734E+02  0.17917440270E+03  0.12500000000E+03 0.  0.
         25    1    1    2    0    0 -0.72115050224E+02  0.81842247851E+02 -0.82439093160E+02  0.18525641172E+03  0.12500000000E+03 0.  0.
</event>
<event>
 5    0  0.5815084E-005  0.2508493E+03  0.7546771E-02  0.1112769E+00
         21   -1    0    0  502  501  0.00000000000E+00  0.00000000000E+00  0.23042293815E+03  0.23042293815E+03  0.00000000000E+00 0.  1.
         21   -1    0    0  501  502 -0.00000000000E+00 -0.00000000000E+00 -0.27308635551E+03  0.27308635551E+03  0.00000000000E+00 0.  1.
         25    1    1    2    0    0  0.89032867108E+01 -0.10719169465E+03 -0.12002215284E+03  0.20395991050E+03  0.12500000000E+03 0.  0.
         25    1    1    2    0    0 -0.26556040213E+01  0.97801431271E+02  0.15113235011E+02  0.15945401238E+03  0.12500000000E+03 0.  0.
         25    1    1    2    0    0 -0.62476826895E+01  0.93902633812E+01  0.62245500481E+02  0.14009537079E+03  0.12500000000E+03 0.  0.
</event>
<event>
 5    0  0.5815084E-005  0.2810017E+03  0.7546771E-02  0.1095143E+00
         21   -1    0    0  502  501  0.00000000000E+00  0.00000000000E+00  0.43429129412E+02  0.43429129412E+02  0.00000000000E+00 0. -1.
         21   -1    0    0  501  502 -0.00000000000E+00 -0.00000000000E+00 -0.18181796972E+04  0.18181796972E+04  0.00000000000E+00 0. -1.
         25    1    1    2    0    0  0.74409367973E+02 -0.46390598411E+02 -0.55895975468E+03  0.57943925395E+03  0.12500000000E+03 0.  0.
         25    1    1    2    0    0 -0.16392602690E+03  0.37920931576E+02 -0.96799486208E+03  0.99042859024E+03  0.12500000000E+03 0.  0.
         25    1    1    2    0    0  0.89516658926E+02  0.84696668357E+01 -0.24779595102E+03  0.29174098242E+03  0.12500000000E+03 0.  0.
</event>
<event>
 5    0  0.5815084E-005  0.3259184E+03  0.7546771E-02  0.1072957E+00
         21   -1    0    0  502  501  0.00000000000E+00  0.00000000000E+00  0.20755088645E+03  0.20755088645E+03  0.00000000000E+00 0.  1.
         21   -1    0    0  501  502 -0.00000000000E+00 -0.00000000000E+00 -0.51179167247E+03  0.51179167247E+03  0.00000000000E+00 0.  1.
         25    1    1    2    0    0 -0.13213916649E+03  0.71473864335E+02 -0.16093906179E+03  0.25317119546E+03  0.12500000000E+03 0.  0.
         25    1    1    2    0    0  0.15921195354E+03  0.95588570889E+02 -0.26206203251E+02  0.22538275472E+03  0.12500000000E+03 0.  0.
         25    1    1    2    0    0 -0.27072787048E+02 -0.16706243522E+03 -0.11709552099E+03  0.24078860874E+03  0.12500000000E+03 0.  0.
</event>
<event>
 5    0  0.5815084E-005  0.3275634E+03  0.7546771E-02  0.1072220E+00
         21   -1    0    0  502  501  0.00000000000E+00  0.00000000000E+00  0.32601876670E+03  0.32601876670E+03  0.00000000000E+00 0. -1.
         21   -1    0    0  501  502 -0.00000000000E+00 -0.00000000000E+00 -0.32911531478E+03  0.32911531478E+03  0.00000000000E+00 0. -1.
         25    1    1    2    0    0 -0.10352956046E+02 -0.16515594680E+03  0.48622996541E+02  0.21300907552E+03  0.12500000000E+03 0.  0.
         25    1    1    2    0    0 -0.14981437963E+03  0.38234840366E+02 -0.35958146157E+02  0.20205009190E+03  0.12500000000E+03 0.  0.
         25    1    1    2    0    0  0.16016733568E+03  0.12692110643E+03 -0.15761398468E+02  0.24007491405E+03  0.12500000000E+03 0.  0.
</event>
<event>
 5    0  0.5815084E-005  0.3118026E+03  0.7546771E-02  0.1079485E+00
         21   -1    0    0  502  501  0.00000000000E+00  0.00000000000E+00  0.21659212416E+03  0.21659212416E+03  0.00000000000E+00 0. -1.
         21   -1    0    0  501  502 -0.00000000000E+00 -0.00000000000E+00 -0.44886608036E+03  0.44886608036E+03  0.00000000000E+00 0. -1.
         25    1    1    2    0    0  0.40413508970E+02  0.28821601509E+02  0.64467481924E+02  0.14914755327E+03  0.12500000000E+03 0.  0.
         25    1    1    2    0    0 -0.13841867084E+03 -0.65132776800E+02 -0.29294114112E+03  0.35332919383E+03  0.12500000000E+03 0.  0.
         25    1    1    2    0    0  0.98005161872E+02  0.36311175292E+02 -0.38002969925E+01  0.16298145742E+03  0.12500000000E+03 0.  0.
</event>
<event>
 5    0  0.5815084E-005  0.2634941E+03  0.7546771E-02  0.1105062E+00
         21   -1    0    0  502  501  0.00000000000E+00  0.00000000000E+00  0.60025738044E+03  0.60025738044E+03  0.00000000000E+00 0.  1.
         21   -1    0    0  501  502 -0.00000000000E+00 -0.00000000000E+00 -0.11566560166E+03  0.11566560166E+03  0.00000000000E+00 0.  1.
         25    1    1    2    0    0 -0.61730625644E+02 -0.53781453588E+02  0.18398048412E+03  0.23701673660E+03  0.12500000000E+03 0.  0.
         25    1    1    2    0    0  0.21986480680E+02 -0.18119733231E+02 -0.15550435260E+02  0.12914544553E+03  0.12500000000E+03 0.  0.
         25    1    1    2    0    0  0.39744144964E+02  0.71901186819E+02  0.31616172993E+03  0.34976079997E+03  0.12500000000E+03 0.  0.
</event>
<event>
 5    0  0.5815084E-005  0.3156825E+03  0.7546771E-02  0.1077654E+00
         21   -1    0    0  502  501  0.00000000000E+00  0.00000000000E+00  0.17412255109E+03  0.17412255109E+03  0.00000000000E+00 0.  1.
         21   -1    0    0  501  502 -0.00000000000E+00 -0.00000000000E+00 -0.57232921805E+03  0.57232921805E+03  0.00000000000E+00 0.  1.
         25    1    1    2    0    0 -0.12928663516E+03  0.73445042834E+02 -0.78223520821E+02  0.20941138354E+03  0.12500000000E+03 0.  0.
         25    1    1    2    0    0 -0.61268800700E+02 -0.60117821843E+02 -0.26003250188E+03  0.30101481770E+03  0.12500000000E+03 0.  0.
         25    1    1    2    0    0  0.19055543586E+03 -0.13327220990E+02 -0.59950644256E+02  0.23602556790E+03  0.12500000000E+03 0.  0.
</event>
<event>
 5    0  0.5815084E-005  0.2764855E+03  0.7546771E-02  0.1097624E+00
         21   -1    0    0  502  501  0.00000000000E+00  0.00000000000E+00  0.21830854846E+03  0.21830854846E+03  0.00000000000E+00 0.  1.
         21   -1    0    0  501  502 -0.00000000000E+00 -0.00000000000E+00 -0.35016592918E+03  0.35016592918E+03  0.00000000000E+00 0.  1.
         25    1    1    2    0    0  0.28120992635E+02 -0.17222147043E+03  0.16434396887E+02  0.21528147739E+03  0.12500000000E+03 0.  0.
         25    1    1    2    0    0 -0.58911103418E+01  0.83363007061E+02 -0.12690066397E+03  0.19675587575E+03  0.12500000000E+03 0.  0.
         25    1    1    2    0    0 -0.22229882293E+02  0.88858463372E+02 -0.21391113627E+02  0.15643712450E+03  0.12500000000E+03 0.  0.
</event>
<event>
 5    0  0.5815084E-005  0.3073682E+03  0.7546771E-02  0.1081614E+00
         21   -1    0    0  502  501  0.00000000000E+00  0.00000000000E+00  0.97818962211E+02  0.97818962211E+02  0.00000000000E+00 0.  1.
         21   -1    0    0  501  502 -0.00000000000E+00 -0.00000000000E+00 -0.96581666207E+03  0.96581666207E+03  0.00000000000E+00 0.  1.
         25    1    1    2    0    0 -0.89247449709E+02  0.14544254721E+02 -0.55408539217E+03  0.57516281559E+03  0.12500000000E+03 0.  0.
         25    1    1    2    0    0  0.17910655605E+03 -0.25432956548E+02 -0.18759794518E+03  0.28903975978E+03  0.12500000000E+03 0.  0.
         25    1    1    2    0    0 -0.89859106341E+02  0.10888701827E+02 -0.12631436252E+03  0.19943304891E+03  0.12500000000E+03 0.  0.
</event>
<event>
 5    0  0.5815084E-005  0.2600409E+03  0.7546771E-02  0.1107119E+00
         21   -1    0    0  502  501  0.00000000000E+00  0.00000000000E+00  0.53866987163E+03  0.53866987163E+03  0.00000000000E+00 0. -1.
         21   -1    0    0  501  502 -0.00000000000E+00 -0.00000000000E+00 -0.12553380968E+03  0.12553380968E+03  0.00000000000E+00 0. -1.
         25    1    1    2    0    0 -0.97238490524E+02 -0.56133075996E+01 -0.11620666218E+02  0.15889264660E+03  0.12500000000E+03 0.  0.
         25    1    1    2    0    0  0.20740873421E+02 -0.42568596438E+01  0.20181078194E+03  0.23832938633E+03  0.12500000000E+03 0.  0.
         25    1    1    2    0    0  0.76497617103E+02  0.98701672434E+01  0.22294594623E+03  0.26698164837E+03  0.12500000000E+03 0.  0.
</event>
<event>
 5    0  0.5815084E-005  0.2634607E+03  0.7546771E-02  0.1105082E+00
         21   -1    0    0  502  501  0.00000000000E+00  0.00000000000E+00  0.18220230918E+03  0.18220230918E+03  0.00000000000E+00 0. -1.
         21   -1    0    0  501  502 -0.00000000000E+00 -0.00000000000E+00 -0.38095856630E+03  0.38095856630E+03  0.00000000000E+00 0. -1.
         25    1    1    2    0    0 -0.75658018504E+02 -0.11939496263E+02  0.48242227123E+02  0.15433405267E+03  0.12500000000E+03 0.  0.
         25    1    1    2    0    0 -0.43795122222E+02  0.54746577804E+02 -0.77418165344E+02  0.16289190538E+03  0.12500000000E+03 0.  0.
         25    1    1    2    0    0  0.11945314073E+03 -0.42807081542E+02 -0.16958031890E+03  0.24593491744E+03  0.12500000000E+03 0.  0.
</event>
<event>
 5    0  0.5815084E-005  0.2342630E+03  0.7546771E-02  0.1123675E+00
         21   -1    0    0  502  501  0.00000000000E+00  0.00000000000E+00  0.50352645215E+03  0.50352645215E+03  0.00000000000E+00 0.  1.
         21   -1    0    0  501  502 -0.00000000000E+00 -0.00000000000E+00 -0.10898958474E+03  0.10898958474E+03  0.00000000000E+00 0.  1.
         25    1    1    2    0    0  0.12977014416E+03  0.68800726951E+01  0.12638803666E+03  0.22019664286E+03  0.12500000000E+03 0.  0.
         25    1    1    2    0    0 -0.77033718947E+02 -0.26434066352E+02  0.13424095273E+03  0.20069525931E+03  0.12500000000E+03 0.  0.
         25    1    1    2    0    0 -0.52736425210E+02  0.19553993657E+02  0.13390787802E+03  0.19162413472E+03  0.12500000000E+03 0.  0.
</event>
<event>
 5    0  0.5815084E-005  0.2999355E+03  0.7546771E-02  0.1085273E+00
         21   -1    0    0  502  501  0.00000000000E+00  0.00000000000E+00  0.49126242141E+02  0.49126242141E+02  0.00000000000E+00 0. -1.
         21   -1    0    0  501  502 -0.00000000000E+00 -0.00000000000E+00 -0.18312269427E+04  0.18312269427E+04  0.00000000000E+00 0. -1.
         25    1    1    2    0    0  0.35753918556E+02  0.18493163226E+03 -0.77196154169E+03  0.80438030381E+03  0.12500000000E+03 0.  0.
         25    1    1    2    0    0 -0.80811724447E+02 -0.21239921721E+02 -0.30593674398E+03  0.34088701999E+03  0.12500000000E+03 0.  0.
         25    1    1    2    0    0  0.45057805891E+02 -0.16369171053E+03 -0.70420241488E+03  0.73508586103E+03  0.12500000000E+03 0.  0.
</event>
<event>
 5    0  0.5815084E-005  0.2790741E+03  0.7546771E-02  0.1096196E+00
         21   -1    0    0  502  501  0.00000000000E+00  0.00000000000E+00  0.20344185336E+04  0.20344185336E+04  0.00000000000E+00 0. -1.
         21   -1    0    0  501  502 -0.00000000000E+00 -0.00000000000E+00 -0.38282367469E+02  0.38282367469E+02  0.00000000000E+00 0. -1.
         25    1    1    2    0    0  0.27493466410E+02 -0.43301330031E+02  0.10998566305E+04  0.11081247689E+04  0.12500000000E+03 0.  0.
         25    1    1    2    0    0 -0.68247023501E+02 -0.57579100789E+02  0.64878545878E+03  0.66672376633E+03  0.12500000000E+03 0.  0.
         25    1    1    2    0    0  0.40753557091E+02  0.10088043082E+03  0.24749407686E+03  0.29785236581E+03  0.12500000000E+03 0.  0.
</event>
<event>
 5    0  0.6100070E-005  0.3000149E+03  0.7546771E-02  0.1085233E+00
         21   -1    0    0  502  501  0.00000000000E+00  0.00000000000E+00  0.48067193948E+03  0.48067193948E+03  0.00000000000E+00 0. -1.
         21   -1    0    0  501  502 -0.00000000000E+00 -0.00000000000E+00 -0.18725652472E+03  0.18725652472E+03  0.00000000000E+00 0. -1.
         25    1    1    2    0    0 -0.55898156065E+02  0.36570489150E+02  0.18255630714E+03  0.23111427867E+03  0.12500000000E+03 0.  0.
         25    1    1    2    0    0 -0.67992334192E+02 -0.70182662164E+02 -0.77731256680E+02  0.17667968712E+03  0.12500000000E+03 0.  0.
         25    1    1    2    0    0  0.12389049026E+03  0.33612173014E+02  0.18859036431E+03  0.26013449841E+03  0.12500000000E+03 0.  0.
</event>
<event>
 5    0  0.1070298E-004  0.6946300E+03  0.7546771E-02  0.9726460E-01
         21   -1    0    0  502  501  0.00000000000E+00  0.00000000000E+00  0.92342030552E+03  0.92342030552E+03  0.00000000000E+00 0.  1.
         21   -1    0    0  501  502 -0.00000000000E+00 -0.00000000000E+00 -0.52252563509E+03  0.52252563509E+03  0.00000000000E+00 0.  1.
         25    1    1    2    0    0  0.75833012867E+02 -0.10377749292E+03  0.52858237552E+03  0.55816193134E+03  0.12500000000E+03 0.  0.
         25    1    1    2    0    0  0.20591356173E+03 -0.27577529555E+03 -0.15601988277E+03  0.39801961303E+03  0.12500000000E+03 0.  0.
         25    1    1    2    0    0 -0.28174657460E+03  0.37955278847E+03  0.28332177683E+02  0.48976439624E+03  0.12500000000E+03 0.  0.
</event>
<event>
 5    0  0.5815084E-005  0.2369667E+03  0.7546771E-02  0.1121830E+00
         21   -1    0    0  502  501  0.00000000000E+00  0.00000000000E+00  0.20493872845E+03  0.20493872845E+03  0.00000000000E+00 0. -1.
         21   -1    0    0  501  502 -0.00000000000E+00 -0.00000000000E+00 -0.27400008457E+03  0.27400008457E+03  0.00000000000E+00 0. -1.
         25    1    1    2    0    0  0.11242324670E+03 -0.23390495718E+02 -0.76361750553E+02  0.18612420217E+03  0.12500000000E+03 0.  0.
         25    1    1    2    0    0 -0.18270002354E+02 -0.66469849600E+01  0.34588024442E+02  0.13114612777E+03  0.12500000000E+03 0.  0.
         25    1    1    2    0    0 -0.94153244342E+02  0.30037480678E+02 -0.27287630012E+02  0.16166848307E+03  0.12500000000E+03 0.  0.
</event>
<event>
 5    0  0.5815084E-005  0.2185510E+03  0.7546771E-02  0.1134968E+00
         21   -1    0    0  502  501  0.00000000000E+00  0.00000000000E+00  0.28117935895E+03  0.28117935895E+03  0.00000000000E+00 0.  1.
         21   -1    0    0  501  502 -0.00000000000E+00 -0.00000000000E+00 -0.16987210039E+03  0.16987210039E+03  0.00000000000E+00 0.  1.
         25    1    1    2    0    0  0.14046577404E+02 -0.47382783495E+02  0.11609029432E+03  0.17760740678E+03  0.12500000000E+03 0.  0.
         25    1    1    2    0    0 -0.49089106700E+02  0.48896829965E+02  0.69493705755E+01  0.14308715571E+03  0.12500000000E+03 0.  0.
         25    1    1    2    0    0  0.35042529295E+02 -0.15140464699E+01 -0.11732406341E+02  0.13035689684E+03  0.12500000000E+03 0.  0.
</event>
<event>
 5    0  0.5815084E-005  0.2814900E+03  0.7546771E-02  0.1094878E+00
         21   -1    0    0  502  501  0.00000000000E+00  0.00000000000E+00  0.17091707351E+03  0.17091707351E+03  0.00000000000E+00 0.  1.
         21   -1    0    0  501  502 -0.00000000000E+00 -0.00000000000E+00 -0.46359676462E+03  0.46359676462E+03  0.00000000000E+00 0.  1.
         25    1    1    2    0    0  0.11449101710E+03 -0.47310549800E+02  0.54776628745E+02  0.18431483981E+03  0.12500000000E+03 0.  0.
         25    1    1    2    0    0 -0.46034338600E+02  0.13418097475E+02 -0.12080805122E+03  0.18032967285E+03  0.12500000000E+03 0.  0.
         25    1    1    2    0    0 -0.68456678501E+02  0.33892452325E+02 -0.22664826863E+03  0.26986932547E+03  0.12500000000E+03 0.  0.
</event>
<event>
 5    0  0.5815084E-005  0.4090035E+03  0.7546771E-02  0.1040706E+00
         21   -1    0    0  502  501  0.00000000000E+00  0.00000000000E+00  0.90475095795E+03  0.90475095795E+03  0.00000000000E+00 0. -1.
         21   -1    0    0  501  502 -0.00000000000E+00 -0.00000000000E+00 -0.18489489409E+03  0.18489489409E+03  0.00000000000E+00 0. -1.
         25    1    1    2    0    0 -0.69284594936E+00 -0.82085949874E+02  0.28131227164E+03  0.31859092482E+03  0.12500000000E+03 0.  0.
         25    1    1    2    0    0 -0.21099825598E+03  0.31230114964E+02 -0.20264040911E+02  0.24805486382E+03  0.12500000000E+03 0.  0.
         25    1    1    2    0    0  0.21169110193E+03  0.50855834911E+02  0.45880783313E+03  0.52300006341E+03  0.12500000000E+03 0.  0.
</event>
<event>
 5    0  0.5815084E-005  0.3195074E+03  0.7546771E-02  0.1075876E+00
         21   -1    0    0  502  501  0.00000000000E+00  0.00000000000E+00  0.57053107278E+03  0.57053107278E+03  0.00000000000E+00 0. -1.
         21   -1    0    0  501  502 -0.00000000000E+00 -0.00000000000E+00 -0.17892979577E+03  0.17892979577E+03  0.00000000000E+00 0. -1.
         25    1    1    2    0    0 -0.12005620919E+03  0.89571027156E+02  0.37298444483E+03  0.42092619110E+03  0.12500000000E+03 0.  0.
         25    1    1    2    0    0 -0.18075393781E-01 -0.14814011631E+02  0.53155238091E+02  0.13663796911E+03  0.12500000000E+03 0.  0.
         25    1    1    2    0    0  0.12007428458E+03 -0.74757015526E+02 -0.34538405908E+02  0.19189670834E+03  0.12500000000E+03 0.  0.
</event>
<event>
 5    0  0.5815084E-005  0.3247870E+03  0.7546771E-02  0.1073467E+00
         21   -1    0    0  502  501  0.00000000000E+00  0.00000000000E+00  0.32730777660E+04  0.32730777660E+04  0.00000000000E+00 0. -1.
         21   -1    0    0  501  502 -0.00000000000E+00 -0.00000000000E+00 -0.32228566927E+02  0.32228566927E+02  0.00000000000E+00 0. -1.
         25    1    1    2    0    0 -0.16251772153E+03 -0.16370806799E+03  0.99913901213E+03  0.10330131204E+04  0.12500000000E+03 0.  0.
         25    1    1    2    0    0  0.22001778790E+01  0.38171744658E+02  0.90614754156E+03  0.91552732889E+03  0.12500000000E+03 0.  0.
         25    1    1    2    0    0  0.16031754365E+03  0.12553632333E+03  0.13355626453E+04  0.13567658836E+04  0.12500000000E+03 0.  0.
</event>
<event>
 5    0  0.5815084E-005  0.4129677E+03  0.7546771E-02  0.1039380E+00
         21   -1    0    0  502  501  0.00000000000E+00  0.00000000000E+00  0.32578582482E+03  0.32578582482E+03  0.00000000000E+00 0. -1.
         21   -1    0    0  501  502 -0.00000000000E+00 -0.00000000000E+00 -0.52347983994E+03  0.52347983994E+03  0.00000000000E+00 0. -1.
         25    1    1    2    0    0 -0.12486080351E+03 -0.29166867874E+03  0.21983507026E+01  0.34101418029E+03  0.12500000000E+03 0.  0.
         25    1    1    2    0    0  0.96347655845E+02  0.19048737354E+03 -0.23499190957E+03  0.34119570312E+03  0.12500000000E+03 0.  0.
         25    1    1    2    0    0  0.28513147668E+02  0.10118130521E+03  0.35099543747E+02  0.16705578136E+03  0.12500000000E+03 0.  0.
</event>
<event>
 5    0  0.5815084E-005  0.3548600E+03  0.7546771E-02  0.1060638E+00
         21   -1    0    0  502  501  0.00000000000E+00  0.00000000000E+00  0.29118965969E+04  0.29118965969E+04  0.00000000000E+00 0.  1.
         21   -1    0    0  501  502 -0.00000000000E+00 -0.00000000000E+00 -0.43245217369E+02  0.43245217369E+02  0.00000000000E+00 0.  1.
         25    1    1    2    0    0  0.23011847814E+02  0.12267231724E+03  0.75623990075E+03  0.77659631086E+03  0.12500000000E+03 0.  0.
         25    1    1    2    0    0 -0.52318352449E+02  0.14495412207E+03  0.12691199535E+04  0.12845385802E+04  0.12500000000E+03 0.  0.
         25    1    1    2    0    0  0.29306504635E+02 -0.26762643931E+03  0.84329152528E+03  0.89400692326E+03  0.12500000000E+03 0.  0.
</event>
<event>
 5    0  0.5815084E-005  0.4365055E+03  0.7546771E-02  0.1031824E+00
         21   -1    0    0  502  501  0.00000000000E+00  0.00000000000E+00  0.14172732576E+04  0.14172732576E+04  0.00000000000E+00 0. -1.
         21   -1    0    0  501  502 -0.00000000000E+00 -0.00000000000E+00 -0.13443915597E+03  0.13443915597E+03  0.00000000000E+00 0. -1.
         25    1    1    2    0    0  0.10596727847E+03  0.98261086730E+02  0.56376125255E+03  0.59526133349E+03  0.12500000000E+03 0.  0.
         25    1    1    2    0    0 -0.12706970628E+03 -0.12967128466E+03  0.78128851664E+03  0.81178697856E+03  0.12500000000E+03 0.  0.
         25    1    1    2    0    0  0.21102427811E+02  0.31410197931E+02 -0.62215667532E+02  0.14466410156E+03  0.12500000000E+03 0.  0.
</event>
<event>
 5    0  0.5815084E-005  0.2995004E+03  0.7546771E-02  0.1085491E+00
         21   -1    0    0  502  501  0.00000000000E+00  0.00000000000E+00  0.41833479949E+03  0.41833479949E+03  0.00000000000E+00 0.  1.
         21   -1    0    0  501  502 -0.00000000000E+00 -0.00000000000E+00 -0.21442267205E+03  0.21442267205E+03  0.00000000000E+00 0.  1.
         25    1    1    2    0    0  0.15801938257E+03  0.95210938259E+02 -0.43109668948E+02  0.22697729311E+03  0.12500000000E+03 0.  0.
         25    1    1    2    0    0 -0.76329170042E+02 -0.82291100809E+02  0.16239274208E+03  0.23365438184E+03  0.12500000000E+03 0.  0.
         25    1    1    2    0    0 -0.81690212525E+02 -0.12919837450E+02  0.84629054305E+02  0.17212579660E+03  0.12500000000E+03 0.  0.
</event>
<event>
 5    0  0.5815084E-005  0.3132434E+03  0.7546771E-02  0.1078802E+00
         21   -1    0    0  502  501  0.00000000000E+00  0.00000000000E+00  0.77013745728E+03  0.77013745728E+03  0.00000000000E+00 0.  1.
         21   -1    0    0  501  502 -0.00000000000E+00 -0.00000000000E+00 -0.12740764194E+03  0.12740764194E+03  0.00000000000E+00 0.  1.
         25    1    1    2    0    0 -0.58992465951E+02 -0.17217072547E+02  0.44577412676E+02  0.14624870716E+03  0.12500000000E+03 0.  0.
         25    1    1    2    0    0 -0.59267949708E+02  0.14813294412E+03  0.14502087726E+03  0.24922302028E+03  0.12500000000E+03 0.  0.
         25    1    1    2    0    0  0.11826041566E+03 -0.13091587157E+03  0.45313152541E+03  0.50207337179E+03  0.12500000000E+03 0.  0.
</event>
<event>
 5    0  0.5815084E-005  0.3274268E+03  0.7546771E-02  0.1072281E+00
         21   -1    0    0  502  501  0.00000000000E+00  0.00000000000E+00  0.52263631982E+03  0.52263631982E+03  0.00000000000E+00 0.  1.
         21   -1    0    0  501  502 -0.00000000000E+00 -0.00000000000E+00 -0.20512989746E+03  0.20512989746E+03  0.00000000000E+00 0.  1.
         25    1    1    2    0    0 -0.50792593739E+02 -0.60981648066E+02 -0.84754701430E+02  0.17060776182E+03  0.12500000000E+03 0.  0.
         25    1    1    2    0    0  0.12454685945E+03  0.60739142574E+02  0.36081650990E+03  0.40622003576E+03  0.12500000000E+03 0.  0.
         25    1    1    2    0    0 -0.73754265709E+02  0.24250549203E+00  0.41444613891E+02  0.15093841969E+03  0.12500000000E+03 0.  0.
</event>
<event>
 5    0  0.5815084E-005  0.2360150E+03  0.7546771E-02  0.1122476E+00
         21   -1    0    0  502  501  0.00000000000E+00  0.00000000000E+00  0.38773077775E+03  0.38773077775E+03  0.00000000000E+00 0. -1.
         21   -1    0    0  501  502 -0.00000000000E+00 -0.00000000000E+00 -0.14366431347E+03  0.14366431347E+03  0.00000000000E+00 0. -1.
         25    1    1    2    0    0 -0.85838762164E+02 -0.24577387761E+02  0.37882811712E+02  0.15821646091E+03  0.12500000000E+03 0.  0.
         25    1    1    2    0    0  0.76726146837E+02 -0.53558476195E+02  0.14576000475E+03  0.21360334961E+03  0.12500000000E+03 0.  0.
         25    1    1    2    0    0  0.91126153267E+01  0.78135863955E+02  0.60423647818E+02  0.15957528070E+03  0.12500000000E+03 0.  0.
</event>
<event>
 5    0  0.7272728E-005  0.4901217E+03  0.7546771E-02  0.1016390E+00
         21   -1    0    0  502  501  0.00000000000E+00  0.00000000000E+00  0.23551883148E+03  0.23551883148E+03  0.00000000000E+00 0.  1.
         21   -1    0    0  501  502 -0.00000000000E+00 -0.00000000000E+00 -0.10199579164E+04  0.10199579164E+04  0.00000000000E+00 0.  1.
         25    1    1    2    0    0  0.28471990566E+03  0.12451818989E+03 -0.88233763247E+02  0.34638187203E+03  0.12500000000E+03 0.  0.
         25    1    1    2    0    0 -0.23396258020E+03 -0.77089953320E+02 -0.96549675294E+02  0.29262294790E+03  0.12500000000E+03 0.  0.
         25    1    1    2    0    0 -0.50757325463E+02 -0.47428236574E+02 -0.59965564638E+03  0.61647192795E+03  0.12500000000E+03 0.  0.
</event>
<event>
 5    0  0.5815084E-005  0.4522098E+03  0.7546771E-02  0.1027065E+00
         21   -1    0    0  502  501  0.00000000000E+00  0.00000000000E+00  0.21420425407E+04  0.21420425407E+04  0.00000000000E+00 0.  1.
         21   -1    0    0  501  502 -0.00000000000E+00 -0.00000000000E+00 -0.95466680040E+02  0.95466680040E+02  0.00000000000E+00 0.  1.
         25    1    1    2    0    0  0.30724050092E+03  0.71856747498E+02  0.97299412573E+03  0.10304866260E+04  0.12500000000E+03 0.  0.
         25    1    1    2    0    0 -0.15246392347E+03  0.98715025241E+02  0.20976396011E+03  0.30432847900E+03  0.12500000000E+03 0.  0.
         25    1    1    2    0    0 -0.15477657745E+03 -0.17057177274E+03  0.86381777487E+03  0.90269411584E+03  0.12500000000E+03 0.  0.
</event>
<event>
 5    0  0.5815084E-005  0.2269205E+03  0.7546771E-02  0.1128826E+00
         21   -1    0    0  502  501  0.00000000000E+00  0.00000000000E+00  0.85431838910E+03  0.85431838910E+03  0.00000000000E+00 0.  1.
         21   -1    0    0  501  502 -0.00000000000E+00 -0.00000000000E+00 -0.60273692683E+02  0.60273692683E+02  0.00000000000E+00 0.  1.
         25    1    1    2    0    0  0.76755993372E+02 -0.87188032559E+02  0.23581634000E+03  0.29108002637E+03  0.12500000000E+03 0.  0.
         25    1    1    2    0    0 -0.28923436792E+02  0.40876372108E+02  0.24008434824E+03  0.27526884543E+03  0.12500000000E+03 0.  0.
         25    1    1    2    0    0 -0.47832556580E+02  0.46311660451E+02  0.31814400818E+03  0.34824320999E+03  0.12500000000E+03 0.  0.
</event>
<event>
 5    0  0.5815084E-005  0.2830217E+03  0.7546771E-02  0.1094050E+00
         21   -1    0    0  502  501  0.00000000000E+00  0.00000000000E+00  0.25197980417E+03  0.25197980417E+03  0.00000000000E+00 0.  1.
         21   -1    0    0  501  502 -0.00000000000E+00 -0.00000000000E+00 -0.31788769754E+03  0.31788769754E+03  0.00000000000E+00 0.  1.
         25    1    1    2    0    0 -0.11547770494E+02  0.20657406317E+02  0.56263908289E+02  0.13910681800E+03  0.12500000000E+03 0.  0.
         25    1    1    2    0    0 -0.84718601841E+02 -0.39041000602E+02  0.78680015480E+02  0.17469111615E+03  0.12500000000E+03 0.  0.
         25    1    1    2    0    0  0.96266372335E+02  0.18383594285E+02 -0.20085181714E+03  0.25606956756E+03  0.12500000000E+03 0.  0.
</event>
<event>
 5    0  0.5815084E-005  0.3631612E+03  0.7546771E-02  0.1057339E+00
         21   -1    0    0  502  501  0.00000000000E+00  0.00000000000E+00  0.10900048067E+04  0.10900048067E+04  0.00000000000E+00 0.  1.
         21   -1    0    0  501  502 -0.00000000000E+00 -0.00000000000E+00 -0.12099584676E+03  0.12099584676E+03  0.00000000000E+00 0.  1.
         25    1    1    2    0    0  0.71559632806E+02  0.15419750675E+03  0.55200289475E+03  0.59095672257E+03  0.12500000000E+03 0.  0.
         25    1    1    2    0    0 -0.18305991956E+03 -0.56519564493E+02  0.10273593376E+03  0.25076895224E+03  0.12500000000E+03 0.  0.
         25    1    1    2    0    0  0.11150028675E+03 -0.97677942258E+02  0.31427013144E+03  0.36927497866E+03  0.12500000000E+03 0.  0.
</event>
<event>
 5    0  0.5815084E-005  0.2441981E+03  0.7546771E-02  0.1117027E+00
         21   -1    0    0  502  501  0.00000000000E+00  0.00000000000E+00  0.32789874558E+03  0.32789874558E+03  0.00000000000E+00 0.  1.
         21   -1    0    0  501  502 -0.00000000000E+00 -0.00000000000E+00 -0.18186323573E+03  0.18186323573E+03  0.00000000000E+00 0.  1.
         25    1    1    2    0    0  0.69926814085E+01 -0.27946271073E+01  0.66851295707E+02  0.14195352504E+03  0.12500000000E+03 0.  0.
         25    1    1    2    0    0 -0.19334439864E+00 -0.93633462100E+02  0.12852717600E+03  0.20226590809E+03  0.12500000000E+03 0.  0.
         25    1    1    2    0    0 -0.67993370099E+01  0.96428089207E+02 -0.49342961850E+02  0.16554254817E+03  0.12500000000E+03 0.  0.
</event>
<event>
 5    0  0.5815084E-005  0.4820815E+03  0.7546771E-02  0.1018565E+00
         21   -1    0    0  502  501  0.00000000000E+00  0.00000000000E+00  0.37011866253E+03  0.37011866253E+03  0.00000000000E+00 0.  1.
         21   -1    0    0  501  502 -0.00000000000E+00 -0.00000000000E+00 -0.62791361706E+03  0.62791361706E+03  0.00000000000E+00 0.  1.
         25    1    1    2    0    0  0.22617829944E+03 -0.40243289922E+02  0.14928096020E+03  0.30114108089E+03  0.12500000000E+03 0.  0.
         25    1    1    2    0    0 -0.88619796172E+02 -0.25277719907E+02 -0.46599637003E+03  0.49119247580E+03  0.12500000000E+03 0.  0.
         25    1    1    2    0    0 -0.13755850327E+03  0.65521009829E+02  0.58920455309E+02  0.20569872290E+03  0.12500000000E+03 0.  0.
</event>
<event>
 5    0  0.5815084E-005  0.4141049E+03  0.7546771E-02  0.1039002E+00
         21   -1    0    0  502  501  0.00000000000E+00  0.00000000000E+00  0.21797963869E+03  0.21797963869E+03  0.00000000000E+00 0. -1.
         21   -1    0    0  501  502 -0.00000000000E+00 -0.00000000000E+00 -0.78669208213E+03  0.78669208213E+03  0.00000000000E+00 0. -1.
         25    1    1    2    0    0 -0.20575159737E+03 -0.27116468131E+03 -0.24625530651E+03  0.43832713833E+03  0.12500000000E+03 0.  0.
         25    1    1    2    0    0 -0.39299130123E+01  0.50266291826E+02 -0.72978046306E+02  0.15327406680E+03  0.12500000000E+03 0.  0.
         25    1    1    2    0    0  0.20968151038E+03  0.22089838948E+03 -0.24947909063E+03  0.41307051569E+03  0.12500000000E+03 0.  0.
</event>
<event>
 5    0  0.5815084E-005  0.3480463E+03  0.7546771E-02  0.1063420E+00
         21   -1    0    0  502  501  0.00000000000E+00  0.00000000000E+00  0.10782145084E+04  0.10782145084E+04  0.00000000000E+00 0. -1.
         21   -1    0    0  501  502 -0.00000000000E+00 -0.00000000000E+00 -0.11234890132E+03  0.11234890132E+03  0.00000000000E+00 0. -1.
         25    1    1    2    0    0  0.14696998954E+03 -0.11447880314E+03  0.50670736732E+03  0.55415063862E+03  0.12500000000E+03 0.  0.
         25    1    1    2    0    0 -0.13597700058E+03  0.16408701726E+03  0.43364912352E+03  0.49909002820E+03  0.12500000000E+03 0.  0.
         25    1    1    2    0    0 -0.10992988966E+02 -0.49608214120E+02  0.25509116278E+02  0.13732274294E+03  0.12500000000E+03 0.  0.
</event>
<event>
 5    0  0.5815084E-005  0.3216549E+03  0.7546771E-02  0.1074890E+00
         21   -1    0    0  502  501  0.00000000000E+00  0.00000000000E+00  0.17690700022E+03  0.17690700022E+03  0.00000000000E+00 0.  1.
         21   -1    0    0  501  502 -0.00000000000E+00 -0.00000000000E+00 -0.58483771202E+03  0.58483771202E+03  0.00000000000E+00 0.  1.
         25    1    1    2    0    0 -0.16160315851E+03 -0.15306270261E+03 -0.11603295447E+03  0.28041472553E+03  0.12500000000E+03 0.  0.
         25    1    1    2    0    0  0.31921262996E+02 -0.22748544063E+02 -0.10223385881E+03  0.16617227559E+03  0.12500000000E+03 0.  0.
         25    1    1    2    0    0  0.12968189552E+03  0.17581124667E+03 -0.18966389852E+03  0.31515771113E+03  0.12500000000E+03 0.  0.
</event>
<event>
 5    0  0.5815084E-005  0.2611440E+03  0.7546771E-02  0.1106458E+00
         21   -1    0    0  502  501  0.00000000000E+00  0.00000000000E+00  0.41614583726E+02  0.41614583726E+02  0.00000000000E+00 0.  1.
         21   -1    0    0  501  502 -0.00000000000E+00 -0.00000000000E+00 -0.16387572109E+04  0.16387572109E+04  0.00000000000E+00 0.  1.
         25    1    1    2    0    0  0.58682499041E+02  0.14520639785E+02 -0.50590820629E+03  0.52461661989E+03  0.12500000000E+03 0.  0.
         25    1    1    2    0    0 -0.81755273248E+02  0.88722027229E+01 -0.95989812384E+03  0.97148960305E+03  0.12500000000E+03 0.  0.
         25    1    1    2    0    0  0.23072774207E+02 -0.23392842508E+02 -0.13133629707E+03  0.18426557171E+03  0.12500000000E+03 0.  0.
</event>
<event>
 5    0  0.5815084E-005  0.2279064E+03  0.7546771E-02  0.1128122E+00
         21   -1    0    0  502  501  0.00000000000E+00  0.00000000000E+00  0.28949615743E+03  0.28949615743E+03  0.00000000000E+00 0.  1.
         21   -1    0    0  501  502 -0.00000000000E+00 -0.00000000000E+00 -0.17941972651E+03  0.17941972651E+03  0.00000000000E+00 0.  1.
         25    1    1    2    0    0 -0.94158877013E+02 -0.63137375110E+02  0.52199012074E+02  0.17664076290E+03  0.12500000000E+03 0.  0.
         25    1    1    2    0    0  0.89457301903E+02  0.26761406828E+02  0.36868385057E+02  0.16032173769E+03  0.12500000000E+03 0.  0.
         25    1    1    2    0    0  0.47015751099E+01  0.36375968283E+02  0.21009033789E+02  0.13195338335E+03  0.12500000000E+03 0.  0.
</event>
<event>
 5    0  0.5815084E-005  0.4451905E+03  0.7546771E-02  0.1029166E+00
         21   -1    0    0  502  501  0.00000000000E+00  0.00000000000E+00  0.34753984037E+03  0.34753984037E+03  0.00000000000E+00 0. -1.
         21   -1    0    0  501  502 -0.00000000000E+00 -0.00000000000E+00 -0.57027877500E+03  0.57027877500E+03  0.00000000000E+00 0. -1.
         25    1    1    2    0    0  0.70867274213E+02  0.34610544456E+03 -0.28364254712E+03  0.46998855715E+03  0.12500000000E+03 0.  0.
         25    1    1    2    0    0 -0.22048786725E+02 -0.93568427919E+02  0.21077062219E+02  0.15909255875E+03  0.12500000000E+03 0.  0.
         25    1    1    2    0    0 -0.48818487487E+02 -0.25253701664E+03  0.39826550268E+02  0.28873749947E+03  0.12500000000E+03 0.  0.
</event>
<event>
 5    0  0.5815084E-005  0.4240356E+03  0.7546771E-02  0.1035761E+00
         21   -1    0    0  502  501  0.00000000000E+00  0.00000000000E+00  0.15672611035E+04  0.15672611035E+04  0.00000000000E+00 0.  1.
         21   -1    0    0  501  502 -0.00000000000E+00 -0.00000000000E+00 -0.11472636246E+03  0.11472636246E+03  0.00000000000E+00 0.  1.
         25    1    1    2    0    0 -0.16980241793E+03 -0.16158377505E+03  0.18145672724E+03  0.32170440058E+03  0.12500000000E+03 0.  0.
         25    1    1    2    0    0  0.12754519833E+03  0.12377907690E+03  0.25519528675E+03  0.33516961657E+03  0.12500000000E+03 0.  0.
         25    1    1    2    0    0  0.42257219598E+02  0.37804698148E+02  0.10158827271E+04  0.10251134488E+04  0.12500000000E+03 0.  0.
</event>
<event>
 5    0  0.5815084E-005  0.2888091E+03  0.7546771E-02  0.1090973E+00
         21   -1    0    0  502  501  0.00000000000E+00  0.00000000000E+00  0.11821066373E+03  0.11821066373E+03  0.00000000000E+00 0.  1.
         21   -1    0    0  501  502 -0.00000000000E+00 -0.00000000000E+00 -0.70561050556E+03  0.70561050556E+03  0.00000000000E+00 0.  1.
         25    1    1    2    0    0  0.43971428183E+02  0.40933478497E+02 -0.14276707054E+03  0.19903887205E+03  0.12500000000E+03 0.  0.
         25    1    1    2    0    0 -0.87099033528E+02 -0.15222357015E+03 -0.96274071261E+02  0.23590666321E+03  0.12500000000E+03 0.  0.
         25    1    1    2    0    0  0.43127605345E+02  0.11129009165E+03 -0.34835870003E+03  0.38887563402E+03  0.12500000000E+03 0.  0.
</event>
<event>
 5    0  0.5815084E-005  0.2720629E+03  0.7546771E-02  0.1100105E+00
         21   -1    0    0  502  501  0.00000000000E+00  0.00000000000E+00  0.21791616448E+03  0.21791616448E+03  0.00000000000E+00 0.  1.
         21   -1    0    0  501  502 -0.00000000000E+00 -0.00000000000E+00 -0.33966379067E+03  0.33966379067E+03  0.00000000000E+00 0.  1.
         25    1    1    2    0    0 -0.56695750809E+02 -0.10748837881E+03  0.11320874138E+02  0.17470352581E+03  0.12500000000E+03 0.  0.
         25    1    1    2    0    0  0.37720110616E+02 -0.32528542469E+02  0.24872221941E+02  0.13683764191E+03  0.12500000000E+03 0.  0.
         25    1    1    2    0    0  0.18975640193E+02  0.14001692128E+03 -0.15794072227E+03  0.24603878742E+03  0.12500000000E+03 0.  0.
</event>
<event>
 5    0  0.5815084E-005  0.3082460E+03  0.7546771E-02  0.1081190E+00
         21   -1    0    0  502  501  0.00000000000E+00  0.00000000000E+00  0.90274191932E+02  0.90274191932E+02  0.00000000000E+00 0.  1.
         21   -1    0    0  501  502 -0.00000000000E+00 -0.00000000000E+00 -0.10525219884E+04  0.10525219884E+04  0.00000000000E+00 0.  1.
         25    1    1    2    0    0  0.52382694369E+02  0.89644325154E+01 -0.34352402511E+03  0.36940230582E+03  0.12500000000E+03 0.  0.
         25    1    1    2    0    0  0.12313004612E+03 -0.10381691600E+03 -0.41369566019E+03  0.46120283994E+03  0.12500000000E+03 0.  0.
         25    1    1    2    0    0 -0.17551274049E+03  0.94852483484E+02 -0.20502811115E+03  0.31219103456E+03  0.12500000000E+03 0.  0.
</event>
<event>
 5    0  0.5815084E-005  0.3090569E+03  0.7546771E-02  0.1080799E+00
         21   -1    0    0  502  501  0.00000000000E+00  0.00000000000E+00  0.11582513480E+03  0.11582513480E+03  0.00000000000E+00 0.  1.
         21   -1    0    0  501  502 -0.00000000000E+00 -0.00000000000E+00 -0.82465847574E+03  0.82465847574E+03  0.00000000000E+00 0.  1.
         25    1    1    2    0    0  0.64636467509E+02  0.13050270215E+03 -0.37697067510E+03  0.42301385094E+03  0.12500000000E+03 0.  0.
         25    1    1    2    0    0  0.16172279933E+02 -0.18651720537E+03 -0.25713713642E+03  0.34175242130E+03  0.12500000000E+03 0.  0.
         25    1    1    2    0    0 -0.80808747442E+02  0.56014503218E+02 -0.74725529413E+02  0.17571733830E+03  0.12500000000E+03 0.  0.
</event>
<event>
 5    0  0.5815084E-005  0.2416599E+03  0.7546771E-02  0.1118692E+00
         21   -1    0    0  502  501  0.00000000000E+00  0.00000000000E+00  0.47678651798E+03  0.47678651798E+03  0.00000000000E+00 0.  1.
         21   -1    0    0  501  502 -0.00000000000E+00 -0.00000000000E+00 -0.12248566248E+03  0.12248566248E+03  0.00000000000E+00 0.  1.
         25    1    1    2    0    0  0.44275242528E+02  0.22126107360E+02  0.14760678232E+03  0.19965626440E+03  0.12500000000E+03 0.  0.
         25    1    1    2    0    0 -0.10290467891E+03  0.69092837699E+02  0.11728133666E+03  0.21152566060E+03  0.12500000000E+03 0.  0.
         25    1    1    2    0    0  0.58629436384E+02 -0.91218945059E+02  0.89412736518E+02  0.18809025546E+03  0.12500000000E+03 0.  0.
</event>
<event>
 5    0  0.5815084E-005  0.2599341E+03  0.7546771E-02  0.1107183E+00
         21   -1    0    0  502  501  0.00000000000E+00  0.00000000000E+00  0.17082965429E+03  0.17082965429E+03  0.00000000000E+00 0.  1.
         21   -1    0    0  501  502 -0.00000000000E+00 -0.00000000000E+00 -0.39551529833E+03  0.39551529833E+03  0.00000000000E+00 0.  1.
         25    1    1    2    0    0  0.70978119753E+02  0.58427650328E+02 -0.20841178293E+03  0.25983101252E+03  0.12500000000E+03 0.  0.
         25    1    1    2    0    0 -0.53508640528E+02 -0.43335494906E+02 -0.80761790518E+02  0.16397745741E+03  0.12500000000E+03 0.  0.
         25    1    1    2    0    0 -0.17469479225E+02 -0.15092155422E+02  0.64487929400E+02  0.14253648269E+03  0.12500000000E+03 0.  0.
</event>
<event>
 5    0  0.5857540E-005  0.2874686E+03  0.7546771E-02  0.1091678E+00
         21   -1    0    0  502  501  0.00000000000E+00  0.00000000000E+00  0.18158261513E+03  0.18158261513E+03  0.00000000000E+00 0.  1.
         21   -1    0    0  501  502 -0.00000000000E+00 -0.00000000000E+00 -0.45509966760E+03  0.45509966760E+03  0.00000000000E+00 0.  1.
         25    1    1    2    0    0  0.30547518187E+02  0.10435440825E+03 -0.86615885736E+01  0.16590062238E+03  0.12500000000E+03 0.  0.
         25    1    1    2    0    0 -0.13818509380E+03 -0.86716364839E+02 -0.75302347773E+02  0.21888419692E+03  0.12500000000E+03 0.  0.
         25    1    1    2    0    0  0.10763757561E+03 -0.17638043407E+02 -0.18955311612E+03  0.25189746344E+03  0.12500000000E+03 0.  0.
</event>
<event>
 5    0  0.5815084E-005  0.2938307E+03  0.7546771E-02  0.1088366E+00
         21   -1    0    0  502  501  0.00000000000E+00  0.00000000000E+00  0.55676267886E+02  0.55676267886E+02  0.00000000000E+00 0.  1.
         21   -1    0    0  501  502 -0.00000000000E+00 -0.00000000000E+00 -0.15506874748E+04  0.15506874748E+04  0.00000000000E+00 0.  1.
         25    1    1    2    0    0  0.34443526091E+01 -0.74732004775E+02 -0.34332270222E+03  0.37295068570E+03  0.12500000000E+03 0.  0.
         25    1    1    2    0    0  0.28305731478E+02  0.65988082991E+02 -0.10393678950E+03  0.17771746606E+03  0.12500000000E+03 0.  0.
         25    1    1    2    0    0 -0.31750084087E+02  0.87439217837E+01 -0.10477517152E+04  0.10556955910E+04  0.12500000000E+03 0.  0.
</event>
<event>
 5    0  0.5815084E-005  0.3317489E+03  0.7546771E-02  0.1070366E+00
         21   -1    0    0  502  501  0.00000000000E+00  0.00000000000E+00  0.14805899007E+03  0.14805899007E+03  0.00000000000E+00 0.  1.
         21   -1    0    0  501  502 -0.00000000000E+00 -0.00000000000E+00 -0.74333433638E+03  0.74333433638E+03  0.00000000000E+00 0.  1.
         25    1    1    2    0    0  0.94069101022E+02 -0.12969048994E+03  0.82236280210E+01  0.20337464691E+03  0.12500000000E+03 0.  0.
         25    1    1    2    0    0 -0.38271043478E+02  0.79972891103E+02 -0.45460583018E+03  0.47974138545E+03  0.12500000000E+03 0.  0.
         25    1    1    2    0    0 -0.55798057543E+02  0.49717598832E+02 -0.14889314415E+03  0.20827729409E+03  0.12500000000E+03 0.  0.
</event>
<event>
 5    0  0.5815084E-005  0.3576058E+03  0.7546771E-02  0.1059536E+00
         21   -1    0    0  502  501  0.00000000000E+00  0.00000000000E+00  0.25898679006E+03  0.25898679006E+03  0.00000000000E+00 0.  1.
         21   -1    0    0  501  502 -0.00000000000E+00 -0.00000000000E+00 -0.49377770624E+03  0.49377770624E+03  0.00000000000E+00 0.  1.
         25    1    1    2    0    0  0.82063703174E+02  0.15861218553E+02 -0.37951914907E+03  0.40822275064E+03  0.12500000000E+03 0.  0.
         25    1    1    2    0    0 -0.10724807268E+03  0.11785936420E+02  0.24146836933E+02  0.16688057743E+03  0.12500000000E+03 0.  0.
         25    1    1    2    0    0  0.25184369505E+02 -0.27647154974E+02  0.12058139595E+03  0.17766116823E+03  0.12500000000E+03 0.  0.
</event>
<event>
 5    0  0.5815084E-005  0.3519759E+03  0.7546771E-02  0.1061807E+00
         21   -1    0    0  502  501  0.00000000000E+00  0.00000000000E+00  0.91189112368E+02  0.91189112368E+02  0.00000000000E+00 0.  1.
         21   -1    0    0  501  502 -0.00000000000E+00 -0.00000000000E+00 -0.13585728525E+04  0.13585728525E+04  0.00000000000E+00 0.  1.
         25    1    1    2    0    0  0.36686757452E+02 -0.10159048426E+03 -0.35173816773E+02  0.16890453532E+03  0.12500000000E+03 0.  0.
         25    1    1    2    0    0  0.75609754447E+02  0.34988854347E+02 -0.35945629366E+03  0.38958295900E+03  0.12500000000E+03 0.  0.
         25    1    1    2    0    0 -0.11229651190E+03  0.66601629912E+02 -0.87275362966E+03  0.89127447051E+03  0.12500000000E+03 0.  0.
</event>
<event>
 5    0  0.5815084E-005  0.4303501E+03  0.7546771E-02  0.1033749E+00
         21   -1    0    0  502  501  0.00000000000E+00  0.00000000000E+00  0.42753249223E+03  0.42753249223E+03  0.00000000000E+00 0. -1.
         21   -1    0    0  501  502 -0.00000000000E+00 -0.00000000000E+00 -0.43318625996E+03  0.43318625996E+03  0.00000000000E+00 0. -1.
         25    1    1    2    0    0 -0.16152082944E+03 -0.26365765501E+03 -0.44970456206E+02  0.33652886848E+03  0.12500000000E+03 0.  0.
         25    1    1    2    0    0  0.28508622960E+02 -0.56711806598E+02  0.65100031577E+02  0.15457032284E+03  0.12500000000E+03 0.  0.
         25    1    1    2    0    0  0.13301220648E+03  0.32036946160E+03 -0.25783343107E+02  0.36961956088E+03  0.12500000000E+03 0.  0.
</event>
<event>
 5    0  0.5815084E-005  0.3623346E+03  0.7546771E-02  0.1057663E+00
         21   -1    0    0  502  501  0.00000000000E+00  0.00000000000E+00  0.15162446636E+03  0.15162446636E+03  0.00000000000E+00 0. -1.
         21   -1    0    0  501  502 -0.00000000000E+00 -0.00000000000E+00 -0.86586518763E+03  0.86586518763E+03  0.00000000000E+00 0. -1.
         25    1    1    2    0    0 -0.58612171669E+02  0.29386703175E+02 -0.28169076611E+03  0.31507721705E+03  0.12500000000E+03 0.  0.
         25    1    1    2    0    0  0.44854117865E+02 -0.25926492018E+03 -0.23446851688E+03  0.37393940169E+03  0.12500000000E+03 0.  0.
         25    1    1    2    0    0  0.13758053804E+02  0.22987821701E+03 -0.19808143827E+03  0.32847303525E+03  0.12500000000E+03 0.  0.
</event>
<event>
 5    0  0.5815084E-005  0.3342360E+03  0.7546771E-02  0.1069278E+00
         21   -1    0    0  502  501  0.00000000000E+00  0.00000000000E+00  0.54254394483E+03  0.54254394483E+03  0.00000000000E+00 0. -1.
         21   -1    0    0  501  502 -0.00000000000E+00 -0.00000000000E+00 -0.20590717903E+03  0.20590717903E+03  0.00000000000E+00 0. -1.
         25    1    1    2    0    0 -0.51976345047E+02 -0.85128050530E+02  0.45312963620E+02  0.16621248480E+03  0.12500000000E+03 0.  0.
         25    1    1    2    0    0  0.20096684441E+03 -0.72244041848E+02  0.98334577766E+02  0.26627347468E+03  0.12500000000E+03 0.  0.
         25    1    1    2    0    0 -0.14899049936E+03  0.15737209238E+03  0.19298922441E+03  0.31596516438E+03  0.12500000000E+03 0.  0.
</event>
<event>
 5    0  0.5815084E-005  0.3556289E+03  0.7546771E-02  0.1060328E+00
         21   -1    0    0  502  501  0.00000000000E+00  0.00000000000E+00  0.54319148709E+02  0.54319148709E+02  0.00000000000E+00 0. -1.
         21   -1    0    0  501  502 -0.00000000000E+00 -0.00000000000E+00 -0.23283123809E+04  0.23283123809E+04  0.00000000000E+00 0. -1.
         25    1    1    2    0    0 -0.12842907953E+03 -0.42457863584E+02 -0.39028570237E+03  0.43156068881E+03  0.12500000000E+03 0.  0.
         25    1    1    2    0    0  0.19467952004E+03  0.18142403342E+03 -0.13517073816E+04  0.13833121994E+04  0.12500000000E+03 0.  0.
         25    1    1    2    0    0 -0.66250440510E+02 -0.13896616983E+03 -0.53200014822E+03  0.56775864144E+03  0.12500000000E+03 0.  0.
</event>
<event>
 5    0  0.5815084E-005  0.2249880E+03  0.7546771E-02  0.1130218E+00
         21   -1    0    0  502  501  0.00000000000E+00  0.00000000000E+00  0.42997466280E+02  0.42997466280E+02  0.00000000000E+00 0. -1.
         21   -1    0    0  501  502 -0.00000000000E+00 -0.00000000000E+00 -0.11772695016E+04  0.11772695016E+04  0.00000000000E+00 0. -1.
         25    1    1    2    0    0  0.29050688084E+02 -0.29971584628E+02 -0.48818743147E+03  0.50566214670E+03  0.12500000000E+03 0.  0.
         25    1    1    2    0    0 -0.17350323868E+02  0.37094579152E+01 -0.12387926086E+03  0.17687810799E+03  0.12500000000E+03 0.  0.
         25    1    1    2    0    0 -0.11700364217E+02  0.26262126713E+02 -0.52220534300E+03  0.53772671319E+03  0.12500000000E+03 0.  0.
</event>
<event>
 5    0  0.5815084E-005  0.2696191E+03  0.7546771E-02  0.1101498E+00
         21   -1    0    0  502  501  0.00000000000E+00  0.00000000000E+00  0.49904557124E+03  0.49904557124E+03  0.00000000000E+00 0.  1.
         21   -1    0    0  501  502 -0.00000000000E+00 -0.00000000000E+00 -0.14566693095E+03  0.14566693095E+03  0.00000000000E+00 0.  1.
         25    1    1    2    0    0 -0.11549303728E+03 -0.84011115995E+02  0.21913868255E+03  0.28990217568E+03  0.12500000000E+03 0.  0.
         25    1    1    2    0    0  0.14439424471E+02  0.10679981394E+03  0.53527156736E+02  0.17350750342E+03  0.12500000000E+03 0.  0.
         25    1    1    2    0    0  0.10105361281E+03 -0.22788697944E+02  0.80712800995E+02  0.18130282309E+03  0.12500000000E+03 0.  0.
</event>
<event>
 5    0  0.5815084E-005  0.2571779E+03  0.7546771E-02  0.1108851E+00
         21   -1    0    0  502  501  0.00000000000E+00  0.00000000000E+00  0.34013464141E+02  0.34013464141E+02  0.00000000000E+00 0.  1.
         21   -1    0    0  501  502 -0.00000000000E+00 -0.00000000000E+00 -0.19445373005E+04  0.19445373005E+04  0.00000000000E+00 0.  1.
         25    1    1    2    0    0  0.70860703513E+02 -0.34176550689E+02 -0.60445299892E+03  0.62223605153E+03  0.12500000000E+03 0.  0.
         25    1    1    2    0    0 -0.90609651985E+02 -0.43365174920E+02 -0.30777250079E+03  0.34704403131E+03  0.12500000000E+03 0.  0.
         25    1    1    2    0    0  0.19748948473E+02  0.77541725609E+02 -0.99829833661E+03  0.10092706818E+04  0.12500000000E+03 0.  0.
</event>
<event>
 5    0  0.5815084E-005  0.4715062E+03  0.7546771E-02  0.1021496E+00
         21   -1    0    0  502  501  0.00000000000E+00  0.00000000000E+00  0.33993725301E+03  0.33993725301E+03  0.00000000000E+00 0. -1.
         21   -1    0    0  501  502 -0.00000000000E+00 -0.00000000000E+00 -0.65399757821E+03  0.65399757821E+03  0.00000000000E+00 0. -1.
         25    1    1    2    0    0  0.17710427494E+03 -0.13430160251E+02 -0.88115036386E+02  0.23438334635E+03  0.12500000000E+03 0.  0.
         25    1    1    2    0    0  0.42552451309E+02 -0.29289100690E+03 -0.15273317386E+03  0.35573624419E+03  0.12500000000E+03 0.  0.
         25    1    1    2    0    0 -0.21965672625E+03  0.30632116715E+03 -0.73212114951E+02  0.40381524068E+03  0.12500000000E+03 0.  0.
</event>
<event>
 5    0  0.5815084E-005  0.2610196E+03  0.7546771E-02  0.1106532E+00
         21   -1    0    0  502  501  0.00000000000E+00  0.00000000000E+00  0.16295302757E+03  0.16295302757E+03  0.00000000000E+00 0.  1.
         21   -1    0    0  501  502 -0.00000000000E+00 -0.00000000000E+00 -0.41810356537E+03  0.41810356537E+03  0.00000000000E+00 0.  1.
         25    1    1    2    0    0  0.25406484204E+02  0.38713863362E+02 -0.17283111033E+03  0.21826553863E+03  0.12500000000E+03 0.  0.
         25    1    1    2    0    0 -0.93579728244E+02 -0.81362210244E+02 -0.11540146335E+03  0.21052190512E+03  0.12500000000E+03 0.  0.
         25    1    1    2    0    0  0.68173244040E+02  0.42648346883E+02  0.33082035887E+02  0.15226914918E+03  0.12500000000E+03 0.  0.
</event>
<event>
 5    0  0.5815084E-005  0.3152069E+03  0.7546771E-02  0.1077877E+00
         21   -1    0    0  502  501  0.00000000000E+00  0.00000000000E+00  0.10527017989E+04  0.10527017989E+04  0.00000000000E+00 0.  1.
         21   -1    0    0  501  502 -0.00000000000E+00 -0.00000000000E+00 -0.94381353471E+02  0.94381353471E+02  0.00000000000E+00 0.  1.
         25    1    1    2    0    0  0.39414305525E+02 -0.12095025734E+03  0.61438804807E+03  0.63975004951E+03  0.12500000000E+03 0.  0.
         25    1    1    2    0    0 -0.11261710404E+03  0.84589738835E+02  0.29535195234E+03  0.35027961943E+03  0.12500000000E+03 0.  0.
         25    1    1    2    0    0  0.73202798520E+02  0.36360518501E+02  0.48580445005E+02  0.15705348342E+03  0.12500000000E+03 0.  0.
</event>
<event>
 5    0  0.5815084E-005  0.5481794E+03  0.7546771E-02  0.1001916E+00
         21   -1    0    0  502  501  0.00000000000E+00  0.00000000000E+00  0.21061821960E+03  0.21061821960E+03  0.00000000000E+00 0. -1.
         21   -1    0    0  501  502 -0.00000000000E+00 -0.00000000000E+00 -0.14267550441E+04  0.14267550441E+04  0.00000000000E+00 0. -1.
         25    1    1    2    0    0  0.61277166657E+02  0.16835309949E+03 -0.71132524483E+03  0.74411441405E+03  0.12500000000E+03 0.  0.
         25    1    1    2    0    0  0.18268795101E+03  0.78790202233E+02  0.36817941481E+02  0.23783049474E+03  0.12500000000E+03 0.  0.
         25    1    1    2    0    0 -0.24396511767E+03 -0.24714330173E+03 -0.54162952111E+03  0.65542835487E+03  0.12500000000E+03 0.  0.
</event>
<event>
 5    0  0.7226841E-005  0.3790354E+03  0.7546771E-02  0.1051291E+00
         21   -1    0    0  502  501  0.00000000000E+00  0.00000000000E+00  0.76876540838E+03  0.76876540838E+03  0.00000000000E+00 0.  1.
         21   -1    0    0  501  502 -0.00000000000E+00 -0.00000000000E+00 -0.18688120372E+03  0.18688120372E+03  0.00000000000E+00 0.  1.
         25    1    1    2    0    0  0.13852833289E+03 -0.10013930991E+03  0.52613698265E+02  0.21819986629E+03  0.12500000000E+03 0.  0.
         25    1    1    2    0    0 -0.19226833363E+03  0.30348276980E+02  0.53128226591E+02  0.23735150830E+03  0.12500000000E+03 0.  0.
         25    1    1    2    0    0  0.53740000734E+02  0.69791032931E+02  0.47614227981E+03  0.50009523751E+03  0.12500000000E+03 0.  0.
</event>
<event>
 5    0  0.5815084E-005  0.5535900E+03  0.7546771E-02  0.1000666E+00
         21   -1    0    0  502  501  0.00000000000E+00  0.00000000000E+00  0.46210622370E+03  0.46210622370E+03  0.00000000000E+00 0. -1.
         21   -1    0    0  501  502 -0.00000000000E+00 -0.00000000000E+00 -0.66318487756E+03  0.66318487756E+03  0.00000000000E+00 0.  1.
         25    1    1    2    0    0 -0.11235055551E+02  0.20268884466E+02  0.54795095131E+02  0.13843611018E+03  0.12500000000E+03 0.  0.
         25    1    1    2    0    0  0.18137576669E+03  0.34801798599E+03 -0.36303472307E+03  0.54902904975E+03  0.12500000000E+03 0.  0.
         25    1    1    2    0    0 -0.17014071114E+03 -0.36828687045E+03  0.10716097408E+03  0.43782594133E+03  0.12500000000E+03 0.  0.
</event>
<event>
 5    0  0.5815084E-005  0.3494943E+03  0.7546771E-02  0.1062823E+00
         21   -1    0    0  502  501  0.00000000000E+00  0.00000000000E+00  0.71667485554E+02  0.71667485554E+02  0.00000000000E+00 0.  1.
         21   -1    0    0  501  502 -0.00000000000E+00 -0.00000000000E+00 -0.17043470651E+04  0.17043470651E+04  0.00000000000E+00 0.  1.
         25    1    1    2    0    0  0.12944716103E+03 -0.50894239893E+02 -0.86704439013E+03  0.88698239306E+03  0.12500000000E+03 0.  0.
         25    1    1    2    0    0  0.88475432344E+02  0.40050587935E+02 -0.49459540527E+03  0.51930873923E+03  0.12500000000E+03 0.  0.
         25    1    1    2    0    0 -0.21792259337E+03  0.10843651958E+02 -0.27103978411E+03  0.36972341833E+03  0.12500000000E+03 0.  0.
</event>
<event>
 5    0  0.5815084E-005  0.2254189E+03  0.7546771E-02  0.1129906E+00
         21   -1    0    0  502  501  0.00000000000E+00  0.00000000000E+00  0.12378755409E+03  0.12378755409E+03  0.00000000000E+00 0. -1.
         21   -1    0    0  501  502 -0.00000000000E+00 -0.00000000000E+00 -0.41049099266E+03  0.41049099266E+03  0.00000000000E+00 0. -1.
         25    1    1    2    0    0 -0.71381573487E+02 -0.81138670710E+02 -0.12930631598E+03  0.20981881772E+03  0.12500000000E+03 0.  0.
         25    1    1    2    0    0  0.13449378057E+02  0.55088100572E+01 -0.81495937301E+02  0.14992605029E+03  0.12500000000E+03 0.  0.
         25    1    1    2    0    0  0.57932195430E+02  0.75629860653E+02 -0.75901185293E+02  0.17453367875E+03  0.12500000000E+03 0.  0.
</event>
<event>
 5    0  0.5815084E-005  0.3039570E+03  0.7546771E-02  0.1083279E+00
         21   -1    0    0  502  501  0.00000000000E+00  0.00000000000E+00  0.95670132937E+02  0.95670132937E+02  0.00000000000E+00 0.  1.
         21   -1    0    0  501  502 -0.00000000000E+00 -0.00000000000E+00 -0.96571246877E+03  0.96571246877E+03  0.00000000000E+00 0.  1.
         25    1    1    2    0    0  0.30970017115E+02 -0.14515975685E+03 -0.36794771416E+03  0.41598199159E+03  0.12500000000E+03 0.  0.
         25    1    1    2    0    0 -0.90921460539E+02 -0.41439165302E+02 -0.28747511452E+03  0.32901498123E+03  0.12500000000E+03 0.  0.
         25    1    1    2    0    0  0.59951443424E+02  0.18659892215E+03 -0.21461950715E+03  0.31638562889E+03  0.12500000000E+03 0.  0.
</event>
<event>
 5    0  0.5815084E-005  0.3262288E+03  0.7546771E-02  0.1072818E+00
         21   -1    0    0  502  501  0.00000000000E+00  0.00000000000E+00  0.78317794552E+03  0.78317794552E+03  0.00000000000E+00 0. -1.
         21   -1    0    0  501  502 -0.00000000000E+00 -0.00000000000E+00 -0.13588892657E+03  0.13588892657E+03  0.00000000000E+00 0. -1.
         25    1    1    2    0    0  0.96242892893E+02  0.13328067246E+03  0.18426155259E+03  0.27677382797E+03  0.12500000000E+03 0.  0.
         25    1    1    2    0    0 -0.21355788360E+03 -0.64194743576E+02  0.31375292046E+03  0.40471450412E+03  0.12500000000E+03 0.  0.
         25    1    1    2    0    0  0.11731499071E+03 -0.69085928885E+02  0.14927454590E+03  0.23757854000E+03  0.12500000000E+03 0.  0.
</event>
<event>
 5    0  0.5815084E-005  0.3105820E+03  0.7546771E-02  0.1080067E+00
         21   -1    0    0  502  501  0.00000000000E+00  0.00000000000E+00  0.27475121090E+03  0.27475121090E+03  0.00000000000E+00 0. -1.
         21   -1    0    0  501  502 -0.00000000000E+00 -0.00000000000E+00 -0.35108551751E+03  0.35108551751E+03  0.00000000000E+00 0. -1.
         25    1    1    2    0    0 -0.17342157797E+02 -0.63556569197E+02 -0.11334430153E+03  0.18114115660E+03  0.12500000000E+03 0.  0.
         25    1    1    2    0    0  0.10474085888E+03  0.59163642619E+02  0.16955470861E+03  0.24257943718E+03  0.12500000000E+03 0.  0.
         25    1    1    2    0    0 -0.87398701085E+02  0.43929265777E+01 -0.13254471370E+03  0.20211613465E+03  0.12500000000E+03 0.  0.
</event>
<event>
 5    0  0.5815084E-005  0.3161116E+03  0.7546771E-02  0.1077453E+00
         21   -1    0    0  502  501  0.00000000000E+00  0.00000000000E+00  0.73520924613E+03  0.73520924613E+03  0.00000000000E+00 0. -1.
         21   -1    0    0  501  502 -0.00000000000E+00 -0.00000000000E+00 -0.13591579330E+03  0.13591579330E+03  0.00000000000E+00 0. -1.
         25    1    1    2    0    0  0.11733053096E+02  0.82324149417E+02  0.65884589348E+02  0.16395337516E+03  0.12500000000E+03 0.  0.
         25    1    1    2    0    0  0.56263914525E+02  0.10466037542E+03  0.40319339745E+03  0.43853088603E+03  0.12500000000E+03 0.  0.
         25    1    1    2    0    0 -0.67996967621E+02 -0.18698452484E+03  0.13021546604E+03  0.26864077823E+03  0.12500000000E+03 0.  0.
</event>
<event>
 5    0  0.5815084E-005  0.3603028E+03  0.7546771E-02  0.1058464E+00
         21   -1    0    0  502  501  0.00000000000E+00  0.00000000000E+00  0.12689980573E+03  0.12689980573E+03  0.00000000000E+00 0.  1.
         21   -1    0    0  501  502 -0.00000000000E+00 -0.00000000000E+00 -0.10229966358E+04  0.10229966358E+04  0.00000000000E+00 0.  1.
         25    1    1    2    0    0 -0.22721825008E+03 -0.11747698441E+03 -0.19136241251E+03  0.34303578233E+03  0.12500000000E+03 0.  0.
         25    1    1    2    0    0  0.18242795530E+03  0.12725158422E+03 -0.51912666480E+03  0.57843791255E+03  0.12500000000E+03 0.  0.
         25    1    1    2    0    0  0.44790294773E+02 -0.97745998067E+01 -0.18560775272E+03  0.22842274663E+03  0.12500000000E+03 0.  0.
</event>
<event>
 5    0  0.5815084E-005  0.4282188E+03  0.7546771E-02  0.1034424E+00
         21   -1    0    0  502  501  0.00000000000E+00  0.00000000000E+00  0.37817968858E+03  0.37817968858E+03  0.00000000000E+00 0. -1.
         21   -1    0    0  501  502 -0.00000000000E+00 -0.00000000000E+00 -0.48487889562E+03  0.48487889562E+03  0.00000000000E+00 0. -1.
         25    1    1    2    0    0  0.17712284007E+03  0.61713454538E+02 -0.22627194377E+03  0.31938228423E+03  0.12500000000E+03 0.  0.
         25    1    1    2    0    0 -0.25333907202E+03 -0.44337558189E+02 -0.78707745039E+02  0.29659132422E+03  0.12500000000E+03 0.  0.
         25    1    1    2    0    0  0.76216231946E+02 -0.17375896350E+02  0.19828048177E+03  0.24708497574E+03  0.12500000000E+03 0.  0.
</event>
<event>
 5    0  0.5815084E-005  0.2879652E+03  0.7546771E-02  0.1091416E+00
         21   -1    0    0  502  501  0.00000000000E+00  0.00000000000E+00  0.14330897501E+04  0.14330897501E+04  0.00000000000E+00 0. -1.
         21   -1    0    0  501  502 -0.00000000000E+00 -0.00000000000E+00 -0.57863750353E+02  0.57863750353E+02  0.00000000000E+00 0. -1.
         25    1    1    2    0    0  0.56549192036E+02 -0.13659131393E+03  0.51888658386E+03  0.55382604225E+03  0.12500000000E+03 0.  0.
         25    1    1    2    0    0 -0.47681959607E+02 -0.56746483919E+02  0.26048487803E+03  0.29828024472E+03  0.12500000000E+03 0.  0.
         25    1    1    2    0    0 -0.88672324297E+01  0.19333779785E+03  0.59585453783E+03  0.63884721345E+03  0.12500000000E+03 0.  0.
</event>
<event>
 5    0  0.5815084E-005  0.3859117E+03  0.7546771E-02  0.1048770E+00
         21   -1    0    0  502  501  0.00000000000E+00  0.00000000000E+00  0.48987475147E+03  0.48987475147E+03  0.00000000000E+00 0.  1.
         21   -1    0    0  501  502 -0.00000000000E+00 -0.00000000000E+00 -0.30401214358E+03  0.30401214358E+03  0.00000000000E+00 0.  1.
         25    1    1    2    0    0 -0.13234334096E+03  0.23274455280E+03  0.13747711893E+03  0.32589836603E+03  0.12500000000E+03 0.  0.
         25    1    1    2    0    0  0.10027319651E+03  0.24699620671E+01 -0.69816195885E+02  0.17481451844E+03  0.12500000000E+03 0.  0.
         25    1    1    2    0    0  0.32070144449E+02 -0.23521451487E+03  0.11820168484E+03  0.29317401056E+03  0.12500000000E+03 0.  0.
</event>
<event>
 5    0  0.6055055E-005  0.3563442E+03  0.7546771E-02  0.1060041E+00
         21   -1    0    0  502  501  0.00000000000E+00  0.00000000000E+00  0.13601506002E+03  0.13601506002E+03  0.00000000000E+00 0. -1.
         21   -1    0    0  501  502 -0.00000000000E+00 -0.00000000000E+00 -0.93358181696E+03  0.93358181696E+03  0.00000000000E+00 0. -1.
         25    1    1    2    0    0  0.22286387798E+03  0.79229269304E+02 -0.44186095802E+03  0.51653818005E+03  0.12500000000E+03 0.  0.
         25    1    1    2    0    0 -0.17609235504E+03  0.55471655136E+02 -0.25366831475E+03  0.33772508929E+03  0.12500000000E+03 0.  0.
         25    1    1    2    0    0 -0.46771522947E+02 -0.13470092444E+03 -0.10203748416E+03  0.21533360764E+03  0.12500000000E+03 0.  0.
</event>
<event>
 5    0  0.5815084E-005  0.2308776E+03  0.7546771E-02  0.1126024E+00
         21   -1    0    0  502  501  0.00000000000E+00  0.00000000000E+00  0.38618797028E+03  0.38618797028E+03  0.00000000000E+00 0. -1.
         21   -1    0    0  501  502 -0.00000000000E+00 -0.00000000000E+00 -0.13802731446E+03  0.13802731446E+03  0.00000000000E+00 0. -1.
         25    1    1    2    0    0  0.88709687443E+02  0.11157229378E+02  0.96175789773E+02  0.18129720062E+03  0.12500000000E+03 0.  0.
         25    1    1    2    0    0 -0.90942321657E+02  0.54031114672E+02  0.59163629424E+02  0.17411261375E+03  0.12500000000E+03 0.  0.
         25    1    1    2    0    0  0.22326342135E+01 -0.65188344050E+02  0.92821236623E+02  0.16880547036E+03  0.12500000000E+03 0.  0.
</event>
<event>
 5    0  0.5815084E-005  0.2800106E+03  0.7546771E-02  0.1095683E+00
         21   -1    0    0  502  501  0.00000000000E+00  0.00000000000E+00  0.82940281143E+03  0.82940281143E+03  0.00000000000E+00 0.  1.
         21   -1    0    0  501  502 -0.00000000000E+00 -0.00000000000E+00 -0.94532987033E+02  0.94532987033E+02  0.00000000000E+00 0.  1.
         25    1    1    2    0    0  0.54580899987E+02  0.28932313717E+02  0.18492799623E+03  0.23160206651E+03  0.12500000000E+03 0.  0.
         25    1    1    2    0    0 -0.72200227312E+02  0.14559707099E+03  0.25871014396E+03  0.33010198196E+03  0.12500000000E+03 0.  0.
         25    1    1    2    0    0  0.17619327325E+02 -0.17452938471E+03  0.29123168421E+03  0.36223175000E+03  0.12500000000E+03 0.  0.
</event>
<event>
 5    0  0.6525274E-005  0.2472456E+03  0.7546771E-02  0.1115058E+00
         21   -1    0    0  502  501  0.00000000000E+00  0.00000000000E+00  0.11191259531E+03  0.11191259531E+03  0.00000000000E+00 0.  1.
         21   -1    0    0  501  502 -0.00000000000E+00 -0.00000000000E+00 -0.54623347781E+03  0.54623347781E+03  0.00000000000E+00 0.  1.
         25    1    1    2    0    0 -0.50924201567E+02 -0.12741250756E+03 -0.12379783528E+03  0.22311011947E+03  0.12500000000E+03 0.  0.
         25    1    1    2    0    0  0.15567151202E+02  0.64263712985E+02 -0.78531221661E+02  0.16175386789E+03  0.12500000000E+03 0.  0.
         25    1    1    2    0    0  0.35357050365E+02  0.63148794577E+02 -0.23199182556E+03  0.27328208575E+03  0.12500000000E+03 0.  0.
</event>
<event>
 5    0  0.5815084E-005  0.4137734E+03  0.7546771E-02  0.1039112E+00
         21   -1    0    0  502  501  0.00000000000E+00  0.00000000000E+00  0.24147398287E+03  0.24147398287E+03  0.00000000000E+00 0.  1.
         21   -1    0    0  501  502 -0.00000000000E+00 -0.00000000000E+00 -0.70901395326E+03  0.70901395326E+03  0.00000000000E+00 0.  1.
         25    1    1    2    0    0 -0.17762418967E+03 -0.11812020642E+03 -0.45390191473E+03  0.51687008437E+03  0.12500000000E+03 0.  0.
         25    1    1    2    0    0  0.12540931161E+03  0.13125776873E+03  0.11301929104E+03  0.24769831941E+03  0.12500000000E+03 0.  0.
         25    1    1    2    0    0  0.52214878057E+02 -0.13137562305E+02 -0.12665734670E+03  0.18591953235E+03  0.12500000000E+03 0.  0.
</event>
<event>
 5    0  0.5815084E-005  0.4760212E+03  0.7546771E-02  0.1020234E+00
         21   -1    0    0  502  501  0.00000000000E+00  0.00000000000E+00  0.89569375401E+03  0.89569375401E+03  0.00000000000E+00 0. -1.
         21   -1    0    0  501  502 -0.00000000000E+00 -0.00000000000E+00 -0.25298401417E+03  0.25298401417E+03  0.00000000000E+00 0. -1.
         25    1    1    2    0    0  0.15318999942E+03 -0.14256321812E+03  0.70545409192E+02  0.25375795917E+03  0.12500000000E+03 0.  0.
         25    1    1    2    0    0 -0.18292916588E+03 -0.20563258935E+03  0.16654698391E+03  0.34512423761E+03  0.12500000000E+03 0.  0.
         25    1    1    2    0    0  0.29739166458E+02  0.34819580747E+03  0.40561734674E+03  0.54979557141E+03  0.12500000000E+03 0.  0.
</event>
<event>
 5    0  0.5815084E-005  0.4255300E+03  0.7546771E-02  0.1035281E+00
         21   -1    0    0  502  501  0.00000000000E+00  0.00000000000E+00  0.85162959178E+03  0.85162959178E+03  0.00000000000E+00 0.  1.
         21   -1    0    0  501  502 -0.00000000000E+00 -0.00000000000E+00 -0.21262271801E+03  0.21262271801E+03  0.00000000000E+00 0.  1.
         25    1    1    2    0    0 -0.44521300030E+01  0.12032124308E+02  0.15953876009E+02  0.12666538452E+03  0.12500000000E+03 0.  0.
         25    1    1    2    0    0  0.22943781478E+03  0.17530213612E+03  0.51101336948E+03  0.60011016786E+03  0.12500000000E+03 0.  0.
         25    1    1    2    0    0 -0.22498568478E+03 -0.18733426043E+03  0.11203962828E+03  0.33747675741E+03  0.12500000000E+03 0.  0.
</event>
<event>
 5    0  0.5815084E-005  0.2606383E+03  0.7546771E-02  0.1106760E+00
         21   -1    0    0  502  501  0.00000000000E+00  0.00000000000E+00  0.63203556811E+03  0.63203556811E+03  0.00000000000E+00 0.  1.
         21   -1    0    0  501  502 -0.00000000000E+00 -0.00000000000E+00 -0.10748183021E+03  0.10748183021E+03  0.00000000000E+00 0.  1.
         25    1    1    2    0    0  0.32379225902E+02  0.22069362804E+02  0.12697466677E+03  0.18243639178E+03  0.12500000000E+03 0.  0.
         25    1    1    2    0    0 -0.82623253127E+02 -0.11485614100E+03  0.90980360963E+02  0.20957328352E+03  0.12500000000E+03 0.  0.
         25    1    1    2    0    0  0.50244027225E+02  0.92786778195E+02  0.30659871016E+03  0.34750772301E+03  0.12500000000E+03 0.  0.
</event>
<event>
 5    0  0.5815084E-005  0.3062049E+03  0.7546771E-02  0.1082179E+00
         21   -1    0    0  502  501  0.00000000000E+00  0.00000000000E+00  0.93077006315E+02  0.93077006315E+02  0.00000000000E+00 0. -1.
         21   -1    0    0  501  502 -0.00000000000E+00 -0.00000000000E+00 -0.10073534912E+04  0.10073534912E+04  0.00000000000E+00 0. -1.
         25    1    1    2    0    0  0.19559782148E+02 -0.46351817314E+02 -0.69986100544E+02  0.15183586637E+03  0.12500000000E+03 0.  0.
         25    1    1    2    0    0  0.10438431374E+03  0.15331297851E+03 -0.49310328512E+03  0.54145803543E+03  0.12500000000E+03 0.  0.
         25    1    1    2    0    0 -0.12394409588E+03 -0.10696116120E+03 -0.35118709917E+03  0.40713659567E+03  0.12500000000E+03 0.  0.
</event>
<event>
 5    0  0.5815084E-005  0.3579075E+03  0.7546771E-02  0.1059415E+00
         21   -1    0    0  502  501  0.00000000000E+00  0.00000000000E+00  0.27108784586E+03  0.27108784586E+03  0.00000000000E+00 0.  1.
         21   -1    0    0  501  502 -0.00000000000E+00 -0.00000000000E+00 -0.47253234204E+03  0.47253234204E+03  0.00000000000E+00 0.  1.
         25    1    1    2    0    0 -0.17417909700E+03  0.78255299364E+02 -0.16874474253E+03  0.28383452546E+03  0.12500000000E+03 0.  0.
         25    1    1    2    0    0  0.12589287277E+03 -0.14286947969E+03  0.11061045226E+03  0.25322001460E+03  0.12500000000E+03 0.  0.
         25    1    1    2    0    0  0.48286224229E+02  0.64614180328E+02 -0.14331020592E+03  0.20656564784E+03  0.12500000000E+03 0.  0.
</event>
<event>
 5    0  0.5815084E-005  0.3782209E+03  0.7546771E-02  0.1051593E+00
         21   -1    0    0  502  501  0.00000000000E+00  0.00000000000E+00  0.13168577218E+04  0.13168577218E+04  0.00000000000E+00 0. -1.
         21   -1    0    0  501  502 -0.00000000000E+00 -0.00000000000E+00 -0.10863058846E+03  0.10863058846E+03  0.00000000000E+00 0. -1.
         25    1    1    2    0    0  0.60834169229E+02 -0.12591028415E+03  0.46011728197E+03  0.49687735807E+03  0.12500000000E+03 0.  0.
         25    1    1    2    0    0  0.11165427872E+03  0.19787286611E+03  0.61471365931E+03  0.66717181598E+03  0.12500000000E+03 0.  0.
         25    1    1    2    0    0 -0.17248844795E+03 -0.71962581958E+02  0.13339619204E+03  0.26143913619E+03  0.12500000000E+03 0.  0.
</event>
<event>
 5    0  0.6198879E-005  0.4758521E+03  0.7546771E-02  0.1020281E+00
         21   -1    0    0  502  501  0.00000000000E+00  0.00000000000E+00  0.72665772577E+03  0.72665772577E+03  0.00000000000E+00 0.  1.
         21   -1    0    0  501  502 -0.00000000000E+00 -0.00000000000E+00 -0.31161197492E+03  0.31161197492E+03  0.00000000000E+00 0.  1.
         25    1    1    2    0    0  0.10756777432E+03 -0.30907729560E+03  0.11378552801E+03  0.36833645911E+03  0.12500000000E+03 0.  0.
         25    1    1    2    0    0  0.11353958287E+03  0.19896253221E+03  0.23389966227E+00  0.26096432862E+03  0.12500000000E+03 0.  0.
         25    1    1    2    0    0 -0.22110735719E+03  0.11011476339E+03  0.30102632317E+03  0.40896891295E+03  0.12500000000E+03 0.  0.
</event>
<event>
 5    0  0.5815084E-005  0.2822533E+03  0.7546771E-02  0.1094465E+00
         21   -1    0    0  502  501  0.00000000000E+00  0.00000000000E+00  0.52601159868E+03  0.52601159868E+03  0.00000000000E+00 0. -1.
         21   -1    0    0  501  502 -0.00000000000E+00 -0.00000000000E+00 -0.15145473138E+03  0.15145473138E+03  0.00000000000E+00 0. -1.
         25    1    1    2    0    0 -0.11433534706E+03 -0.80796039270E+02  0.23113678822E+03  0.29774113995E+03  0.12500000000E+03 0.  0.
         25    1    1    2    0    0  0.19174712580E+02 -0.10715254438E+02 -0.27865182747E+02  0.12993827261E+03  0.12500000000E+03 0.  0.
         25    1    1    2    0    0  0.95160634480E+02  0.91511293707E+02  0.17128526183E+03  0.24978691750E+03  0.12500000000E+03 0.  0.
</event>
<event>
 5    0  0.6925189E-005  0.5654191E+03  0.7546771E-02  0.9979867E-01
         21   -1    0    0  502  501  0.00000000000E+00  0.00000000000E+00  0.99308492301E+03  0.99308492301E+03  0.00000000000E+00 0.  1.
         21   -1    0    0  501  502 -0.00000000000E+00 -0.00000000000E+00 -0.32192488630E+03  0.32192488630E+03  0.00000000000E+00 0.  1.
         25    1    1    2    0    0 -0.17154433294E+02  0.11763151576E+03  0.46670293451E+03  0.49756213397E+03  0.12500000000E+03 0.  0.
         25    1    1    2    0    0 -0.17627118136E+03 -0.32162103153E+03  0.30571826309E+03  0.49355878443E+03  0.12500000000E+03 0.  0.
         25    1    1    2    0    0  0.19342561465E+03  0.20398951577E+03 -0.10126116089E+03  0.32388889091E+03  0.12500000000E+03 0.  0.
</event>
<event>
 5    0  0.5815084E-005  0.2493499E+03  0.7546771E-02  0.1113716E+00
         21   -1    0    0  502  501  0.00000000000E+00  0.00000000000E+00  0.30093639586E+04  0.30093639586E+04  0.00000000000E+00 0. -1.
         21   -1    0    0  501  502 -0.00000000000E+00 -0.00000000000E+00 -0.20660633380E+02  0.20660633380E+02  0.00000000000E+00 0. -1.
         25    1    1    2    0    0  0.59685626201E+02  0.34763181557E+02  0.17317616622E+04  0.17376404425E+04  0.12500000000E+03 0.  0.
         25    1    1    2    0    0  0.17399038192E+02  0.39779196746E+02  0.46285847539E+03  0.48140220114E+03  0.12500000000E+03 0.  0.
         25    1    1    2    0    0 -0.77084664393E+02 -0.74542378303E+02  0.79408318770E+03  0.81098194841E+03  0.12500000000E+03 0.  0.
</event>
<event>
 5    0  0.5815084E-005  0.5303279E+03  0.7546771E-02  0.1006153E+00
         21   -1    0    0  502  501  0.00000000000E+00  0.00000000000E+00  0.19505039761E+04  0.19505039761E+04  0.00000000000E+00 0.  1.
         21   -1    0    0  501  502 -0.00000000000E+00 -0.00000000000E+00 -0.14419233618E+03  0.14419233618E+03  0.00000000000E+00 0.  1.
         25    1    1    2    0    0  0.52520002584E+02 -0.18994169541E+03  0.58681708108E+03  0.63151839638E+03  0.12500000000E+03 0.  0.
         25    1    1    2    0    0 -0.11339784796E+03 -0.20898626816E+03  0.88337749415E+03  0.92331745861E+03  0.12500000000E+03 0.  0.
         25    1    1    2    0    0  0.60877845379E+02  0.39892796357E+03  0.33611706473E+03  0.53986045732E+03  0.12500000000E+03 0.  0.
</event>
<event>
 5    0  0.5815084E-005  0.3757653E+03  0.7546771E-02  0.1052510E+00
         21   -1    0    0  502  501  0.00000000000E+00  0.00000000000E+00  0.67589886025E+03  0.67589886025E+03  0.00000000000E+00 0.  1.
         21   -1    0    0  501  502 -0.00000000000E+00 -0.00000000000E+00 -0.20890634188E+03  0.20890634188E+03  0.00000000000E+00 0.  1.
         25    1    1    2    0    0 -0.22099722959E+03  0.10736838530E+03  0.22235414276E+03  0.35416678338E+03  0.12500000000E+03 0.  0.
         25    1    1    2    0    0 -0.38216826172E+02  0.23513690506E+02  0.15062014255E+03  0.20081047479E+03  0.12500000000E+03 0.  0.
         25    1    1    2    0    0  0.25921405576E+03 -0.13088207580E+03  0.94018233051E+02  0.32982794396E+03  0.12500000000E+03 0.  0.
</event>
<event>
 5    0  0.5815084E-005  0.4094172E+03  0.7546771E-02  0.1040567E+00
         21   -1    0    0  502  501  0.00000000000E+00  0.00000000000E+00  0.25475243765E+03  0.25475243765E+03  0.00000000000E+00 0. -1.
         21   -1    0    0  501  502 -0.00000000000E+00 -0.00000000000E+00 -0.65798169128E+03  0.65798169128E+03  0.00000000000E+00 0. -1.
         25    1    1    2    0    0  0.19360134648E+03 -0.26778361365E+03 -0.34319727248E+03  0.49254331073E+03  0.12500000000E+03 0.  0.
         25    1    1    2    0    0 -0.93704142531E+02  0.14304259564E+03 -0.14901355070E+02  0.21234100140E+03  0.12500000000E+03 0.  0.
         25    1    1    2    0    0 -0.99897203954E+02  0.12474101802E+03 -0.45130626084E+02  0.20784981680E+03  0.12500000000E+03 0.  0.
</event>
<event>
 5    0  0.5815084E-005  0.4470597E+03  0.7546771E-02  0.1028603E+00
         21   -1    0    0  502  501  0.00000000000E+00  0.00000000000E+00  0.13475417354E+03  0.13475417354E+03  0.00000000000E+00 0.  1.
         21   -1    0    0  501  502 -0.00000000000E+00 -0.00000000000E+00 -0.14831627206E+04  0.14831627206E+04  0.00000000000E+00 0.  1.
         25    1    1    2    0    0 -0.58474139291E+02  0.14928039845E+03 -0.56379045887E+02  0.21096791022E+03  0.12500000000E+03 0.  0.
         25    1    1    2    0    0  0.16820114813E+03  0.25093526546E+02 -0.10281611273E+04  0.10496006932E+04  0.12500000000E+03 0.  0.
         25    1    1    2    0    0 -0.10972700884E+03 -0.17437392499E+03 -0.26386837379E+03  0.35734829071E+03  0.12500000000E+03 0.  0.
</event>
<event>
 5    0  0.5815084E-005  0.2344818E+03  0.7546771E-02  0.1123524E+00
         21   -1    0    0  502  501  0.00000000000E+00  0.00000000000E+00  0.54934950574E+02  0.54934950574E+02  0.00000000000E+00 0.  1.
         21   -1    0    0  501  502 -0.00000000000E+00 -0.00000000000E+00 -0.10008515334E+04  0.10008515334E+04  0.00000000000E+00 0.  1.
         25    1    1    2    0    0  0.75621192669E+02  0.15905476414E+02 -0.19864111337E+03  0.24709277788E+03  0.12500000000E+03 0.  0.
         25    1    1    2    0    0  0.22278604430E+02  0.47777223373E+02 -0.28117025953E+03  0.31218698585E+03  0.12500000000E+03 0.  0.
         25    1    1    2    0    0 -0.97899797098E+02 -0.63682699787E+02 -0.46610520988E+03  0.49650672020E+03  0.12500000000E+03 0.  0.
</event>
<event>
 5    0  0.5815084E-005  0.2340759E+03  0.7546771E-02  0.1123803E+00
         21   -1    0    0  502  501  0.00000000000E+00  0.00000000000E+00  0.55097927538E+03  0.55097927538E+03  0.00000000000E+00 0. -1.
         21   -1    0    0  501  502 -0.00000000000E+00 -0.00000000000E+00 -0.99443930898E+02  0.99443930898E+02  0.00000000000E+00 0. -1.
         25    1    1    2    0    0  0.96618671473E+01 -0.20727819077E+01  0.18003651622E+03  0.21939871302E+03  0.12500000000E+03 0.  0.
         25    1    1    2    0    0 -0.19548077719E+01  0.63531877235E+01  0.27868617099E+03  0.30550804600E+03  0.12500000000E+03 0.  0.
         25    1    1    2    0    0 -0.77070593754E+01 -0.42804058157E+01 -0.71873427266E+01  0.12551644726E+03  0.12500000000E+03 0.  0.
</event>
<event>
 5    0  0.6473311E-005  0.2891036E+03  0.7546771E-02  0.1090818E+00
         21   -1    0    0  502  501  0.00000000000E+00  0.00000000000E+00  0.55473600414E+02  0.55473600414E+02  0.00000000000E+00 0. -1.
         21   -1    0    0  501  502 -0.00000000000E+00 -0.00000000000E+00 -0.15066789327E+04  0.15066789327E+04  0.00000000000E+00 0. -1.
         25    1    1    2    0    0 -0.85157188641E+02  0.10255642568E+03 -0.88795383218E+03  0.90656305645E+03  0.12500000000E+03 0.  0.
         25    1    1    2    0    0 -0.26892108116E+02 -0.84556336703E+02 -0.17762674776E+03  0.23462570421E+03  0.12500000000E+03 0.  0.
         25    1    1    2    0    0  0.11204929676E+03 -0.18000088974E+02 -0.38562475238E+03  0.42096377249E+03  0.12500000000E+03 0.  0.
</event>
<event>
 5    0  0.5815084E-005  0.2306860E+03  0.7546771E-02  0.1126158E+00
         21   -1    0    0  502  501  0.00000000000E+00  0.00000000000E+00  0.31447934371E+03  0.31447934371E+03  0.00000000000E+00 0.  1.
         21   -1    0    0  501  502 -0.00000000000E+00 -0.00000000000E+00 -0.16921946663E+03  0.16921946663E+03  0.00000000000E+00 0.  1.
         25    1    1    2    0    0  0.33827390667E+02 -0.94751924639E+02 -0.49812418593E+01  0.16053670095E+03  0.12500000000E+03 0.  0.
         25    1    1    2    0    0 -0.42256525637E+01  0.95306141463E+02  0.74060478664E+02  0.17381332296E+03  0.12500000000E+03 0.  0.
         25    1    1    2    0    0 -0.29601738103E+02 -0.55421682417E+00  0.76180640267E+02  0.14934878642E+03  0.12500000000E+03 0.  0.
</event>
<event>
 5    0  0.5815084E-005  0.2776718E+03  0.7546771E-02  0.1096967E+00
         21   -1    0    0  502  501  0.00000000000E+00  0.00000000000E+00  0.33804811071E+02  0.33804811071E+02  0.00000000000E+00 0.  1.
         21   -1    0    0  501  502 -0.00000000000E+00 -0.00000000000E+00 -0.22807878143E+04  0.22807878143E+04  0.00000000000E+00 0.  1.
         25    1    1    2    0    0  0.19736030020E+02 -0.13980919044E+03 -0.55356641368E+03  0.58480500594E+03  0.12500000000E+03 0.  0.
         25    1    1    2    0    0  0.16556671682E+02  0.15542598340E+03 -0.70992920683E+03  0.73760140890E+03  0.12500000000E+03 0.  0.
         25    1    1    2    0    0 -0.36292701702E+02 -0.15616792968E+02 -0.98348738270E+03  0.99218621052E+03  0.12500000000E+03 0.  0.
</event>
<event>
 5    0  0.5815084E-005  0.3095570E+03  0.7546771E-02  0.1080558E+00
         21   -1    0    0  502  501  0.00000000000E+00  0.00000000000E+00  0.43723595793E+03  0.43723595793E+03  0.00000000000E+00 0. -1.
         21   -1    0    0  501  502 -0.00000000000E+00 -0.00000000000E+00 -0.21916213074E+03  0.21916213074E+03  0.00000000000E+00 0. -1.
         25    1    1    2    0    0 -0.90889035406E+02 -0.59405569606E+02  0.28138356330E+03  0.32648361085E+03  0.12500000000E+03 0.  0.
         25    1    1    2    0    0  0.12045767088E+03  0.84139756991E+02 -0.40917126346E+02  0.19720233368E+03  0.12500000000E+03 0.  0.
         25    1    1    2    0    0 -0.29568635474E+02 -0.24734187385E+02 -0.22392609777E+02  0.13271214414E+03  0.12500000000E+03 0.  0.
</event>
<event>
 5    0  0.6174055E-005  0.4839930E+03  0.7546771E-02  0.1018044E+00
         21   -1    0    0  502  501  0.00000000000E+00  0.00000000000E+00  0.36939884634E+03  0.36939884634E+03  0.00000000000E+00 0.  1.
         21   -1    0    0  501  502 -0.00000000000E+00 -0.00000000000E+00 -0.63413619802E+03  0.63413619802E+03  0.00000000000E+00 0.  1.
         25    1    1    2    0    0 -0.70277740584E+02  0.59140045756E+02 -0.35215520784E+03  0.38480488074E+03  0.12500000000E+03 0.  0.
         25    1    1    2    0    0  0.19814350319E+02  0.24047514024E+03  0.10099391322E+03  0.28990631600E+03  0.12500000000E+03 0.  0.
         25    1    1    2    0    0  0.50463390265E+02 -0.29961518599E+03 -0.13576057057E+02  0.32882384762E+03  0.12500000000E+03 0.  0.
</event>
<event>
 5    0  0.5815084E-005  0.2283310E+03  0.7546771E-02  0.1127820E+00
         21   -1    0    0  502  501  0.00000000000E+00  0.00000000000E+00  0.22174211370E+03  0.22174211370E+03  0.00000000000E+00 0. -1.
         21   -1    0    0  501  502 -0.00000000000E+00 -0.00000000000E+00 -0.23511572464E+03  0.23511572464E+03  0.00000000000E+00 0. -1.
         25    1    1    2    0    0  0.92759103943E+02 -0.22764431551E+02  0.43246389602E+02  0.16314938223E+03  0.12500000000E+03 0.  0.
         25    1    1    2    0    0 -0.95667904260E+02  0.37667312290E+02 -0.23895370647E+02  0.16360673293E+03  0.12500000000E+03 0.  0.
         25    1    1    2    0    0  0.29088003168E+01 -0.14902880739E+02 -0.32724629900E+02  0.13010172319E+03  0.12500000000E+03 0.  0.
</event>
<event>
 5    0  0.5815084E-005  0.2406439E+03  0.7546771E-02  0.1119365E+00
         21   -1    0    0  502  501  0.00000000000E+00  0.00000000000E+00  0.23648282755E+03  0.23648282755E+03  0.00000000000E+00 0. -1.
         21   -1    0    0  501  502 -0.00000000000E+00 -0.00000000000E+00 -0.24487824369E+03  0.24487824369E+03  0.00000000000E+00 0. -1.
         25    1    1    2    0    0  0.40934713688E+02 -0.12716503592E+03  0.25351024040E+02  0.18470049151E+03  0.12500000000E+03 0.  0.
         25    1    1    2    0    0 -0.15608695287E+02  0.85178799195E+02  0.17224881228E+02  0.15303841261E+03  0.12500000000E+03 0.  0.
         25    1    1    2    0    0 -0.25326018401E+02  0.41986236720E+02 -0.50971321414E+02  0.14362216712E+03  0.12500000000E+03 0.  0.
</event>
<event>
 5    0  0.5815084E-005  0.2550321E+03  0.7546771E-02  0.1110165E+00
         21   -1    0    0  502  501  0.00000000000E+00  0.00000000000E+00  0.21372429372E+03  0.21372429372E+03  0.00000000000E+00 0.  1.
         21   -1    0    0  501  502 -0.00000000000E+00 -0.00000000000E+00 -0.30432374707E+03  0.30432374707E+03  0.00000000000E+00 0. -1.
         25    1    1    2    0    0 -0.79294019657E+01 -0.34312977499E+02 -0.20980800415E+01  0.12988324673E+03  0.12500000000E+03 0.  0.
         25    1    1    2    0    0 -0.98194360272E+02 -0.64325923789E+01 -0.13959450141E+03  0.21164861317E+03  0.12500000000E+03 0.  0.
         25    1    1    2    0    0  0.10612376224E+03  0.40745569878E+02  0.51093128106E+02  0.17651618089E+03  0.12500000000E+03 0.  0.
</event>
<event>
 5    0  0.5815084E-005  0.5109330E+03  0.7546771E-02  0.1010964E+00
         21   -1    0    0  502  501  0.00000000000E+00  0.00000000000E+00  0.18020767548E+04  0.18020767548E+04  0.00000000000E+00 0.  1.
         21   -1    0    0  501  502 -0.00000000000E+00 -0.00000000000E+00 -0.14486205150E+03  0.14486205150E+03  0.00000000000E+00 0.  1.
         25    1    1    2    0    0  0.77442923713E+02  0.31910526729E+02  0.51620738228E+03  0.53769019860E+03  0.12500000000E+03 0.  0.
         25    1    1    2    0    0  0.64315283544E+02 -0.32121504851E+01 -0.87726006681E+02  0.16573359906E+03  0.12500000000E+03 0.  0.
         25    1    1    2    0    0 -0.14175820726E+03 -0.28698376243E+02  0.12287333277E+04  0.12435150086E+04  0.12500000000E+03 0.  0.
</event>
<event>
 5    0  0.5815084E-005  0.2269097E+03  0.7546771E-02  0.1128834E+00
         21   -1    0    0  502  501  0.00000000000E+00  0.00000000000E+00  0.13303948192E+03  0.13303948192E+03  0.00000000000E+00 0. -1.
         21   -1    0    0  501  502 -0.00000000000E+00 -0.00000000000E+00 -0.38701288629E+03  0.38701288629E+03  0.00000000000E+00 0. -1.
         25    1    1    2    0    0  0.52772678249E+02  0.58644801554E+02 -0.64930955764E+02  0.16144719674E+03  0.12500000000E+03 0.  0.
         25    1    1    2    0    0 -0.30204841112E+02 -0.18824701998E+02 -0.32012580618E+01  0.13000749934E+03  0.12500000000E+03 0.  0.
         25    1    1    2    0    0 -0.22567837138E+02 -0.39820099556E+02 -0.18584119054E+03  0.22859767213E+03  0.12500000000E+03 0.  0.
</event>
<event>
 5    0  0.5815084E-005  0.2672369E+03  0.7546771E-02  0.1102871E+00
         21   -1    0    0  502  501  0.00000000000E+00  0.00000000000E+00  0.11825871234E+03  0.11825871234E+03  0.00000000000E+00 0.  1.
         21   -1    0    0  501  502 -0.00000000000E+00 -0.00000000000E+00 -0.60389259841E+03  0.60389259841E+03  0.00000000000E+00 0.  1.
         25    1    1    2    0    0 -0.13638731676E+03 -0.95729620432E+02 -0.22228175359E+03  0.30463065896E+03  0.12500000000E+03 0.  0.
         25    1    1    2    0    0  0.61073659903E+02 -0.83210966644E+01 -0.15337043150E+03  0.20723590867E+03  0.12500000000E+03 0.  0.
         25    1    1    2    0    0  0.75313656856E+02  0.10405071710E+03 -0.10998170098E+03  0.21028474312E+03  0.12500000000E+03 0.  0.
</event>
<event>
 5    0  0.5815084E-005  0.2292441E+03  0.7546771E-02  0.1127173E+00
         21   -1    0    0  502  501  0.00000000000E+00  0.00000000000E+00  0.80709787616E+02  0.80709787616E+02  0.00000000000E+00 0.  1.
         21   -1    0    0  501  502 -0.00000000000E+00 -0.00000000000E+00 -0.65113361566E+03  0.65113361566E+03  0.00000000000E+00 0.  1.
         25    1    1    2    0    0 -0.95818859555E+01 -0.61282926420E+02 -0.29058363151E+03  0.32235268963E+03  0.12500000000E+03 0.  0.
         25    1    1    2    0    0 -0.62360880125E-01 -0.29839002698E+02 -0.63451487002E+02  0.14332292620E+03  0.12500000000E+03 0.  0.
         25    1    1    2    0    0  0.96442468357E+01  0.91121929117E+02 -0.21638870953E+03  0.26616778745E+03  0.12500000000E+03 0.  0.
</event>
<event>
 5    0  0.5815084E-005  0.2569485E+03  0.7546771E-02  0.1108991E+00
         21   -1    0    0  502  501  0.00000000000E+00  0.00000000000E+00  0.98648928948E+02  0.98648928948E+02  0.00000000000E+00 0. -1.
         21   -1    0    0  501  502 -0.00000000000E+00 -0.00000000000E+00 -0.66926777049E+03  0.66926777049E+03  0.00000000000E+00 0.  1.
         25    1    1    2    0    0 -0.10220201157E+03  0.45027158034E+02 -0.23839037865E+03  0.29142352129E+03  0.12500000000E+03 0.  0.
         25    1    1    2    0    0  0.16387501676E+02  0.76317349726E+02 -0.14321048095E+03  0.20549240846E+03  0.12500000000E+03 0.  0.
         25    1    1    2    0    0  0.85814509897E+02 -0.12134450776E+03 -0.18901798194E+03  0.27100076968E+03  0.12500000000E+03 0.  0.
</event>
<event>
 5    0  0.5815084E-005  0.3447136E+03  0.7546771E-02  0.1064806E+00
         21   -1    0    0  502  501  0.00000000000E+00  0.00000000000E+00  0.22091854162E+03  0.22091854162E+03  0.00000000000E+00 0.  1.
         21   -1    0    0  501  502 -0.00000000000E+00 -0.00000000000E+00 -0.53787908994E+03  0.53787908994E+03  0.00000000000E+00 0.  1.
         25    1    1    2    0    0  0.99862121550E+02  0.14473844518E+03 -0.20054583343E+03  0.29455948828E+03  0.12500000000E+03 0.  0.
         25    1    1    2    0    0  0.91515384082E+02  0.10064347107E+02  0.19605011614E+02  0.15647911390E+03  0.12500000000E+03 0.  0.
         25    1    1    2    0    0 -0.19137750563E+03 -0.15480279229E+03 -0.13601972651E+03  0.30775902937E+03  0.12500000000E+03 0.  0.
</event>
<event>
 5    0  0.5815084E-005  0.2686472E+03  0.7546771E-02  0.1102056E+00
         21   -1    0    0  502  501  0.00000000000E+00  0.00000000000E+00  0.52223987609E+03  0.52223987609E+03  0.00000000000E+00 0.  1.
         21   -1    0    0  501  502 -0.00000000000E+00 -0.00000000000E+00 -0.13819576670E+03  0.13819576670E+03  0.00000000000E+00 0.  1.
         25    1    1    2    0    0  0.22944364593E+02  0.10595871604E+03  0.19500417718E+03  0.25574464313E+03  0.12500000000E+03 0.  0.
         25    1    1    2    0    0  0.34910431726E+02 -0.12800879165E+02 -0.25877414102E+02  0.13295578705E+03  0.12500000000E+03 0.  0.
         25    1    1    2    0    0 -0.57854796319E+02 -0.93157836876E+02  0.21491734630E+03  0.27173521261E+03  0.12500000000E+03 0.  0.
</event>
<event>
 5    0  0.5815084E-005  0.2798224E+03  0.7546771E-02  0.1095786E+00
         21   -1    0    0  502  501  0.00000000000E+00  0.00000000000E+00  0.46502032507E+03  0.46502032507E+03  0.00000000000E+00 0.  1.
         21   -1    0    0  501  502 -0.00000000000E+00 -0.00000000000E+00 -0.16838097133E+03  0.16838097133E+03  0.00000000000E+00 0.  1.
         25    1    1    2    0    0  0.92951296072E+02 -0.22482498812E+02  0.52875845242E+02  0.16603090437E+03  0.12500000000E+03 0.  0.
         25    1    1    2    0    0  0.12059050438E+02  0.62629559353E+01  0.27315045391E+03  0.30070054171E+03  0.12500000000E+03 0.  0.
         25    1    1    2    0    0 -0.10501034651E+03  0.16219542876E+02 -0.29386945418E+02  0.16666985032E+03  0.12500000000E+03 0.  0.
</event>
<event>
 5    0  0.5815084E-005  0.2907387E+03  0.7546771E-02  0.1089964E+00
         21   -1    0    0  502  501  0.00000000000E+00  0.00000000000E+00  0.33087720662E+03  0.33087720662E+03  0.00000000000E+00 0. -1.
         21   -1    0    0  501  502 -0.00000000000E+00 -0.00000000000E+00 -0.25546932423E+03  0.25546932423E+03  0.00000000000E+00 0. -1.
         25    1    1    2    0    0 -0.10382948951E+03  0.26519599203E+02 -0.12250211453E+02  0.16510275502E+03  0.12500000000E+03 0.  0.
         25    1    1    2    0    0  0.18252309344E+03 -0.84148991914E+02  0.11022349581E+03  0.26109376000E+03  0.12500000000E+03 0.  0.
         25    1    1    2    0    0 -0.78693603936E+02  0.57629392711E+02 -0.22565401971E+02  0.16015001583E+03  0.12500000000E+03 0.  0.
</event>
<event>
 5    0  0.7311038E-005  0.3950826E+03  0.7546771E-02  0.1045496E+00
         21   -1    0    0  502  501  0.00000000000E+00  0.00000000000E+00  0.22909500132E+03  0.22909500132E+03  0.00000000000E+00 0. -1.
         21   -1    0    0  501  502 -0.00000000000E+00 -0.00000000000E+00 -0.68133414153E+03  0.68133414153E+03  0.00000000000E+00 0. -1.
         25    1    1    2    0    0 -0.20248141474E+02 -0.21709417570E+03 -0.29690748061E+03  0.38899732698E+03  0.12500000000E+03 0.  0.
         25    1    1    2    0    0 -0.11296838727E+03  0.65953395837E+02  0.70321164483E+02  0.19411793611E+03  0.12500000000E+03 0.  0.
         25    1    1    2    0    0  0.13321652874E+03  0.15114077986E+03 -0.22565282409E+03  0.32731387976E+03  0.12500000000E+03 0.  0.
</event>
<event>
 5    0  0.5815084E-005  0.2636932E+03  0.7546771E-02  0.1104944E+00
         21   -1    0    0  502  501  0.00000000000E+00  0.00000000000E+00  0.55710791588E+03  0.55710791588E+03  0.00000000000E+00 0.  1.
         21   -1    0    0  501  502 -0.00000000000E+00 -0.00000000000E+00 -0.12481267143E+03  0.12481267143E+03  0.00000000000E+00 0.  1.
         25    1    1    2    0    0 -0.42031018573E+02  0.13620835649E+03  0.24516947911E+03  0.30992321047E+03  0.12500000000E+03 0.  0.
         25    1    1    2    0    0  0.76405467762E+02 -0.26596060165E+02  0.11216044489E+03  0.18641381740E+03  0.12500000000E+03 0.  0.
         25    1    1    2    0    0 -0.34374449189E+02 -0.10961229633E+03  0.74965320459E+02  0.18558355944E+03  0.12500000000E+03 0.  0.
</event>
<event>
 5    0  0.5815084E-005  0.3374999E+03  0.7546771E-02  0.1067866E+00
         21   -1    0    0  502  501  0.00000000000E+00  0.00000000000E+00  0.51211455775E+03  0.51211455775E+03  0.00000000000E+00 0. -1.
         21   -1    0    0  501  502 -0.00000000000E+00 -0.00000000000E+00 -0.22242325940E+03  0.22242325940E+03  0.00000000000E+00 0. -1.
         25    1    1    2    0    0 -0.69973300225E+02  0.27878273030E+02  0.44134437426E+02  0.15246740445E+03  0.12500000000E+03 0.  0.
         25    1    1    2    0    0  0.15500471257E+03  0.11720127613E+03  0.28702895385E+03  0.36847417874E+03  0.12500000000E+03 0.  0.
         25    1    1    2    0    0 -0.85031412348E+02 -0.14507954916E+03 -0.41472092927E+02  0.21359623396E+03  0.12500000000E+03 0.  0.
</event>
<event>
 5    0  0.5815084E-005  0.4052421E+03  0.7546771E-02  0.1041979E+00
         21   -1    0    0  502  501  0.00000000000E+00  0.00000000000E+00  0.80333439017E+03  0.80333439017E+03  0.00000000000E+00 0.  1.
         21   -1    0    0  501  502 -0.00000000000E+00 -0.00000000000E+00 -0.20442442870E+03  0.20442442870E+03  0.00000000000E+00 0.  1.
         25    1    1    2    0    0 -0.57036301179E+02 -0.23099005074E+03  0.37107618637E+03  0.45818345592E+03  0.12500000000E+03 0.  0.
         25    1    1    2    0    0 -0.82350976153E+02  0.14068533207E+03 -0.41279170034E+02  0.20953046511E+03  0.12500000000E+03 0.  0.
         25    1    1    2    0    0  0.13938727733E+03  0.90304718675E+02  0.26911294514E+03  0.34004489783E+03  0.12500000000E+03 0.  0.
</event>
<event>
 5    0  0.5815084E-005  0.2784676E+03  0.7546771E-02  0.1096529E+00
         21   -1    0    0  502  501  0.00000000000E+00  0.00000000000E+00  0.35060799056E+03  0.35060799056E+03  0.00000000000E+00 0.  1.
         21   -1    0    0  501  502 -0.00000000000E+00 -0.00000000000E+00 -0.22117069587E+03  0.22117069587E+03  0.00000000000E+00 0.  1.
         25    1    1    2    0    0  0.55498993237E+02 -0.71252557607E+02  0.54100059458E+02  0.16342852153E+03  0.12500000000E+03 0.  0.
         25    1    1    2    0    0 -0.56623255498E+02  0.13576137248E+03 -0.70708078079E+02  0.20557717681E+03  0.12500000000E+03 0.  0.
         25    1    1    2    0    0  0.11242622608E+01 -0.64508814870E+02  0.14604531330E+03  0.20277298809E+03  0.12500000000E+03 0.  0.
</event>
<event>
 5    0  0.5815084E-005  0.2544084E+03  0.7546771E-02  0.1110550E+00
         21   -1    0    0  502  501  0.00000000000E+00  0.00000000000E+00  0.22596890255E+03  0.22596890255E+03  0.00000000000E+00 0. -1.
         21   -1    0    0  501  502 -0.00000000000E+00 -0.00000000000E+00 -0.28642724864E+03  0.28642724864E+03  0.00000000000E+00 0. -1.
         25    1    1    2    0    0  0.80732578724E+02 -0.10389080822E+03  0.60915344495E+02  0.19143335262E+03  0.12500000000E+03 0.  0.
         25    1    1    2    0    0 -0.18173160226E+02  0.17445503198E+02 -0.23454014617E+02  0.12965222766E+03  0.12500000000E+03 0.  0.
         25    1    1    2    0    0 -0.62559418498E+02  0.86445305021E+02 -0.97919675971E+02  0.19131057092E+03  0.12500000000E+03 0.  0.
</event>
<event>
 5    0  0.5815084E-005  0.2438210E+03  0.7546771E-02  0.1117273E+00
         21   -1    0    0  502  501  0.00000000000E+00  0.00000000000E+00  0.48507190858E+03  0.48507190858E+03  0.00000000000E+00 0. -1.
         21   -1    0    0  501  502 -0.00000000000E+00 -0.00000000000E+00 -0.12255640578E+03  0.12255640578E+03  0.00000000000E+00 0. -1.
         25    1    1    2    0    0  0.78725549236E+02  0.77913569510E+02  0.99573316609E+02  0.19444300398E+03  0.12500000000E+03 0.  0.
         25    1    1    2    0    0  0.36148973709E+01  0.28013255483E+02  0.66210124485E+02  0.14424489783E+03  0.12500000000E+03 0.  0.
         25    1    1    2    0    0 -0.82340446607E+02 -0.10592682499E+03  0.19673206170E+03  0.26894041255E+03  0.12500000000E+03 0.  0.
</event>
<event>
 5    0  0.5815084E-005  0.3769509E+03  0.7546771E-02  0.1052066E+00
         21   -1    0    0  502  501  0.00000000000E+00  0.00000000000E+00  0.56140189521E+03  0.56140189521E+03  0.00000000000E+00 0. -1.
         21   -1    0    0  501  502 -0.00000000000E+00 -0.00000000000E+00 -0.25310210294E+03  0.25310210294E+03  0.00000000000E+00 0. -1.
         25    1    1    2    0    0  0.23995362966E+02  0.16243444229E+03 -0.14022340881E+03  0.24949615200E+03  0.12500000000E+03 0.  0.
         25    1    1    2    0    0  0.65055105056E+02 -0.70107198874E+02  0.15335871703E+03  0.21975231994E+03  0.12500000000E+03 0.  0.
         25    1    1    2    0    0 -0.89050468022E+02 -0.92327243412E+02  0.29516448405E+03  0.34525552621E+03  0.12500000000E+03 0.  0.
</event>
<event>
 5    0  0.5815084E-005  0.3274114E+03  0.7546771E-02  0.1072288E+00
         21   -1    0    0  502  501  0.00000000000E+00  0.00000000000E+00  0.14477841718E+03  0.14477841718E+03  0.00000000000E+00 0. -1.
         21   -1    0    0  501  502 -0.00000000000E+00 -0.00000000000E+00 -0.74042960409E+03  0.74042960409E+03  0.00000000000E+00 0. -1.
         25    1    1    2    0    0  0.21760488607E+03 -0.12785964182E+03 -0.32889108193E+03  0.43300614109E+03  0.12500000000E+03 0.  0.
         25    1    1    2    0    0 -0.14367184429E+03  0.66119120432E+02 -0.18877159064E+03  0.27617575991E+03  0.12500000000E+03 0.  0.
         25    1    1    2    0    0 -0.73933041781E+02  0.61740521384E+02 -0.77988514331E+02  0.17602612026E+03  0.12500000000E+03 0.  0.
</event>
<event>
 5    0  0.5815084E-005  0.2695575E+03  0.7546771E-02  0.1101533E+00
         21   -1    0    0  502  501  0.00000000000E+00  0.00000000000E+00  0.21882076918E+03  0.21882076918E+03  0.00000000000E+00 0.  1.
         21   -1    0    0  501  502 -0.00000000000E+00 -0.00000000000E+00 -0.33205835280E+03  0.33205835280E+03  0.00000000000E+00 0.  1.
         25    1    1    2    0    0 -0.31501464922E+02  0.28452660650E+02  0.24171617511E+02  0.13420567530E+03  0.12500000000E+03 0.  0.
         25    1    1    2    0    0 -0.10713453483E+03  0.35861000629E+02  0.12236565735E+02  0.16893357706E+03  0.12500000000E+03 0.  0.
         25    1    1    2    0    0  0.13863599975E+03 -0.64313661279E+02 -0.14964576687E+03  0.24773986961E+03  0.12500000000E+03 0.  0.
</event>
<event>
 5    0  0.5815084E-005  0.3173141E+03  0.7546771E-02  0.1076892E+00
         21   -1    0    0  502  501  0.00000000000E+00  0.00000000000E+00  0.15184106164E+03  0.15184106164E+03  0.00000000000E+00 0.  1.
         21   -1    0    0  501  502 -0.00000000000E+00 -0.00000000000E+00 -0.66311601993E+03  0.66311601993E+03  0.00000000000E+00 0.  1.
         25    1    1    2    0    0  0.10260552630E+03 -0.25679513116E+02 -0.44147819509E+02  0.16959174918E+03  0.12500000000E+03 0.  0.
         25    1    1    2    0    0 -0.70301894582E+02  0.68663991612E+02 -0.18862829821E+00  0.15900357136E+03  0.12500000000E+03 0.  0.
         25    1    1    2    0    0 -0.32303631720E+02 -0.42984478497E+02 -0.46693851048E+03  0.48636176103E+03  0.12500000000E+03 0.  0.
</event>
<event>
 5    0  0.5815084E-005  0.4112431E+03  0.7546771E-02  0.1039955E+00
         21   -1    0    0  502  501  0.00000000000E+00  0.00000000000E+00  0.45037939083E+03  0.45037939083E+03  0.00000000000E+00 0. -1.
         21   -1    0    0  501  502 -0.00000000000E+00 -0.00000000000E+00 -0.37550765294E+03  0.37550765294E+03  0.00000000000E+00 0. -1.
         25    1    1    2    0    0 -0.15144680076E+03 -0.70607380122E+02  0.33037370705E+03  0.39075992873E+03  0.12500000000E+03 0.  0.
         25    1    1    2    0    0  0.74332846544E+02  0.67388175103E+02 -0.23833498519E+03  0.28721960829E+03  0.12500000000E+03 0.  0.
         25    1    1    2    0    0  0.77113954221E+02  0.32192050188E+01 -0.17166983963E+02  0.14790750676E+03  0.12500000000E+03 0.  0.
</event>
<event>
 5    0  0.6512324E-005  0.3495479E+03  0.7546771E-02  0.1062801E+00
         21   -1    0    0  502  501  0.00000000000E+00  0.00000000000E+00  0.55311152865E+03  0.55311152865E+03  0.00000000000E+00 0. -1.
         21   -1    0    0  501  502 -0.00000000000E+00 -0.00000000000E+00 -0.22090246970E+03  0.22090246970E+03  0.00000000000E+00 0. -1.
         25    1    1    2    0    0 -0.16136979861E+03 -0.25038834729E+02 -0.27244438516E+02  0.20744737785E+03  0.12500000000E+03 0.  0.
         25    1    1    2    0    0  0.19741237339E+03 -0.32147954762E+02  0.73163324429E+02  0.24694737943E+03  0.12500000000E+03 0.  0.
         25    1    1    2    0    0 -0.36042574783E+02  0.57186789491E+02  0.28629017304E+03  0.31961924108E+03  0.12500000000E+03 0.  0.
</event>
<event>
 5    0  0.5815084E-005  0.3252959E+03  0.7546771E-02  0.1073237E+00
         21   -1    0    0  502  501  0.00000000000E+00  0.00000000000E+00  0.19804598723E+04  0.19804598723E+04  0.00000000000E+00 0.  1.
         21   -1    0    0  501  502 -0.00000000000E+00 -0.00000000000E+00 -0.53430718427E+02  0.53430718427E+02  0.00000000000E+00 0.  1.
         25    1    1    2    0    0  0.26938595052E+02 -0.14644490817E+02  0.22363385805E+03  0.25802567989E+03  0.12500000000E+03 0.  0.
         25    1    1    2    0    0 -0.19673521361E+03 -0.10278356772E+03  0.73676155179E+03  0.77955871509E+03  0.12500000000E+03 0.  0.
         25    1    1    2    0    0  0.16979661855E+03  0.11742805853E+03  0.96663374405E+03  0.99630619577E+03  0.12500000000E+03 0.  0.
</event>
<event>
 5    0  0.5815084E-005  0.3993584E+03  0.7546771E-02  0.1044002E+00
         21   -1    0    0  502  501  0.00000000000E+00  0.00000000000E+00  0.64243743899E+03  0.64243743899E+03  0.00000000000E+00 0. -1.
         21   -1    0    0  501  502 -0.00000000000E+00 -0.00000000000E+00 -0.24825313016E+03  0.24825313016E+03  0.00000000000E+00 0. -1.
         25    1    1    2    0    0  0.30699360372E+03  0.77713742603E+02  0.18418105222E+03  0.38708159154E+03  0.12500000000E+03 0.  0.
         25    1    1    2    0    0 -0.27690179703E+03 -0.10656939469E+03  0.11800677927E+03  0.34290266992E+03  0.12500000000E+03 0.  0.
         25    1    1    2    0    0 -0.30091806684E+02  0.28855652085E+02  0.91996477338E+02  0.16070630768E+03  0.12500000000E+03 0.  0.
</event>
<event>
 5    0  0.5982826E-005  0.4418713E+03  0.7546771E-02  0.1030174E+00
         21   -1    0    0  502  501  0.00000000000E+00  0.00000000000E+00  0.39018954268E+03  0.39018954268E+03  0.00000000000E+00 0.  1.
         21   -1    0    0  501  502 -0.00000000000E+00 -0.00000000000E+00 -0.50039845026E+03  0.50039845026E+03  0.00000000000E+00 0.  1.
         25    1    1    2    0    0  0.18467971934E+03 -0.25546329789E+02  0.89108387308E+02  0.24150469642E+03  0.12500000000E+03 0.  0.
         25    1    1    2    0    0 -0.21331387238E+03 -0.14622837085E+03  0.78877891670E+02  0.29787961727E+03  0.12500000000E+03 0.  0.
         25    1    1    2    0    0  0.28634153037E+02  0.17177470064E+03 -0.27819518655E+03  0.35120367925E+03  0.12500000000E+03 0.  0.
</event>
<event>
 5    0  0.5815084E-005  0.2251657E+03  0.7546771E-02  0.1130089E+00
         21   -1    0    0  502  501  0.00000000000E+00  0.00000000000E+00  0.12813674330E+03  0.12813674330E+03  0.00000000000E+00 0. -1.
         21   -1    0    0  501  502 -0.00000000000E+00 -0.00000000000E+00 -0.39566774044E+03  0.39566774044E+03  0.00000000000E+00 0. -1.
         25    1    1    2    0    0 -0.13513895759E+02 -0.20965358709E+02  0.58530936386E+01  0.12759870826E+03  0.12500000000E+03 0.  0.
         25    1    1    2    0    0  0.47205217182E+02  0.66377090219E+02 -0.15266529312E+03  0.21346180539E+03  0.12500000000E+03 0.  0.
         25    1    1    2    0    0 -0.33691321423E+02 -0.45411731510E+02 -0.12071879766E+03  0.18274397009E+03  0.12500000000E+03 0.  0.
</event>
<event>
 5    0  0.5815084E-005  0.2946107E+03  0.7546771E-02  0.1087966E+00
         21   -1    0    0  502  501  0.00000000000E+00  0.00000000000E+00  0.45846939630E+03  0.45846939630E+03  0.00000000000E+00 0.  1.
         21   -1    0    0  501  502 -0.00000000000E+00 -0.00000000000E+00 -0.18931568059E+03  0.18931568059E+03  0.00000000000E+00 0.  1.
         25    1    1    2    0    0 -0.13650632140E+03 -0.76322571057E+02  0.93389527193E+02  0.22092015395E+03  0.12500000000E+03 0.  0.
         25    1    1    2    0    0 -0.11104111088E+02  0.12975869751E+03  0.12592306466E+03  0.22009597696E+03  0.12500000000E+03 0.  0.
         25    1    1    2    0    0  0.14761043248E+03 -0.53436126453E+02  0.49841123862E+02  0.20676894597E+03  0.12500000000E+03 0.  0.
</event>
<event>
 5    0  0.5815084E-005  0.4335004E+03  0.7546771E-02  0.1032760E+00
         21   -1    0    0  502  501  0.00000000000E+00  0.00000000000E+00  0.40654293652E+03  0.40654293652E+03  0.00000000000E+00 0.  1.
         21   -1    0    0  501  502 -0.00000000000E+00 -0.00000000000E+00 -0.46224534881E+03  0.46224534881E+03  0.00000000000E+00 0.  1.
         25    1    1    2    0    0  0.94311374622E+02  0.14058146085E+03 -0.24681333869E+03  0.32434488847E+03  0.12500000000E+03 0.  0.
         25    1    1    2    0    0 -0.15669941830E+03  0.10019283345E+03  0.39777122489E+02  0.22759730016E+03  0.12500000000E+03 0.  0.
         25    1    1    2    0    0  0.62388043676E+02 -0.24077429430E+03  0.15133380391E+03  0.31684609670E+03  0.12500000000E+03 0.  0.
</event>
<event>
 5    0  0.5815084E-005  0.2963861E+03  0.7546771E-02  0.1087061E+00
         21   -1    0    0  502  501  0.00000000000E+00  0.00000000000E+00  0.36683822157E+03  0.36683822157E+03  0.00000000000E+00 0. -1.
         21   -1    0    0  501  502 -0.00000000000E+00 -0.00000000000E+00 -0.23946441352E+03  0.23946441352E+03  0.00000000000E+00 0. -1.
         25    1    1    2    0    0 -0.82787134211E+02 -0.99588764625E+02 -0.51357484764E+02  0.18717431146E+03  0.12500000000E+03 0.  0.
         25    1    1    2    0    0 -0.88085762284E+02  0.35391667384E+02  0.59904680691E+02  0.16800369760E+03  0.12500000000E+03 0.  0.
         25    1    1    2    0    0  0.17087289649E+03  0.64197097241E+02  0.11882661213E+03  0.25112462603E+03  0.12500000000E+03 0.  0.
</event>
<event>
 5    0  0.5815084E-005  0.3302112E+03  0.7546771E-02  0.1071043E+00
         21   -1    0    0  502  501  0.00000000000E+00  0.00000000000E+00  0.12885586283E+04  0.12885586283E+04  0.00000000000E+00 0. -1.
         21   -1    0    0  501  502 -0.00000000000E+00 -0.00000000000E+00 -0.84621232823E+02  0.84621232823E+02  0.00000000000E+00 0. -1.
         25    1    1    2    0    0  0.66281415920E+01 -0.94823135720E+02  0.13018026058E+03  0.20397857626E+03  0.12500000000E+03 0.  0.
         25    1    1    2    0    0  0.13028587736E+03  0.15292001123E+03  0.79468874820E+03  0.82916472802E+03  0.12500000000E+03 0.  0.
         25    1    1    2    0    0 -0.13691401895E+03 -0.58096875512E+02  0.27906838666E+03  0.34003655680E+03  0.12500000000E+03 0.  0.
</event>
<event>
 5    0  0.5815084E-005  0.3728505E+03  0.7546771E-02  0.1053608E+00
         21   -1    0    0  502  501  0.00000000000E+00  0.00000000000E+00  0.13317703883E+04  0.13317703883E+04  0.00000000000E+00 0. -1.
         21   -1    0    0  501  502 -0.00000000000E+00 -0.00000000000E+00 -0.10438549239E+03  0.10438549239E+03  0.00000000000E+00 0. -1.
         25    1    1    2    0    0 -0.10702829357E+03  0.15561227130E+03  0.80378725892E+03  0.83508633817E+03  0.12500000000E+03 0.  0.
         25    1    1    2    0    0 -0.95946750960E+01  0.58288573603E+02  0.73414065442E+02  0.15653830396E+03  0.12500000000E+03 0.  0.
         25    1    1    2    0    0  0.11662296867E+03 -0.21390084490E+03  0.35018357158E+03  0.44453123858E+03  0.12500000000E+03 0.  0.
</event>
<event>
 5    0  0.5815084E-005  0.3614578E+03  0.7546771E-02  0.1058008E+00
         21   -1    0    0  502  501  0.00000000000E+00  0.00000000000E+00  0.22390599544E+03  0.22390599544E+03  0.00000000000E+00 0.  1.
         21   -1    0    0  501  502 -0.00000000000E+00 -0.00000000000E+00 -0.58351167946E+03  0.58351167946E+03  0.00000000000E+00 0.  1.
         25    1    1    2    0    0  0.18749457078E+03 -0.15736767073E+02 -0.14093044416E+03  0.26624847418E+03  0.12500000000E+03 0.  0.
         25    1    1    2    0    0  0.40499731308E+02 -0.81822010635E+02  0.41887840149E+02  0.16035791472E+03  0.12500000000E+03 0.  0.
         25    1    1    2    0    0 -0.22799430209E+03  0.97558777708E+02 -0.26056308000E+03  0.38081128601E+03  0.12500000000E+03 0.  0.
</event>
<event>
 5    0  0.5815084E-005  0.4962095E+03  0.7546771E-02  0.1014773E+00
         21   -1    0    0  502  501  0.00000000000E+00  0.00000000000E+00  0.22695397875E+03  0.22695397875E+03  0.00000000000E+00 0.  1.
         21   -1    0    0  501  502 -0.00000000000E+00 -0.00000000000E+00 -0.10849064057E+04  0.10849064057E+04  0.00000000000E+00 0.  1.
         25    1    1    2    0    0 -0.70887255438E+02  0.86859654436E+02 -0.51981050374E+03  0.54625778013E+03  0.12500000000E+03 0.  0.
         25    1    1    2    0    0 -0.82590463150E+02  0.16294106536E+03  0.83915779106E+02  0.23672311540E+03  0.12500000000E+03 0.  0.
         25    1    1    2    0    0  0.15347771859E+03 -0.24980071979E+03 -0.42205770228E+03  0.52887948889E+03  0.12500000000E+03 0.  0.
</event>
<event>
 5    0  0.5815084E-005  0.2960133E+03  0.7546771E-02  0.1087251E+00
         21   -1    0    0  502  501  0.00000000000E+00  0.00000000000E+00  0.54045365796E+02  0.54045365796E+02  0.00000000000E+00 0.  1.
         21   -1    0    0  501  502 -0.00000000000E+00 -0.00000000000E+00 -0.16213027391E+04  0.16213027391E+04  0.00000000000E+00 0.  1.
         25    1    1    2    0    0  0.60394487429E+02  0.14712827816E+02 -0.55730647931E+03  0.57452543312E+03  0.12500000000E+03 0.  0.
         25    1    1    2    0    0 -0.67791882874E+02 -0.11758850858E+03 -0.18941013911E+03  0.26443146093E+03  0.12500000000E+03 0.  0.
         25    1    1    2    0    0  0.73973954444E+01  0.10287568077E+03 -0.82054075489E+03  0.83639121085E+03  0.12500000000E+03 0.  0.
</event>
<event>
 5    0  0.5815084E-005  0.2137349E+03  0.7546771E-02  0.1138642E+00
         21   -1    0    0  502  501  0.00000000000E+00  0.00000000000E+00  0.93251745823E+02  0.93251745823E+02  0.00000000000E+00 0. -1.
         21   -1    0    0  501  502 -0.00000000000E+00 -0.00000000000E+00 -0.48988482374E+03  0.48988482374E+03  0.00000000000E+00 0. -1.
         25    1    1    2    0    0 -0.23007722175E+01  0.56116361927E+01 -0.12583938131E+03  0.17747488245E+03  0.12500000000E+03 0.  0.
         25    1    1    2    0    0 -0.61515171232E+01  0.81222359877E+02 -0.14455741852E+03  0.20774205197E+03  0.12500000000E+03 0.  0.
         25    1    1    2    0    0  0.84522893407E+01 -0.86833996069E+02 -0.12623627809E+03  0.19791963514E+03  0.12500000000E+03 0.  0.
</event>
<event>
 5    0  0.5815084E-005  0.5118490E+03  0.7546771E-02  0.1010732E+00
         21   -1    0    0  502  501  0.00000000000E+00  0.00000000000E+00  0.17677156623E+03  0.17677156623E+03  0.00000000000E+00 0. -1.
         21   -1    0    0  501  502 -0.00000000000E+00 -0.00000000000E+00 -0.14820787312E+04  0.14820787312E+04  0.00000000000E+00 0. -1.
         25    1    1    2    0    0  0.90264876257E+02 -0.43043014065E+02 -0.56565952531E+03  0.58787426165E+03  0.12500000000E+03 0.  0.
         25    1    1    2    0    0 -0.22435195264E+03 -0.79426875141E+02  0.29889030936E+02  0.27048249725E+03  0.12500000000E+03 0.  0.
         25    1    1    2    0    0  0.13408707638E+03  0.12246988921E+03 -0.76953667060E+03  0.80049353852E+03  0.12500000000E+03 0.  0.
</event>
<event>
 5    0  0.5815084E-005  0.2728365E+03  0.7546771E-02  0.1099667E+00
         21   -1    0    0  502  501  0.00000000000E+00  0.00000000000E+00  0.15448655250E+04  0.15448655250E+04  0.00000000000E+00 0.  1.
         21   -1    0    0  501  502 -0.00000000000E+00 -0.00000000000E+00 -0.48185250769E+02  0.48185250769E+02  0.00000000000E+00 0.  1.
         25    1    1    2    0    0 -0.49763169226E+02 -0.15635968239E+03  0.60004114310E+03  0.63450697136E+03  0.12500000000E+03 0.  0.
         25    1    1    2    0    0  0.71539679770E+02  0.44541597390E+02  0.58341462977E+03  0.60257738914E+03  0.12500000000E+03 0.  0.
         25    1    1    2    0    0 -0.21776510544E+02  0.11181808500E+03  0.31322450135E+03  0.35596641525E+03  0.12500000000E+03 0.  0.
</event>
<event>
 5    0  0.5815084E-005  0.4452073E+03  0.7546771E-02  0.1029161E+00
         21   -1    0    0  502  501  0.00000000000E+00  0.00000000000E+00  0.92496494207E+03  0.92496494207E+03  0.00000000000E+00 0. -1.
         21   -1    0    0  501  502 -0.00000000000E+00 -0.00000000000E+00 -0.21428870635E+03  0.21428870635E+03  0.00000000000E+00 0. -1.
         25    1    1    2    0    0  0.10356742060E+03 -0.52491958109E+02  0.15015614418E+03  0.22727402824E+03  0.12500000000E+03 0.  0.
         25    1    1    2    0    0 -0.26735238680E+03  0.28138416750E+03  0.36439835494E+03  0.54686882297E+03  0.12500000000E+03 0.  0.
         25    1    1    2    0    0  0.16378496620E+03 -0.22889220939E+03  0.19612173660E+03  0.36511079721E+03  0.12500000000E+03 0.  0.
</event>
<event>
 5    0  0.5901822E-005  0.3203991E+03  0.7546771E-02  0.1075466E+00
         21   -1    0    0  502  501  0.00000000000E+00  0.00000000000E+00  0.52311180800E+03  0.52311180800E+03  0.00000000000E+00 0.  1.
         21   -1    0    0  501  502 -0.00000000000E+00 -0.00000000000E+00 -0.19624019388E+03  0.19624019388E+03  0.00000000000E+00 0.  1.
         25    1    1    2    0    0 -0.34821199340E+02  0.91383139914E+02 -0.12579986260E+02  0.15920631344E+03  0.12500000000E+03 0.  0.
         25    1    1    2    0    0 -0.12333197141E+03 -0.82856534367E+02  0.29560140319E+03  0.35366816372E+03  0.12500000000E+03 0.  0.
         25    1    1    2    0    0  0.15815317075E+03 -0.85266055466E+01  0.43850197186E+02  0.20647752472E+03  0.12500000000E+03 0.  0.
</event>
<event>
 5    0  0.5815084E-005  0.2859569E+03  0.7546771E-02  0.1092479E+00
         21   -1    0    0  502  501  0.00000000000E+00  0.00000000000E+00  0.55972975870E+03  0.55972975870E+03  0.00000000000E+00 0. -1.
         21   -1    0    0  501  502 -0.00000000000E+00 -0.00000000000E+00 -0.14609072301E+03  0.14609072301E+03  0.00000000000E+00 0. -1.
         25    1    1    2    0    0 -0.12093842789E+03  0.20105570833E+02  0.62061573971E+01  0.17519661443E+03  0.12500000000E+03 0.  0.
         25    1    1    2    0    0  0.13815361630E+03  0.86132352638E+00  0.33579574405E+03  0.38401945953E+03  0.12500000000E+03 0.  0.
         25    1    1    2    0    0 -0.17215188409E+02 -0.20966894359E+02  0.71637134234E+02  0.14660440775E+03  0.12500000000E+03 0.  0.
</event>
<event>
 5    0  0.5815084E-005  0.3950175E+03  0.7546771E-02  0.1045519E+00
         21   -1    0    0  502  501  0.00000000000E+00  0.00000000000E+00  0.74882833852E+03  0.74882833852E+03  0.00000000000E+00 0. -1.
         21   -1    0    0  501  502 -0.00000000000E+00 -0.00000000000E+00 -0.20837724791E+03  0.20837724791E+03  0.00000000000E+00 0. -1.
         25    1    1    2    0    0 -0.40345724439E+02  0.41454842958E+02 -0.44536039474E+02  0.14475752242E+03  0.12500000000E+03 0.  0.
         25    1    1    2    0    0  0.42640300692E+02 -0.26929777415E+03  0.26517348496E+03  0.40035167482E+03  0.12500000000E+03 0.  0.
         25    1    1    2    0    0 -0.22945762538E+01  0.22784293119E+03  0.31981364512E+03  0.41209638919E+03  0.12500000000E+03 0.  0.
</event>
<event>
 5    0  0.5815084E-005  0.3170106E+03  0.7546771E-02  0.1077033E+00
         21   -1    0    0  502  501  0.00000000000E+00  0.00000000000E+00  0.11127935715E+04  0.11127935715E+04  0.00000000000E+00 0.  1.
         21   -1    0    0  501  502 -0.00000000000E+00 -0.00000000000E+00 -0.90309379083E+02  0.90309379083E+02  0.00000000000E+00 0.  1.
         25    1    1    2    0    0 -0.41920543545E+02  0.99365856763E+01  0.57573460525E+03  0.59072108765E+03  0.12500000000E+03 0.  0.
         25    1    1    2    0    0  0.46760196782E+02  0.12293410300E+03  0.37443699806E+03  0.41608577866E+03  0.12500000000E+03 0.  0.
         25    1    1    2    0    0 -0.48396532362E+01 -0.13287068867E+03  0.72312589070E+02  0.19629608425E+03  0.12500000000E+03 0.  0.
</event>
<event>
 5    0  0.5815084E-005  0.3524540E+03  0.7546771E-02  0.1061612E+00
         21   -1    0    0  502  501  0.00000000000E+00  0.00000000000E+00  0.43485777217E+02  0.43485777217E+02  0.00000000000E+00 0.  1.
         21   -1    0    0  501  502 -0.00000000000E+00 -0.00000000000E+00 -0.28566533086E+04  0.28566533086E+04  0.00000000000E+00 0.  1.
         25    1    1    2    0    0  0.18438665097E+02 -0.14183195622E+03 -0.72304071359E+03  0.74757552239E+03  0.12500000000E+03 0.  0.
         25    1    1    2    0    0 -0.10173940557E+03  0.24766398687E+03 -0.87318346731E+03  0.92182575610E+03  0.12500000000E+03 0.  0.
         25    1    1    2    0    0  0.83300740469E+02 -0.10583203065E+03 -0.12169433505E+04  0.12307378074E+04  0.12500000000E+03 0.  0.
</event>
<event>
 5    0  0.5815084E-005  0.3032409E+03  0.7546771E-02  0.1083632E+00
         21   -1    0    0  502  501  0.00000000000E+00  0.00000000000E+00  0.10168279849E+04  0.10168279849E+04  0.00000000000E+00 0. -1.
         21   -1    0    0  501  502 -0.00000000000E+00 -0.00000000000E+00 -0.90433232410E+02  0.90433232410E+02  0.00000000000E+00 0. -1.
         25    1    1    2    0    0 -0.23267798708E+02  0.74731810043E+02  0.53198420314E+03  0.55204929696E+03  0.12500000000E+03 0.  0.
         25    1    1    2    0    0  0.12975838091E+03  0.23633488621E+02  0.11010137069E+03  0.21246903546E+03  0.12500000000E+03 0.  0.
         25    1    1    2    0    0 -0.10649058220E+03 -0.98365298663E+02  0.28430917871E+03  0.34274288494E+03  0.12500000000E+03 0.  0.
</event>
<event>
 5    0  0.5815084E-005  0.3826612E+03  0.7546771E-02  0.1049955E+00
         21   -1    0    0  502  501  0.00000000000E+00  0.00000000000E+00  0.20121965861E+03  0.20121965861E+03  0.00000000000E+00 0.  1.
         21   -1    0    0  501  502 -0.00000000000E+00 -0.00000000000E+00 -0.72771020631E+03  0.72771020631E+03  0.00000000000E+00 0.  1.
         25    1    1    2    0    0  0.61047997644E+02 -0.20162618630E+03 -0.42172083461E+02  0.24856279215E+03  0.12500000000E+03 0.  0.
         25    1    1    2    0    0  0.40924130580E+02  0.18541376407E+03 -0.46435296943E+03  0.51701230990E+03  0.12500000000E+03 0.  0.
         25    1    1    2    0    0 -0.10197212822E+03  0.16212422235E+02 -0.19965494812E+02  0.16335476287E+03  0.12500000000E+03 0.  0.
</event>
<event>
 5    0  0.5815084E-005  0.2802029E+03  0.7546771E-02  0.1095578E+00
         21   -1    0    0  502  501  0.00000000000E+00  0.00000000000E+00  0.17192816256E+03  0.17192816256E+03  0.00000000000E+00 0. -1.
         21   -1    0    0  501  502 -0.00000000000E+00 -0.00000000000E+00 -0.45666561333E+03  0.45666561333E+03  0.00000000000E+00 0. -1.
         25    1    1    2    0    0 -0.16509144003E+03  0.12382877196E+02 -0.41082679261E+02  0.21147412550E+03  0.12500000000E+03 0.  0.
         25    1    1    2    0    0  0.13602724070E+03 -0.34970228974E+02 -0.71378076840E+02  0.20111229943E+03  0.12500000000E+03 0.  0.
         25    1    1    2    0    0  0.29064199328E+02  0.22587351778E+02 -0.17227669467E+03  0.21600735096E+03  0.12500000000E+03 0.  0.
</event>
<event>
 5    0  0.5815084E-005  0.2668279E+03  0.7546771E-02  0.1103109E+00
         21   -1    0    0  502  501  0.00000000000E+00  0.00000000000E+00  0.10415835010E+03  0.10415835010E+03  0.00000000000E+00 0.  1.
         21   -1    0    0  501  502 -0.00000000000E+00 -0.00000000000E+00 -0.68354696620E+03  0.68354696620E+03  0.00000000000E+00 0.  1.
         25    1    1    2    0    0 -0.92116859666E+02 -0.35920517516E+02 -0.36758172353E+03  0.40064588215E+03  0.12500000000E+03 0.  0.
         25    1    1    2    0    0 -0.38007954099E+02  0.55317206017E+02 -0.81211273891E+02  0.16347742616E+03  0.12500000000E+03 0.  0.
         25    1    1    2    0    0  0.13012481377E+03 -0.19396688501E+02 -0.13059561868E+03  0.22358200800E+03  0.12500000000E+03 0.  0.
</event>
<event>
 5    0  0.5815084E-005  0.2791112E+03  0.7546771E-02  0.1096175E+00
         21   -1    0    0  502  501  0.00000000000E+00  0.00000000000E+00  0.17717019562E+03  0.17717019562E+03  0.00000000000E+00 0.  1.
         21   -1    0    0  501  502 -0.00000000000E+00 -0.00000000000E+00 -0.43970753139E+03  0.43970753139E+03  0.00000000000E+00 0.  1.
         25    1    1    2    0    0  0.92262879269E+02  0.35484491999E+02 -0.16226726647E+03  0.22743626323E+03  0.12500000000E+03 0.  0.
         25    1    1    2    0    0  0.36408071943E+02  0.49363438114E+02 -0.12792079993E+03  0.18907942188E+03  0.12500000000E+03 0.  0.
         25    1    1    2    0    0 -0.12867095121E+03 -0.84847930113E+02  0.27650730631E+02  0.20036204190E+03  0.12500000000E+03 0.  0.
</event>
<event>
 5    0  0.5815084E-005  0.2918607E+03  0.7546771E-02  0.1089382E+00
         21   -1    0    0  502  501  0.00000000000E+00  0.00000000000E+00  0.23519654216E+03  0.23519654216E+03  0.00000000000E+00 0. -1.
         21   -1    0    0  501  502 -0.00000000000E+00 -0.00000000000E+00 -0.36217646599E+03  0.36217646599E+03  0.00000000000E+00 0. -1.
         25    1    1    2    0    0 -0.81228861423E+02  0.58128841923E+02 -0.81070331823E+00  0.16000858549E+03  0.12500000000E+03 0.  0.
         25    1    1    2    0    0 -0.42639595816E+02 -0.82850188144E+02 -0.19246950235E+03  0.24769295134E+03  0.12500000000E+03 0.  0.
         25    1    1    2    0    0  0.12386845724E+03  0.24721346220E+02  0.66300281842E+02  0.18967147131E+03  0.12500000000E+03 0.  0.
</event>
<event>
 5    0  0.5815084E-005  0.2745000E+03  0.7546771E-02  0.1098731E+00
         21   -1    0    0  502  501  0.00000000000E+00  0.00000000000E+00  0.12160730655E+04  0.12160730655E+04  0.00000000000E+00 0.  1.
         21   -1    0    0  501  502 -0.00000000000E+00 -0.00000000000E+00 -0.61961931859E+02  0.61961931859E+02  0.00000000000E+00 0.  1.
         25    1    1    2    0    0 -0.31516821630E+01 -0.14710934156E+03  0.30755520448E+03  0.36313399080E+03  0.12500000000E+03 0.  0.
         25    1    1    2    0    0 -0.51734923512E+02  0.92942227243E+02  0.23959726312E+03  0.29042487568E+03  0.12500000000E+03 0.  0.
         25    1    1    2    0    0  0.54886605675E+02  0.54167114318E+02  0.60695866601E+03  0.62447613085E+03  0.12500000000E+03 0.  0.
</event>
<event>
 5    0  0.5815084E-005  0.3394052E+03  0.7546771E-02  0.1067050E+00
         21   -1    0    0  502  501  0.00000000000E+00  0.00000000000E+00  0.90070483897E+03  0.90070483897E+03  0.00000000000E+00 0.  1.
         21   -1    0    0  501  502 -0.00000000000E+00 -0.00000000000E+00 -0.12789524676E+03  0.12789524676E+03  0.00000000000E+00 0.  1.
         25    1    1    2    0    0 -0.58832351807E+01  0.77230316365E+02  0.23555460272E+03  0.27768706323E+03  0.12500000000E+03 0.  0.
         25    1    1    2    0    0 -0.20774904729E+03 -0.72418771333E+02  0.38360438797E+03  0.45954485261E+03  0.12500000000E+03 0.  0.
         25    1    1    2    0    0  0.21363228247E+03 -0.48115450323E+01  0.15365060153E+03  0.29136816990E+03  0.12500000000E+03 0.  0.
</event>
<event>
 5    0  0.5815084E-005  0.2699413E+03  0.7546771E-02  0.1101313E+00
         21   -1    0    0  502  501  0.00000000000E+00  0.00000000000E+00  0.22142883089E+03  0.22142883089E+03  0.00000000000E+00 0.  1.
         21   -1    0    0  501  502 -0.00000000000E+00 -0.00000000000E+00 -0.32908228026E+03  0.32908228026E+03  0.00000000000E+00 0.  1.
         25    1    1    2    0    0  0.14677045987E+02 -0.53596910321E+02  0.14831214788E+02  0.13759727253E+03  0.12500000000E+03 0.  0.
         25    1    1    2    0    0  0.73847797205E+02  0.32486615104E+02 -0.19240875307E+03  0.24321802066E+03  0.12500000000E+03 0.  0.
         25    1    1    2    0    0 -0.88524843192E+02  0.21110295217E+02  0.69924088910E+02  0.16969581797E+03  0.12500000000E+03 0.  0.
</event>
<event>
 5    0  0.5815084E-005  0.4322217E+03  0.7546771E-02  0.1033160E+00
         21   -1    0    0  502  501  0.00000000000E+00  0.00000000000E+00  0.64314881900E+03  0.64314881900E+03  0.00000000000E+00 0. -1.
         21   -1    0    0  501  502 -0.00000000000E+00 -0.00000000000E+00 -0.29047019283E+03  0.29047019283E+03  0.00000000000E+00 0. -1.
         25    1    1    2    0    0 -0.20033127909E+02  0.33916636201E+03  0.25471004335E+03  0.44264811478E+03  0.12500000000E+03 0.  0.
         25    1    1    2    0    0  0.64446992211E+02 -0.31480411068E+03  0.53257983663E+02  0.34887885538E+03  0.12500000000E+03 0.  0.
         25    1    1    2    0    0 -0.44413864302E+02 -0.24362251326E+02  0.44710599156E+02  0.14209204168E+03  0.12500000000E+03 0.  0.
</event>
<event>
 5    0  0.5815084E-005  0.4922453E+03  0.7546771E-02  0.1015823E+00
         21   -1    0    0  502  501  0.00000000000E+00  0.00000000000E+00  0.22558532252E+03  0.22558532252E+03  0.00000000000E+00 0. -1.
         21   -1    0    0  501  502 -0.00000000000E+00 -0.00000000000E+00 -0.10741186922E+04  0.10741186922E+04  0.00000000000E+00 0. -1.
         25    1    1    2    0    0 -0.73055041332E+01  0.62624313167E+02  0.86577875734E+02  0.16460833380E+03  0.12500000000E+03 0.  0.
         25    1    1    2    0    0  0.95793226788E+01  0.18649202997E+03 -0.84656611221E+02  0.24013076123E+03  0.12500000000E+03 0.  0.
         25    1    1    2    0    0 -0.22738185456E+01 -0.24911634313E+03 -0.85045463421E+03  0.89496491972E+03  0.12500000000E+03 0.  0.
</event>
<event>
 5    0  0.5815084E-005  0.2372230E+03  0.7546771E-02  0.1121657E+00
         21   -1    0    0  502  501  0.00000000000E+00  0.00000000000E+00  0.33913838189E+03  0.33913838189E+03  0.00000000000E+00 0. -1.
         21   -1    0    0  501  502 -0.00000000000E+00 -0.00000000000E+00 -0.16593446959E+03  0.16593446959E+03  0.00000000000E+00 0. -1.
         25    1    1    2    0    0  0.10813628127E+02 -0.17115126636E+02  0.42241928742E+02  0.13348873607E+03  0.12500000000E+03 0.  0.
         25    1    1    2    0    0 -0.32276736594E+02  0.14285889261E+02 -0.59398199815E+02  0.14282513959E+03  0.12500000000E+03 0.  0.
         25    1    1    2    0    0  0.21463108466E+02  0.28292373759E+01  0.19036018337E+03  0.22875897583E+03  0.12500000000E+03 0.  0.
</event>
<event>
 5    0  0.5815084E-005  0.2773604E+03  0.7546771E-02  0.1097139E+00
         21   -1    0    0  502  501  0.00000000000E+00  0.00000000000E+00  0.84988631726E+02  0.84988631726E+02  0.00000000000E+00 0.  1.
         21   -1    0    0  501  502 -0.00000000000E+00 -0.00000000000E+00 -0.90516564287E+03  0.90516564287E+03  0.00000000000E+00 0.  1.
         25    1    1    2    0    0  0.47965811326E+02  0.29684762586E+02 -0.55021024796E+03  0.56704340322E+03  0.12500000000E+03 0.  0.
         25    1    1    2    0    0  0.34595603702E+01  0.46589758792E+01 -0.68525619749E+01  0.12532211385E+03  0.12500000000E+03 0.  0.
         25    1    1    2    0    0 -0.51425371696E+02 -0.34343738466E+02 -0.26311420122E+03  0.29778875753E+03  0.12500000000E+03 0.  0.
</event>
<event>
 5    0  0.5815084E-005  0.2625476E+03  0.7546771E-02  0.1105622E+00
         21   -1    0    0  502  501  0.00000000000E+00  0.00000000000E+00  0.16132447513E+03  0.16132447513E+03  0.00000000000E+00 0.  1.
         21   -1    0    0  501  502 -0.00000000000E+00 -0.00000000000E+00 -0.42728325547E+03  0.42728325547E+03  0.00000000000E+00 0.  1.
         25    1    1    2    0    0  0.63910166761E+02  0.12520864704E+03 -0.12810036558E+03  0.22758826501E+03  0.12500000000E+03 0.  0.
         25    1    1    2    0    0 -0.59925408026E+02 -0.84144517135E+02  0.10723576076E+02  0.16251568963E+03  0.12500000000E+03 0.  0.
         25    1    1    2    0    0 -0.39847587344E+01 -0.41064129905E+02 -0.14858199084E+03  0.19850377596E+03  0.12500000000E+03 0.  0.
</event>
<event>
 5    0  0.5815084E-005  0.2829287E+03  0.7546771E-02  0.1094100E+00
         21   -1    0    0  502  501  0.00000000000E+00  0.00000000000E+00  0.23698757323E+03  0.23698757323E+03  0.00000000000E+00 0.  1.
         21   -1    0    0  501  502 -0.00000000000E+00 -0.00000000000E+00 -0.33777569377E+03  0.33777569377E+03  0.00000000000E+00 0.  1.
         25    1    1    2    0    0  0.21047151166E+02  0.16757439834E+02 -0.28918742009E+02  0.13109190670E+03  0.12500000000E+03 0.  0.
         25    1    1    2    0    0 -0.15775256578E+03 -0.91927252527E+02 -0.98108518291E+02  0.24204704734E+03  0.12500000000E+03 0.  0.
         25    1    1    2    0    0  0.13670541461E+03  0.75169812693E+02  0.26239139757E+02  0.20162431297E+03  0.12500000000E+03 0.  0.
</event>
<event>
 5    0  0.5815084E-005  0.2748841E+03  0.7546771E-02  0.1098516E+00
         21   -1    0    0  502  501  0.00000000000E+00  0.00000000000E+00  0.27522599930E+03  0.27522599930E+03  0.00000000000E+00 0.  1.
         21   -1    0    0  501  502 -0.00000000000E+00 -0.00000000000E+00 -0.27454264528E+03  0.27454264528E+03  0.00000000000E+00 0.  1.
         25    1    1    2    0    0 -0.14360904484E+03  0.29256506199E+02 -0.35305821389E+02  0.19583411842E+03  0.12500000000E+03 0.  0.
         25    1    1    2    0    0  0.12123610384E+03  0.65990869952E+00  0.10800849840E+03  0.20491330869E+03  0.12500000000E+03 0.  0.
         25    1    1    2    0    0  0.22372941001E+02 -0.29916414899E+02 -0.72019322995E+02  0.14902121746E+03  0.12500000000E+03 0.  0.
</event>
<event>
 5    0  0.5815084E-005  0.2172345E+03  0.7546771E-02  0.1135962E+00
         21   -1    0    0  502  501  0.00000000000E+00  0.00000000000E+00  0.58620909618E+02  0.58620909618E+02  0.00000000000E+00 0. -1.
         21   -1    0    0  501  502 -0.00000000000E+00 -0.00000000000E+00 -0.80501684013E+03  0.80501684013E+03  0.00000000000E+00 0. -1.
         25    1    1    2    0    0 -0.33329037473E+02 -0.67244995411E+01 -0.13871309690E+03  0.18979559238E+03  0.12500000000E+03 0.  0.
         25    1    1    2    0    0 -0.32514664542E+02 -0.50590067970E+02 -0.28917469215E+03  0.32072349613E+03  0.12500000000E+03 0.  0.
         25    1    1    2    0    0  0.65843702016E+02  0.57314567511E+02 -0.31850814146E+03  0.35311866124E+03  0.12500000000E+03 0.  0.
</event>
<event>
 5    0  0.6645978E-005  0.3570676E+03  0.7546771E-02  0.1059751E+00
         21   -1    0    0  502  501  0.00000000000E+00  0.00000000000E+00  0.44011576279E+03  0.44011576279E+03  0.00000000000E+00 0. -1.
         21   -1    0    0  501  502 -0.00000000000E+00 -0.00000000000E+00 -0.28969029771E+03  0.28969029771E+03  0.00000000000E+00 0. -1.
         25    1    1    2    0    0 -0.13862747536E+03 -0.43369330460E+02  0.22248631730E+03  0.29363861656E+03  0.12500000000E+03 0.  0.
         25    1    1    2    0    0  0.53593554570E+02 -0.12607704290E+03 -0.94199377552E+02  0.20800531861E+03  0.12500000000E+03 0.  0.
         25    1    1    2    0    0  0.85033920787E+02  0.16944637336E+03  0.22138525331E+02  0.22816212533E+03  0.12500000000E+03 0.  0.
</event>
<event>
 5    0  0.5815084E-005  0.2540740E+03  0.7546771E-02  0.1110757E+00
         21   -1    0    0  502  501  0.00000000000E+00  0.00000000000E+00  0.15856038635E+03  0.15856038635E+03  0.00000000000E+00 0.  1.
         21   -1    0    0  501  502 -0.00000000000E+00 -0.00000000000E+00 -0.40712309736E+03  0.40712309736E+03  0.00000000000E+00 0.  1.
         25    1    1    2    0    0  0.60942003995E+02 -0.88237881868E+02 -0.12047889746E+03  0.20405885519E+03  0.12500000000E+03 0.  0.
         25    1    1    2    0    0 -0.96521761598E+02  0.48147045182E+02  0.13053120947E+02  0.16561996374E+03  0.12500000000E+03 0.  0.
         25    1    1    2    0    0  0.35579757602E+02  0.40090836686E+02 -0.14113693450E+03  0.19600466479E+03  0.12500000000E+03 0.  0.
</event>
<event>
 5    0  0.5815084E-005  0.2970914E+03  0.7546771E-02  0.1086704E+00
         21   -1    0    0  502  501  0.00000000000E+00  0.00000000000E+00  0.12017372456E+03  0.12017372456E+03  0.00000000000E+00 0. -1.
         21   -1    0    0  501  502 -0.00000000000E+00 -0.00000000000E+00 -0.73446401898E+03  0.73446401898E+03  0.00000000000E+00 0. -1.
         25    1    1    2    0    0 -0.85000743708E+02  0.19016584713E+03 -0.29812333011E+03  0.38456559362E+03  0.12500000000E+03 0.  0.
         25    1    1    2    0    0  0.42506961300E+02 -0.76245128894E+02 -0.68429802602E+02  0.16711612526E+03  0.12500000000E+03 0.  0.
         25    1    1    2    0    0  0.42493782408E+02 -0.11392071823E+03 -0.24773716170E+03  0.30295602465E+03  0.12500000000E+03 0.  0.
</event>
<event>
 5    0  0.5815084E-005  0.2471296E+03  0.7546771E-02  0.1115132E+00
         21   -1    0    0  502  501  0.00000000000E+00  0.00000000000E+00  0.81905325285E+02  0.81905325285E+02  0.00000000000E+00 0. -1.
         21   -1    0    0  501  502 -0.00000000000E+00 -0.00000000000E+00 -0.74565382401E+03  0.74565382401E+03  0.00000000000E+00 0. -1.
         25    1    1    2    0    0 -0.49956870956E+02  0.10142630803E+03 -0.32011535390E+03  0.36177593165E+03  0.12500000000E+03 0.  0.
         25    1    1    2    0    0  0.92677014235E+02 -0.92467868144E+02 -0.17972408988E+03  0.25507858415E+03  0.12500000000E+03 0.  0.
         25    1    1    2    0    0 -0.42720143279E+02 -0.89584398813E+01 -0.16390905494E+03  0.21070463350E+03  0.12500000000E+03 0.  0.
</event>
<event>
 5    0  0.5815084E-005  0.2282553E+03  0.7546771E-02  0.1127874E+00
         21   -1    0    0  502  501  0.00000000000E+00  0.00000000000E+00  0.72455601782E+03  0.72455601782E+03  0.00000000000E+00 0.  1.
         21   -1    0    0  501  502 -0.00000000000E+00 -0.00000000000E+00 -0.71906737577E+02  0.71906737577E+02  0.00000000000E+00 0.  1.
         25    1    1    2    0    0 -0.36491367759E+01  0.89111501404E+02  0.10362169174E+03  0.18524748549E+03  0.12500000000E+03 0.  0.
         25    1    1    2    0    0  0.69823009210E+01 -0.64627725313E+02  0.30273932028E+03  0.33391854014E+03  0.12500000000E+03 0.  0.
         25    1    1    2    0    0 -0.33331641451E+01 -0.24483776091E+02  0.24628826822E+03  0.27729672976E+03  0.12500000000E+03 0.  0.
</event>
<event>
 5    0  0.5815084E-005  0.2693792E+03  0.7546771E-02  0.1101635E+00
         21   -1    0    0  502  501  0.00000000000E+00  0.00000000000E+00  0.35748273847E+02  0.35748273847E+02  0.00000000000E+00 0. -1.
         21   -1    0    0  501  502 -0.00000000000E+00 -0.00000000000E+00 -0.20298924389E+04  0.20298924389E+04  0.00000000000E+00 0. -1.
         25    1    1    2    0    0 -0.51042959094E+02 -0.74364621523E+02 -0.44772818144E+03  0.47351980430E+03  0.12500000000E+03 0.  0.
         25    1    1    2    0    0  0.14386063765E+03  0.10248801998E+03 -0.10066866141E+04  0.10296808323E+04  0.12500000000E+03 0.  0.
         25    1    1    2    0    0 -0.92817678553E+02 -0.28123398456E+02 -0.53972936944E+03  0.56244007613E+03  0.12500000000E+03 0.  0.
</event>
<event>
 5    0  0.5815084E-005  0.3231309E+03  0.7546771E-02  0.1074217E+00
         21   -1    0    0  502  501  0.00000000000E+00  0.00000000000E+00  0.72145054232E+03  0.72145054232E+03  0.00000000000E+00 0. -1.
         21   -1    0    0  501  502 -0.00000000000E+00 -0.00000000000E+00 -0.14472726167E+03  0.14472726167E+03  0.00000000000E+00 0. -1.
         25    1    1    2    0    0 -0.55016714508E+02 -0.20148822721E+02  0.32698255403E+03  0.35493014041E+03  0.12500000000E+03 0.  0.
         25    1    1    2    0    0 -0.27804404356E+02  0.97757554736E+02 -0.48745101644E+02  0.16831728772E+03  0.12500000000E+03 0.  0.
         25    1    1    2    0    0  0.82821118865E+02 -0.77608732015E+02  0.29848582826E+03  0.34293037586E+03  0.12500000000E+03 0.  0.
</event>
<event>
 5    0  0.5815084E-005  0.3910297E+03  0.7546771E-02  0.1046931E+00
         21   -1    0    0  502  501  0.00000000000E+00  0.00000000000E+00  0.51447039275E+03  0.51447039275E+03  0.00000000000E+00 0.  1.
         21   -1    0    0  501  502 -0.00000000000E+00 -0.00000000000E+00 -0.29720707545E+03  0.29720707545E+03  0.00000000000E+00 0.  1.
         25    1    1    2    0    0  0.15169207916E+03 -0.24971517285E+03  0.74021090485E+02  0.32630089835E+03  0.12500000000E+03 0.  0.
         25    1    1    2    0    0 -0.70215411159E+02  0.26103506268E+03  0.15414185337E+03  0.33534194320E+03  0.12500000000E+03 0.  0.
         25    1    1    2    0    0 -0.81476667999E+02 -0.11319889825E+02 -0.10899626550E+02  0.15003462665E+03  0.12500000000E+03 0.  0.
</event>
<event>
 5    0  0.5815084E-005  0.2479041E+03  0.7546771E-02  0.1114637E+00
         21   -1    0    0  502  501  0.00000000000E+00  0.00000000000E+00  0.96973264454E+02  0.96973264454E+02  0.00000000000E+00 0.  1.
         21   -1    0    0  501  502 -0.00000000000E+00 -0.00000000000E+00 -0.63374633186E+03  0.63374633186E+03  0.00000000000E+00 0.  1.
         25    1    1    2    0    0  0.60573893789E+02  0.86899266726E+02 -0.15499349567E+03  0.22554082306E+03  0.12500000000E+03 0.  0.
         25    1    1    2    0    0 -0.55950436493E+02 -0.12571520843E+03 -0.14965610924E+03  0.23865606216E+03  0.12500000000E+03 0.  0.
         25    1    1    2    0    0 -0.46234572963E+01  0.38815941699E+02 -0.23212346251E+03  0.26652271110E+03  0.12500000000E+03 0.  0.
</event>
<event>
 5    0  0.5815084E-005  0.4252123E+03  0.7546771E-02  0.1035383E+00
         21   -1    0    0  502  501  0.00000000000E+00  0.00000000000E+00  0.28413016895E+03  0.28413016895E+03  0.00000000000E+00 0. -1.
         21   -1    0    0  501  502 -0.00000000000E+00 -0.00000000000E+00 -0.63634729448E+03  0.63634729448E+03  0.00000000000E+00 0. -1.
         25    1    1    2    0    0  0.35456877208E+01  0.36066805570E+03 -0.23043512098E+03  0.44589164971E+03  0.12500000000E+03 0.  0.
         25    1    1    2    0    0  0.41162930577E+02 -0.25393353811E+03 -0.52984588290E+02  0.29087625415E+03  0.12500000000E+03 0.  0.
         25    1    1    2    0    0 -0.44708618298E+02 -0.10673451759E+03 -0.68797416260E+02  0.18370955957E+03  0.12500000000E+03 0.  0.
</event>
<event>
 5    0  0.5815084E-005  0.5333924E+03  0.7546771E-02  0.1005413E+00
         21   -1    0    0  502  501  0.00000000000E+00  0.00000000000E+00  0.62486345385E+03  0.62486345385E+03  0.00000000000E+00 0. -1.
         21   -1    0    0  501  502 -0.00000000000E+00 -0.00000000000E+00 -0.45531147974E+03  0.45531147974E+03  0.00000000000E+00 0. -1.
         25    1    1    2    0    0  0.16207028100E+03 -0.25355488630E+03  0.24592394059E+03  0.40824066542E+03  0.12500000000E+03 0.  0.
         25    1    1    2    0    0  0.10052693274E+03 -0.10071542269E+03  0.51111919522E+02  0.19618024592E+03  0.12500000000E+03 0.  0.
         25    1    1    2    0    0 -0.26259721374E+03  0.35427030899E+03 -0.12748388599E+03  0.47575402225E+03  0.12500000000E+03 0.  0.
</event>
<event>
 5    0  0.5815084E-005  0.3475793E+03  0.7546771E-02  0.1063613E+00
         21   -1    0    0  502  501  0.00000000000E+00  0.00000000000E+00  0.22307116303E+03  0.22307116303E+03  0.00000000000E+00 0. -1.
         21   -1    0    0  501  502 -0.00000000000E+00 -0.00000000000E+00 -0.54158231631E+03  0.54158231631E+03  0.00000000000E+00 0. -1.
         25    1    1    2    0    0  0.59376522447E+02 -0.11430666246E+03 -0.11057069640E+03  0.21081381217E+03  0.12500000000E+03 0.  0.
         25    1    1    2    0    0  0.14045931136E+03  0.83418220144E+02 -0.23760015505E+03  0.31427098384E+03  0.12500000000E+03 0.  0.
         25    1    1    2    0    0 -0.19983583380E+03  0.30888442317E+02  0.29659698168E+02  0.23956868334E+03  0.12500000000E+03 0.  0.
</event>
<event>
 5    0  0.5844944E-005  0.3013212E+03  0.7546771E-02  0.1084582E+00
         21   -1    0    0  502  501  0.00000000000E+00  0.00000000000E+00  0.46788451015E+03  0.46788451015E+03  0.00000000000E+00 0.  1.
         21   -1    0    0  501  502 -0.00000000000E+00 -0.00000000000E+00 -0.19405316392E+03  0.19405316392E+03  0.00000000000E+00 0.  1.
         25    1    1    2    0    0 -0.34530117728E+02  0.12127608386E+03  0.30354319916E+03  0.35165848675E+03  0.12500000000E+03 0.  0.
         25    1    1    2    0    0  0.86180378610E+01 -0.20369552862E+02 -0.66711061380E+02  0.14340346917E+03  0.12500000000E+03 0.  0.
         25    1    1    2    0    0  0.25912079867E+02 -0.10090653100E+03  0.36999208462E+02  0.16687571815E+03  0.12500000000E+03 0.  0.
</event>
<event>
 5    0  0.5815084E-005  0.2534725E+03  0.7546771E-02  0.1111130E+00
         21   -1    0    0  502  501  0.00000000000E+00  0.00000000000E+00  0.77064542642E+03  0.77064542642E+03  0.00000000000E+00 0.  1.
         21   -1    0    0  501  502 -0.00000000000E+00 -0.00000000000E+00 -0.83369470630E+02  0.83369470630E+02  0.00000000000E+00 0.  1.
         25    1    1    2    0    0  0.89679224986E+01 -0.41045422682E+02  0.33813268706E+02  0.13613775192E+03  0.12500000000E+03 0.  0.
         25    1    1    2    0    0  0.65835469239E+02  0.39395591377E+02  0.39244911404E+03  0.41896017560E+03  0.12500000000E+03 0.  0.
         25    1    1    2    0    0 -0.74803391738E+02  0.16498313052E+01  0.26101357305E+03  0.29891696953E+03  0.12500000000E+03 0.  0.
</event>
<event>
 5    0  0.5815084E-005  0.2674482E+03  0.7546771E-02  0.1102749E+00
         21   -1    0    0  502  501  0.00000000000E+00  0.00000000000E+00  0.83449466999E+02  0.83449466999E+02  0.00000000000E+00 0.  1.
         21   -1    0    0  501  502 -0.00000000000E+00 -0.00000000000E+00 -0.85714780384E+03  0.85714780384E+03  0.00000000000E+00 0.  1.
         25    1    1    2    0    0 -0.76896960818E+01 -0.11601625262E+03 -0.87079973532E+02  0.19164243812E+03  0.12500000000E+03 0.  0.
         25    1    1    2    0    0  0.33443238019E+02  0.61996392943E+01 -0.33261601868E+03  0.35695280021E+03  0.12500000000E+03 0.  0.
         25    1    1    2    0    0 -0.25753541937E+02  0.10981661333E+03 -0.35400234463E+03  0.39200203251E+03  0.12500000000E+03 0.  0.
</event>
<event>
 5    0  0.5815084E-005  0.4124479E+03  0.7546771E-02  0.1039553E+00
         21   -1    0    0  502  501  0.00000000000E+00  0.00000000000E+00  0.13380234943E+04  0.13380234943E+04  0.00000000000E+00 0.  1.
         21   -1    0    0  501  502 -0.00000000000E+00 -0.00000000000E+00 -0.12713772197E+03  0.12713772197E+03  0.00000000000E+00 0.  1.
         25    1    1    2    0    0 -0.25740410620E+03  0.58302809095E+02  0.23747783799E+03  0.37639980735E+03  0.12500000000E+03 0.  0.
         25    1    1    2    0    0 -0.62187485664E+02 -0.31375308928E+02  0.30647172377E+03  0.33823307179E+03  0.12500000000E+03 0.  0.
         25    1    1    2    0    0  0.31959159186E+03 -0.26927500167E+02  0.66693621056E+03  0.75052833711E+03  0.12500000000E+03 0.  0.
</event>
<event>
 5    0  0.5815084E-005  0.4691804E+03  0.7546771E-02  0.1022152E+00
         21   -1    0    0  502  501  0.00000000000E+00  0.00000000000E+00  0.17168211305E+04  0.17168211305E+04  0.00000000000E+00 0.  1.
         21   -1    0    0  501  502 -0.00000000000E+00 -0.00000000000E+00 -0.12821967223E+03  0.12821967223E+03  0.00000000000E+00 0. -1.
         25    1    1    2    0    0  0.30867336224E+02  0.26888688177E+03  0.27878280068E+03  0.40816393470E+03  0.12500000000E+03 0.  0.
         25    1    1    2    0    0 -0.13521201746E+03  0.65564935190E+02  0.27625582939E+03  0.33841296321E+03  0.12500000000E+03 0.  0.
         25    1    1    2    0    0  0.10434468124E+03 -0.33445181696E+03  0.10335628282E+04  0.10984639048E+04  0.12500000000E+03 0.  0.
</event>
<event>
 5    0  0.5815084E-005  0.3299557E+03  0.7546771E-02  0.1071156E+00
         21   -1    0    0  502  501  0.00000000000E+00  0.00000000000E+00  0.28078715062E+03  0.28078715062E+03  0.00000000000E+00 0.  1.
         21   -1    0    0  501  502 -0.00000000000E+00 -0.00000000000E+00 -0.38773420753E+03  0.38773420753E+03  0.00000000000E+00 0.  1.
         25    1    1    2    0    0  0.93401779104E+02 -0.11179327210E+03  0.17187934252E+03  0.25766089422E+03  0.12500000000E+03 0.  0.
         25    1    1    2    0    0 -0.15543887609E+02  0.84678877679E+02 -0.13207355906E+03  0.20119778768E+03  0.12500000000E+03 0.  0.
         25    1    1    2    0    0 -0.77857891495E+02  0.27114394424E+02 -0.14675284037E+03  0.20966267625E+03  0.12500000000E+03 0.  0.
</event>
<event>
 5    0  0.5815084E-005  0.3092161E+03  0.7546771E-02  0.1080722E+00
         21   -1    0    0  502  501  0.00000000000E+00  0.00000000000E+00  0.16341741419E+04  0.16341741419E+04  0.00000000000E+00 0.  1.
         21   -1    0    0  501  502 -0.00000000000E+00 -0.00000000000E+00 -0.58509446106E+02  0.58509446106E+02  0.00000000000E+00 0.  1.
         25    1    1    2    0    0 -0.22248275961E+02  0.12052766169E+03  0.10008140051E+04  0.10160096338E+04  0.12500000000E+03 0.  0.
         25    1    1    2    0    0  0.77922385842E+02 -0.14195943668E+03  0.24666134018E+03  0.32045467170E+03  0.12500000000E+03 0.  0.
         25    1    1    2    0    0 -0.55674109881E+02  0.21431774990E+02  0.32818935049E+03  0.35621928256E+03  0.12500000000E+03 0.  0.
</event>
<event>
 5    0  0.6124417E-005  0.3048258E+03  0.7546771E-02  0.1082853E+00
         21   -1    0    0  502  501  0.00000000000E+00  0.00000000000E+00  0.38500054440E+03  0.38500054440E+03  0.00000000000E+00 0.  1.
         21   -1    0    0  501  502 -0.00000000000E+00 -0.00000000000E+00 -0.24134715732E+03  0.24134715732E+03  0.00000000000E+00 0.  1.
         25    1    1    2    0    0  0.18742626644E+01  0.57099601455E+02  0.17287365831E+03  0.22084876971E+03  0.12500000000E+03 0.  0.
         25    1    1    2    0    0  0.14830787909E+03 -0.48215115359E+02 -0.57256000091E+02  0.20790183717E+03  0.12500000000E+03 0.  0.
         25    1    1    2    0    0 -0.15018214176E+03 -0.88844860951E+01  0.28035728862E+02  0.19759709484E+03  0.12500000000E+03 0.  0.
</event>
<event>
 5    0  0.5815084E-005  0.3382511E+03  0.7546771E-02  0.1067543E+00
         21   -1    0    0  502  501  0.00000000000E+00  0.00000000000E+00  0.21046378533E+03  0.21046378533E+03  0.00000000000E+00 0.  1.
         21   -1    0    0  501  502 -0.00000000000E+00 -0.00000000000E+00 -0.54362689141E+03  0.54362689141E+03  0.00000000000E+00 0.  1.
         25    1    1    2    0    0  0.54918076284E+02  0.14309999253E+02 -0.17347392967E+03  0.22122155287E+03  0.12500000000E+03 0.  0.
         25    1    1    2    0    0 -0.19419607238E+03 -0.83012625421E+02  0.42339626118E+02  0.24903986518E+03  0.12500000000E+03 0.  0.
         25    1    1    2    0    0  0.13927799610E+03  0.68702626168E+02 -0.20202880253E+03  0.28382925870E+03  0.12500000000E+03 0.  0.
</event>
<event>
 5    0  0.5815084E-005  0.2505009E+03  0.7546771E-02  0.1112989E+00
         21   -1    0    0  502  501  0.00000000000E+00  0.00000000000E+00  0.12999531682E+03  0.12999531682E+03  0.00000000000E+00 0.  1.
         21   -1    0    0  501  502 -0.00000000000E+00 -0.00000000000E+00 -0.48271510847E+03  0.48271510847E+03  0.00000000000E+00 0.  1.
         25    1    1    2    0    0  0.18501056975E+02 -0.16214246121E+02 -0.19091450058E+03  0.22951805467E+03  0.12500000000E+03 0.  0.
         25    1    1    2    0    0  0.95652392694E+02 -0.23549444853E+02 -0.13200050710E+03  0.20676820465E+03  0.12500000000E+03 0.  0.
         25    1    1    2    0    0 -0.11415344967E+03  0.39763690974E+02 -0.29804783962E+02  0.17642416597E+03  0.12500000000E+03 0.  0.
</event>
<event>
 5    0  0.5815084E-005  0.2647485E+03  0.7546771E-02  0.1104323E+00
         21   -1    0    0  502  501  0.00000000000E+00  0.00000000000E+00  0.82365225775E+03  0.82365225775E+03  0.00000000000E+00 0.  1.
         21   -1    0    0  501  502 -0.00000000000E+00 -0.00000000000E+00 -0.85098708333E+02  0.85098708333E+02  0.00000000000E+00 0.  1.
         25    1    1    2    0    0  0.71211967074E+02  0.66997111747E+02  0.19979081823E+03  0.25514922749E+03  0.12500000000E+03 0.  0.
         25    1    1    2    0    0 -0.14931158807E+03 -0.79290480535E+02  0.23232956664E+03  0.31334159981E+03  0.12500000000E+03 0.  0.
         25    1    1    2    0    0  0.78099620997E+02  0.12293368788E+02  0.30643316454E+03  0.34026013878E+03  0.12500000000E+03 0.  0.
</event>
<event>
 5    0  0.5815084E-005  0.3535306E+03  0.7546771E-02  0.1061175E+00
         21   -1    0    0  502  501  0.00000000000E+00  0.00000000000E+00  0.70289403282E+02  0.70289403282E+02  0.00000000000E+00 0. -1.
         21   -1    0    0  501  502 -0.00000000000E+00 -0.00000000000E+00 -0.17781331117E+04  0.17781331117E+04  0.00000000000E+00 0. -1.
         25    1    1    2    0    0 -0.81206448745E+02  0.16780636112E+03 -0.39064486923E+03  0.45053509963E+03  0.12500000000E+03 0.  0.
         25    1    1    2    0    0  0.70273988431E+02 -0.13748601756E+03 -0.12205904803E+04  0.12366515107E+04  0.12500000000E+03 0.  0.
         25    1    1    2    0    0  0.10932460314E+02 -0.30320343562E+02 -0.96608358914E+02  0.16123590461E+03  0.12500000000E+03 0.  0.
</event>
<event>
 5    0  0.5815084E-005  0.4447000E+03  0.7546771E-02  0.1029314E+00
         21   -1    0    0  502  501  0.00000000000E+00  0.00000000000E+00  0.96154539933E+02  0.96154539933E+02  0.00000000000E+00 0. -1.
         21   -1    0    0  501  502 -0.00000000000E+00 -0.00000000000E+00 -0.20566693437E+04  0.20566693437E+04  0.00000000000E+00 0. -1.
         25    1    1    2    0    0  0.26143800675E+03 -0.13001349551E+03 -0.47708365367E+03  0.57313798774E+03  0.12500000000E+03 0.  0.
         25    1    1    2    0    0 -0.92934982754E+02 -0.11296920450E+03 -0.82527874671E+03  0.84741309994E+03  0.12500000000E+03 0.  0.
         25    1    1    2    0    0 -0.16850302400E+03  0.24298270001E+03 -0.65815240335E+03  0.73227279591E+03  0.12500000000E+03 0.  0.
</event>
<event>
 5    0  0.5815084E-005  0.2841005E+03  0.7546771E-02  0.1093470E+00
         21   -1    0    0  502  501  0.00000000000E+00  0.00000000000E+00  0.17730198618E+03  0.17730198618E+03  0.00000000000E+00 0.  1.
         21   -1    0    0  501  502 -0.00000000000E+00 -0.00000000000E+00 -0.45522949010E+03  0.45522949010E+03  0.00000000000E+00 0.  1.
         25    1    1    2    0    0  0.53260999150E+02  0.44379817649E+02 -0.14618587225E+03  0.20445442399E+03  0.12500000000E+03 0.  0.
         25    1    1    2    0    0 -0.93112233149E+02 -0.63230783890E+02  0.73656041021E+02  0.18362524982E+03  0.12500000000E+03 0.  0.
         25    1    1    2    0    0  0.39851233999E+02  0.18850966240E+02 -0.20539767270E+03  0.24445180247E+03  0.12500000000E+03 0.  0.
</event>
<event>
 5    0  0.5815084E-005  0.2833148E+03  0.7546771E-02  0.1093892E+00
         21   -1    0    0  502  501  0.00000000000E+00  0.00000000000E+00  0.33542685819E+03  0.33542685819E+03  0.00000000000E+00 0. -1.
         21   -1    0    0  501  502 -0.00000000000E+00 -0.00000000000E+00 -0.23929883432E+03  0.23929883432E+03  0.00000000000E+00 0. -1.
         25    1    1    2    0    0 -0.17915469851E+03 -0.47671996588E+02  0.21539682195E+02  0.22462854486E+03  0.12500000000E+03 0.  0.
         25    1    1    2    0    0  0.23931727309E+02  0.14903088584E+02 -0.15252280512E+02  0.12904441748E+03  0.12500000000E+03 0.  0.
         25    1    1    2    0    0  0.15522297121E+03  0.32768908004E+02  0.89840622191E+02  0.22105273017E+03  0.12500000000E+03 0.  0.
</event>
<event>
 5    0  0.5815084E-005  0.2716093E+03  0.7546771E-02  0.1100362E+00
         21   -1    0    0  502  501  0.00000000000E+00  0.00000000000E+00  0.61796026188E+02  0.61796026188E+02  0.00000000000E+00 0. -1.
         21   -1    0    0  501  502 -0.00000000000E+00 -0.00000000000E+00 -0.11937918330E+04  0.11937918330E+04  0.00000000000E+00 0. -1.
         25    1    1    2    0    0 -0.12785203436E+02  0.24652171351E+02 -0.46827522035E+03  0.48546665486E+03  0.12500000000E+03 0.  0.
         25    1    1    2    0    0  0.73811389125E+02  0.11047559978E+03 -0.42541747346E+03  0.46288012059E+03  0.12500000000E+03 0.  0.
         25    1    1    2    0    0 -0.61026185689E+02 -0.13512777113E+03 -0.23830311296E+03  0.30724108370E+03  0.12500000000E+03 0.  0.
</event>
<event>
 5    0  0.5815084E-005  0.2810996E+03  0.7546771E-02  0.1095090E+00
         21   -1    0    0  502  501  0.00000000000E+00  0.00000000000E+00  0.23418589362E+04  0.23418589362E+04  0.00000000000E+00 0. -1.
         21   -1    0    0  501  502 -0.00000000000E+00 -0.00000000000E+00 -0.33741131375E+02  0.33741131375E+02  0.00000000000E+00 0. -1.
         25    1    1    2    0    0 -0.11386883124E+03 -0.11679889407E+03  0.54884664603E+03  0.58605949634E+03  0.12500000000E+03 0.  0.
         25    1    1    2    0    0  0.49194868522E+02  0.27367905131E+02  0.47174113332E+03  0.49125740115E+03  0.12500000000E+03 0.  0.
         25    1    1    2    0    0  0.64673962720E+02  0.89430988944E+02  0.12875300255E+04  0.12982831701E+04  0.12500000000E+03 0.  0.
</event>
<event>
 5    0  0.5815084E-005  0.3482039E+03  0.7546771E-02  0.1063355E+00
         21   -1    0    0  502  501  0.00000000000E+00  0.00000000000E+00  0.52336874961E+03  0.52336874961E+03  0.00000000000E+00 0.  1.
         21   -1    0    0  501  502 -0.00000000000E+00 -0.00000000000E+00 -0.23166450539E+03  0.23166450539E+03  0.00000000000E+00 0.  1.
         25    1    1    2    0    0  0.17717990605E+03 -0.75728498353E+01 -0.38749098019E+02  0.22040090689E+03  0.12500000000E+03 0.  0.
         25    1    1    2    0    0  0.66293404348E+01  0.88948372081E+01 -0.12316000579E+02  0.12609421142E+03  0.12500000000E+03 0.  0.
         25    1    1    2    0    0 -0.18380924649E+03 -0.13219873729E+01  0.34276934282E+03  0.40853813668E+03  0.12500000000E+03 0.  0.
</event>
<event>
 5    0  0.5815084E-005  0.2932794E+03  0.7546771E-02  0.1088649E+00
         21   -1    0    0  502  501  0.00000000000E+00  0.00000000000E+00  0.18697957004E+04  0.18697957004E+04  0.00000000000E+00 0.  1.
         21   -1    0    0  501  502 -0.00000000000E+00 -0.00000000000E+00 -0.46001174495E+02  0.46001174495E+02  0.00000000000E+00 0.  1.
         25    1    1    2    0    0 -0.78337342594E+02 -0.58183400135E+02  0.26394280072E+03  0.30791695203E+03  0.12500000000E+03 0.  0.
         25    1    1    2    0    0  0.10433576262E+03 -0.96238425778E+02  0.71493129149E+03  0.73952656308E+03  0.12500000000E+03 0.  0.
         25    1    1    2    0    0 -0.25998420028E+02  0.15442182591E+03  0.84492043372E+03  0.86835335980E+03  0.12500000000E+03 0.  0.
</event>
<event>
 5    0  0.5815084E-005  0.2370565E+03  0.7546771E-02  0.1121769E+00
         21   -1    0    0  502  501  0.00000000000E+00  0.00000000000E+00  0.14372487389E+04  0.14372487389E+04  0.00000000000E+00 0. -1.
         21   -1    0    0  501  502 -0.00000000000E+00 -0.00000000000E+00 -0.39099553119E+02  0.39099553119E+02  0.00000000000E+00 0. -1.
         25    1    1    2    0    0  0.39928388245E+02 -0.11549093998E+02  0.88887152231E+03  0.89857956850E+03  0.12500000000E+03 0.  0.
         25    1    1    2    0    0 -0.62484194886E+02  0.16857376970E+02  0.21230565383E+03  0.25472953581E+03  0.12500000000E+03 0.  0.
         25    1    1    2    0    0  0.22555806641E+02 -0.53082829714E+01  0.29697200970E+03  0.32303918776E+03  0.12500000000E+03 0.  0.
</event>
<event>
 5    0  0.5815084E-005  0.2548382E+03  0.7546771E-02  0.1110285E+00
         21   -1    0    0  502  501  0.00000000000E+00  0.00000000000E+00  0.15609707092E+04  0.15609707092E+04  0.00000000000E+00 0.  1.
         21   -1    0    0  501  502 -0.00000000000E+00 -0.00000000000E+00 -0.41603927505E+02  0.41603927505E+02  0.00000000000E+00 0.  1.
         25    1    1    2    0    0 -0.76417277798E+02 -0.53514904811E+01  0.49959539510E+03  0.52066188415E+03  0.12500000000E+03 0.  0.
         25    1    1    2    0    0  0.87251181495E+02  0.11427083381E+03  0.63079783994E+03  0.65893968389E+03  0.12500000000E+03 0.  0.
         25    1    1    2    0    0 -0.10833903697E+02 -0.10891934333E+03  0.38897354661E+03  0.42297306863E+03  0.12500000000E+03 0.  0.
</event>
<event>
 5    0  0.5815084E-005  0.2595123E+03  0.7546771E-02  0.1107437E+00
         21   -1    0    0  502  501  0.00000000000E+00  0.00000000000E+00  0.32404240316E+03  0.32404240316E+03  0.00000000000E+00 0.  1.
         21   -1    0    0  501  502 -0.00000000000E+00 -0.00000000000E+00 -0.20783275176E+03  0.20783275176E+03  0.00000000000E+00 0.  1.
         25    1    1    2    0    0  0.10380166756E+03  0.81932870092E+02  0.16422590137E+02  0.18270873777E+03  0.12500000000E+03 0.  0.
         25    1    1    2    0    0  0.61542074789E+01 -0.94673007402E+02  0.46436702893E+01  0.15699495621E+03  0.12500000000E+03 0.  0.
         25    1    1    2    0    0 -0.10995587504E+03  0.12740137310E+02  0.95143390977E+02  0.19217146094E+03  0.12500000000E+03 0.  0.
</event>
<event>
 5    0  0.5815084E-005  0.4326937E+03  0.7546771E-02  0.1033012E+00
         21   -1    0    0  502  501  0.00000000000E+00  0.00000000000E+00  0.11917481495E+03  0.11917481495E+03  0.00000000000E+00 0. -1.
         21   -1    0    0  501  502 -0.00000000000E+00 -0.00000000000E+00 -0.15710013797E+04  0.15710013797E+04  0.00000000000E+00 0. -1.
         25    1    1    2    0    0 -0.10845545601E+03  0.46128179499E+02 -0.87852878262E+03  0.89516937882E+03  0.12500000000E+03 0.  0.
         25    1    1    2    0    0 -0.67015244436E+02 -0.11331815906E+03 -0.28740547472E+01  0.18156351052E+03  0.12500000000E+03 0.  0.
         25    1    1    2    0    0  0.17547070045E+03  0.67189979564E+02 -0.57042372738E+03  0.61344330530E+03  0.12500000000E+03 0.  0.
</event>
<event>
 5    0  0.5815084E-005  0.2563206E+03  0.7546771E-02  0.1109374E+00
         21   -1    0    0  502  501  0.00000000000E+00  0.00000000000E+00  0.11227436603E+04  0.11227436603E+04  0.00000000000E+00 0.  1.
         21   -1    0    0  501  502 -0.00000000000E+00 -0.00000000000E+00 -0.58517588207E+02  0.58517588207E+02  0.00000000000E+00 0.  1.
         25    1    1    2    0    0  0.16581840279E+02 -0.39715099413E+02  0.26454078402E+03  0.29573480174E+03  0.12500000000E+03 0.  0.
         25    1    1    2    0    0 -0.84282698474E+02  0.12059335882E+03  0.58241027634E+03  0.61357400649E+03  0.12500000000E+03 0.  0.
         25    1    1    2    0    0  0.67700858195E+02 -0.80878259408E+02  0.21727501168E+03  0.27195244023E+03  0.12500000000E+03 0.  0.
</event>
<event>
 5    0  0.5815084E-005  0.2193283E+03  0.7546771E-02  0.1134385E+00
         21   -1    0    0  502  501  0.00000000000E+00  0.00000000000E+00  0.23980908561E+03  0.23980908561E+03  0.00000000000E+00 0. -1.
         21   -1    0    0  501  502 -0.00000000000E+00 -0.00000000000E+00 -0.20059670432E+03  0.20059670432E+03  0.00000000000E+00 0. -1.
         25    1    1    2    0    0  0.45218727733E+02 -0.50812782795E+02 -0.13654964642E+02  0.14296198898E+03  0.12500000000E+03 0.  0.
         25    1    1    2    0    0  0.74377499273E+01  0.19136260526E+02 -0.36650622215E+02  0.13187033290E+03  0.12500000000E+03 0.  0.
         25    1    1    2    0    0 -0.52656477660E+02  0.31676522269E+02  0.89517968141E+02  0.16557346805E+03  0.12500000000E+03 0.  0.
</event>
<event>
 5    0  0.5815084E-005  0.2184824E+03  0.7546771E-02  0.1135020E+00
         21   -1    0    0  502  501  0.00000000000E+00  0.00000000000E+00  0.11678671046E+04  0.11678671046E+04  0.00000000000E+00 0. -1.
         21   -1    0    0  501  502 -0.00000000000E+00 -0.00000000000E+00 -0.40873297721E+02  0.40873297721E+02  0.00000000000E+00 0. -1.
         25    1    1    2    0    0  0.42383949896E+02 -0.38143108038E+02  0.20465019615E+03  0.24649137649E+03  0.12500000000E+03 0.  0.
         25    1    1    2    0    0 -0.50809967790E+02  0.33410560424E+02  0.61094561047E+03  0.62656001893E+03  0.12500000000E+03 0.  0.
         25    1    1    2    0    0  0.84260178943E+01  0.47325476148E+01  0.31139800024E+03  0.33568900688E+03  0.12500000000E+03 0.  0.
</event>
<event>
 5    0  0.5815084E-005  0.3262438E+03  0.7546771E-02  0.1072811E+00
         21   -1    0    0  502  501  0.00000000000E+00  0.00000000000E+00  0.14369674018E+03  0.14369674018E+03  0.00000000000E+00 0. -1.
         21   -1    0    0  501  502 -0.00000000000E+00 -0.00000000000E+00 -0.74069205846E+03  0.74069205846E+03  0.00000000000E+00 0. -1.
         25    1    1    2    0    0 -0.15244578243E+03  0.39456718548E+02 -0.37306361942E+02  0.20448304052E+03  0.12500000000E+03 0.  0.
         25    1    1    2    0    0 -0.38289813187E+02  0.44072458400E+01 -0.99179474920E+02  0.16415572441E+03  0.12500000000E+03 0.  0.
         25    1    1    2    0    0  0.19073559562E+03 -0.43863964388E+02 -0.46050948142E+03  0.51575003372E+03  0.12500000000E+03 0.  0.
</event>
<event>
 5    0  0.5815084E-005  0.5808558E+03  0.7546771E-02  0.9945940E-01
         21   -1    0    0  502  501  0.00000000000E+00  0.00000000000E+00  0.28543136337E+03  0.28543136337E+03  0.00000000000E+00 0.  1.
         21   -1    0    0  501  502 -0.00000000000E+00 -0.00000000000E+00 -0.11820477490E+04  0.11820477490E+04  0.00000000000E+00 0.  1.
         25    1    1    2    0    0 -0.39383074605E+03 -0.18065830587E+03 -0.47978757656E+03  0.65845364198E+03  0.12500000000E+03 0.  0.
         25    1    1    2    0    0  0.16382593303E+03 -0.51795385094E+02  0.56909666910E+02  0.21996683486E+03  0.12500000000E+03 0.  0.
         25    1    1    2    0    0  0.23000481303E+03  0.23245369097E+03 -0.47373847598E+03  0.58905863552E+03  0.12500000000E+03 0.  0.
</event>
<event>
 5    0  0.5815084E-005  0.2652433E+03  0.7546771E-02  0.1104033E+00
         21   -1    0    0  502  501  0.00000000000E+00  0.00000000000E+00  0.91815044691E+02  0.91815044691E+02  0.00000000000E+00 0.  1.
         21   -1    0    0  501  502 -0.00000000000E+00 -0.00000000000E+00 -0.76625809510E+03  0.76625809510E+03  0.00000000000E+00 0.  1.
         25    1    1    2    0    0 -0.16225451598E+02  0.13624602464E+03 -0.42720967175E+03  0.46578895237E+03  0.12500000000E+03 0.  0.
         25    1    1    2    0    0  0.33574181526E+02 -0.10781416429E+03 -0.98387163463E+02  0.19507986473E+03  0.12500000000E+03 0.  0.
         25    1    1    2    0    0 -0.17348729928E+02 -0.28431860349E+02 -0.14884621520E+03  0.19720432270E+03  0.12500000000E+03 0.  0.
</event>
<event>
 5    0  0.5815084E-005  0.2758596E+03  0.7546771E-02  0.1097972E+00
         21   -1    0    0  502  501  0.00000000000E+00  0.00000000000E+00  0.10764954387E+03  0.10764954387E+03  0.00000000000E+00 0. -1.
         21   -1    0    0  501  502 -0.00000000000E+00 -0.00000000000E+00 -0.70690977614E+03  0.70690977614E+03  0.00000000000E+00 0. -1.
         25    1    1    2    0    0  0.12499190913E+03  0.98348363995E+01 -0.17639946062E+03  0.24992293024E+03  0.12500000000E+03 0.  0.
         25    1    1    2    0    0 -0.90680653176E+02 -0.85968365342E+02 -0.36125657440E+03  0.40217515245E+03  0.12500000000E+03 0.  0.
         25    1    1    2    0    0 -0.34311255950E+02  0.76133528942E+02 -0.61604197254E+02  0.16246123733E+03  0.12500000000E+03 0.  0.
</event>
<event>
 5    0  0.5815084E-005  0.2496311E+03  0.7546771E-02  0.1113538E+00
         21   -1    0    0  502  501  0.00000000000E+00  0.00000000000E+00  0.32408837582E+03  0.32408837582E+03  0.00000000000E+00 0.  1.
         21   -1    0    0  501  502 -0.00000000000E+00 -0.00000000000E+00 -0.19227988467E+03  0.19227988467E+03  0.00000000000E+00 0.  1.
         25    1    1    2    0    0 -0.52249234107E+02 -0.54153204775E+01  0.77805806319E+02  0.15632674646E+03  0.12500000000E+03 0.  0.
         25    1    1    2    0    0  0.83022266787E+02 -0.10632076749E+03  0.45056608063E+02  0.18934598045E+03  0.12500000000E+03 0.  0.
         25    1    1    2    0    0 -0.30773032680E+02  0.11173608797E+03  0.89460767696E+01  0.17069553358E+03  0.12500000000E+03 0.  0.
</event>
<event>
 5    0  0.5815084E-005  0.2831237E+03  0.7546771E-02  0.1093995E+00
         21   -1    0    0  502  501  0.00000000000E+00  0.00000000000E+00  0.14256147520E+03  0.14256147520E+03  0.00000000000E+00 0.  1.
         21   -1    0    0  501  502 -0.00000000000E+00 -0.00000000000E+00 -0.56227679003E+03  0.56227679003E+03  0.00000000000E+00 0.  1.
         25    1    1    2    0    0 -0.77342755737E+01  0.13129009360E+03 -0.10549509430E+03  0.20988359302E+03  0.12500000000E+03 0.  0.
         25    1    1    2    0    0 -0.92344055633E+02 -0.14972515997E+03 -0.22037881297E+03  0.30844265163E+03  0.12500000000E+03 0.  0.
         25    1    1    2    0    0  0.10007833121E+03  0.18435066368E+02 -0.93841407557E+02  0.18651202058E+03  0.12500000000E+03 0.  0.
</event>
<event>
 5    0  0.6839556E-005  0.2825358E+03  0.7546771E-02  0.1094312E+00
         21   -1    0    0  502  501  0.00000000000E+00  0.00000000000E+00  0.36564142484E+03  0.36564142484E+03  0.00000000000E+00 0. -1.
         21   -1    0    0  501  502 -0.00000000000E+00 -0.00000000000E+00 -0.21831895771E+03  0.21831895771E+03  0.00000000000E+00 0. -1.
         25    1    1    2    0    0  0.88315465647E+02 -0.81190771502E+02  0.40339238604E+02  0.17788709065E+03  0.12500000000E+03 0.  0.
         25    1    1    2    0    0 -0.64527248367E+02  0.12414815243E+03 -0.55134555659E+02  0.19555395358E+03  0.12500000000E+03 0.  0.
         25    1    1    2    0    0 -0.23788217281E+02 -0.42957380928E+02  0.16211778419E+03  0.21051933832E+03  0.12500000000E+03 0.  0.
</event>
<event>
 5    0  0.5815084E-005  0.2416860E+03  0.7546771E-02  0.1118675E+00
         21   -1    0    0  502  501  0.00000000000E+00  0.00000000000E+00  0.12424048874E+03  0.12424048874E+03  0.00000000000E+00 0. -1.
         21   -1    0    0  501  502 -0.00000000000E+00 -0.00000000000E+00 -0.47015376575E+03  0.47015376575E+03  0.00000000000E+00 0. -1.
         25    1    1    2    0    0  0.16680858697E+02  0.46862239393E+02 -0.14701590510E+03  0.19928120052E+03  0.12500000000E+03 0.  0.
         25    1    1    2    0    0  0.40594984211E+01 -0.13631679376E+03 -0.12527817416E+03  0.22342419007E+03  0.12500000000E+03 0.  0.
         25    1    1    2    0    0 -0.20740357118E+02  0.89454554369E+02 -0.73619197746E+02  0.17168886390E+03  0.12500000000E+03 0.  0.
</event>
<event>
 5    0  0.5815084E-005  0.2416958E+03  0.7546771E-02  0.1118668E+00
         21   -1    0    0  502  501  0.00000000000E+00  0.00000000000E+00  0.44577742238E+02  0.44577742238E+02  0.00000000000E+00 0. -1.
         21   -1    0    0  501  502 -0.00000000000E+00 -0.00000000000E+00 -0.13104488894E+04  0.13104488894E+04  0.00000000000E+00 0. -1.
         25    1    1    2    0    0 -0.51798237486E+00 -0.40868562932E+02 -0.20316880079E+03  0.24201873761E+03  0.12500000000E+03 0.  0.
         25    1    1    2    0    0 -0.80640701973E+01 -0.83141558580E+02 -0.40204480027E+03  0.42923486509E+03  0.12500000000E+03 0.  0.
         25    1    1    2    0    0  0.85820525721E+01  0.12401012151E+03 -0.66065754607E+03  0.68377302890E+03  0.12500000000E+03 0.  0.
</event>
<event>
 5    0  0.5815084E-005  0.4877898E+03  0.7546771E-02  0.1017016E+00
         21   -1    0    0  502  501  0.00000000000E+00  0.00000000000E+00  0.19742577543E+03  0.19742577543E+03  0.00000000000E+00 0. -1.
         21   -1    0    0  501  502 -0.00000000000E+00 -0.00000000000E+00 -0.12052067189E+04  0.12052067189E+04  0.00000000000E+00 0. -1.
         25    1    1    2    0    0  0.55892531490E+01 -0.12755286641E+03 -0.24351493193E+03  0.30203558656E+03  0.12500000000E+03 0.  0.
         25    1    1    2    0    0  0.30539661459E+01 -0.30426952678E+03 -0.42441706652E+03  0.53697683190E+03  0.12500000000E+03 0.  0.
         25    1    1    2    0    0 -0.86432192949E+01  0.43182239319E+03 -0.33984894505E+03  0.56362007589E+03  0.12500000000E+03 0.  0.
</event>
<event>
 5    0  0.5815084E-005  0.2331460E+03  0.7546771E-02  0.1124445E+00
         21   -1    0    0  502  501  0.00000000000E+00  0.00000000000E+00  0.51277436742E+02  0.51277436742E+02  0.00000000000E+00 0.  1.
         21   -1    0    0  501  502 -0.00000000000E+00 -0.00000000000E+00 -0.10600578222E+04  0.10600578222E+04  0.00000000000E+00 0.  1.
         25    1    1    2    0    0 -0.56101623709E+02  0.75753776833E+02 -0.47832155361E+03  0.50329170025E+03  0.12500000000E+03 0.  0.
         25    1    1    2    0    0 -0.31213288610E+02 -0.71334733788E+01 -0.25553362340E+03  0.28626489222E+03  0.12500000000E+03 0.  0.
         25    1    1    2    0    0  0.87314912319E+02 -0.68620303454E+02 -0.27492520842E+03  0.32177866645E+03  0.12500000000E+03 0.  0.
</event>
<event>
 5    0  0.6033115E-005  0.2940328E+03  0.7546771E-02  0.1088262E+00
         21   -1    0    0  502  501  0.00000000000E+00  0.00000000000E+00  0.11381874458E+03  0.11381874458E+03  0.00000000000E+00 0.  1.
         21   -1    0    0  501  502 -0.00000000000E+00 -0.00000000000E+00 -0.75958767847E+03  0.75958767847E+03  0.00000000000E+00 0.  1.
         25    1    1    2    0    0  0.10183407913E+02  0.17917662980E+03 -0.14342421653E+03  0.26154057496E+03  0.12500000000E+03 0.  0.
         25    1    1    2    0    0 -0.86162991834E+02 -0.10498912273E+03 -0.24626986493E+03  0.30776715781E+03  0.12500000000E+03 0.  0.
         25    1    1    2    0    0  0.75979583921E+02 -0.74187507074E+02 -0.25607485243E+03  0.30409869028E+03  0.12500000000E+03 0.  0.
</event>
<event>
 5    0  0.5815084E-005  0.4292073E+03  0.7546771E-02  0.1034111E+00
         21   -1    0    0  502  501  0.00000000000E+00  0.00000000000E+00  0.13557199617E+04  0.13557199617E+04  0.00000000000E+00 0.  1.
         21   -1    0    0  501  502 -0.00000000000E+00 -0.00000000000E+00 -0.13588269566E+03  0.13588269566E+03  0.00000000000E+00 0.  1.
         25    1    1    2    0    0  0.10080030092E+03  0.28683486477E+02  0.25810313442E+03  0.30532879173E+03  0.12500000000E+03 0.  0.
         25    1    1    2    0    0 -0.32103567070E+03 -0.14521611218E+03  0.34185261383E+03  0.50659631925E+03  0.12500000000E+03 0.  0.
         25    1    1    2    0    0  0.22023536978E+03  0.11653262570E+03  0.61988151779E+03  0.67967754638E+03  0.12500000000E+03 0.  0.
</event>
<event>
 5    0  0.5815084E-005  0.4413525E+03  0.7546771E-02  0.1030333E+00
         21   -1    0    0  502  501  0.00000000000E+00  0.00000000000E+00  0.34288739424E+03  0.34288739424E+03  0.00000000000E+00 0. -1.
         21   -1    0    0  501  502 -0.00000000000E+00 -0.00000000000E+00 -0.56809328369E+03  0.56809328369E+03  0.00000000000E+00 0. -1.
         25    1    1    2    0    0 -0.49041883956E+02 -0.17190799122E+03  0.19622387002E+03  0.29340461992E+03  0.12500000000E+03 0.  0.
         25    1    1    2    0    0 -0.11395197366E+03  0.61780207911E+02 -0.64473151767E+02  0.19126848587E+03  0.12500000000E+03 0.  0.
         25    1    1    2    0    0  0.16299385761E+03  0.11012778330E+03 -0.35695660770E+03  0.42630757213E+03  0.12500000000E+03 0.  0.
</event>
<event>
 5    0  0.5815084E-005  0.2555813E+03  0.7546771E-02  0.1109828E+00
         21   -1    0    0  502  501  0.00000000000E+00  0.00000000000E+00  0.61538236048E+02  0.61538236048E+02  0.00000000000E+00 0. -1.
         21   -1    0    0  501  502 -0.00000000000E+00 -0.00000000000E+00 -0.10614827763E+04  0.10614827763E+04  0.00000000000E+00 0. -1.
         25    1    1    2    0    0 -0.58146701980E+02 -0.11058466853E+03 -0.40209721499E+03  0.43922338072E+03  0.12500000000E+03 0.  0.
         25    1    1    2    0    0 -0.61777650946E+02  0.48112312308E+02 -0.27924788209E+03  0.31580951918E+03  0.12500000000E+03 0.  0.
         25    1    1    2    0    0  0.11992435293E+03  0.62472356219E+02 -0.31859944315E+03  0.36798811243E+03  0.12500000000E+03 0.  0.
</event>
<event>
 5    0  0.5815084E-005  0.3010594E+03  0.7546771E-02  0.1084712E+00
         21   -1    0    0  502  501  0.00000000000E+00  0.00000000000E+00  0.14641939910E+04  0.14641939910E+04  0.00000000000E+00 0.  1.
         21   -1    0    0  501  502 -0.00000000000E+00 -0.00000000000E+00 -0.61902135022E+02  0.61902135022E+02  0.00000000000E+00 0.  1.
         25    1    1    2    0    0  0.55772954600E+02 -0.20317811154E+02  0.77189108039E+03  0.78419657988E+03  0.12500000000E+03 0.  0.
         25    1    1    2    0    0 -0.74285640880E+02 -0.48654956460E+02  0.79928594373E+02  0.17291397118E+03  0.12500000000E+03 0.  0.
         25    1    1    2    0    0  0.18512686280E+02  0.68972767614E+02  0.55047218122E+03  0.56898557497E+03  0.12500000000E+03 0.  0.
</event>
<event>
 5    0  0.5815084E-005  0.4097747E+03  0.7546771E-02  0.1040447E+00
         21   -1    0    0  502  501  0.00000000000E+00  0.00000000000E+00  0.42487657637E+03  0.42487657637E+03  0.00000000000E+00 0. -1.
         21   -1    0    0  501  502 -0.00000000000E+00 -0.00000000000E+00 -0.39520960323E+03  0.39520960323E+03  0.00000000000E+00 0. -1.
         25    1    1    2    0    0 -0.67467457754E+02  0.19205196597E+03 -0.17741069315E+03  0.29754893636E+03  0.12500000000E+03 0.  0.
         25    1    1    2    0    0  0.17735897882E+03  0.50518612962E+01  0.58295917300E+02  0.22473349249E+03  0.12500000000E+03 0.  0.
         25    1    1    2    0    0 -0.10989152107E+03 -0.19710382726E+03  0.14878174899E+03  0.29780375074E+03  0.12500000000E+03 0.  0.
</event>
<event>
 5    0  0.5815084E-005  0.3436174E+03  0.7546771E-02  0.1065266E+00
         21   -1    0    0  502  501  0.00000000000E+00  0.00000000000E+00  0.15671750297E+03  0.15671750297E+03  0.00000000000E+00 0.  1.
         21   -1    0    0  501  502 -0.00000000000E+00 -0.00000000000E+00 -0.75341240344E+03  0.75341240344E+03  0.00000000000E+00 0.  1.
         25    1    1    2    0    0  0.76404980575E+02 -0.12375527336E+03 -0.14712722068E+03  0.24171162116E+03  0.12500000000E+03 0.  0.
         25    1    1    2    0    0  0.11110936921E+02 -0.10627759427E+03 -0.32774899515E+03  0.36669167401E+03  0.12500000000E+03 0.  0.
         25    1    1    2    0    0 -0.87515917496E+02  0.23003286763E+03 -0.12181868463E+03  0.30172661124E+03  0.12500000000E+03 0.  0.
</event>
<event>
 5    0  0.5815084E-005  0.3194606E+03  0.7546771E-02  0.1075898E+00
         21   -1    0    0  502  501  0.00000000000E+00  0.00000000000E+00  0.70894204123E+03  0.70894204123E+03  0.00000000000E+00 0. -1.
         21   -1    0    0  501  502 -0.00000000000E+00 -0.00000000000E+00 -0.14395402011E+03  0.14395402011E+03  0.00000000000E+00 0. -1.
         25    1    1    2    0    0 -0.17233053851E+03 -0.56175189072E+02  0.10937966936E+03  0.24585031714E+03  0.12500000000E+03 0.  0.
         25    1    1    2    0    0 -0.10786995516E+02 -0.31001216869E+02  0.28826221114E+03  0.31590748185E+03  0.12500000000E+03 0.  0.
         25    1    1    2    0    0  0.18311753402E+03  0.87176405941E+02  0.16734614063E+03  0.29113826235E+03  0.12500000000E+03 0.  0.
</event>
<event>
 5    0  0.5815084E-005  0.3083258E+03  0.7546771E-02  0.1081151E+00
         21   -1    0    0  502  501  0.00000000000E+00  0.00000000000E+00  0.83677795774E+03  0.83677795774E+03  0.00000000000E+00 0. -1.
         21   -1    0    0  501  502 -0.00000000000E+00 -0.00000000000E+00 -0.11360812536E+03  0.11360812536E+03  0.00000000000E+00 0. -1.
         25    1    1    2    0    0  0.15462576956E+03  0.19453498076E+02  0.45487322851E+03  0.49681205824E+03  0.12500000000E+03 0.  0.
         25    1    1    2    0    0 -0.16901828931E+03  0.13536582484E+01  0.77450901240E+02  0.22403717686E+03  0.12500000000E+03 0.  0.
         25    1    1    2    0    0  0.14392519747E+02 -0.20807156324E+02  0.19084570263E+03  0.22953684800E+03  0.12500000000E+03 0.  0.
</event>
<event>
 5    0  0.5815084E-005  0.5379539E+03  0.7546771E-02  0.1004321E+00
         21   -1    0    0  502  501  0.00000000000E+00  0.00000000000E+00  0.23561784667E+03  0.23561784667E+03  0.00000000000E+00 0. -1.
         21   -1    0    0  501  502 -0.00000000000E+00 -0.00000000000E+00 -0.12282364813E+04  0.12282364813E+04  0.00000000000E+00 0. -1.
         25    1    1    2    0    0 -0.13217486073E+03  0.40348482077E+02 -0.20506664329E+03  0.27708396202E+03  0.12500000000E+03 0.  0.
         25    1    1    2    0    0 -0.27013058698E+03  0.23944847360E+03 -0.33203024540E+03  0.50613752023E+03  0.12500000000E+03 0.  0.
         25    1    1    2    0    0  0.40230544771E+03 -0.27979695567E+03 -0.45552174598E+03  0.68063284576E+03  0.12500000000E+03 0.  0.
</event>
<event>
 5    0  0.5815084E-005  0.4749653E+03  0.7546771E-02  0.1020528E+00
         21   -1    0    0  502  501  0.00000000000E+00  0.00000000000E+00  0.39383999478E+03  0.39383999478E+03  0.00000000000E+00 0.  1.
         21   -1    0    0  501  502 -0.00000000000E+00 -0.00000000000E+00 -0.57280129161E+03  0.57280129161E+03  0.00000000000E+00 0.  1.
         25    1    1    2    0    0 -0.36379501810E+03  0.13882320740E+03 -0.73901239626E+02  0.41557802074E+03  0.12500000000E+03 0.  0.
         25    1    1    2    0    0  0.72359295459E+02  0.65043426927E+02  0.45293919700E+01  0.15846775829E+03  0.12500000000E+03 0.  0.
         25    1    1    2    0    0  0.29143572264E+03 -0.20386663433E+03 -0.10958944918E+03  0.39259550735E+03  0.12500000000E+03 0.  0.
</event>
<event>
 5    0  0.5815084E-005  0.3612959E+03  0.7546771E-02  0.1058072E+00
         21   -1    0    0  502  501  0.00000000000E+00  0.00000000000E+00  0.76900491750E+03  0.76900491750E+03  0.00000000000E+00 0. -1.
         21   -1    0    0  501  502 -0.00000000000E+00 -0.00000000000E+00 -0.16974500897E+03  0.16974500897E+03  0.00000000000E+00 0. -1.
         25    1    1    2    0    0  0.27079678914E+03 -0.66215175606E+02  0.24167472535E+03  0.38954720299E+03  0.12500000000E+03 0.  0.
         25    1    1    2    0    0 -0.13996625524E+03 -0.24884917864E+02  0.26697395744E+03  0.32727649732E+03  0.12500000000E+03 0.  0.
         25    1    1    2    0    0 -0.13083053389E+03  0.91100093469E+02  0.90611225742E+02  0.22192622616E+03  0.12500000000E+03 0.  0.
</event>
<event>
 5    0  0.5815084E-005  0.2519500E+03  0.7546771E-02  0.1112079E+00
         21   -1    0    0  502  501  0.00000000000E+00  0.00000000000E+00  0.11400355553E+03  0.11400355553E+03  0.00000000000E+00 0.  1.
         21   -1    0    0  501  502 -0.00000000000E+00 -0.00000000000E+00 -0.55681439851E+03  0.55681439851E+03  0.00000000000E+00 0.  1.
         25    1    1    2    0    0  0.51422301539E+02  0.34972885118E+02 -0.42517058651E+02  0.14594538727E+03  0.12500000000E+03 0.  0.
         25    1    1    2    0    0 -0.64314075002E+01  0.84338661120E+02 -0.24736314957E+03  0.28977215278E+03  0.12500000000E+03 0.  0.
         25    1    1    2    0    0 -0.44990894039E+02 -0.11931154624E+03 -0.15293063476E+03  0.23510041399E+03  0.12500000000E+03 0.  0.
</event>
<event>
 5    0  0.5815084E-005  0.3042788E+03  0.7546771E-02  0.1083121E+00
         21   -1    0    0  502  501  0.00000000000E+00  0.00000000000E+00  0.52901657326E+03  0.52901657326E+03  0.00000000000E+00 0. -1.
         21   -1    0    0  501  502 -0.00000000000E+00 -0.00000000000E+00 -0.17501449800E+03  0.17501449800E+03  0.00000000000E+00 0. -1.
         25    1    1    2    0    0 -0.19380854656E+03 -0.11295330413E+02  0.67370920583E+02  0.24052687615E+03  0.12500000000E+03 0.  0.
         25    1    1    2    0    0  0.19887095481E+03  0.12932536593E+02  0.15399146734E+03  0.28116770651E+03  0.12500000000E+03 0.  0.
         25    1    1    2    0    0 -0.50624082447E+01 -0.16372061791E+01  0.13263968734E+03  0.18233648861E+03  0.12500000000E+03 0.  0.
</event>
<event>
 5    0  0.5815084E-005  0.5584420E+03  0.7546771E-02  0.9995586E-01
         21   -1    0    0  502  501  0.00000000000E+00  0.00000000000E+00  0.21682100984E+04  0.21682100984E+04  0.00000000000E+00 0. -1.
         21   -1    0    0  501  502 -0.00000000000E+00 -0.00000000000E+00 -0.14383177454E+03  0.14383177454E+03  0.00000000000E+00 0. -1.
         25    1    1    2    0    0 -0.25961267581E+03 -0.46688122155E+02  0.13891490072E+04  0.14194852892E+04  0.12500000000E+03 0.  0.
         25    1    1    2    0    0  0.88328274675E+02  0.25777276377E+03  0.18597783429E+03  0.35279092490E+03  0.12500000000E+03 0.  0.
         25    1    1    2    0    0  0.17128440114E+03 -0.21108464161E+03  0.44925148241E+03  0.53976565883E+03  0.12500000000E+03 0.  0.
</event>
<event>
 5    0  0.5815084E-005  0.3058216E+03  0.7546771E-02  0.1082366E+00
         21   -1    0    0  502  501  0.00000000000E+00  0.00000000000E+00  0.16903679713E+03  0.16903679713E+03  0.00000000000E+00 0. -1.
         21   -1    0    0  501  502 -0.00000000000E+00 -0.00000000000E+00 -0.55329285522E+03  0.55329285522E+03  0.00000000000E+00 0. -1.
         25    1    1    2    0    0  0.40309415879E+02  0.93968868579E+02 -0.18776113171E+03  0.24765750514E+03  0.12500000000E+03 0.  0.
         25    1    1    2    0    0 -0.32104562709E+02 -0.17520785076E+03  0.12335391222E+02  0.21795792206E+03  0.12500000000E+03 0.  0.
         25    1    1    2    0    0 -0.82048531700E+01  0.81238982177E+02 -0.20883031760E+03  0.25671422514E+03  0.12500000000E+03 0.  0.
</event>
<event>
 5    0  0.5815084E-005  0.4552585E+03  0.7546771E-02  0.1026165E+00
         21   -1    0    0  502  501  0.00000000000E+00  0.00000000000E+00  0.11380356955E+03  0.11380356955E+03  0.00000000000E+00 0.  1.
         21   -1    0    0  501  502 -0.00000000000E+00 -0.00000000000E+00 -0.18212106157E+04  0.18212106157E+04  0.00000000000E+00 0.  1.
         25    1    1    2    0    0 -0.14259349987E+03  0.30602452418E+03 -0.11207505619E+04  0.11771536593E+04  0.12500000000E+03 0.  0.
         25    1    1    2    0    0  0.30428472890E+02 -0.48547876857E+02 -0.64381579608E+02  0.15183140684E+03  0.12500000000E+03 0.  0.
         25    1    1    2    0    0  0.11216502698E+03 -0.25747664733E+03 -0.52227490464E+03  0.60602911911E+03  0.12500000000E+03 0.  0.
</event>
<event>
 5    0  0.5815084E-005  0.3183671E+03  0.7546771E-02  0.1076403E+00
         21   -1    0    0  502  501  0.00000000000E+00  0.00000000000E+00  0.17991047432E+03  0.17991047432E+03  0.00000000000E+00 0.  1.
         21   -1    0    0  501  502 -0.00000000000E+00 -0.00000000000E+00 -0.56337811933E+03  0.56337811933E+03  0.00000000000E+00 0.  1.
         25    1    1    2    0    0  0.17975933299E+03 -0.92258223974E+02 -0.12364076028E+03  0.26783770326E+03  0.12500000000E+03 0.  0.
         25    1    1    2    0    0 -0.18457149871E+03 -0.22898957833E+02 -0.11383052427E+03  0.25134316912E+03  0.12500000000E+03 0.  0.
         25    1    1    2    0    0  0.48121657244E+01  0.11515718181E+03 -0.14599636047E+03  0.22410772127E+03  0.12500000000E+03 0.  0.
</event>
<event>
 5    0  0.5815084E-005  0.3922484E+03  0.7546771E-02  0.1046497E+00
         21   -1    0    0  502  501  0.00000000000E+00  0.00000000000E+00  0.38967351388E+03  0.38967351388E+03  0.00000000000E+00 0. -1.
         21   -1    0    0  501  502 -0.00000000000E+00 -0.00000000000E+00 -0.39484038901E+03  0.39484038901E+03  0.00000000000E+00 0. -1.
         25    1    1    2    0    0 -0.66840191410E+02 -0.15765294484E+03  0.15666607734E+03  0.26361206724E+03  0.12500000000E+03 0.  0.
         25    1    1    2    0    0  0.29959944356E+02 -0.11219011766E+03  0.17765440814E+02  0.17153667729E+03  0.12500000000E+03 0.  0.
         25    1    1    2    0    0  0.36880247054E+02  0.26984306250E+03 -0.17959839328E+03  0.34936515836E+03  0.12500000000E+03 0.  0.
</event>
<event>
 5    0  0.5815084E-005  0.2757716E+03  0.7546771E-02  0.1098021E+00
         21   -1    0    0  502  501  0.00000000000E+00  0.00000000000E+00  0.79656686350E+02  0.79656686350E+02  0.00000000000E+00 0.  1.
         21   -1    0    0  501  502 -0.00000000000E+00 -0.00000000000E+00 -0.95472212790E+03  0.95472212790E+03  0.00000000000E+00 0.  1.
         25    1    1    2    0    0 -0.86856174425E+02  0.64935005044E+02 -0.28458152126E+03  0.32919931980E+03  0.12500000000E+03 0.  0.
         25    1    1    2    0    0 -0.40797633763E+02 -0.13076659281E+03 -0.21316021280E+03  0.28253605971E+03  0.12500000000E+03 0.  0.
         25    1    1    2    0    0  0.12765380819E+03  0.65831587766E+02 -0.37732370749E+03  0.42264343474E+03  0.12500000000E+03 0.  0.
</event>
<event>
 5    0  0.5815084E-005  0.2644388E+03  0.7546771E-02  0.1104505E+00
         21   -1    0    0  502  501  0.00000000000E+00  0.00000000000E+00  0.27168721450E+03  0.27168721450E+03  0.00000000000E+00 0.  1.
         21   -1    0    0  501  502 -0.00000000000E+00 -0.00000000000E+00 -0.25738369041E+03  0.25738369041E+03  0.00000000000E+00 0.  1.
         25    1    1    2    0    0 -0.38130807747E+02 -0.63162049006E+01  0.18434324535E+02  0.13213128799E+03  0.12500000000E+03 0.  0.
         25    1    1    2    0    0  0.13576184293E+03  0.63475362795E+02 -0.81439187386E+02  0.21146569679E+03  0.12500000000E+03 0.  0.
         25    1    1    2    0    0 -0.97631035180E+02 -0.57159157895E+02  0.77308386941E+02  0.18547392014E+03  0.12500000000E+03 0.  0.
</event>
<event>
 5    0  0.6091132E-005  0.2942327E+03  0.7546771E-02  0.1088160E+00
         21   -1    0    0  502  501  0.00000000000E+00  0.00000000000E+00  0.20374782391E+03  0.20374782391E+03  0.00000000000E+00 0.  1.
         21   -1    0    0  501  502 -0.00000000000E+00 -0.00000000000E+00 -0.42490208580E+03  0.42490208580E+03  0.00000000000E+00 0.  1.
         25    1    1    2    0    0 -0.12920827839E+03  0.30656936565E+02 -0.19037700743E+03  0.26363427683E+03  0.12500000000E+03 0.  0.
         25    1    1    2    0    0 -0.32395954448E+02 -0.22574026292E+02  0.56443898879E+02  0.14272350279E+03  0.12500000000E+03 0.  0.
         25    1    1    2    0    0  0.16160423283E+03 -0.80829102723E+01 -0.87221153338E+02  0.22229213009E+03  0.12500000000E+03 0.  0.
</event>
<event>
 5    0  0.5815084E-005  0.5170665E+03  0.7546771E-02  0.1009418E+00
         21   -1    0    0  502  501  0.00000000000E+00  0.00000000000E+00  0.53613820893E+03  0.53613820893E+03  0.00000000000E+00 0. -1.
         21   -1    0    0  501  502 -0.00000000000E+00 -0.00000000000E+00 -0.49867314659E+03  0.49867314659E+03  0.00000000000E+00 0. -1.
         25    1    1    2    0    0 -0.25482615251E+03 -0.14206510750E+03 -0.10415711862E+03  0.33405473823E+03  0.12500000000E+03 0.  0.
         25    1    1    2    0    0  0.40422317397E+03 -0.55158881596E+01  0.16731574638E+03  0.45502347015E+03  0.12500000000E+03 0.  0.
         25    1    1    2    0    0 -0.14939702146E+03  0.14758099566E+03 -0.25693565411E+02  0.24573314714E+03  0.12500000000E+03 0.  0.
</event>
<event>
 5    0  0.5815084E-005  0.4183912E+03  0.7546771E-02  0.1037591E+00
         21   -1    0    0  502  501  0.00000000000E+00  0.00000000000E+00  0.18593837589E+03  0.18593837589E+03  0.00000000000E+00 0. -1.
         21   -1    0    0  501  502 -0.00000000000E+00 -0.00000000000E+00 -0.94144746934E+03  0.94144746934E+03  0.00000000000E+00 0. -1.
         25    1    1    2    0    0 -0.23993150653E+02  0.18188934549E+03 -0.10849856186E+03  0.24709581786E+03  0.12500000000E+03 0.  0.
         25    1    1    2    0    0  0.85321642611E+02  0.10044603894E+03 -0.50170023835E+03  0.53357035018E+03  0.12500000000E+03 0.  0.
         25    1    1    2    0    0 -0.61328491958E+02 -0.28233538442E+03 -0.14531029324E+03  0.34671967718E+03  0.12500000000E+03 0.  0.
</event>
<event>
 5    0  0.5815084E-005  0.2134070E+03  0.7546771E-02  0.1138896E+00
         21   -1    0    0  502  501  0.00000000000E+00  0.00000000000E+00  0.10647924283E+03  0.10647924283E+03  0.00000000000E+00 0.  1.
         21   -1    0    0  501  502 -0.00000000000E+00 -0.00000000000E+00 -0.42771275307E+03  0.42771275307E+03  0.00000000000E+00 0.  1.
         25    1    1    2    0    0 -0.39632642336E+02 -0.32125973447E+02 -0.70192579075E+02  0.15216708798E+03  0.12500000000E+03 0.  0.
         25    1    1    2    0    0  0.16895495877E+01  0.42596647591E+02 -0.20353569172E+03  0.24262956697E+03  0.12500000000E+03 0.  0.
         25    1    1    2    0    0  0.37943092748E+02 -0.10470674143E+02 -0.47505239443E+02  0.13939534095E+03  0.12500000000E+03 0.  0.
</event>
<event>
 5    0  0.5815084E-005  0.5416306E+03  0.7546771E-02  0.1003450E+00
         21   -1    0    0  502  501  0.00000000000E+00  0.00000000000E+00  0.16781449360E+04  0.16781449360E+04  0.00000000000E+00 0. -1.
         21   -1    0    0  501  502 -0.00000000000E+00 -0.00000000000E+00 -0.17481430780E+03  0.17481430780E+03  0.00000000000E+00 0. -1.
         25    1    1    2    0    0 -0.36539040281E+03 -0.20760540133E+03  0.10174177668E+04  0.11078691536E+04  0.12500000000E+03 0.  0.
         25    1    1    2    0    0  0.25901327072E+03  0.22885224644E+03  0.20988870960E+03  0.42324873954E+03  0.12500000000E+03 0.  0.
         25    1    1    2    0    0  0.10637713210E+03 -0.21246845110E+02  0.27602415175E+03  0.32184135068E+03  0.12500000000E+03 0.  0.
</event>
<event>
 5    0  0.5815084E-005  0.2268771E+03  0.7546771E-02  0.1128857E+00
         21   -1    0    0  502  501  0.00000000000E+00  0.00000000000E+00  0.10926637426E+03  0.10926637426E+03  0.00000000000E+00 0.  1.
         21   -1    0    0  501  502 -0.00000000000E+00 -0.00000000000E+00 -0.47108029260E+03  0.47108029260E+03  0.00000000000E+00 0.  1.
         25    1    1    2    0    0 -0.44444523613E+02 -0.35373754630E+02 -0.58255626389E+02  0.14914870500E+03  0.12500000000E+03 0.  0.
         25    1    1    2    0    0  0.82123431552E+02 -0.30630425603E+02 -0.10813681049E+03  0.18708567760E+03  0.12500000000E+03 0.  0.
         25    1    1    2    0    0 -0.37678907939E+02  0.66004180233E+02 -0.19542148146E+03  0.24411228426E+03  0.12500000000E+03 0.  0.
</event>
<event>
 5    0  0.6483720E-005  0.4337887E+03  0.7546771E-02  0.1032670E+00
         21   -1    0    0  502  501  0.00000000000E+00  0.00000000000E+00  0.10808408275E+04  0.10808408275E+04  0.00000000000E+00 0. -1.
         21   -1    0    0  501  502 -0.00000000000E+00 -0.00000000000E+00 -0.17409834871E+03  0.17409834871E+03  0.00000000000E+00 0. -1.
         25    1    1    2    0    0 -0.16016246962E+03  0.20896807638E+03  0.30392816338E+03  0.42109025412E+03  0.12500000000E+03 0.  0.
         25    1    1    2    0    0  0.93860249384E+02 -0.51121398911E+02  0.59970103962E+03  0.62184361439E+03  0.12500000000E+03 0.  0.
         25    1    1    2    0    0  0.66302220237E+02 -0.15784667747E+03  0.31132757746E+01  0.21200530767E+03  0.12500000000E+03 0.  0.
</event>
<event>
 5    0  0.5815084E-005  0.4040343E+03  0.7546771E-02  0.1042392E+00
         21   -1    0    0  502  501  0.00000000000E+00  0.00000000000E+00  0.66626156218E+03  0.66626156218E+03  0.00000000000E+00 0. -1.
         21   -1    0    0  501  502 -0.00000000000E+00 -0.00000000000E+00 -0.24501446657E+03  0.24501446657E+03  0.00000000000E+00 0. -1.
         25    1    1    2    0    0  0.74905779496E+02  0.10278941733E+03  0.22803171416E+01  0.17834444192E+03  0.12500000000E+03 0.  0.
         25    1    1    2    0    0  0.56113337751E+02  0.15703012627E+03  0.35225081954E+03  0.40928328466E+03  0.12500000000E+03 0.  0.
         25    1    1    2    0    0 -0.13101911725E+03 -0.25981954360E+03  0.66715958922E+02  0.32364830217E+03  0.12500000000E+03 0.  0.
</event>
<event>
 5    0  0.6032399E-005  0.3560680E+03  0.7546771E-02  0.1060152E+00
         21   -1    0    0  502  501  0.00000000000E+00  0.00000000000E+00  0.29644117788E+03  0.29644117788E+03  0.00000000000E+00 0.  1.
         21   -1    0    0  501  502 -0.00000000000E+00 -0.00000000000E+00 -0.42768817583E+03  0.42768817583E+03  0.00000000000E+00 0.  1.
         25    1    1    2    0    0 -0.13113141873E+03 -0.20437010546E+03  0.69941725939E+02  0.28192097122E+03  0.12500000000E+03 0.  0.
         25    1    1    2    0    0 -0.95931486771E+01  0.13619055061E+03 -0.14245830312E+03  0.23357924288E+03  0.12500000000E+03 0.  0.
         25    1    1    2    0    0  0.14072456740E+03  0.68179554850E+02 -0.58730420763E+02  0.20862913961E+03  0.12500000000E+03 0.  0.
</event>
<event>
 5    0  0.5815084E-005  0.2192404E+03  0.7546771E-02  0.1134451E+00
         21   -1    0    0  502  501  0.00000000000E+00  0.00000000000E+00  0.55859302121E+03  0.55859302121E+03  0.00000000000E+00 0. -1.
         21   -1    0    0  501  502 -0.00000000000E+00 -0.00000000000E+00 -0.86048961900E+02  0.86048961900E+02  0.00000000000E+00 0. -1.
         25    1    1    2    0    0 -0.21390457309E+02 -0.10033327107E+01  0.21778513209E+03  0.25201968594E+03  0.12500000000E+03 0.  0.
         25    1    1    2    0    0 -0.22403859246E+01 -0.37732363528E+02  0.34064260878E+02  0.13495971420E+03  0.12500000000E+03 0.  0.
         25    1    1    2    0    0  0.23630843233E+02  0.38735696238E+02  0.22069466635E+03  0.25766258298E+03  0.12500000000E+03 0.  0.
</event>
<event>
 5    0  0.5815084E-005  0.3194540E+03  0.7546771E-02  0.1075901E+00
         21   -1    0    0  502  501  0.00000000000E+00  0.00000000000E+00  0.24018683282E+03  0.24018683282E+03  0.00000000000E+00 0.  1.
         21   -1    0    0  501  502 -0.00000000000E+00 -0.00000000000E+00 -0.42488124840E+03  0.42488124840E+03  0.00000000000E+00 0.  1.
         25    1    1    2    0    0  0.89785612213E+01 -0.14318136123E+03  0.12756371543E+02  0.19070721481E+03  0.12500000000E+03 0.  0.
         25    1    1    2    0    0  0.15191108062E+03  0.10422880907E+03 -0.84170380148E+02  0.23801318020E+03  0.12500000000E+03 0.  0.
         25    1    1    2    0    0 -0.16088964184E+03  0.38952552163E+02 -0.11328040697E+03  0.23634768621E+03  0.12500000000E+03 0.  0.
</event>
<event>
 5    0  0.5815084E-005  0.2643809E+03  0.7546771E-02  0.1104539E+00
         21   -1    0    0  502  501  0.00000000000E+00  0.00000000000E+00  0.31824904627E+03  0.31824904627E+03  0.00000000000E+00 0.  1.
         21   -1    0    0  501  502 -0.00000000000E+00 -0.00000000000E+00 -0.21963070127E+03  0.21963070127E+03  0.00000000000E+00 0.  1.
         25    1    1    2    0    0 -0.63138404523E+02  0.96175554299E+02  0.99957178698E+02  0.19711071240E+03  0.12500000000E+03 0.  0.
         25    1    1    2    0    0  0.13924218021E+02 -0.10785456261E+03  0.79264653460E+02  0.18366920213E+03  0.12500000000E+03 0.  0.
         25    1    1    2    0    0  0.49214186502E+02  0.11679008307E+02 -0.80603487156E+02  0.15709983300E+03  0.12500000000E+03 0.  0.
</event>
<event>
 5    0  0.5815084E-005  0.2967309E+03  0.7546771E-02  0.1086886E+00
         21   -1    0    0  502  501  0.00000000000E+00  0.00000000000E+00  0.37875417370E+03  0.37875417370E+03  0.00000000000E+00 0. -1.
         21   -1    0    0  501  502 -0.00000000000E+00 -0.00000000000E+00 -0.23247060739E+03  0.23247060739E+03  0.00000000000E+00 0. -1.
         25    1    1    2    0    0  0.97856549259E+02 -0.63611353077E+02  0.18828729662E+03  0.25436079600E+03  0.12500000000E+03 0.  0.
         25    1    1    2    0    0 -0.42064927489E+02  0.10814079813E+03 -0.10440573708E+03  0.19997361896E+03  0.12500000000E+03 0.  0.
         25    1    1    2    0    0 -0.55791621770E+02 -0.44529445050E+02  0.62402006768E+02  0.15689036613E+03  0.12500000000E+03 0.  0.
</event>
<event>
 5    0  0.6122783E-005  0.2813839E+03  0.7546771E-02  0.1094935E+00
         21   -1    0    0  502  501  0.00000000000E+00  0.00000000000E+00  0.42058468464E+03  0.42058468464E+03  0.00000000000E+00 0. -1.
         21   -1    0    0  501  502 -0.00000000000E+00 -0.00000000000E+00 -0.18825430958E+03  0.18825430958E+03  0.00000000000E+00 0. -1.
         25    1    1    2    0    0 -0.49569242301E+02  0.35776798430E+02  0.27258513299E+03  0.30604696341E+03  0.12500000000E+03 0.  0.
         25    1    1    2    0    0 -0.43214902776E+02  0.21645702969E+02 -0.13074211653E+02  0.13465511238E+03  0.12500000000E+03 0.  0.
         25    1    1    2    0    0  0.92784145077E+02 -0.57422501400E+02 -0.27180546274E+02  0.16813691843E+03  0.12500000000E+03 0.  0.
</event>
<event>
 5    0  0.5815084E-005  0.3068611E+03  0.7546771E-02  0.1081860E+00
         21   -1    0    0  502  501  0.00000000000E+00  0.00000000000E+00  0.35395382721E+03  0.35395382721E+03  0.00000000000E+00 0.  1.
         21   -1    0    0  501  502 -0.00000000000E+00 -0.00000000000E+00 -0.26603389757E+03  0.26603389757E+03  0.00000000000E+00 0.  1.
         25    1    1    2    0    0 -0.61463389352E+01 -0.13984927841E+03  0.12881751464E+03  0.22762809632E+03  0.12500000000E+03 0.  0.
         25    1    1    2    0    0  0.10017480056E+03 -0.58201325241E+01 -0.73153547634E+02  0.17619678244E+03  0.12500000000E+03 0.  0.
         25    1    1    2    0    0 -0.94028461627E+02  0.14566941094E+03  0.32255962628E+02  0.21616284603E+03  0.12500000000E+03 0.  0.
</event>
<event>
 5    0  0.5815084E-005  0.4746524E+03  0.7546771E-02  0.1020615E+00
         21   -1    0    0  502  501  0.00000000000E+00  0.00000000000E+00  0.50561270119E+03  0.50561270119E+03  0.00000000000E+00 0.  1.
         21   -1    0    0  501  502 -0.00000000000E+00 -0.00000000000E+00 -0.44558795853E+03  0.44558795853E+03  0.00000000000E+00 0.  1.
         25    1    1    2    0    0  0.40310604576E+02 -0.11821236170E+02 -0.10590368165E+03  0.16913094410E+03  0.12500000000E+03 0.  0.
         25    1    1    2    0    0 -0.30306924810E+02 -0.34158952977E+03 -0.15826268611E+02  0.36534557246E+03  0.12500000000E+03 0.  0.
         25    1    1    2    0    0 -0.10003679766E+02  0.35341076594E+03  0.18175469292E+03  0.41672414315E+03  0.12500000000E+03 0.  0.
</event>
<event>
 5    0  0.5815084E-005  0.3723401E+03  0.7546771E-02  0.1053802E+00
         21   -1    0    0  502  501  0.00000000000E+00  0.00000000000E+00  0.35705885430E+03  0.35705885430E+03  0.00000000000E+00 0. -1.
         21   -1    0    0  501  502 -0.00000000000E+00 -0.00000000000E+00 -0.38827538581E+03  0.38827538581E+03  0.00000000000E+00 0. -1.
         25    1    1    2    0    0  0.15425076283E+03 -0.76077380158E+02  0.45108544601E+01  0.21266502630E+03  0.12500000000E+03 0.  0.
         25    1    1    2    0    0 -0.21493755753E+02  0.18765184427E+03  0.13092495437E+03  0.26161334040E+03  0.12500000000E+03 0.  0.
         25    1    1    2    0    0 -0.13275700707E+03 -0.11157446411E+03 -0.16665234034E+03  0.27105587341E+03  0.12500000000E+03 0.  0.
</event>
<event>
 5    0  0.5815084E-005  0.3971996E+03  0.7546771E-02  0.1044754E+00
         21   -1    0    0  502  501  0.00000000000E+00  0.00000000000E+00  0.27487454267E+03  0.27487454267E+03  0.00000000000E+00 0.  1.
         21   -1    0    0  501  502 -0.00000000000E+00 -0.00000000000E+00 -0.57396185081E+03  0.57396185081E+03  0.00000000000E+00 0.  1.
         25    1    1    2    0    0  0.23804404940E+03  0.75167080245E+02  0.98718272851E+01  0.27935195073E+03  0.12500000000E+03 0.  0.
         25    1    1    2    0    0 -0.85817254931E+02 -0.19557828956E+03 -0.15531419871E+03  0.29216941817E+03  0.12500000000E+03 0.  0.
         25    1    1    2    0    0 -0.15222679447E+03  0.12041120931E+03 -0.15364493671E+03  0.27731502458E+03  0.12500000000E+03 0.  0.
</event>
<event>
 5    0  0.5815084E-005  0.2997128E+03  0.7546771E-02  0.1085384E+00
         21   -1    0    0  502  501  0.00000000000E+00  0.00000000000E+00  0.91487352535E+03  0.91487352535E+03  0.00000000000E+00 0. -1.
         21   -1    0    0  501  502 -0.00000000000E+00 -0.00000000000E+00 -0.98186020352E+02  0.98186020352E+02  0.00000000000E+00 0. -1.
         25    1    1    2    0    0 -0.12734031406E+03 -0.16037461581E+03  0.38792141323E+03  0.45611796261E+03  0.12500000000E+03 0.  0.
         25    1    1    2    0    0 -0.15258478510E+02  0.46423310164E+02  0.16089227695E+03  0.20952152557E+03  0.12500000000E+03 0.  0.
         25    1    1    2    0    0  0.14259879257E+03  0.11395130564E+03  0.26787381481E+03  0.34742005751E+03  0.12500000000E+03 0.  0.
</event>
<event>
 5    0  0.6724848E-005  0.2985556E+03  0.7546771E-02  0.1085965E+00
         21   -1    0    0  502  501  0.00000000000E+00  0.00000000000E+00  0.26053910169E+03  0.26053910169E+03  0.00000000000E+00 0. -1.
         21   -1    0    0  501  502 -0.00000000000E+00 -0.00000000000E+00 -0.34211917789E+03  0.34211917789E+03  0.00000000000E+00 0. -1.
         25    1    1    2    0    0  0.54118415434E+02 -0.63961304059E+02  0.16022947402E+03  0.21981432085E+03  0.12500000000E+03 0.  0.
         25    1    1    2    0    0 -0.53296788211E+02  0.85279210083E+02 -0.86243544819E+02  0.18214291183E+03  0.12500000000E+03 0.  0.
         25    1    1    2    0    0 -0.82162722293E+00 -0.21317906024E+02 -0.15556600541E+03  0.20070104690E+03  0.12500000000E+03 0.  0.
</event>
<event>
 5    0  0.6251413E-005  0.2823110E+03  0.7546771E-02  0.1094433E+00
         21   -1    0    0  502  501  0.00000000000E+00  0.00000000000E+00  0.12906952740E+04  0.12906952740E+04  0.00000000000E+00 0. -1.
         21   -1    0    0  501  502 -0.00000000000E+00 -0.00000000000E+00 -0.61749287357E+02  0.61749287357E+02  0.00000000000E+00 0. -1.
         25    1    1    2    0    0  0.23508083787E+02  0.16093854749E+03  0.58951853526E+03  0.62418823242E+03  0.12500000000E+03 0.  0.
         25    1    1    2    0    0 -0.13030534798E+02 -0.86572755382E+02  0.51312564960E+03  0.53533874238E+03  0.12500000000E+03 0.  0.
         25    1    1    2    0    0 -0.10477548989E+02 -0.74365792109E+02  0.12630180176E+03  0.19291758654E+03  0.12500000000E+03 0.  0.
</event>
<event>
 5    0  0.5815084E-005  0.2702286E+03  0.7546771E-02  0.1101149E+00
         21   -1    0    0  502  501  0.00000000000E+00  0.00000000000E+00  0.22107467586E+03  0.22107467586E+03  0.00000000000E+00 0.  1.
         21   -1    0    0  501  502 -0.00000000000E+00 -0.00000000000E+00 -0.33031136561E+03  0.33031136561E+03  0.00000000000E+00 0.  1.
         25    1    1    2    0    0  0.10717928696E+03  0.40835377358E+02  0.42201711221E+02  0.17481679561E+03  0.12500000000E+03 0.  0.
         25    1    1    2    0    0  0.20949075825E+02  0.43624516930E+02 -0.11217199790E+03  0.17478420801E+03  0.12500000000E+03 0.  0.
         25    1    1    2    0    0 -0.12812836278E+03 -0.84459894288E+02 -0.39266403072E+02  0.20178503786E+03  0.12500000000E+03 0.  0.
</event>
<event>
 5    0  0.5815084E-005  0.3790054E+03  0.7546771E-02  0.1051302E+00
         21   -1    0    0  502  501  0.00000000000E+00  0.00000000000E+00  0.92896567924E+03  0.92896567924E+03  0.00000000000E+00 0. -1.
         21   -1    0    0  501  502 -0.00000000000E+00 -0.00000000000E+00 -0.15462909675E+03  0.15462909675E+03  0.00000000000E+00 0. -1.
         25    1    1    2    0    0 -0.17448613871E+03  0.74648602278E+02  0.31396542562E+03  0.38757852741E+03  0.12500000000E+03 0.  0.
         25    1    1    2    0    0 -0.34113883654E+02  0.31384096937E+02 -0.31654962746E+02  0.13702465203E+03  0.12500000000E+03 0.  0.
         25    1    1    2    0    0  0.20860002237E+03 -0.10603269922E+03  0.49202611961E+03  0.55899159655E+03  0.12500000000E+03 0.  0.
</event>
<event>
 5    0  0.6055945E-005  0.3572368E+03  0.7546771E-02  0.1059683E+00
         21   -1    0    0  502  501  0.00000000000E+00  0.00000000000E+00  0.52537795674E+03  0.52537795674E+03  0.00000000000E+00 0.  1.
         21   -1    0    0  501  502 -0.00000000000E+00 -0.00000000000E+00 -0.24290728953E+03  0.24290728953E+03  0.00000000000E+00 0.  1.
         25    1    1    2    0    0  0.16032723796E+03 -0.58467472805E+01  0.20298416878E+03  0.28734401066E+03  0.12500000000E+03 0.  0.
         25    1    1    2    0    0 -0.20107121980E+03  0.51980868790E+02  0.18601925068E+03  0.30554837224E+03  0.12500000000E+03 0.  0.
         25    1    1    2    0    0  0.40743981841E+02 -0.46134121509E+02 -0.10653275225E+03  0.17539286338E+03  0.12500000000E+03 0.  0.
</event>
<event>
 5    0  0.5815084E-005  0.3732135E+03  0.7546771E-02  0.1053471E+00
         21   -1    0    0  502  501  0.00000000000E+00  0.00000000000E+00  0.38390987347E+03  0.38390987347E+03  0.00000000000E+00 0.  1.
         21   -1    0    0  501  502 -0.00000000000E+00 -0.00000000000E+00 -0.36281520103E+03  0.36281520103E+03  0.00000000000E+00 0.  1.
         25    1    1    2    0    0 -0.34625266367E+02  0.48352425718E+02  0.17644712827E+03  0.22426648260E+03  0.12500000000E+03 0.  0.
         25    1    1    2    0    0 -0.13589091682E+03  0.11971176623E+03 -0.21715014098E+02  0.22111940233E+03  0.12500000000E+03 0.  0.
         25    1    1    2    0    0  0.17051618319E+03 -0.16806419195E+03 -0.13363744173E+03  0.30133918958E+03  0.12500000000E+03 0.  0.
</event>
<event>
 5    0  0.5815084E-005  0.3718225E+03  0.7546771E-02  0.1053998E+00
         21   -1    0    0  502  501  0.00000000000E+00  0.00000000000E+00  0.87350469321E+02  0.87350469321E+02  0.00000000000E+00 0. -1.
         21   -1    0    0  501  502 -0.00000000000E+00 -0.00000000000E+00 -0.15827273534E+04  0.15827273534E+04  0.00000000000E+00 0. -1.
         25    1    1    2    0    0  0.83243110868E+02 -0.33986142609E+02 -0.11636529660E+03  0.19300351201E+03  0.12500000000E+03 0.  0.
         25    1    1    2    0    0 -0.23675638372E+03  0.78764947821E+02 -0.47817382225E+03  0.55365395919E+03  0.12500000000E+03 0.  0.
         25    1    1    2    0    0  0.15351327285E+03 -0.44778805212E+02 -0.90083776521E+03  0.92342035150E+03  0.12500000000E+03 0.  0.
</event>
<event>
 5    0  0.5815084E-005  0.2377122E+03  0.7546771E-02  0.1121326E+00
         21   -1    0    0  502  501  0.00000000000E+00  0.00000000000E+00  0.43345517373E+03  0.43345517373E+03  0.00000000000E+00 0. -1.
         21   -1    0    0  501  502 -0.00000000000E+00 -0.00000000000E+00 -0.13036430796E+03  0.13036430796E+03  0.00000000000E+00 0. -1.
         25    1    1    2    0    0  0.62711921158E+02  0.15308524221E+02  0.24612109405E+03  0.28349202618E+03  0.12500000000E+03 0.  0.
         25    1    1    2    0    0 -0.56761172110E+02  0.17105957482E+02 -0.17222677877E+01  0.13835610087E+03  0.12500000000E+03 0.  0.
         25    1    1    2    0    0 -0.59507490487E+01 -0.32414481702E+02  0.58692039510E+02  0.14197135465E+03  0.12500000000E+03 0.  0.
</event>
<event>
 5    0  0.5815084E-005  0.3143252E+03  0.7546771E-02  0.1078291E+00
         21   -1    0    0  502  501  0.00000000000E+00  0.00000000000E+00  0.12394961230E+03  0.12394961230E+03  0.00000000000E+00 0.  1.
         21   -1    0    0  501  502 -0.00000000000E+00 -0.00000000000E+00 -0.79710071584E+03  0.79710071584E+03  0.00000000000E+00 0.  1.
         25    1    1    2    0    0  0.69058376919E+01 -0.12708932691E+03 -0.44644574825E+03  0.48076833688E+03  0.12500000000E+03 0.  0.
         25    1    1    2    0    0 -0.12230374375E+03  0.80559123850E+02 -0.16455434569E+03  0.25328069578E+03  0.12500000000E+03 0.  0.
         25    1    1    2    0    0  0.11539790605E+03  0.46530203061E+02 -0.62151009599E+02  0.18700129548E+03  0.12500000000E+03 0.  0.
</event>
<event>
 5    0  0.5815084E-005  0.3001488E+03  0.7546771E-02  0.1085166E+00
         21   -1    0    0  502  501  0.00000000000E+00  0.00000000000E+00  0.70343986881E+02  0.70343986881E+02  0.00000000000E+00 0. -1.
         21   -1    0    0  501  502 -0.00000000000E+00 -0.00000000000E+00 -0.12806962216E+04  0.12806962216E+04  0.00000000000E+00 0. -1.
         25    1    1    2    0    0 -0.18818110871E+02 -0.11934280144E+03 -0.20371425239E+03  0.26780836839E+03  0.12500000000E+03 0.  0.
         25    1    1    2    0    0  0.47122972654E+02 -0.40572115153E+02 -0.70415658213E+03  0.71786361047E+03  0.12500000000E+03 0.  0.
         25    1    1    2    0    0 -0.28304861784E+02  0.15991491660E+03 -0.30248140021E+03  0.36536822963E+03  0.12500000000E+03 0.  0.
</event>
<event>
 5    0  0.5815084E-005  0.4419500E+03  0.7546771E-02  0.1030150E+00
         21   -1    0    0  502  501  0.00000000000E+00  0.00000000000E+00  0.14660251630E+03  0.14660251630E+03  0.00000000000E+00 0.  1.
         21   -1    0    0  501  502 -0.00000000000E+00 -0.00000000000E+00 -0.13323089076E+04  0.13323089076E+04  0.00000000000E+00 0.  1.
         25    1    1    2    0    0 -0.96499267859E+01 -0.94239005519E+02 -0.28053254002E+03  0.32139946680E+03  0.12500000000E+03 0.  0.
         25    1    1    2    0    0 -0.27928856207E+03  0.21737241838E+03 -0.38949270782E+03  0.54090890048E+03  0.12500000000E+03 0.  0.
         25    1    1    2    0    0  0.28893848886E+03 -0.12313341286E+03 -0.51568114347E+03  0.61660305662E+03  0.12500000000E+03 0.  0.
</event>
<event>
 5    0  0.5815084E-005  0.2642010E+03  0.7546771E-02  0.1104645E+00
         21   -1    0    0  502  501  0.00000000000E+00  0.00000000000E+00  0.87483134600E+02  0.87483134600E+02  0.00000000000E+00 0. -1.
         21   -1    0    0  501  502 -0.00000000000E+00 -0.00000000000E+00 -0.79789261865E+03  0.79789261865E+03  0.00000000000E+00 0. -1.
         25    1    1    2    0    0 -0.20240568286E+02  0.54238293895E+02 -0.33051741499E+02  0.14166471242E+03  0.12500000000E+03 0.  0.
         25    1    1    2    0    0 -0.52827885156E+02 -0.55044586191E+02 -0.45827867877E+03  0.48110813684E+03  0.12500000000E+03 0.  0.
         25    1    1    2    0    0  0.73068453442E+02  0.80629229639E+00 -0.21907906378E+03  0.26260290398E+03  0.12500000000E+03 0.  0.
</event>
<event>
 5    0  0.5815084E-005  0.2827145E+03  0.7546771E-02  0.1094216E+00
         21   -1    0    0  502  501  0.00000000000E+00  0.00000000000E+00  0.95976978727E+02  0.95976978727E+02  0.00000000000E+00 0.  1.
         21   -1    0    0  501  502 -0.00000000000E+00 -0.00000000000E+00 -0.83277767442E+03  0.83277767442E+03  0.00000000000E+00 0.  1.
         25    1    1    2    0    0 -0.72537251853E+02  0.39124946321E+02 -0.35770113606E+03  0.38777250685E+03  0.12500000000E+03 0.  0.
         25    1    1    2    0    0  0.13128272395E+03  0.82560308998E+02 -0.22866427685E+03  0.30325518914E+03  0.12500000000E+03 0.  0.
         25    1    1    2    0    0 -0.58745472097E+02 -0.12168525532E+03 -0.15043528278E+03  0.23772695715E+03  0.12500000000E+03 0.  0.
</event>
<event>
 5    0  0.5815084E-005  0.2715696E+03  0.7546771E-02  0.1100385E+00
         21   -1    0    0  502  501  0.00000000000E+00  0.00000000000E+00  0.52015942700E+03  0.52015942700E+03  0.00000000000E+00 0. -1.
         21   -1    0    0  501  502 -0.00000000000E+00 -0.00000000000E+00 -0.14178355548E+03  0.14178355548E+03  0.00000000000E+00 0. -1.
         25    1    1    2    0    0  0.88231781346E+02  0.80170127410E+02  0.29272519601E+02  0.17519696622E+03  0.12500000000E+03 0.  0.
         25    1    1    2    0    0 -0.42377209022E+02 -0.64940771160E+02  0.31621661933E+03  0.34875647943E+03  0.12500000000E+03 0.  0.
         25    1    1    2    0    0 -0.45854572324E+02 -0.15229356250E+02  0.32886732581E+02  0.13798953683E+03  0.12500000000E+03 0.  0.
</event>
<event>
 5    0  0.5815084E-005  0.2732385E+03  0.7546771E-02  0.1099440E+00
         21   -1    0    0  502  501  0.00000000000E+00  0.00000000000E+00  0.13432126417E+03  0.13432126417E+03  0.00000000000E+00 0.  1.
         21   -1    0    0  501  502 -0.00000000000E+00 -0.00000000000E+00 -0.55582634712E+03  0.55582634712E+03  0.00000000000E+00 0.  1.
         25    1    1    2    0    0 -0.40657435926E+02 -0.88334922342E+02 -0.87779210303E+02  0.18106980798E+03  0.12500000000E+03 0.  0.
         25    1    1    2    0    0  0.44603870908E+02 -0.92392785535E+02 -0.17290522025E+03  0.23674278723E+03  0.12500000000E+03 0.  0.
         25    1    1    2    0    0 -0.39464349816E+01  0.18072770788E+03 -0.16082065240E+03  0.27233501608E+03  0.12500000000E+03 0.  0.
</event>
<event>
 5    0  0.5815084E-005  0.3528758E+03  0.7546771E-02  0.1061441E+00
         21   -1    0    0  502  501  0.00000000000E+00  0.00000000000E+00  0.65300438960E+02  0.65300438960E+02  0.00000000000E+00 0. -1.
         21   -1    0    0  501  502 -0.00000000000E+00 -0.00000000000E+00 -0.19068986940E+04  0.19068986940E+04  0.00000000000E+00 0. -1.
         25    1    1    2    0    0  0.19543289441E+03 -0.12169697731E+03 -0.34269638517E+03  0.43135829992E+03  0.12500000000E+03 0.  0.
         25    1    1    2    0    0 -0.84899213234E+02  0.25045579934E+01 -0.58361493915E+03  0.60286445111E+03  0.12500000000E+03 0.  0.
         25    1    1    2    0    0 -0.11053368117E+03  0.11919241932E+03 -0.91528693070E+03  0.93797638191E+03  0.12500000000E+03 0.  0.
</event>
<event>
 5    0  0.5815084E-005  0.2067494E+03  0.7546771E-02  0.1144166E+00
         21   -1    0    0  502  501  0.00000000000E+00  0.00000000000E+00  0.14945491702E+03  0.14945491702E+03  0.00000000000E+00 0. -1.
         21   -1    0    0  501  502 -0.00000000000E+00 -0.00000000000E+00 -0.28600798627E+03  0.28600798627E+03  0.00000000000E+00 0. -1.
         25    1    1    2    0    0  0.35534451015E+02  0.20634922169E+02 -0.79760997712E+01  0.13182228715E+03  0.12500000000E+03 0.  0.
         25    1    1    2    0    0 -0.37032801983E+02 -0.45942281114E+02 -0.10581564260E+03  0.17408064751E+03  0.12500000000E+03 0.  0.
         25    1    1    2    0    0  0.14983509671E+01  0.25307358945E+02 -0.22761326877E+02  0.12955996864E+03  0.12500000000E+03 0.  0.
</event>
<event>
 5    0  0.5815084E-005  0.5134648E+03  0.7546771E-02  0.1010323E+00
         21   -1    0    0  502  501  0.00000000000E+00  0.00000000000E+00  0.48011511381E+03  0.48011511381E+03  0.00000000000E+00 0. -1.
         21   -1    0    0  501  502 -0.00000000000E+00 -0.00000000000E+00 -0.54913104153E+03  0.54913104153E+03  0.00000000000E+00 0. -1.
         25    1    1    2    0    0 -0.28429636226E+03 -0.28546154475E+03  0.41335087313E+02  0.42384702968E+03  0.12500000000E+03 0.  0.
         25    1    1    2    0    0 -0.66094117647E+02  0.43965871851E+02 -0.57018719166E+02  0.15867439809E+03  0.12500000000E+03 0.  0.
         25    1    1    2    0    0  0.35039047991E+03  0.24149567290E+03 -0.53332295860E+02  0.44672472757E+03  0.12500000000E+03 0.  0.
</event>
<event>
 5    0  0.5815084E-005  0.3156626E+03  0.7546771E-02  0.1077663E+00
         21   -1    0    0  502  501  0.00000000000E+00  0.00000000000E+00  0.70707202810E+02  0.70707202810E+02  0.00000000000E+00 0. -1.
         21   -1    0    0  501  502 -0.00000000000E+00 -0.00000000000E+00 -0.14092326306E+04  0.14092326306E+04  0.00000000000E+00 0. -1.
         25    1    1    2    0    0  0.14959546493E+02  0.18172703756E+02 -0.92372873350E+03  0.93244506985E+03  0.12500000000E+03 0.  0.
         25    1    1    2    0    0 -0.71561828697E+02 -0.11273679496E+03 -0.15985162517E+03  0.24291608085E+03  0.12500000000E+03 0.  0.
         25    1    1    2    0    0  0.56602282203E+02  0.94564091204E+02 -0.25494506913E+03  0.30457868272E+03  0.12500000000E+03 0.  0.
</event>
<event>
 5    0  0.5815084E-005  0.3389918E+03  0.7546771E-02  0.1067226E+00
         21   -1    0    0  502  501  0.00000000000E+00  0.00000000000E+00  0.18074143612E+03  0.18074143612E+03  0.00000000000E+00 0.  1.
         21   -1    0    0  501  502 -0.00000000000E+00 -0.00000000000E+00 -0.63580035439E+03  0.63580035439E+03  0.00000000000E+00 0.  1.
         25    1    1    2    0    0  0.44520606488E+01 -0.13884425948E+02 -0.86915595615E+01  0.12614730015E+03  0.12500000000E+03 0.  0.
         25    1    1    2    0    0 -0.18400574170E+03  0.12868152213E+03 -0.32729479673E+03  0.41612970464E+03  0.12500000000E+03 0.  0.
         25    1    1    2    0    0  0.17955368105E+03 -0.11479709618E+03 -0.11907256197E+03  0.27426478572E+03  0.12500000000E+03 0.  0.
</event>
<event>
 5    0  0.5815084E-005  0.3786870E+03  0.7546771E-02  0.1051420E+00
         21   -1    0    0  502  501  0.00000000000E+00  0.00000000000E+00  0.20370066533E+03  0.20370066533E+03  0.00000000000E+00 0.  1.
         21   -1    0    0  501  502 -0.00000000000E+00 -0.00000000000E+00 -0.70399309092E+03  0.70399309092E+03  0.00000000000E+00 0.  1.
         25    1    1    2    0    0  0.52131320330E+01 -0.10822121585E+03 -0.10319860619E+03  0.19497169186E+03  0.12500000000E+03 0.  0.
         25    1    1    2    0    0 -0.29596887167E+02  0.21263381794E+03  0.34470052768E+02  0.25080331098E+03  0.12500000000E+03 0.  0.
         25    1    1    2    0    0  0.24383755135E+02 -0.10441260209E+03 -0.43156387217E+03  0.46191875341E+03  0.12500000000E+03 0.  0.
</event>
<event>
 5    0  0.5815084E-005  0.4644685E+03  0.7546771E-02  0.1023493E+00
         21   -1    0    0  502  501  0.00000000000E+00  0.00000000000E+00  0.21470612184E+03  0.21470612184E+03  0.00000000000E+00 0. -1.
         21   -1    0    0  501  502 -0.00000000000E+00 -0.00000000000E+00 -0.10047731586E+04  0.10047731586E+04  0.00000000000E+00 0. -1.
         25    1    1    2    0    0 -0.21993096604E+03 -0.22052986642E+03 -0.57905389074E+03  0.66927681880E+03  0.12500000000E+03 0.  0.
         25    1    1    2    0    0 -0.53402684624E+02  0.95829799303E+02 -0.76695080742E+01  0.16649029555E+03  0.12500000000E+03 0.  0.
         25    1    1    2    0    0  0.27333365066E+03  0.12470006712E+03 -0.20334363800E+03  0.38371216613E+03  0.12500000000E+03 0.  0.
</event>
<event>
 5    0  0.5815084E-005  0.2800501E+03  0.7546771E-02  0.1095662E+00
         21   -1    0    0  502  501  0.00000000000E+00  0.00000000000E+00  0.96176161329E+02  0.96176161329E+02  0.00000000000E+00 0. -1.
         21   -1    0    0  501  502 -0.00000000000E+00 -0.00000000000E+00 -0.81546265696E+03  0.81546265696E+03  0.00000000000E+00 0. -1.
         25    1    1    2    0    0  0.71843129431E+02  0.31389431174E+02 -0.43503205217E+03  0.45937415910E+03  0.12500000000E+03 0.  0.
         25    1    1    2    0    0  0.81035181737E+02  0.11932875246E+02 -0.12742008822E+03  0.19639239566E+03  0.12500000000E+03 0.  0.
         25    1    1    2    0    0 -0.15287831117E+03 -0.43322306420E+02 -0.15683435525E+03  0.25587226353E+03  0.12500000000E+03 0.  0.
</event>
<event>
 5    0  0.6110624E-005  0.2861072E+03  0.7546771E-02  0.1092399E+00
         21   -1    0    0  502  501  0.00000000000E+00  0.00000000000E+00  0.34928444654E+03  0.34928444654E+03  0.00000000000E+00 0. -1.
         21   -1    0    0  501  502 -0.00000000000E+00 -0.00000000000E+00 -0.23435726319E+03  0.23435726319E+03  0.00000000000E+00 0. -1.
         25    1    1    2    0    0 -0.10542850908E+03 -0.16390372325E+02 -0.29897127600E+02  0.16704087245E+03  0.12500000000E+03 0.  0.
         25    1    1    2    0    0 -0.35690466897E+02 -0.10203741582E+03  0.86157575254E+02  0.18636944875E+03  0.12500000000E+03 0.  0.
         25    1    1    2    0    0  0.14111897597E+03  0.11842778814E+03  0.58666735697E+02  0.23023138852E+03  0.12500000000E+03 0.  0.
</event>
<event>
 5    0  0.5815084E-005  0.2783201E+03  0.7546771E-02  0.1096610E+00
         21   -1    0    0  502  501  0.00000000000E+00  0.00000000000E+00  0.42327607751E+03  0.42327607751E+03  0.00000000000E+00 0. -1.
         21   -1    0    0  501  502 -0.00000000000E+00 -0.00000000000E+00 -0.18300609210E+03  0.18300609210E+03  0.00000000000E+00 0. -1.
         25    1    1    2    0    0  0.67234503792E+02  0.66761987369E+02  0.13585419352E+03  0.20750663449E+03  0.12500000000E+03 0.  0.
         25    1    1    2    0    0 -0.15739077959E+03  0.17958134414E+02  0.17355036021E+02  0.20253530400E+03  0.12500000000E+03 0.  0.
         25    1    1    2    0    0  0.90156275800E+02 -0.84720121783E+02  0.87060755862E+02  0.19624023113E+03  0.12500000000E+03 0.  0.
</event>
<event>
 5    0  0.5815084E-005  0.3192548E+03  0.7546771E-02  0.1075993E+00
         21   -1    0    0  502  501  0.00000000000E+00  0.00000000000E+00  0.38264010687E+03  0.38264010687E+03  0.00000000000E+00 0.  1.
         21   -1    0    0  501  502 -0.00000000000E+00 -0.00000000000E+00 -0.26636940088E+03  0.26636940088E+03  0.00000000000E+00 0.  1.
         25    1    1    2    0    0  0.10478714082E+03  0.17439038292E+02  0.33561115968E+02  0.16743898424E+03  0.12500000000E+03 0.  0.
         25    1    1    2    0    0 -0.21431613434E+03 -0.12022010577E+03  0.76270386080E+02  0.28605323117E+03  0.12500000000E+03 0.  0.
         25    1    1    2    0    0  0.10952899352E+03  0.10278106748E+03  0.64392039370E+01  0.19551729233E+03  0.12500000000E+03 0.  0.
</event>
<event>
 5    0  0.6165571E-005  0.3505114E+03  0.7546771E-02  0.1062405E+00
         21   -1    0    0  502  501  0.00000000000E+00  0.00000000000E+00  0.19880381212E+03  0.19880381212E+03  0.00000000000E+00 0.  1.
         21   -1    0    0  501  502 -0.00000000000E+00 -0.00000000000E+00 -0.61798731144E+03  0.61798731144E+03  0.00000000000E+00 0.  1.
         25    1    1    2    0    0 -0.14694181546E+03 -0.10307394526E+03 -0.15063588182E+03  0.26557918634E+03  0.12500000000E+03 0.  0.
         25    1    1    2    0    0  0.11293637062E+03  0.20248550834E+03 -0.28381418068E+03  0.38720859243E+03  0.12500000000E+03 0.  0.
         25    1    1    2    0    0  0.34005444845E+02 -0.99411563072E+02  0.15266563195E+02  0.16400334479E+03  0.12500000000E+03 0.  0.
</event>
<event>
 5    0  0.5815084E-005  0.2398480E+03  0.7546771E-02  0.1119894E+00
         21   -1    0    0  502  501  0.00000000000E+00  0.00000000000E+00  0.38334108664E+03  0.38334108664E+03  0.00000000000E+00 0. -1.
         21   -1    0    0  501  502 -0.00000000000E+00 -0.00000000000E+00 -0.15006760981E+03  0.15006760981E+03  0.00000000000E+00 0. -1.
         25    1    1    2    0    0 -0.17290857564E+02 -0.74020065538E+02  0.15163363947E+03  0.21070288199E+03  0.12500000000E+03 0.  0.
         25    1    1    2    0    0  0.74723817683E+02 -0.16828519620E+02  0.27260547011E+02  0.14911400144E+03  0.12500000000E+03 0.  0.
         25    1    1    2    0    0 -0.57432960119E+02  0.90848585158E+02  0.54379290345E+02  0.17359181303E+03  0.12500000000E+03 0.  0.
</event>
<event>
 5    0  0.5815084E-005  0.3581521E+03  0.7546771E-02  0.1059318E+00
         21   -1    0    0  502  501  0.00000000000E+00  0.00000000000E+00  0.22552009490E+03  0.22552009490E+03  0.00000000000E+00 0. -1.
         21   -1    0    0  501  502 -0.00000000000E+00 -0.00000000000E+00 -0.56878718254E+03  0.56878718254E+03  0.00000000000E+00 0. -1.
         25    1    1    2    0    0 -0.10010576824E+03  0.77431970967E+01  0.11739377717E+03  0.19871442035E+03  0.12500000000E+03 0.  0.
         25    1    1    2    0    0 -0.86542824975E+02  0.15903007040E+01 -0.20307284627E+03  0.25368439153E+03  0.12500000000E+03 0.  0.
         25    1    1    2    0    0  0.18664859322E+03 -0.93334978007E+01 -0.25758801854E+03  0.34190846557E+03  0.12500000000E+03 0.  0.
</event>
<event>
 5    0  0.5815084E-005  0.3986528E+03  0.7546771E-02  0.1044247E+00
         21   -1    0    0  502  501  0.00000000000E+00  0.00000000000E+00  0.20224475872E+03  0.20224475872E+03  0.00000000000E+00 0. -1.
         21   -1    0    0  501  502 -0.00000000000E+00 -0.00000000000E+00 -0.78580070835E+03  0.78580070835E+03  0.00000000000E+00 0. -1.
         25    1    1    2    0    0  0.58023717059E+01  0.16196125455E+03 -0.29202094955E+03  0.35660391258E+03  0.12500000000E+03 0.  0.
         25    1    1    2    0    0  0.18465286928E+03 -0.22222626558E+03 -0.10823874316E+03  0.33289911500E+03  0.12500000000E+03 0.  0.
         25    1    1    2    0    0 -0.19045524099E+03  0.60265011031E+02 -0.18329625693E+03  0.29854243949E+03  0.12500000000E+03 0.  0.
</event>
<event>
 5    0  0.6414532E-005  0.4333142E+03  0.7546771E-02  0.1032818E+00
         21   -1    0    0  502  501  0.00000000000E+00  0.00000000000E+00  0.19859661276E+03  0.19859661276E+03  0.00000000000E+00 0. -1.
         21   -1    0    0  501  502 -0.00000000000E+00 -0.00000000000E+00 -0.94544003365E+03  0.94544003365E+03  0.00000000000E+00 0. -1.
         25    1    1    2    0    0  0.12567962856E+03  0.15440091916E+03 -0.67598717716E+01  0.23517165802E+03  0.12500000000E+03 0.  0.
         25    1    1    2    0    0  0.72565447680E+02  0.99608354899E+02 -0.31903199433E+03  0.36413456575E+03  0.12500000000E+03 0.  0.
         25    1    1    2    0    0 -0.19824507624E+03 -0.25400927406E+03 -0.42105155479E+03  0.54473042264E+03  0.12500000000E+03 0.  0.
</event>
<event>
 5    0  0.5815084E-005  0.3095772E+03  0.7546771E-02  0.1080549E+00
         21   -1    0    0  502  501  0.00000000000E+00  0.00000000000E+00  0.49663945574E+03  0.49663945574E+03  0.00000000000E+00 0. -1.
         21   -1    0    0  501  502 -0.00000000000E+00 -0.00000000000E+00 -0.19297310933E+03  0.19297310933E+03  0.00000000000E+00 0. -1.
         25    1    1    2    0    0  0.60986201846E+02 -0.18559045118E+03  0.14152778950E+03  0.27169513722E+03  0.12500000000E+03 0.  0.
         25    1    1    2    0    0  0.33765656508E+01  0.20789909876E+03  0.95346188851E+02  0.26067092701E+03  0.12500000000E+03 0.  0.
         25    1    1    2    0    0 -0.64362767497E+02 -0.22308647574E+02  0.66792368052E+02  0.15724650084E+03  0.12500000000E+03 0.  0.
</event>
<event>
 5    0  0.5815084E-005  0.2780675E+03  0.7546771E-02  0.1096749E+00
         21   -1    0    0  502  501  0.00000000000E+00  0.00000000000E+00  0.11340666665E+04  0.11340666665E+04  0.00000000000E+00 0.  1.
         21   -1    0    0  501  502 -0.00000000000E+00 -0.00000000000E+00 -0.68180764233E+02  0.68180764233E+02  0.00000000000E+00 0.  1.
         25    1    1    2    0    0  0.48391829427E+02 -0.42673410998E+02  0.28816086038E+03  0.32066254944E+03  0.12500000000E+03 0.  0.
         25    1    1    2    0    0 -0.57251298732E+02  0.10404585129E+03  0.12209524524E+03  0.21127115110E+03  0.12500000000E+03 0.  0.
         25    1    1    2    0    0  0.88594693058E+01 -0.61372440293E+02  0.65562979666E+03  0.67031373020E+03  0.12500000000E+03 0.  0.
</event>
<event>
 5    0  0.5815084E-005  0.4067331E+03  0.7546771E-02  0.1041473E+00
         21   -1    0    0  502  501  0.00000000000E+00  0.00000000000E+00  0.10193701441E+04  0.10193701441E+04  0.00000000000E+00 0.  1.
         21   -1    0    0  501  502 -0.00000000000E+00 -0.00000000000E+00 -0.16228825783E+03  0.16228825783E+03  0.00000000000E+00 0.  1.
         25    1    1    2    0    0  0.77510592176E+02  0.17885762403E+03  0.27306979364E+03  0.35803638610E+03  0.12500000000E+03 0.  0.
         25    1    1    2    0    0  0.17377035825E+03 -0.20320094123E+03  0.25105356914E+03  0.38747858586E+03  0.12500000000E+03 0.  0.
         25    1    1    2    0    0 -0.25128095043E+03  0.24343317197E+02  0.33295852349E+03  0.43614342997E+03  0.12500000000E+03 0.  0.
</event>
<event>
 5    0  0.5815084E-005  0.3606592E+03  0.7546771E-02  0.1058323E+00
         21   -1    0    0  502  501  0.00000000000E+00  0.00000000000E+00  0.46036498566E+03  0.46036498566E+03  0.00000000000E+00 0. -1.
         21   -1    0    0  501  502 -0.00000000000E+00 -0.00000000000E+00 -0.28254771809E+03  0.28254771809E+03  0.00000000000E+00 0. -1.
         25    1    1    2    0    0 -0.10914714161E+02  0.77403066392E+02  0.35761170277E+03  0.38680937893E+03  0.12500000000E+03 0.  0.
         25    1    1    2    0    0  0.19123584309E+02 -0.18126420924E+02  0.16868308640E+01  0.12775806828E+03  0.12500000000E+03 0.  0.
         25    1    1    2    0    0 -0.82088701480E+01 -0.59276645468E+02 -0.18148126607E+03  0.22834525654E+03  0.12500000000E+03 0.  0.
</event>
<event>
 5    0  0.5815084E-005  0.3742731E+03  0.7546771E-02  0.1053071E+00
         21   -1    0    0  502  501  0.00000000000E+00  0.00000000000E+00  0.99522523398E+03  0.99522523398E+03  0.00000000000E+00 0. -1.
         21   -1    0    0  501  502 -0.00000000000E+00 -0.00000000000E+00 -0.14075240117E+03  0.14075240117E+03  0.00000000000E+00 0. -1.
         25    1    1    2    0    0  0.14846023976E+03 -0.10198265277E+02  0.24383669442E+03  0.31181048884E+03  0.12500000000E+03 0.  0.
         25    1    1    2    0    0 -0.27952073742E+03  0.13388901657E+03  0.36955159048E+03  0.49824842140E+03  0.12500000000E+03 0.  0.
         25    1    1    2    0    0  0.13106049766E+03 -0.12369075129E+03  0.24108454791E+03  0.32591872490E+03  0.12500000000E+03 0.  0.
</event>
<event>
 5    0  0.5815084E-005  0.3997100E+03  0.7546771E-02  0.1043880E+00
         21   -1    0    0  502  501  0.00000000000E+00  0.00000000000E+00  0.12043759275E+03  0.12043759275E+03  0.00000000000E+00 0. -1.
         21   -1    0    0  501  502 -0.00000000000E+00 -0.00000000000E+00 -0.13265635561E+04  0.13265635561E+04  0.00000000000E+00 0. -1.
         25    1    1    2    0    0 -0.39076029816E+02  0.18380477236E+02 -0.46595122401E+03  0.48435557311E+03  0.12500000000E+03 0.  0.
         25    1    1    2    0    0 -0.22810796153E+03 -0.11182158934E+03 -0.22481325895E+03  0.36152912933E+03  0.12500000000E+03 0.  0.
         25    1    1    2    0    0  0.26718399134E+03  0.93441112107E+02 -0.51536148035E+03  0.60111644637E+03  0.12500000000E+03 0.  0.
</event>
<event>
 5    0  0.5815084E-005  0.4864708E+03  0.7546771E-02  0.1017372E+00
         21   -1    0    0  502  501  0.00000000000E+00  0.00000000000E+00  0.22566636017E+03  0.22566636017E+03  0.00000000000E+00 0.  1.
         21   -1    0    0  501  502 -0.00000000000E+00 -0.00000000000E+00 -0.10486891994E+04  0.10486891994E+04  0.00000000000E+00 0.  1.
         25    1    1    2    0    0 -0.93449044750E+02 -0.30631688067E+03 -0.35423031191E+03  0.49362624447E+03  0.12500000000E+03 0.  0.
         25    1    1    2    0    0  0.24294485365E+03  0.95319677182E+02 -0.38484298560E+03  0.48149472099E+03  0.12500000000E+03 0.  0.
         25    1    1    2    0    0 -0.14949580890E+03  0.21099720349E+03 -0.83949541721E+02  0.29923459412E+03  0.12500000000E+03 0.  0.
</event>
<event>
 5    0  0.5815084E-005  0.3236036E+03  0.7546771E-02  0.1074003E+00
         21   -1    0    0  502  501  0.00000000000E+00  0.00000000000E+00  0.11210074810E+04  0.11210074810E+04  0.00000000000E+00 0. -1.
         21   -1    0    0  501  502 -0.00000000000E+00 -0.00000000000E+00 -0.93415349438E+02  0.93415349438E+02  0.00000000000E+00 0. -1.
         25    1    1    2    0    0  0.13207623405E+02  0.15255210829E+03  0.73823586470E+02  0.21100120611E+03  0.12500000000E+03 0.  0.
         25    1    1    2    0    0 -0.23002378799E+02 -0.53497911453E+02  0.59345901800E+03  0.60926984335E+03  0.12500000000E+03 0.  0.
         25    1    1    2    0    0  0.97947553940E+01 -0.99054196836E+02  0.36030952709E+03  0.39415178099E+03  0.12500000000E+03 0.  0.
</event>
<event>
 5    0  0.5815084E-005  0.3498587E+03  0.7546771E-02  0.1062673E+00
         21   -1    0    0  502  501  0.00000000000E+00  0.00000000000E+00  0.72967057418E+03  0.72967057418E+03  0.00000000000E+00 0.  1.
         21   -1    0    0  501  502 -0.00000000000E+00 -0.00000000000E+00 -0.16774844546E+03  0.16774844546E+03  0.00000000000E+00 0.  1.
         25    1    1    2    0    0 -0.10838026597E+03  0.17365707343E+03  0.15711771415E+03  0.28672990305E+03  0.12500000000E+03 0.  0.
         25    1    1    2    0    0 -0.79977911106E+02 -0.13723340695E+03  0.89600288763E+02  0.22109429209E+03  0.12500000000E+03 0.  0.
         25    1    1    2    0    0  0.18835817708E+03 -0.36423666477E+02  0.31520412581E+03  0.38959482450E+03  0.12500000000E+03 0.  0.
</event>
<event>
 5    0  0.5815084E-005  0.3451967E+03  0.7546771E-02  0.1064604E+00
         21   -1    0    0  502  501  0.00000000000E+00  0.00000000000E+00  0.89343029355E+02  0.89343029355E+02  0.00000000000E+00 0.  1.
         21   -1    0    0  501  502 -0.00000000000E+00 -0.00000000000E+00 -0.13337440700E+04  0.13337440700E+04  0.00000000000E+00 0.  1.
         25    1    1    2    0    0 -0.10143270527E+03 -0.13049705304E+03 -0.54690839490E+03  0.58485200433E+03  0.12500000000E+03 0.  0.
         25    1    1    2    0    0 -0.94715948260E+01  0.23518784110E+02 -0.60682530019E+03  0.62008450171E+03  0.12500000000E+03 0.  0.
         25    1    1    2    0    0  0.11090430010E+03  0.10697826893E+03 -0.90667345516E+02  0.21815059328E+03  0.12500000000E+03 0.  0.
</event>
<event>
 5    0  0.5815084E-005  0.2739208E+03  0.7546771E-02  0.1099056E+00
         21   -1    0    0  502  501  0.00000000000E+00  0.00000000000E+00  0.29165029906E+03  0.29165029906E+03  0.00000000000E+00 0.  1.
         21   -1    0    0  501  502 -0.00000000000E+00 -0.00000000000E+00 -0.25726910851E+03  0.25726910851E+03  0.00000000000E+00 0.  1.
         25    1    1    2    0    0 -0.15631305078E+03 -0.27192874331E+02 -0.55328232370E+01  0.20206146191E+03  0.12500000000E+03 0.  0.
         25    1    1    2    0    0  0.10753747801E+03 -0.61572917938E+02 -0.15511512365E+02  0.17669504921E+03  0.12500000000E+03 0.  0.
         25    1    1    2    0    0  0.48775572769E+02  0.88765792268E+02  0.55425526155E+02  0.17016289644E+03  0.12500000000E+03 0.  0.
</event>
<event>
 5    0  0.5815084E-005  0.2433744E+03  0.7546771E-02  0.1117565E+00
         21   -1    0    0  502  501  0.00000000000E+00  0.00000000000E+00  0.46118886003E+03  0.46118886003E+03  0.00000000000E+00 0.  1.
         21   -1    0    0  501  502 -0.00000000000E+00 -0.00000000000E+00 -0.12843133310E+03  0.12843133310E+03  0.00000000000E+00 0.  1.
         25    1    1    2    0    0 -0.22207808430E+02 -0.13564834214E+02  0.97124876492E+02  0.16042267021E+03  0.12500000000E+03 0.  0.
         25    1    1    2    0    0  0.84680957440E+02  0.10508377488E+03  0.78976421506E+02  0.20018925908E+03  0.12500000000E+03 0.  0.
         25    1    1    2    0    0 -0.62473149010E+02 -0.91518940662E+02  0.15665622893E+03  0.22900826385E+03  0.12500000000E+03 0.  0.
</event>
<event>
 5    0  0.5815084E-005  0.3872872E+03  0.7546771E-02  0.1048273E+00
         21   -1    0    0  502  501  0.00000000000E+00  0.00000000000E+00  0.10349408969E+03  0.10349408969E+03  0.00000000000E+00 0. -1.
         21   -1    0    0  501  502 -0.00000000000E+00 -0.00000000000E+00 -0.14492749918E+04  0.14492749918E+04  0.00000000000E+00 0. -1.
         25    1    1    2    0    0 -0.15030079507E+03  0.42833759665E+02 -0.75667785802E+03  0.78269498579E+03  0.12500000000E+03 0.  0.
         25    1    1    2    0    0  0.33477881305E+02  0.16360048152E+03 -0.15512234833E+03  0.25994966636E+03  0.12500000000E+03 0.  0.
         25    1    1    2    0    0  0.11682291376E+03 -0.20643424118E+03 -0.43398069574E+03  0.51012442932E+03  0.12500000000E+03 0.  0.
</event>
<event>
 5    0  0.5815084E-005  0.2748232E+03  0.7546771E-02  0.1098550E+00
         21   -1    0    0  502  501  0.00000000000E+00  0.00000000000E+00  0.11584902081E+04  0.11584902081E+04  0.00000000000E+00 0.  1.
         21   -1    0    0  501  502 -0.00000000000E+00 -0.00000000000E+00 -0.65195026488E+02  0.65195026488E+02  0.00000000000E+00 0.  1.
         25    1    1    2    0    0 -0.49020730006E+02  0.14372284431E+03  0.19958687989E+03  0.28021279516E+03  0.12500000000E+03 0.  0.
         25    1    1    2    0    0  0.34343347380E+02 -0.11439566657E+03  0.49246914944E+03  0.52193552973E+03  0.12500000000E+03 0.  0.
         25    1    1    2    0    0  0.14677382625E+02 -0.29327177746E+02  0.40123915223E+03  0.42153690965E+03  0.12500000000E+03 0.  0.
</event>
<event>
 5    0  0.5815084E-005  0.3857716E+03  0.7546771E-02  0.1048821E+00
         21   -1    0    0  502  501  0.00000000000E+00  0.00000000000E+00  0.10135099149E+04  0.10135099149E+04  0.00000000000E+00 0. -1.
         21   -1    0    0  501  502 -0.00000000000E+00 -0.00000000000E+00 -0.14683601964E+03  0.14683601964E+03  0.00000000000E+00 0. -1.
         25    1    1    2    0    0 -0.20300981854E+02 -0.26080097615E+02  0.16660097838E+03  0.21088666945E+03  0.12500000000E+03 0.  0.
         25    1    1    2    0    0 -0.17890331263E+03  0.15648742151E+03  0.90808338765E+02  0.28348873479E+03  0.12500000000E+03 0.  0.
         25    1    1    2    0    0  0.19920429449E+03 -0.13040732389E+03  0.60926457808E+03  0.66597053026E+03  0.12500000000E+03 0.  0.
</event>
<event>
 5    0  0.5815084E-005  0.2530819E+03  0.7546771E-02  0.1111372E+00
         21   -1    0    0  502  501  0.00000000000E+00  0.00000000000E+00  0.61848248141E+02  0.61848248141E+02  0.00000000000E+00 0. -1.
         21   -1    0    0  501  502 -0.00000000000E+00 -0.00000000000E+00 -0.10356067861E+04  0.10356067861E+04  0.00000000000E+00 0. -1.
         25    1    1    2    0    0  0.49144063177E+02 -0.22974165143E+02 -0.34091825268E+03  0.36714194288E+03  0.12500000000E+03 0.  0.
         25    1    1    2    0    0  0.17589970863E+02  0.10440954283E+03 -0.15587879795E+03  0.22612819231E+03  0.12500000000E+03 0.  0.
         25    1    1    2    0    0 -0.66734034040E+02 -0.81435377686E+02 -0.47696148737E+03  0.50418489910E+03  0.12500000000E+03 0.  0.
</event>
<event>
 5    0  0.5815084E-005  0.2304588E+03  0.7546771E-02  0.1126317E+00
         21   -1    0    0  502  501  0.00000000000E+00  0.00000000000E+00  0.37712383474E+03  0.37712383474E+03  0.00000000000E+00 0.  1.
         21   -1    0    0  501  502 -0.00000000000E+00 -0.00000000000E+00 -0.14083236028E+03  0.14083236028E+03  0.00000000000E+00 0.  1.
         25    1    1    2    0    0  0.81364939887E+02 -0.13086155061E+02  0.10170942129E+03  0.18100084883E+03  0.12500000000E+03 0.  0.
         25    1    1    2    0    0 -0.74495146292E+02 -0.42808574715E+02  0.13001808026E+03  0.19977938354E+03  0.12500000000E+03 0.  0.
         25    1    1    2    0    0 -0.68697935948E+01  0.55894729777E+02  0.45639728989E+01  0.13717596265E+03  0.12500000000E+03 0.  0.
</event>
<event>
 5    0  0.5815084E-005  0.2183875E+03  0.7546771E-02  0.1135091E+00
         21   -1    0    0  502  501  0.00000000000E+00  0.00000000000E+00  0.20007031293E+03  0.20007031293E+03  0.00000000000E+00 0.  1.
         21   -1    0    0  501  502 -0.00000000000E+00 -0.00000000000E+00 -0.23838163336E+03  0.23838163336E+03  0.00000000000E+00 0.  1.
         25    1    1    2    0    0  0.45913723814E+02  0.53840405468E+02  0.52490719996E+02  0.15292852900E+03  0.12500000000E+03 0.  0.
         25    1    1    2    0    0 -0.54932725556E+02 -0.18374545322E+02 -0.66699411987E+02  0.15306547557E+03  0.12500000000E+03 0.  0.
         25    1    1    2    0    0  0.90190017418E+01 -0.35465860146E+02 -0.24102628435E+02  0.13245794172E+03  0.12500000000E+03 0.  0.
</event>
<event>
 5    0  0.5815084E-005  0.6885935E+03  0.7546771E-02  0.9736940E-01
         21   -1    0    0  502  501  0.00000000000E+00  0.00000000000E+00  0.40585056591E+03  0.40585056591E+03  0.00000000000E+00 0.  1.
         21   -1    0    0  501  502 -0.00000000000E+00 -0.00000000000E+00 -0.11683142445E+04  0.11683142445E+04  0.00000000000E+00 0.  1.
         25    1    1    2    0    0 -0.61804022787E+03  0.98307552768E+02 -0.15077625156E+03  0.65574124182E+03  0.12500000000E+03 0.  0.
         25    1    1    2    0    0  0.32039775077E+03  0.11016887926E+02 -0.29751551733E+03  0.45488083447E+03  0.12500000000E+03 0.  0.
         25    1    1    2    0    0  0.29764247710E+03 -0.10932444069E+03 -0.31417190968E+03  0.46354273410E+03  0.12500000000E+03 0.  0.
</event>
<event>
 5    0  0.5815084E-005  0.3077913E+03  0.7546771E-02  0.1081409E+00
         21   -1    0    0  502  501  0.00000000000E+00  0.00000000000E+00  0.35032194937E+03  0.35032194937E+03  0.00000000000E+00 0. -1.
         21   -1    0    0  501  502 -0.00000000000E+00 -0.00000000000E+00 -0.27042414734E+03  0.27042414734E+03  0.00000000000E+00 0. -1.
         25    1    1    2    0    0  0.39535287562E+02  0.32427934227E+02 -0.23994986700E+02  0.13716912651E+03  0.12500000000E+03 0.  0.
         25    1    1    2    0    0 -0.62559028976E+02 -0.81522872274E+02  0.24099637052E+03  0.29028238220E+03  0.12500000000E+03 0.  0.
         25    1    1    2    0    0  0.23023741414E+02  0.49094938047E+02 -0.13710358179E+03  0.19329458800E+03  0.12500000000E+03 0.  0.
</event>
<event>
 5    0  0.5815084E-005  0.3127880E+03  0.7546771E-02  0.1079017E+00
         21   -1    0    0  502  501  0.00000000000E+00  0.00000000000E+00  0.74665930876E+03  0.74665930876E+03  0.00000000000E+00 0.  1.
         21   -1    0    0  501  502 -0.00000000000E+00 -0.00000000000E+00 -0.13103213102E+03  0.13103213102E+03  0.00000000000E+00 0.  1.
         25    1    1    2    0    0 -0.16551152750E+03 -0.84723591268E+02  0.13390736311E+03  0.26101405048E+03  0.12500000000E+03 0.  0.
         25    1    1    2    0    0  0.20286716582E+03  0.32242095233E+02  0.34514714158E+03  0.42064972247E+03  0.12500000000E+03 0.  0.
         25    1    1    2    0    0 -0.37355638326E+02  0.52481496035E+02  0.13657267304E+03  0.19602766683E+03  0.12500000000E+03 0.  0.
</event>
<event>
 5    0  0.5815084E-005  0.2966212E+03  0.7546771E-02  0.1086942E+00
         21   -1    0    0  502  501  0.00000000000E+00  0.00000000000E+00  0.82742286519E+02  0.82742286519E+02  0.00000000000E+00 0.  1.
         21   -1    0    0  501  502 -0.00000000000E+00 -0.00000000000E+00 -0.10633518643E+04  0.10633518643E+04  0.00000000000E+00 0.  1.
         25    1    1    2    0    0 -0.19373956730E+03  0.94638279943E+02 -0.38434610402E+03  0.45808116273E+03  0.12500000000E+03 0.  0.
         25    1    1    2    0    0  0.42012664931E+02 -0.35594672281E+02 -0.26929966237E+03  0.30195919072E+03  0.12500000000E+03 0.  0.
         25    1    1    2    0    0  0.15172690237E+03 -0.59043607662E+02 -0.32696381141E+03  0.38605379739E+03  0.12500000000E+03 0.  0.
</event>
<event>
 5    0  0.5815084E-005  0.3330236E+03  0.7546771E-02  0.1069807E+00
         21   -1    0    0  502  501  0.00000000000E+00  0.00000000000E+00  0.82098693618E+03  0.82098693618E+03  0.00000000000E+00 0.  1.
         21   -1    0    0  501  502 -0.00000000000E+00 -0.00000000000E+00 -0.13508706297E+03  0.13508706297E+03  0.00000000000E+00 0.  1.
         25    1    1    2    0    0  0.54171769524E+02  0.16845767865E+03  0.16534490242E+03  0.27253716603E+03  0.12500000000E+03 0.  0.
         25    1    1    2    0    0  0.66187515928E+02 -0.29022929648E+02  0.41061624759E+03  0.43526293260E+03  0.12500000000E+03 0.  0.
         25    1    1    2    0    0 -0.12035928545E+03 -0.13943474900E+03  0.10993872320E+03  0.24827390053E+03  0.12500000000E+03 0.  0.
</event>
<event>
 5    0  0.5815084E-005  0.3933142E+03  0.7546771E-02  0.1046120E+00
         21   -1    0    0  502  501  0.00000000000E+00  0.00000000000E+00  0.16902298160E+03  0.16902298160E+03  0.00000000000E+00 0.  1.
         21   -1    0    0  501  502 -0.00000000000E+00 -0.00000000000E+00 -0.91523665024E+03  0.91523665024E+03  0.00000000000E+00 0.  1.
         25    1    1    2    0    0 -0.20143602428E+02  0.12532657433E+03  0.66915904899E+02  0.19030305641E+03  0.12500000000E+03 0.  0.
         25    1    1    2    0    0  0.92385792500E+00  0.45917717722E+02 -0.48395265140E+03  0.50194069283E+03  0.12500000000E+03 0.  0.
         25    1    1    2    0    0  0.19219744503E+02 -0.17124429205E+03 -0.32917692214E+03  0.39201588260E+03  0.12500000000E+03 0.  0.
</event>
<event>
 5    0  0.5815084E-005  0.4218130E+03  0.7546771E-02  0.1036478E+00
         21   -1    0    0  502  501  0.00000000000E+00  0.00000000000E+00  0.32154435563E+03  0.32154435563E+03  0.00000000000E+00 0.  1.
         21   -1    0    0  501  502 -0.00000000000E+00 -0.00000000000E+00 -0.55334879886E+03  0.55334879886E+03  0.00000000000E+00 0.  1.
         25    1    1    2    0    0 -0.12294852917E+03  0.26128303361E+03 -0.10530806187E+03  0.33181312870E+03  0.12500000000E+03 0.  0.
         25    1    1    2    0    0  0.13113037369E+02  0.76967606595E+02 -0.66788983374E+01  0.14753159627E+03  0.12500000000E+03 0.  0.
         25    1    1    2    0    0  0.10983549181E+03 -0.33825064021E+03 -0.11981748302E+03  0.39554842953E+03  0.12500000000E+03 0.  0.
</event>
<event>
 5    0  0.5815084E-005  0.3853067E+03  0.7546771E-02  0.1048990E+00
         21   -1    0    0  502  501  0.00000000000E+00  0.00000000000E+00  0.10613570597E+03  0.10613570597E+03  0.00000000000E+00 0. -1.
         21   -1    0    0  501  502 -0.00000000000E+00 -0.00000000000E+00 -0.13987867676E+04  0.13987867676E+04  0.00000000000E+00 0. -1.
         25    1    1    2    0    0 -0.16894032663E+02  0.84913610094E+02 -0.77956007734E+03  0.79425099540E+03  0.12500000000E+03 0.  0.
         25    1    1    2    0    0  0.15146083235E+03 -0.19160510610E+03 -0.23866162677E+03  0.36364443143E+03  0.12500000000E+03 0.  0.
         25    1    1    2    0    0 -0.13456679969E+03  0.10669149600E+03 -0.27442935752E+03  0.34702704674E+03  0.12500000000E+03 0.  0.
</event>
<event>
 5    0  0.5815084E-005  0.3445633E+03  0.7546771E-02  0.1064869E+00
         21   -1    0    0  502  501  0.00000000000E+00  0.00000000000E+00  0.13249527814E+04  0.13249527814E+04  0.00000000000E+00 0. -1.
         21   -1    0    0  501  502 -0.00000000000E+00 -0.00000000000E+00 -0.89606130421E+02  0.89606130421E+02  0.00000000000E+00 0. -1.
         25    1    1    2    0    0  0.18856658503E+03  0.10565635665E+03  0.49314412071E+03  0.55275378468E+03  0.12500000000E+03 0.  0.
         25    1    1    2    0    0 -0.18871550542E+03 -0.17573118822E+03  0.56832883280E+03  0.63648853461E+03  0.12500000000E+03 0.  0.
         25    1    1    2    0    0  0.14892038447E+00  0.70074831577E+02  0.17387369748E+03  0.22531659254E+03  0.12500000000E+03 0.  0.
</event>
<event>
 5    0  0.5815084E-005  0.3841034E+03  0.7546771E-02  0.1049427E+00
         21   -1    0    0  502  501  0.00000000000E+00  0.00000000000E+00  0.10569763262E+04  0.10569763262E+04  0.00000000000E+00 0. -1.
         21   -1    0    0  501  502 -0.00000000000E+00 -0.00000000000E+00 -0.13958252734E+03  0.13958252734E+03  0.00000000000E+00 0. -1.
         25    1    1    2    0    0 -0.97632618217E+02  0.58835590295E+02  0.20498041877E+03  0.26577382660E+03  0.12500000000E+03 0.  0.
         25    1    1    2    0    0 -0.14006701236E+03  0.16051246088E+03  0.35813633429E+03  0.43505132109E+03  0.12500000000E+03 0.  0.
         25    1    1    2    0    0  0.23769963058E+03 -0.21934805118E+03  0.35427704581E+03  0.49573370585E+03  0.12500000000E+03 0.  0.
</event>
<event>
 5    0  0.5815084E-005  0.2873593E+03  0.7546771E-02  0.1091736E+00
         21   -1    0    0  502  501  0.00000000000E+00  0.00000000000E+00  0.40796702956E+03  0.40796702956E+03  0.00000000000E+00 0.  1.
         21   -1    0    0  501  502 -0.00000000000E+00 -0.00000000000E+00 -0.20240697615E+03  0.20240697615E+03  0.00000000000E+00 0.  1.
         25    1    1    2    0    0 -0.23677367021E+02 -0.16655072907E+03  0.41380430763E+02  0.21362842300E+03  0.12500000000E+03 0.  0.
         25    1    1    2    0    0  0.66340232843E+02  0.70107782720E+01  0.11836015309E+03  0.18461934716E+03  0.12500000000E+03 0.  0.
         25    1    1    2    0    0 -0.42662865822E+02  0.15953995080E+03  0.45819469559E+02  0.21212623556E+03  0.12500000000E+03 0.  0.
</event>
<event>
 5    0  0.5815084E-005  0.3378990E+03  0.7546771E-02  0.1067694E+00
         21   -1    0    0  502  501  0.00000000000E+00  0.00000000000E+00  0.26211409209E+03  0.26211409209E+03  0.00000000000E+00 0.  1.
         21   -1    0    0  501  502 -0.00000000000E+00 -0.00000000000E+00 -0.43559552461E+03  0.43559552461E+03  0.00000000000E+00 0.  1.
         25    1    1    2    0    0  0.15613725481E+02 -0.20186370504E+03  0.99590030614E+02  0.25794557184E+03  0.12500000000E+03 0.  0.
         25    1    1    2    0    0 -0.45341473885E+02  0.14475318874E+03 -0.20336026921E+03  0.28282456399E+03  0.12500000000E+03 0.  0.
         25    1    1    2    0    0  0.29727748404E+02  0.57110516297E+02 -0.69711193924E+02  0.15693948087E+03  0.12500000000E+03 0.  0.
</event>
<event>
 5    0  0.5815084E-005  0.3680203E+03  0.7546771E-02  0.1055453E+00
         21   -1    0    0  502  501  0.00000000000E+00  0.00000000000E+00  0.70929990609E+02  0.70929990609E+02  0.00000000000E+00 0. -1.
         21   -1    0    0  501  502 -0.00000000000E+00 -0.00000000000E+00 -0.19094736857E+04  0.19094736857E+04  0.00000000000E+00 0. -1.
         25    1    1    2    0    0  0.32836705848E+02  0.70200413901E+00 -0.11692248611E+03  0.17428313119E+03  0.12500000000E+03 0.  0.
         25    1    1    2    0    0  0.15964197731E+03 -0.67821209092E+02 -0.32394643100E+03  0.38813859314E+03  0.12500000000E+03 0.  0.
         25    1    1    2    0    0 -0.19247868315E+03  0.67119204953E+02 -0.13976747780E+04  0.14179819520E+04  0.12500000000E+03 0.  0.
</event>
<event>
 5    0  0.5815084E-005  0.3191063E+03  0.7546771E-02  0.1076061E+00
         21   -1    0    0  502  501  0.00000000000E+00  0.00000000000E+00  0.16228436825E+03  0.16228436825E+03  0.00000000000E+00 0. -1.
         21   -1    0    0  501  502 -0.00000000000E+00 -0.00000000000E+00 -0.62747162967E+03  0.62747162967E+03  0.00000000000E+00 0. -1.
         25    1    1    2    0    0  0.53904294227E+01  0.21992193936E+02 -0.41803627962E+03  0.43691194124E+03  0.12500000000E+03 0.  0.
         25    1    1    2    0    0  0.78094019173E+02 -0.96231202313E+02 -0.56683195076E+02  0.18492459202E+03  0.12500000000E+03 0.  0.
         25    1    1    2    0    0 -0.83484448596E+02  0.74239008378E+02  0.95322132737E+01  0.16791946466E+03  0.12500000000E+03 0.  0.
</event>
<event>
 5    0  0.5980372E-005  0.2771776E+03  0.7546771E-02  0.1097241E+00
         21   -1    0    0  502  501  0.00000000000E+00  0.00000000000E+00  0.10604681662E+04  0.10604681662E+04  0.00000000000E+00 0. -1.
         21   -1    0    0  501  502 -0.00000000000E+00 -0.00000000000E+00 -0.72446708600E+02  0.72446708600E+02  0.00000000000E+00 0. -1.
         25    1    1    2    0    0 -0.10116494925E+03  0.42329253360E+02  0.41715553024E+03  0.44907666279E+03  0.12500000000E+03 0.  0.
         25    1    1    2    0    0  0.18077074073E+02  0.89575313079E+02  0.13938678824E+03  0.20833673237E+03  0.12500000000E+03 0.  0.
         25    1    1    2    0    0  0.83087875178E+02 -0.13190456644E+03  0.43147913913E+03  0.47550147965E+03  0.12500000000E+03 0.  0.
</event>
<event>
 5    0  0.5815084E-005  0.2823966E+03  0.7546771E-02  0.1094387E+00
         21   -1    0    0  502  501  0.00000000000E+00  0.00000000000E+00  0.26138086124E+03  0.26138086124E+03  0.00000000000E+00 0.  1.
         21   -1    0    0  501  502 -0.00000000000E+00 -0.00000000000E+00 -0.30510209217E+03  0.30510209217E+03  0.00000000000E+00 0.  1.
         25    1    1    2    0    0  0.86495624759E+02  0.78038676505E+02 -0.38365477658E+02  0.17512406462E+03  0.12500000000E+03 0.  0.
         25    1    1    2    0    0 -0.17899002494E+03 -0.39654116186E+01 -0.14837493798E+02  0.21885681332E+03  0.12500000000E+03 0.  0.
         25    1    1    2    0    0  0.92494400177E+02 -0.74073264887E+02  0.94817405271E+01  0.17250207546E+03  0.12500000000E+03 0.  0.
</event>
<event>
 5    0  0.6995523E-005  0.3257034E+03  0.7546771E-02  0.1073054E+00
         21   -1    0    0  502  501  0.00000000000E+00  0.00000000000E+00  0.69323743041E+03  0.69323743041E+03  0.00000000000E+00 0.  1.
         21   -1    0    0  501  502 -0.00000000000E+00 -0.00000000000E+00 -0.15302510189E+03  0.15302510189E+03  0.00000000000E+00 0.  1.
         25    1    1    2    0    0  0.21009792064E+03  0.88577463460E+01  0.11754329702E+03  0.27140564217E+03  0.12500000000E+03 0.  0.
         25    1    1    2    0    0 -0.89565856816E+02 -0.10911976114E+03  0.18948049677E+03  0.26731446582E+03  0.12500000000E+03 0.  0.
         25    1    1    2    0    0 -0.12053206383E+03  0.10026201479E+03  0.23318853473E+03  0.30754242431E+03  0.12500000000E+03 0.  0.
</event>
<event>
 5    0  0.5815084E-005  0.2683253E+03  0.7546771E-02  0.1102242E+00
         21   -1    0    0  502  501  0.00000000000E+00  0.00000000000E+00  0.16378321467E+03  0.16378321467E+03  0.00000000000E+00 0. -1.
         21   -1    0    0  501  502 -0.00000000000E+00 -0.00000000000E+00 -0.43959607042E+03  0.43959607042E+03  0.00000000000E+00 0. -1.
         25    1    1    2    0    0 -0.10277889325E+02  0.12465174216E+03 -0.24399838557E+03  0.30133686132E+03  0.12500000000E+03 0.  0.
         25    1    1    2    0    0  0.22455701565E+02 -0.11479925733E+02 -0.37401081075E+02  0.13289051168E+03  0.12500000000E+03 0.  0.
         25    1    1    2    0    0 -0.12177812240E+02 -0.11317181643E+03  0.55866108934E+01  0.16915191210E+03  0.12500000000E+03 0.  0.
</event>
<event>
 5    0  0.5815084E-005  0.3534625E+03  0.7546771E-02  0.1061203E+00
         21   -1    0    0  502  501  0.00000000000E+00  0.00000000000E+00  0.53168672350E+03  0.53168672350E+03  0.00000000000E+00 0. -1.
         21   -1    0    0  501  502 -0.00000000000E+00 -0.00000000000E+00 -0.23497994779E+03  0.23497994779E+03  0.00000000000E+00 0. -1.
         25    1    1    2    0    0 -0.51805841717E+02  0.71773166713E+02  0.42747159595E+03  0.45408391079E+03  0.12500000000E+03 0.  0.
         25    1    1    2    0    0  0.73548885068E+02 -0.18477182007E+02 -0.71409480382E+02  0.16271188844E+03  0.12500000000E+03 0.  0.
         25    1    1    2    0    0 -0.21743043351E+02 -0.53295984706E+02 -0.59355339860E+02  0.14987087205E+03  0.12500000000E+03 0.  0.
</event>
<event>
 5    0  0.5815084E-005  0.3301926E+03  0.7546771E-02  0.1071052E+00
         21   -1    0    0  502  501  0.00000000000E+00  0.00000000000E+00  0.54718346126E+02  0.54718346126E+02  0.00000000000E+00 0. -1.
         21   -1    0    0  501  502 -0.00000000000E+00 -0.00000000000E+00 -0.19925152619E+04  0.19925152619E+04  0.00000000000E+00 0. -1.
         25    1    1    2    0    0 -0.10139470170E+03 -0.15634728102E+03 -0.45303071863E+03  0.50555631718E+03  0.12500000000E+03 0.  0.
         25    1    1    2    0    0 -0.67036862946E+01  0.17291124029E+03 -0.51015390911E+03  0.55301469004E+03  0.12500000000E+03 0.  0.
         25    1    1    2    0    0  0.10809838800E+03 -0.16563959265E+02 -0.97461228799E+03  0.98866260076E+03  0.12500000000E+03 0.  0.
</event>
<event>
 5    0  0.5815084E-005  0.2653071E+03  0.7546771E-02  0.1103996E+00
         21   -1    0    0  502  501  0.00000000000E+00  0.00000000000E+00  0.83845549363E+02  0.83845549363E+02  0.00000000000E+00 0. -1.
         21   -1    0    0  501  502 -0.00000000000E+00 -0.00000000000E+00 -0.83949444748E+03  0.83949444748E+03  0.00000000000E+00 0. -1.
         25    1    1    2    0    0 -0.58586047343E+02 -0.78142310294E+02 -0.47558167077E+03  0.50133967644E+03  0.12500000000E+03 0.  0.
         25    1    1    2    0    0  0.78694392873E+02  0.22181654377E+02 -0.57809410361E+02  0.16016167203E+03  0.12500000000E+03 0.  0.
         25    1    1    2    0    0 -0.20108345530E+02  0.55960655917E+02 -0.22225781698E+03  0.26183864837E+03  0.12500000000E+03 0.  0.
</event>
<event>
 5    0  0.5815084E-005  0.4284110E+03  0.7546771E-02  0.1034363E+00
         21   -1    0    0  502  501  0.00000000000E+00  0.00000000000E+00  0.24674009226E+03  0.24674009226E+03  0.00000000000E+00 0. -1.
         21   -1    0    0  501  502 -0.00000000000E+00 -0.00000000000E+00 -0.74384321494E+03  0.74384321494E+03  0.00000000000E+00 0. -1.
         25    1    1    2    0    0  0.11318747670E+03 -0.12892993196E+03 -0.12579586135E+03  0.24674669394E+03  0.12500000000E+03 0.  0.
         25    1    1    2    0    0 -0.20967020545E+03 -0.17019555960E+03 -0.23491171777E+03  0.37912615145E+03  0.12500000000E+03 0.  0.
         25    1    1    2    0    0  0.96482728755E+02  0.29912549157E+03 -0.13639554357E+03  0.36471046181E+03  0.12500000000E+03 0.  0.
</event>
<event>
 5    0  0.5815084E-005  0.2566952E+03  0.7546771E-02  0.1109145E+00
         21   -1    0    0  502  501  0.00000000000E+00  0.00000000000E+00  0.26906577209E+03  0.26906577209E+03  0.00000000000E+00 0.  1.
         21   -1    0    0  501  502 -0.00000000000E+00 -0.00000000000E+00 -0.24489346693E+03  0.24489346693E+03  0.00000000000E+00 0.  1.
         25    1    1    2    0    0 -0.25269686264E+02 -0.10635948489E+03  0.10768494758E+03  0.19791903649E+03  0.12500000000E+03 0.  0.
         25    1    1    2    0    0  0.42597576315E+02 -0.49604745849E+01 -0.10383766398E+02  0.13255935433E+03  0.12500000000E+03 0.  0.
         25    1    1    2    0    0 -0.17327890051E+02  0.11131995947E+03 -0.73128876009E+02  0.18348084820E+03  0.12500000000E+03 0.  0.
</event>
<event>
 5    0  0.5815084E-005  0.2392955E+03  0.7546771E-02  0.1120263E+00
         21   -1    0    0  502  501  0.00000000000E+00  0.00000000000E+00  0.11270761485E+03  0.11270761485E+03  0.00000000000E+00 0. -1.
         21   -1    0    0  501  502 -0.00000000000E+00 -0.00000000000E+00 -0.50806085462E+03  0.50806085462E+03  0.00000000000E+00 0. -1.
         25    1    1    2    0    0  0.51647449392E+02 -0.60842499763E+02 -0.15864562542E+02  0.14915077322E+03  0.12500000000E+03 0.  0.
         25    1    1    2    0    0 -0.38988293886E+02  0.65987814524E+02 -0.14892134335E+03  0.20899053861E+03  0.12500000000E+03 0.  0.
         25    1    1    2    0    0 -0.12659155506E+02 -0.51453147612E+01 -0.23056733387E+03  0.26262715764E+03  0.12500000000E+03 0.  0.
</event>
<event>
 5    0  0.5815084E-005  0.4143320E+03  0.7546771E-02  0.1038927E+00
         21   -1    0    0  502  501  0.00000000000E+00  0.00000000000E+00  0.19943622333E+03  0.19943622333E+03  0.00000000000E+00 0. -1.
         21   -1    0    0  501  502 -0.00000000000E+00 -0.00000000000E+00 -0.86078148540E+03  0.86078148540E+03  0.00000000000E+00 0. -1.
         25    1    1    2    0    0 -0.54890107622E+02 -0.12655482556E+03 -0.19685506890E+03  0.27093535380E+03  0.12500000000E+03 0.  0.
         25    1    1    2    0    0 -0.16180789170E+03  0.27129096378E+03 -0.18314240167E+03  0.38593616070E+03  0.12500000000E+03 0.  0.
         25    1    1    2    0    0  0.21669799932E+03 -0.14473613822E+03 -0.28134779150E+03  0.40334619423E+03  0.12500000000E+03 0.  0.
</event>
<event>
 5    0  0.5815084E-005  0.2885832E+03  0.7546771E-02  0.1091091E+00
         21   -1    0    0  502  501  0.00000000000E+00  0.00000000000E+00  0.15416340375E+03  0.15416340375E+03  0.00000000000E+00 0. -1.
         21   -1    0    0  501  502 -0.00000000000E+00 -0.00000000000E+00 -0.54020765766E+03  0.54020765766E+03  0.00000000000E+00 0. -1.
         25    1    1    2    0    0 -0.97191969618E+02 -0.57935455280E+01  0.71540995752E+01  0.15860651080E+03  0.12500000000E+03 0.  0.
         25    1    1    2    0    0  0.57412055795E+02 -0.28961428172E+02 -0.24243859458E+02  0.14264527049E+03  0.12500000000E+03 0.  0.
         25    1    1    2    0    0  0.39779913823E+02  0.34754973700E+02 -0.36895449402E+03  0.39311928012E+03  0.12500000000E+03 0.  0.
</event>
<event>
 5    0  0.5815084E-005  0.5326465E+03  0.7546771E-02  0.1005592E+00
         21   -1    0    0  502  501  0.00000000000E+00  0.00000000000E+00  0.12772899030E+04  0.12772899030E+04  0.00000000000E+00 0.  1.
         21   -1    0    0  501  502 -0.00000000000E+00 -0.00000000000E+00 -0.22212054081E+03  0.22212054081E+03  0.00000000000E+00 0.  1.
         25    1    1    2    0    0 -0.14048003343E+03 -0.29272127852E+03  0.57136808092E+02  0.35257623506E+03  0.12500000000E+03 0.  0.
         25    1    1    2    0    0  0.12041284057E+03  0.31960957004E+02  0.73340680004E+03  0.75434162638E+03  0.12500000000E+03 0.  0.
         25    1    1    2    0    0  0.20067192858E+02  0.26076032152E+03  0.26462575410E+03  0.39249258240E+03  0.12500000000E+03 0.  0.
</event>
<event>
 5    0  0.5815084E-005  0.2519292E+03  0.7546771E-02  0.1112092E+00
         21   -1    0    0  502  501  0.00000000000E+00  0.00000000000E+00  0.84924604641E+03  0.84924604641E+03  0.00000000000E+00 0.  1.
         21   -1    0    0  501  502 -0.00000000000E+00 -0.00000000000E+00 -0.74734893235E+02  0.74734893235E+02  0.00000000000E+00 0.  1.
         25    1    1    2    0    0  0.17514058670E+02  0.73816462531E+02  0.16824500059E+03  0.22290579314E+03  0.12500000000E+03 0.  0.
         25    1    1    2    0    0  0.49799034909E+02 -0.28340731491E+02  0.91526546736E+02  0.16518247394E+03  0.12500000000E+03 0.  0.
         25    1    1    2    0    0 -0.67313093579E+02 -0.45475731040E+02  0.51473960585E+03  0.53589267257E+03  0.12500000000E+03 0.  0.
</event>
<event>
 5    0  0.6005964E-005  0.5498544E+03  0.7546771E-02  0.1001528E+00
         21   -1    0    0  502  501  0.00000000000E+00  0.00000000000E+00  0.45224068267E+03  0.45224068267E+03  0.00000000000E+00 0. -1.
         21   -1    0    0  501  502 -0.00000000000E+00 -0.00000000000E+00 -0.66853756125E+03  0.66853756125E+03  0.00000000000E+00 0. -1.
         25    1    1    2    0    0  0.30707152357E+02 -0.30475349975E+03 -0.17524284696E+03  0.37436971062E+03  0.12500000000E+03 0.  0.
         25    1    1    2    0    0  0.21104934004E+03  0.12421817451E+03 -0.23917433884E+03  0.36441918606E+03  0.12500000000E+03 0.  0.
         25    1    1    2    0    0 -0.24175649239E+03  0.18053532524E+03  0.19812030722E+03  0.38198934724E+03  0.12500000000E+03 0.  0.
</event>
<event>
 5    0  0.5815084E-005  0.4571961E+03  0.7546771E-02  0.1025598E+00
         21   -1    0    0  502  501  0.00000000000E+00  0.00000000000E+00  0.34879547765E+03  0.34879547765E+03  0.00000000000E+00 0. -1.
         21   -1    0    0  501  502 -0.00000000000E+00 -0.00000000000E+00 -0.59928618751E+03  0.59928618751E+03  0.00000000000E+00 0. -1.
         25    1    1    2    0    0  0.63844709403E+02 -0.13379925972E+03 -0.15889752684E+03  0.25070263831E+03  0.12500000000E+03 0.  0.
         25    1    1    2    0    0  0.42284655274E+02 -0.22194794067E+03 -0.15410446042E+03  0.30070261914E+03  0.12500000000E+03 0.  0.
         25    1    1    2    0    0 -0.10612936468E+03  0.35574720038E+03  0.62511277398E+02  0.39667640770E+03  0.12500000000E+03 0.  0.
</event>
<event>
 5    0  0.5815084E-005  0.4400564E+03  0.7546771E-02  0.1030730E+00
         21   -1    0    0  502  501  0.00000000000E+00  0.00000000000E+00  0.98531545659E+02  0.98531545659E+02  0.00000000000E+00 0. -1.
         21   -1    0    0  501  502 -0.00000000000E+00 -0.00000000000E+00 -0.19653565715E+04  0.19653565715E+04  0.00000000000E+00 0.  1.
         25    1    1    2    0    0  0.44729416629E+02  0.21004037707E+03 -0.68878341124E+03  0.73223306967E+03  0.12500000000E+03 0.  0.
         25    1    1    2    0    0 -0.19560015428E+03 -0.32052809121E+03 -0.76793849046E+03  0.86391677999E+03  0.12500000000E+03 0.  0.
         25    1    1    2    0    0  0.15087073765E+03  0.11048771414E+03 -0.41010312409E+03  0.46773826746E+03  0.12500000000E+03 0.  0.
</event>
<event>
 5    0  0.5815084E-005  0.4584647E+03  0.7546771E-02  0.1025227E+00
         21   -1    0    0  502  501  0.00000000000E+00  0.00000000000E+00  0.87474771357E+03  0.87474771357E+03  0.00000000000E+00 0. -1.
         21   -1    0    0  501  502 -0.00000000000E+00 -0.00000000000E+00 -0.24028629414E+03  0.24028629414E+03  0.00000000000E+00 0. -1.
         25    1    1    2    0    0 -0.81079482245E+02 -0.38160872716E+03  0.43434897928E+03  0.59706208964E+03  0.12500000000E+03 0.  0.
         25    1    1    2    0    0  0.63656755295E+02  0.13688021938E+03  0.41975402502E+02  0.20043779925E+03  0.12500000000E+03 0.  0.
         25    1    1    2    0    0  0.17422726950E+02  0.24472850779E+03  0.15813703765E+03  0.31753411882E+03  0.12500000000E+03 0.  0.
</event>
<event>
 5    0  0.5815084E-005  0.3450886E+03  0.7546771E-02  0.1064649E+00
         21   -1    0    0  502  501  0.00000000000E+00  0.00000000000E+00  0.52101092620E+03  0.52101092620E+03  0.00000000000E+00 0.  1.
         21   -1    0    0  501  502 -0.00000000000E+00 -0.00000000000E+00 -0.22856748766E+03  0.22856748766E+03  0.00000000000E+00 0.  1.
         25    1    1    2    0    0  0.32541182150E+02  0.49717528609E+01 -0.98319842711E+02  0.16240516720E+03  0.12500000000E+03 0.  0.
         25    1    1    2    0    0  0.45561631504E+02 -0.16605965496E+03  0.14017755046E+03  0.25480662653E+03  0.12500000000E+03 0.  0.
         25    1    1    2    0    0 -0.78102813654E+02  0.16108790210E+03  0.25058573080E+03  0.33236662014E+03  0.12500000000E+03 0.  0.
</event>
<event>
 5    0  0.6398674E-005  0.2697252E+03  0.7546771E-02  0.1101437E+00
         21   -1    0    0  502  501  0.00000000000E+00  0.00000000000E+00  0.19380242204E+03  0.19380242204E+03  0.00000000000E+00 0.  1.
         21   -1    0    0  501  502 -0.00000000000E+00 -0.00000000000E+00 -0.37539099549E+03  0.37539099549E+03  0.00000000000E+00 0.  1.
         25    1    1    2    0    0  0.71689013848E+02  0.66395927708E+02  0.17612833972E+02  0.15963378666E+03  0.12500000000E+03 0.  0.
         25    1    1    2    0    0 -0.85453728352E+02 -0.12884277147E+03 -0.17934743424E+03  0.26775604871E+03  0.12500000000E+03 0.  0.
         25    1    1    2    0    0  0.13764714504E+02  0.62446843765E+02 -0.19853973183E+02  0.14180358216E+03  0.12500000000E+03 0.  0.
</event>
<event>
 5    0  0.5815084E-005  0.3535078E+03  0.7546771E-02  0.1061184E+00
         21   -1    0    0  502  501  0.00000000000E+00  0.00000000000E+00  0.97566692289E+03  0.97566692289E+03  0.00000000000E+00 0.  1.
         21   -1    0    0  501  502 -0.00000000000E+00 -0.00000000000E+00 -0.12808447397E+03  0.12808447397E+03  0.00000000000E+00 0. -1.
         25    1    1    2    0    0 -0.26247405708E+02 -0.55144225190E+02  0.14613083648E+03  0.20176479685E+03  0.12500000000E+03 0.  0.
         25    1    1    2    0    0 -0.11093192898E+03 -0.19249675943E+03  0.27371557599E+03  0.37404025425E+03  0.12500000000E+03 0.  0.
         25    1    1    2    0    0  0.13717933468E+03  0.24764098462E+03  0.42773603645E+03  0.52794634576E+03  0.12500000000E+03 0.  0.
</event>
<event>
 5    0  0.5815084E-005  0.5108810E+03  0.7546771E-02  0.1010977E+00
         21   -1    0    0  502  501  0.00000000000E+00  0.00000000000E+00  0.13898307171E+04  0.13898307171E+04  0.00000000000E+00 0.  1.
         21   -1    0    0  501  502 -0.00000000000E+00 -0.00000000000E+00 -0.18779221837E+03  0.18779221837E+03  0.00000000000E+00 0.  1.
         25    1    1    2    0    0 -0.10997720767E+03  0.56338955623E+02  0.46682778326E+02  0.18186078720E+03  0.12500000000E+03 0.  0.
         25    1    1    2    0    0  0.78018061107E+01  0.27509725268E+02 -0.77318650450E+02  0.14973585700E+03  0.12500000000E+03 0.  0.
         25    1    1    2    0    0  0.10217540156E+03 -0.83848680891E+02  0.12326743709E+04  0.12460262913E+04  0.12500000000E+03 0.  0.
</event>
<event>
 5    0  0.6345286E-005  0.4450662E+03  0.7546771E-02  0.1029204E+00
         21   -1    0    0  502  501  0.00000000000E+00  0.00000000000E+00  0.37230539964E+03  0.37230539964E+03  0.00000000000E+00 0. -1.
         21   -1    0    0  501  502 -0.00000000000E+00 -0.00000000000E+00 -0.53204677424E+03  0.53204677424E+03  0.00000000000E+00 0. -1.
         25    1    1    2    0    0  0.20436549088E+03 -0.40170193148E+02 -0.10707458491E+02  0.24314306066E+03  0.12500000000E+03 0.  0.
         25    1    1    2    0    0 -0.14673756472E+03  0.70872747792E+02 -0.35586327366E+03  0.41087532029E+03  0.12500000000E+03 0.  0.
         25    1    1    2    0    0 -0.57627926158E+02 -0.30702554644E+02  0.20682935755E+03  0.25033379293E+03  0.12500000000E+03 0.  0.
</event>
<event>
 5    0  0.5815084E-005  0.6374623E+03  0.7546771E-02  0.9830594E-01
         21   -1    0    0  502  501  0.00000000000E+00  0.00000000000E+00  0.49384381949E+03  0.49384381949E+03  0.00000000000E+00 0. -1.
         21   -1    0    0  501  502 -0.00000000000E+00 -0.00000000000E+00 -0.82284768442E+03  0.82284768442E+03  0.00000000000E+00 0. -1.
         25    1    1    2    0    0 -0.17631679102E+03  0.33365574452E+03  0.31958075721E+03  0.51006923748E+03  0.12500000000E+03 0.  0.
         25    1    1    2    0    0  0.47638190489E+02 -0.13516639554E+03 -0.39310988759E+03  0.43669180826E+03  0.12500000000E+03 0.  0.
         25    1    1    2    0    0  0.12867860053E+03 -0.19848934898E+03 -0.25547473455E+03  0.36993045817E+03  0.12500000000E+03 0.  0.
</event>
<event>
 5    0  0.5815084E-005  0.3457224E+03  0.7546771E-02  0.1064385E+00
         21   -1    0    0  502  501  0.00000000000E+00  0.00000000000E+00  0.72098018611E+02  0.72098018611E+02  0.00000000000E+00 0. -1.
         21   -1    0    0  501  502 -0.00000000000E+00 -0.00000000000E+00 -0.16577986824E+04  0.16577986824E+04  0.00000000000E+00 0. -1.
         25    1    1    2    0    0  0.29720211916E+02 -0.14430755683E+03 -0.42479212586E+03  0.46667045347E+03  0.12500000000E+03 0.  0.
         25    1    1    2    0    0 -0.16286406797E+03  0.70383610001E+02 -0.95054692630E+03  0.97500923908E+03  0.12500000000E+03 0.  0.
         25    1    1    2    0    0  0.13314385605E+03  0.73923946828E+02 -0.21036161164E+03  0.28821700847E+03  0.12500000000E+03 0.  0.
</event>
<event>
 5    0  0.5815084E-005  0.4141107E+03  0.7546771E-02  0.1039000E+00
         21   -1    0    0  502  501  0.00000000000E+00  0.00000000000E+00  0.22764776389E+03  0.22764776389E+03  0.00000000000E+00 0. -1.
         21   -1    0    0  501  502 -0.00000000000E+00 -0.00000000000E+00 -0.75330276523E+03  0.75330276523E+03  0.00000000000E+00 0. -1.
         25    1    1    2    0    0  0.20347151040E+03  0.76295913735E+02 -0.90660982293E+02  0.26658232445E+03  0.12500000000E+03 0.  0.
         25    1    1    2    0    0 -0.11607645140E+03 -0.25353518709E+03 -0.35226080313E+03  0.46633304310E+03  0.12500000000E+03 0.  0.
         25    1    1    2    0    0 -0.87395058998E+02  0.17723927336E+03 -0.82733215921E+02  0.24803516157E+03  0.12500000000E+03 0.  0.
</event>
<event>
 5    0  0.5815084E-005  0.3621619E+03  0.7546771E-02  0.1057731E+00
         21   -1    0    0  502  501  0.00000000000E+00  0.00000000000E+00  0.52742342344E+03  0.52742342344E+03  0.00000000000E+00 0.  1.
         21   -1    0    0  501  502 -0.00000000000E+00 -0.00000000000E+00 -0.24868296182E+03  0.24868296182E+03  0.00000000000E+00 0.  1.
         25    1    1    2    0    0 -0.16978768949E+02 -0.14914644195E+03 -0.26729438566E+02  0.19716085470E+03  0.12500000000E+03 0.  0.
         25    1    1    2    0    0 -0.18715359008E+03  0.87884957666E+02  0.18354916086E+03  0.30342301580E+03  0.12500000000E+03 0.  0.
         25    1    1    2    0    0  0.20413235903E+03  0.61261484285E+02  0.12192073933E+03  0.27552251476E+03  0.12500000000E+03 0.  0.
</event>
<event>
 5    0  0.5815084E-005  0.3109645E+03  0.7546771E-02  0.1079884E+00
         21   -1    0    0  502  501  0.00000000000E+00  0.00000000000E+00  0.14738481098E+03  0.14738481098E+03  0.00000000000E+00 0. -1.
         21   -1    0    0  501  502 -0.00000000000E+00 -0.00000000000E+00 -0.65609833875E+03  0.65609833875E+03  0.00000000000E+00 0. -1.
         25    1    1    2    0    0  0.76628437317E+02 -0.83422540445E+02 -0.16407171751E+03  0.23532056040E+03  0.12500000000E+03 0.  0.
         25    1    1    2    0    0 -0.73641119519E+02  0.20925240053E+03 -0.11878077329E+03  0.28096877712E+03  0.12500000000E+03 0.  0.
         25    1    1    2    0    0 -0.29873177980E+01 -0.12582986008E+03 -0.22586103696E+03  0.28719381222E+03  0.12500000000E+03 0.  0.
</event>
<event>
 5    0  0.5815084E-005  0.2937591E+03  0.7546771E-02  0.1088403E+00
         21   -1    0    0  502  501  0.00000000000E+00  0.00000000000E+00  0.12445832416E+03  0.12445832416E+03  0.00000000000E+00 0.  1.
         21   -1    0    0  501  502 -0.00000000000E+00 -0.00000000000E+00 -0.69335972194E+03  0.69335972194E+03  0.00000000000E+00 0.  1.
         25    1    1    2    0    0 -0.93724824264E+02  0.14157056862E+02 -0.17816466800E+02  0.15788347422E+03  0.12500000000E+03 0.  0.
         25    1    1    2    0    0 -0.35998081919E+02 -0.88741473867E+02 -0.16909019727E+03  0.23105714856E+03  0.12500000000E+03 0.  0.
         25    1    1    2    0    0  0.12972290618E+03  0.74584417005E+02 -0.38199473371E+03  0.42887742331E+03  0.12500000000E+03 0.  0.
</event>
<event>
 5    0  0.5815084E-005  0.4802178E+03  0.7546771E-02  0.1019075E+00
         21   -1    0    0  502  501  0.00000000000E+00  0.00000000000E+00  0.28070881080E+03  0.28070881080E+03  0.00000000000E+00 0.  1.
         21   -1    0    0  501  502 -0.00000000000E+00 -0.00000000000E+00 -0.82152426648E+03  0.82152426648E+03  0.00000000000E+00 0. -1.
         25    1    1    2    0    0 -0.76397394811E+02  0.41387473670E+03 -0.28193551270E+03  0.52176766183E+03  0.12500000000E+03 0.  0.
         25    1    1    2    0    0  0.11075386968E+03 -0.30402847025E+03 -0.20130758898E+03  0.40106043903E+03  0.12500000000E+03 0.  0.
         25    1    1    2    0    0 -0.34356474866E+02 -0.10984626645E+03 -0.57572354003E+02  0.17940497642E+03  0.12500000000E+03 0.  0.
</event>
<event>
 5    0  0.5815084E-005  0.3063938E+03  0.7546771E-02  0.1082087E+00
         21   -1    0    0  502  501  0.00000000000E+00  0.00000000000E+00  0.64432898143E+03  0.64432898143E+03  0.00000000000E+00 0.  1.
         21   -1    0    0  501  502 -0.00000000000E+00 -0.00000000000E+00 -0.14569757598E+03  0.14569757598E+03  0.00000000000E+00 0.  1.
         25    1    1    2    0    0  0.11519043141E+03  0.10998089580E+03  0.31063372895E+03  0.37078692870E+03  0.12500000000E+03 0.  0.
         25    1    1    2    0    0 -0.90594016271E+02 -0.17307325488E+03  0.10457312495E+03  0.25440551449E+03  0.12500000000E+03 0.  0.
         25    1    1    2    0    0 -0.24596415140E+02  0.63092359080E+02  0.83424551539E+02  0.16483411422E+03  0.12500000000E+03 0.  0.
</event>
<event>
 5    0  0.5815084E-005  0.2245488E+03  0.7546771E-02  0.1130536E+00
         21   -1    0    0  502  501  0.00000000000E+00  0.00000000000E+00  0.90674181205E+02  0.90674181205E+02  0.00000000000E+00 0. -1.
         21   -1    0    0  501  502 -0.00000000000E+00 -0.00000000000E+00 -0.55608064449E+03  0.55608064449E+03  0.00000000000E+00 0. -1.
         25    1    1    2    0    0 -0.61471775210E+02 -0.71782102389E+02 -0.22367976652E+03  0.27311002787E+03  0.12500000000E+03 0.  0.
         25    1    1    2    0    0  0.69024040621E+02  0.17359752274E+02 -0.90726522750E+02  0.17006463804E+03  0.12500000000E+03 0.  0.
         25    1    1    2    0    0 -0.75522654107E+01  0.54422350115E+02 -0.15100017401E+03  0.20358015978E+03  0.12500000000E+03 0.  0.
</event>
<event>
 5    0  0.5815084E-005  0.2564403E+03  0.7546771E-02  0.1109301E+00
         21   -1    0    0  502  501  0.00000000000E+00  0.00000000000E+00  0.31283837847E+03  0.31283837847E+03  0.00000000000E+00 0.  1.
         21   -1    0    0  501  502 -0.00000000000E+00 -0.00000000000E+00 -0.21020955353E+03  0.21020955353E+03  0.00000000000E+00 0.  1.
         25    1    1    2    0    0  0.95398357180E+02 -0.57948892437E+02  0.54179473063E+02  0.17612307057E+03  0.12500000000E+03 0.  0.
         25    1    1    2    0    0  0.23307633006E+02  0.34038393618E+02  0.10012153710E+03  0.16538192219E+03  0.12500000000E+03 0.  0.
         25    1    1    2    0    0 -0.11870599019E+03  0.23910498820E+02 -0.51672185227E+02  0.18154293923E+03  0.12500000000E+03 0.  0.
</event>
<event>
 5    0  0.5815084E-005  0.2839405E+03  0.7546771E-02  0.1093556E+00
         21   -1    0    0  502  501  0.00000000000E+00  0.00000000000E+00  0.17677251941E+03  0.17677251941E+03  0.00000000000E+00 0.  1.
         21   -1    0    0  501  502 -0.00000000000E+00 -0.00000000000E+00 -0.45607872548E+03  0.45607872548E+03  0.00000000000E+00 0.  1.
         25    1    1    2    0    0 -0.48845194450E+02 -0.10725459396E+02 -0.12639280633E+03  0.18466464197E+03  0.12500000000E+03 0.  0.
         25    1    1    2    0    0  0.12370880015E+03  0.69405273789E+02  0.46146951500E+02  0.19461629017E+03  0.12500000000E+03 0.  0.
         25    1    1    2    0    0 -0.74863605705E+02 -0.58679814393E+02 -0.19906035124E+03  0.25357031275E+03  0.12500000000E+03 0.  0.
</event>
<event>
 5    0  0.5815084E-005  0.5009387E+03  0.7546771E-02  0.1013534E+00
         21   -1    0    0  502  501  0.00000000000E+00  0.00000000000E+00  0.57357279695E+03  0.57357279695E+03  0.00000000000E+00 0. -1.
         21   -1    0    0  501  502 -0.00000000000E+00 -0.00000000000E+00 -0.43750263478E+03  0.43750263478E+03  0.00000000000E+00 0. -1.
         25    1    1    2    0    0 -0.26324983142E+03  0.16479017691E+03  0.10559957512E+03  0.35104493503E+03  0.12500000000E+03 0.  0.
         25    1    1    2    0    0  0.33863156111E+03 -0.20135978290E+03 -0.13647039317E+03  0.43527722725E+03  0.12500000000E+03 0.  0.
         25    1    1    2    0    0 -0.75381729695E+02  0.36569605995E+02  0.16694098022E+03  0.22475326946E+03  0.12500000000E+03 0.  0.
</event>
<event>
 5    0  0.5815084E-005  0.2644666E+03  0.7546771E-02  0.1104489E+00
         21   -1    0    0  502  501  0.00000000000E+00  0.00000000000E+00  0.46916238525E+03  0.46916238525E+03  0.00000000000E+00 0. -1.
         21   -1    0    0  501  502 -0.00000000000E+00 -0.00000000000E+00 -0.14907969845E+03  0.14907969845E+03  0.00000000000E+00 0. -1.
         25    1    1    2    0    0  0.13142322096E+03 -0.14032332546E+02  0.14745696614E+03  0.23417413655E+03  0.12500000000E+03 0.  0.
         25    1    1    2    0    0 -0.16021295534E+03  0.50409493821E+02  0.96500870167E+02  0.23053573707E+03  0.12500000000E+03 0.  0.
         25    1    1    2    0    0  0.28789734373E+02 -0.36377161275E+02  0.76124850484E+02  0.15353221007E+03  0.12500000000E+03 0.  0.
</event>
<event>
 5    0  0.6458645E-005  0.4956225E+03  0.7546771E-02  0.1014928E+00
         21   -1    0    0  502  501  0.00000000000E+00  0.00000000000E+00  0.10019250400E+04  0.10019250400E+04  0.00000000000E+00 0.  1.
         21   -1    0    0  501  502 -0.00000000000E+00 -0.00000000000E+00 -0.24516974717E+03  0.24516974717E+03  0.00000000000E+00 0.  1.
         25    1    1    2    0    0  0.25944455335E+03 -0.40242750487E+02  0.20160377035E+03  0.35383617035E+03  0.12500000000E+03 0.  0.
         25    1    1    2    0    0 -0.37777069404E+02  0.30067214391E+03  0.33004340725E+03  0.46517146921E+03  0.12500000000E+03 0.  0.
         25    1    1    2    0    0 -0.22166748395E+03 -0.26042939342E+03  0.22510811521E+03  0.42808714759E+03  0.12500000000E+03 0.  0.
</event>
<event>
 5    0  0.5815084E-005  0.2169969E+03  0.7546771E-02  0.1136142E+00
         21   -1    0    0  502  501  0.00000000000E+00  0.00000000000E+00  0.14103094406E+02  0.14103094406E+02  0.00000000000E+00 0. -1.
         21   -1    0    0  501  502 -0.00000000000E+00 -0.00000000000E+00 -0.33388181490E+04  0.33388181490E+04  0.00000000000E+00 0. -1.
         25    1    1    2    0    0  0.29596394674E+02  0.24375152270E+02 -0.78039913620E+03  0.79127612527E+03  0.12500000000E+03 0.  0.
         25    1    1    2    0    0 -0.51168429380E+02 -0.82100433838E+02 -0.13332280617E+04  0.13425649906E+04  0.12500000000E+03 0.  0.
         25    1    1    2    0    0  0.21572034706E+02  0.57725281568E+02 -0.12110878566E+04  0.12190801275E+04  0.12500000000E+03 0.  0.
</event>
<event>
 5    0  0.5969608E-005  0.3516822E+03  0.7546771E-02  0.1061927E+00
         21   -1    0    0  502  501  0.00000000000E+00  0.00000000000E+00  0.30963686889E+03  0.30963686889E+03  0.00000000000E+00 0.  1.
         21   -1    0    0  501  502 -0.00000000000E+00 -0.00000000000E+00 -0.39943689923E+03  0.39943689923E+03  0.00000000000E+00 0.  1.
         25    1    1    2    0    0 -0.84203318655E+02 -0.38850332089E+02 -0.18306599610E+03  0.24028671646E+03  0.12500000000E+03 0.  0.
         25    1    1    2    0    0  0.14893318354E+03  0.15212795940E+03 -0.31976295276E+02  0.24894074124E+03  0.12500000000E+03 0.  0.
         25    1    1    2    0    0 -0.64729864890E+02 -0.11327762731E+03  0.12524226103E+03  0.21984631042E+03  0.12500000000E+03 0.  0.
</event>
<event>
 5    0  0.5815084E-005  0.2760746E+03  0.7546771E-02  0.1097852E+00
         21   -1    0    0  502  501  0.00000000000E+00  0.00000000000E+00  0.10248000522E+03  0.10248000522E+03  0.00000000000E+00 0.  1.
         21   -1    0    0  501  502 -0.00000000000E+00 -0.00000000000E+00 -0.74372762806E+03  0.74372762806E+03  0.00000000000E+00 0.  1.
         25    1    1    2    0    0 -0.24060865787E+02  0.12377554396E+03 -0.10238685505E+03  0.20495701654E+03  0.12500000000E+03 0.  0.
         25    1    1    2    0    0 -0.25845155176E+02 -0.38321929101E+02 -0.42481432546E+03  0.44522887756E+03  0.12500000000E+03 0.  0.
         25    1    1    2    0    0  0.49906020963E+02 -0.85453614856E+02 -0.11404644233E+03  0.19602173917E+03  0.12500000000E+03 0.  0.
</event>
<event>
 5    0  0.5815084E-005  0.2344134E+03  0.7546771E-02  0.1123571E+00
         21   -1    0    0  502  501  0.00000000000E+00  0.00000000000E+00  0.55454381101E+03  0.55454381101E+03  0.00000000000E+00 0. -1.
         21   -1    0    0  501  502 -0.00000000000E+00 -0.00000000000E+00 -0.99089788852E+02  0.99089788852E+02  0.00000000000E+00 0. -1.
         25    1    1    2    0    0 -0.67294727188E+01 -0.30404448690E+01  0.25150558618E+03  0.28095300317E+03  0.12500000000E+03 0.  0.
         25    1    1    2    0    0  0.71942124811E+02 -0.14237932287E+02  0.29813382920E+02  0.14796021708E+03  0.12500000000E+03 0.  0.
         25    1    1    2    0    0 -0.65212652092E+02  0.17278377156E+02  0.17413505306E+03  0.22472037961E+03  0.12500000000E+03 0.  0.
</event>
<event>
 5    0  0.5815084E-005  0.3802420E+03  0.7546771E-02  0.1050844E+00
         21   -1    0    0  502  501  0.00000000000E+00  0.00000000000E+00  0.11338057825E+03  0.11338057825E+03  0.00000000000E+00 0.  1.
         21   -1    0    0  501  502 -0.00000000000E+00 -0.00000000000E+00 -0.12752091080E+04  0.12752091080E+04  0.00000000000E+00 0.  1.
         25    1    1    2    0    0 -0.22240652455E+03  0.75609150030E+02 -0.48192413365E+03  0.55050638173E+03  0.12500000000E+03 0.  0.
         25    1    1    2    0    0  0.39335738568E+02 -0.17599741743E+03 -0.18666987963E+03  0.28808511803E+03  0.12500000000E+03 0.  0.
         25    1    1    2    0    0  0.18307078598E+03  0.10038826740E+03 -0.49323451650E+03  0.54999818652E+03  0.12500000000E+03 0.  0.
</event>
<event>
 5    0  0.5815084E-005  0.2622227E+03  0.7546771E-02  0.1105815E+00
         21   -1    0    0  502  501  0.00000000000E+00  0.00000000000E+00  0.32020922919E+03  0.32020922919E+03  0.00000000000E+00 0.  1.
         21   -1    0    0  501  502 -0.00000000000E+00 -0.00000000000E+00 -0.21473688675E+03  0.21473688675E+03  0.00000000000E+00 0.  1.
         25    1    1    2    0    0  0.73651682454E+01  0.12724816269E+03  0.46832417186E+02  0.18456602046E+03  0.12500000000E+03 0.  0.
         25    1    1    2    0    0 -0.15912845642E+02  0.39372732806E+02  0.51740595785E+02  0.14179393498E+03  0.12500000000E+03 0.  0.
         25    1    1    2    0    0  0.85476773965E+01 -0.16662089549E+03  0.68993294741E+01  0.20858616050E+03  0.12500000000E+03 0.  0.
</event>
<event>
 5    0  0.5815084E-005  0.2403444E+03  0.7546771E-02  0.1119564E+00
         21   -1    0    0  502  501  0.00000000000E+00  0.00000000000E+00  0.30805089085E+03  0.30805089085E+03  0.00000000000E+00 0.  1.
         21   -1    0    0  501  502 -0.00000000000E+00 -0.00000000000E+00 -0.18751905880E+03  0.18751905880E+03  0.00000000000E+00 0.  1.
         25    1    1    2    0    0 -0.49420790125E+02  0.12575657651E+03  0.37980781696E+02  0.18794858555E+03  0.12500000000E+03 0.  0.
         25    1    1    2    0    0  0.18071078646E+02 -0.87734935463E+02  0.79745118390E+02  0.17322894299E+03  0.12500000000E+03 0.  0.
         25    1    1    2    0    0  0.31349711479E+02 -0.38021641049E+02  0.28059319652E+01  0.13439242111E+03  0.12500000000E+03 0.  0.
</event>
<event>
 5    0  0.5815084E-005  0.3096766E+03  0.7546771E-02  0.1080501E+00
         21   -1    0    0  502  501  0.00000000000E+00  0.00000000000E+00  0.10346744638E+03  0.10346744638E+03  0.00000000000E+00 0. -1.
         21   -1    0    0  501  502 -0.00000000000E+00 -0.00000000000E+00 -0.92685792213E+03  0.92685792213E+03  0.00000000000E+00 0. -1.
         25    1    1    2    0    0  0.14829157435E+03 -0.71394198429E+02 -0.54684603789E+03  0.58459653758E+03  0.12500000000E+03 0.  0.
         25    1    1    2    0    0 -0.29142611762E+02  0.98103773280E+02 -0.72463447135E+02  0.17705816367E+03  0.12500000000E+03 0.  0.
         25    1    1    2    0    0 -0.11914896258E+03 -0.26709574851E+02 -0.20408099072E+03  0.26867066726E+03  0.12500000000E+03 0.  0.
</event>
<event>
 5    0  0.5815084E-005  0.3653107E+03  0.7546771E-02  0.1056501E+00
         21   -1    0    0  502  501  0.00000000000E+00  0.00000000000E+00  0.17255942997E+04  0.17255942997E+04  0.00000000000E+00 0.  1.
         21   -1    0    0  501  502 -0.00000000000E+00 -0.00000000000E+00 -0.77336800996E+02  0.77336800996E+02  0.00000000000E+00 0.  1.
         25    1    1    2    0    0 -0.18320142893E+03 -0.53392753033E+02  0.18097371779E+03  0.29118728710E+03  0.12500000000E+03 0.  0.
         25    1    1    2    0    0 -0.13432255227E+02  0.28580137983E+02  0.56602414685E+03  0.58052182094E+03  0.12500000000E+03 0.  0.
         25    1    1    2    0    0  0.19663368416E+03  0.24812615050E+02  0.90125963408E+03  0.93122199267E+03  0.12500000000E+03 0.  0.
</event>
<event>
 5    0  0.5815084E-005  0.2732117E+03  0.7546771E-02  0.1099455E+00
         21   -1    0    0  502  501  0.00000000000E+00  0.00000000000E+00  0.61269758364E+03  0.61269758364E+03  0.00000000000E+00 0.  1.
         21   -1    0    0  501  502 -0.00000000000E+00 -0.00000000000E+00 -0.12182947249E+03  0.12182947249E+03  0.00000000000E+00 0.  1.
         25    1    1    2    0    0  0.70026535202E+02  0.61459544274E+02  0.31004006549E+03  0.34703145884E+03  0.12500000000E+03 0.  0.
         25    1    1    2    0    0 -0.12548858511E+03 -0.65434845640E+02  0.43744474610E+02  0.19382384548E+03  0.12500000000E+03 0.  0.
         25    1    1    2    0    0  0.55462049905E+02  0.39753013660E+01  0.13708357105E+03  0.19367175182E+03  0.12500000000E+03 0.  0.
</event>
<event>
 5    0  0.5815084E-005  0.2640057E+03  0.7546771E-02  0.1104760E+00
         21   -1    0    0  502  501  0.00000000000E+00  0.00000000000E+00  0.28850005015E+04  0.28850005015E+04  0.00000000000E+00 0.  1.
         21   -1    0    0  501  502 -0.00000000000E+00 -0.00000000000E+00 -0.24159089456E+02  0.24159089456E+02  0.00000000000E+00 0.  1.
         25    1    1    2    0    0 -0.75556932138E+02  0.10676289390E+03  0.95779174963E+03  0.97472929636E+03  0.12500000000E+03 0.  0.
         25    1    1    2    0    0  0.30118204354E+02 -0.11524700887E+03  0.15002886812E+04  0.15101920760E+04  0.12500000000E+03 0.  0.
         25    1    1    2    0    0  0.45438727784E+02  0.84841149749E+01  0.40276098122E+03  0.42423821867E+03  0.12500000000E+03 0.  0.
</event>
<event>
 5    0  0.5815084E-005  0.3908778E+03  0.7546771E-02  0.1046985E+00
         21   -1    0    0  502  501  0.00000000000E+00  0.00000000000E+00  0.60826738529E+03  0.60826738529E+03  0.00000000000E+00 0. -1.
         21   -1    0    0  501  502 -0.00000000000E+00 -0.00000000000E+00 -0.25118140122E+03  0.25118140122E+03  0.00000000000E+00 0. -1.
         25    1    1    2    0    0  0.16240212959E+02 -0.27783481180E+03  0.17693533919E+03  0.35268547095E+03  0.12500000000E+03 0.  0.
         25    1    1    2    0    0  0.70644589701E+02  0.20649399727E+03 -0.11570316405E+02  0.25177232013E+03  0.12500000000E+03 0.  0.
         25    1    1    2    0    0 -0.86884802660E+02  0.71340814530E+02  0.19172096129E+03  0.25499099542E+03  0.12500000000E+03 0.  0.
</event>
<event>
 5    0  0.5815084E-005  0.2427708E+03  0.7546771E-02  0.1117961E+00
         21   -1    0    0  502  501  0.00000000000E+00  0.00000000000E+00  0.77447712097E+03  0.77447712097E+03  0.00000000000E+00 0.  1.
         21   -1    0    0  501  502 -0.00000000000E+00 -0.00000000000E+00 -0.76099919677E+02  0.76099919677E+02  0.00000000000E+00 0.  1.
         25    1    1    2    0    0  0.23531194249E+02 -0.51860420207E+02  0.33420253820E+03  0.36133026005E+03  0.12500000000E+03 0.  0.
         25    1    1    2    0    0  0.11840332700E+02 -0.66167579869E+02  0.22143007477E+03  0.26301068442E+03  0.12500000000E+03 0.  0.
         25    1    1    2    0    0 -0.35371526948E+02  0.11802800008E+03  0.14274458832E+03  0.22623609618E+03  0.12500000000E+03 0.  0.
</event>
<event>
 5    0  0.5815084E-005  0.3266275E+03  0.7546771E-02  0.1072639E+00
         21   -1    0    0  502  501  0.00000000000E+00  0.00000000000E+00  0.30842891554E+03  0.30842891554E+03  0.00000000000E+00 0.  1.
         21   -1    0    0  501  502 -0.00000000000E+00 -0.00000000000E+00 -0.34589978051E+03  0.34589978051E+03  0.00000000000E+00 0.  1.
         25    1    1    2    0    0  0.66476204772E+02  0.73399564086E+02  0.66283645152E+02  0.17269945982E+03  0.12500000000E+03 0.  0.
         25    1    1    2    0    0 -0.20584418631E+03 -0.11366429259E+03 -0.11441386671E+03  0.28983949583E+03  0.12500000000E+03 0.  0.
         25    1    1    2    0    0  0.13936798154E+03  0.40264728504E+02  0.10659356586E+02  0.19178974040E+03  0.12500000000E+03 0.  0.
</event>
<event>
 5    0  0.5815084E-005  0.5200433E+03  0.7546771E-02  0.1008676E+00
         21   -1    0    0  502  501  0.00000000000E+00  0.00000000000E+00  0.10731822804E+03  0.10731822804E+03  0.00000000000E+00 0. -1.
         21   -1    0    0  501  502 -0.00000000000E+00 -0.00000000000E+00 -0.25200289010E+04  0.25200289010E+04  0.00000000000E+00 0. -1.
         25    1    1    2    0    0 -0.14805263999E+03  0.64885952222E+01 -0.69170749044E+03  0.71836337491E+03  0.12500000000E+03 0.  0.
         25    1    1    2    0    0  0.21458138100E+03  0.34873625100E+03 -0.10911359998E+04  0.11721198368E+04  0.12500000000E+03 0.  0.
         25    1    1    2    0    0 -0.66528741002E+02 -0.35522484622E+03 -0.62986718275E+03  0.73686391732E+03  0.12500000000E+03 0.  0.
</event>
<event>
 5    0  0.5815084E-005  0.2960071E+03  0.7546771E-02  0.1087254E+00
         21   -1    0    0  502  501  0.00000000000E+00  0.00000000000E+00  0.13750112787E+03  0.13750112787E+03  0.00000000000E+00 0.  1.
         21   -1    0    0  501  502 -0.00000000000E+00 -0.00000000000E+00 -0.63723267881E+03  0.63723267881E+03  0.00000000000E+00 0.  1.
         25    1    1    2    0    0  0.36823617139E+02  0.13741602589E+03 -0.19350000238E+03  0.27075153531E+03  0.12500000000E+03 0.  0.
         25    1    1    2    0    0 -0.63114148798E+02 -0.20853648918E+03 -0.16383486695E+03  0.29989619325E+03  0.12500000000E+03 0.  0.
         25    1    1    2    0    0  0.26290531659E+02  0.71120463285E+02 -0.14239668160E+03  0.20408607813E+03  0.12500000000E+03 0.  0.
</event>
<event>
 5    0  0.5815084E-005  0.4281807E+03  0.7546771E-02  0.1034436E+00
         21   -1    0    0  502  501  0.00000000000E+00  0.00000000000E+00  0.92382628542E+03  0.92382628542E+03  0.00000000000E+00 0. -1.
         21   -1    0    0  501  502 -0.00000000000E+00 -0.00000000000E+00 -0.19845585454E+03  0.19845585454E+03  0.00000000000E+00 0. -1.
         25    1    1    2    0    0 -0.32801835569E+03 -0.15258863089E+03  0.36005391832E+03  0.52549325024E+03  0.12500000000E+03 0.  0.
         25    1    1    2    0    0  0.21479494499E+03  0.51700138855E+02  0.29230007920E+03  0.38713577599E+03  0.12500000000E+03 0.  0.
         25    1    1    2    0    0  0.11322341070E+03  0.10088849203E+03  0.73016433348E+02  0.20965311373E+03  0.12500000000E+03 0.  0.
</event>
<event>
 5    0  0.5815084E-005  0.2709878E+03  0.7546771E-02  0.1100716E+00
         21   -1    0    0  502  501  0.00000000000E+00  0.00000000000E+00  0.60371706228E+02  0.60371706228E+02  0.00000000000E+00 0.  1.
         21   -1    0    0  501  502 -0.00000000000E+00 -0.00000000000E+00 -0.12163712900E+04  0.12163712900E+04  0.00000000000E+00 0.  1.
         25    1    1    2    0    0  0.10141637364E+03 -0.67205243732E+02 -0.59732122480E+03  0.62226961296E+03  0.12500000000E+03 0.  0.
         25    1    1    2    0    0 -0.15292545108E+03  0.26422972518E+02 -0.31093799239E+03  0.36931260765E+03  0.12500000000E+03 0.  0.
         25    1    1    2    0    0  0.51509077441E+02  0.40782271214E+02 -0.24774036654E+03  0.28516077556E+03  0.12500000000E+03 0.  0.
</event>
<event>
 5    0  0.5815084E-005  0.3381150E+03  0.7546771E-02  0.1067602E+00
         21   -1    0    0  502  501  0.00000000000E+00  0.00000000000E+00  0.66960058069E+03  0.66960058069E+03  0.00000000000E+00 0.  1.
         21   -1    0    0  501  502 -0.00000000000E+00 -0.00000000000E+00 -0.17073127262E+03  0.17073127262E+03  0.00000000000E+00 0.  1.
         25    1    1    2    0    0 -0.12673748835E+02  0.12566727664E+03  0.19183970118E+03  0.26149638482E+03  0.12500000000E+03 0.  0.
         25    1    1    2    0    0 -0.93696652434E+02 -0.50149822233E+01 -0.53110229680E+02  0.16507546523E+03  0.12500000000E+03 0.  0.
         25    1    1    2    0    0  0.10637040127E+03 -0.12065229441E+03  0.36013983657E+03  0.41376000326E+03  0.12500000000E+03 0.  0.
</event>
<event>
 5    0  0.5815084E-005  0.5162255E+03  0.7546771E-02  0.1009629E+00
         21   -1    0    0  502  501  0.00000000000E+00  0.00000000000E+00  0.49561020674E+03  0.49561020674E+03  0.00000000000E+00 0.  1.
         21   -1    0    0  501  502 -0.00000000000E+00 -0.00000000000E+00 -0.53769820928E+03  0.53769820928E+03  0.00000000000E+00 0.  1.
         25    1    1    2    0    0  0.10054152553E+03  0.84978481561E+02 -0.48850328734E+02  0.18799280651E+03  0.12500000000E+03 0.  0.
         25    1    1    2    0    0  0.13361872195E+03 -0.22923905435E+03  0.30334841921E+03  0.42195944157E+03  0.12500000000E+03 0.  0.
         25    1    1    2    0    0 -0.23416024747E+03  0.14426057279E+03 -0.29658609302E+03  0.42335616793E+03  0.12500000000E+03 0.  0.
</event>
<event>
 5    0  0.5815084E-005  0.4912904E+03  0.7546771E-02  0.1016078E+00
         21   -1    0    0  502  501  0.00000000000E+00  0.00000000000E+00  0.10043100512E+04  0.10043100512E+04  0.00000000000E+00 0. -1.
         21   -1    0    0  501  502 -0.00000000000E+00 -0.00000000000E+00 -0.24033038579E+03  0.24033038579E+03  0.00000000000E+00 0. -1.
         25    1    1    2    0    0 -0.13439008750E+03  0.19411631611E+03  0.11870947358E+03  0.29233333528E+03  0.12500000000E+03 0.  0.
         25    1    1    2    0    0  0.20218357071E+03  0.34990452653E+02  0.63889832404E+03  0.68258230017E+03  0.12500000000E+03 0.  0.
         25    1    1    2    0    0 -0.67793483201E+02 -0.22910676876E+03  0.63718677775E+01  0.26972480152E+03  0.12500000000E+03 0.  0.
</event>
<event>
 5    0  0.5815084E-005  0.6401862E+03  0.7546771E-02  0.9825370E-01
         21   -1    0    0  502  501  0.00000000000E+00  0.00000000000E+00  0.25497957849E+03  0.25497957849E+03  0.00000000000E+00 0. -1.
         21   -1    0    0  501  502 -0.00000000000E+00 -0.00000000000E+00 -0.16073379373E+04  0.16073379373E+04  0.00000000000E+00 0. -1.
         25    1    1    2    0    0  0.25481360090E+03  0.10607848082E+03 -0.25621916557E+03  0.39680710188E+03  0.12500000000E+03 0.  0.
         25    1    1    2    0    0  0.87743718498E+02 -0.38149439664E+03 -0.85544332010E+03  0.94902329198E+03  0.12500000000E+03 0.  0.
         25    1    1    2    0    0 -0.34255731940E+03  0.27541591583E+03 -0.24069587310E+03  0.51648712190E+03  0.12500000000E+03 0.  0.
</event>
<event>
 5    0  0.5815084E-005  0.3445920E+03  0.7546771E-02  0.1064857E+00
         21   -1    0    0  502  501  0.00000000000E+00  0.00000000000E+00  0.97372912721E+02  0.97372912721E+02  0.00000000000E+00 0.  1.
         21   -1    0    0  501  502 -0.00000000000E+00 -0.00000000000E+00 -0.12194732120E+04  0.12194732120E+04  0.00000000000E+00 0.  1.
         25    1    1    2    0    0 -0.20244451960E+03 -0.82364066690E+02 -0.29659827350E+03  0.38905418497E+03  0.12500000000E+03 0.  0.
         25    1    1    2    0    0  0.21804532276E+03  0.12955594649E+03 -0.62926242103E+03  0.68987295973E+03  0.12500000000E+03 0.  0.
         25    1    1    2    0    0 -0.15600803156E+02 -0.47191879802E+02 -0.19623960470E+03  0.23791897997E+03  0.12500000000E+03 0.  0.
</event>
<event>
 5    0  0.5815084E-005  0.3099808E+03  0.7546771E-02  0.1080355E+00
         21   -1    0    0  502  501  0.00000000000E+00  0.00000000000E+00  0.83126270771E+03  0.83126270771E+03  0.00000000000E+00 0.  1.
         21   -1    0    0  501  502 -0.00000000000E+00 -0.00000000000E+00 -0.11559295254E+03  0.11559295254E+03  0.00000000000E+00 0.  1.
         25    1    1    2    0    0 -0.59296758799E+01 -0.10558189334E+03  0.30858699779E+03  0.34933312534E+03  0.12500000000E+03 0.  0.
         25    1    1    2    0    0  0.12324701769E+03  0.82370498106E+02  0.37416328149E+03  0.42142364379E+03  0.12500000000E+03 0.  0.
         25    1    1    2    0    0 -0.11731734181E+03  0.23211395234E+02  0.32919475890E+02  0.17609889112E+03  0.12500000000E+03 0.  0.
</event>
<event>
 5    0  0.5815084E-005  0.4781474E+03  0.7546771E-02  0.1019646E+00
         21   -1    0    0  502  501  0.00000000000E+00  0.00000000000E+00  0.58785198074E+03  0.58785198074E+03  0.00000000000E+00 0.  1.
         21   -1    0    0  501  502 -0.00000000000E+00 -0.00000000000E+00 -0.38891586958E+03  0.38891586958E+03  0.00000000000E+00 0.  1.
         25    1    1    2    0    0 -0.12662367386E+03 -0.10495773133E+03 -0.12520733833E+03  0.24156067088E+03  0.12500000000E+03 0.  0.
         25    1    1    2    0    0  0.11352593979E+02  0.34420195298E+03  0.18179246046E+03  0.40899555560E+03  0.12500000000E+03 0.  0.
         25    1    1    2    0    0  0.11527107988E+03 -0.23924422164E+03  0.14235098903E+03  0.32621162383E+03  0.12500000000E+03 0.  0.
</event>
<event>
 5    0  0.5815084E-005  0.2498039E+03  0.7546771E-02  0.1113429E+00
         21   -1    0    0  502  501  0.00000000000E+00  0.00000000000E+00  0.16453818122E+03  0.16453818122E+03  0.00000000000E+00 0.  1.
         21   -1    0    0  501  502 -0.00000000000E+00 -0.00000000000E+00 -0.37925532521E+03  0.37925532521E+03  0.00000000000E+00 0.  1.
         25    1    1    2    0    0 -0.19037077031E+01 -0.83246871447E+01 -0.36892676273E+02  0.13061008415E+03  0.12500000000E+03 0.  0.
         25    1    1    2    0    0  0.79728878157E+02 -0.93052750186E+02 -0.22733927785E+02  0.17651441811E+03  0.12500000000E+03 0.  0.
         25    1    1    2    0    0 -0.77825170454E+02  0.10137743733E+03 -0.15509053993E+03  0.23666900417E+03  0.12500000000E+03 0.  0.
</event>
<event>
 5    0  0.5905561E-005  0.2639709E+03  0.7546771E-02  0.1104781E+00
         21   -1    0    0  502  501  0.00000000000E+00  0.00000000000E+00  0.11015228559E+04  0.11015228559E+04  0.00000000000E+00 0. -1.
         21   -1    0    0  501  502 -0.00000000000E+00 -0.00000000000E+00 -0.63258451053E+02  0.63258451053E+02  0.00000000000E+00 0. -1.
         25    1    1    2    0    0  0.14345208604E+03  0.51125619495E+02  0.29298379721E+03  0.35306774900E+03  0.12500000000E+03 0.  0.
         25    1    1    2    0    0 -0.45264741012E+02 -0.54057408224E+02  0.21808823355E+03  0.26107197815E+03  0.12500000000E+03 0.  0.
         25    1    1    2    0    0 -0.98187345028E+02  0.29317887288E+01  0.52719237408E+03  0.55064157979E+03  0.12500000000E+03 0.  0.
</event>
<event>
 5    0  0.5836245E-005  0.2913008E+03  0.7546771E-02  0.1089672E+00
         21   -1    0    0  502  501  0.00000000000E+00  0.00000000000E+00  0.22460675003E+03  0.22460675003E+03  0.00000000000E+00 0. -1.
         21   -1    0    0  501  502 -0.00000000000E+00 -0.00000000000E+00 -0.37779887535E+03  0.37779887535E+03  0.00000000000E+00 0.  1.
         25    1    1    2    0    0  0.11667603537E+03 -0.36167440321E+02 -0.92460086568E+02  0.19772518448E+03  0.12500000000E+03 0.  0.
         25    1    1    2    0    0 -0.18192019771E+03 -0.34363797245E+02 -0.95975674961E+02  0.24312992222E+03  0.12500000000E+03 0.  0.
         25    1    1    2    0    0  0.65244162340E+02  0.70531237566E+02  0.35243636205E+02  0.16155051868E+03  0.12500000000E+03 0.  0.
</event>
<event>
 5    0  0.5815084E-005  0.3461726E+03  0.7546771E-02  0.1064197E+00
         21   -1    0    0  502  501  0.00000000000E+00  0.00000000000E+00  0.12332177767E+04  0.12332177767E+04  0.00000000000E+00 0. -1.
         21   -1    0    0  501  502 -0.00000000000E+00 -0.00000000000E+00 -0.97172985880E+02  0.97172985880E+02  0.00000000000E+00 0. -1.
         25    1    1    2    0    0 -0.18956864358E+03  0.72620212429E+02  0.54065330049E+03  0.59088150861E+03  0.12500000000E+03 0.  0.
         25    1    1    2    0    0  0.14991831894E+03 -0.66826837933E+02  0.10430823292E+03  0.23118506889E+03  0.12500000000E+03 0.  0.
         25    1    1    2    0    0  0.39650324636E+02 -0.57933744966E+01  0.49108325740E+03  0.50832418507E+03  0.12500000000E+03 0.  0.
</event>
<event>
 5    0  0.5815084E-005  0.2996603E+03  0.7546771E-02  0.1085411E+00
         21   -1    0    0  502  501  0.00000000000E+00  0.00000000000E+00  0.56074398584E+03  0.56074398584E+03  0.00000000000E+00 0. -1.
         21   -1    0    0  501  502 -0.00000000000E+00 -0.00000000000E+00 -0.16013775279E+03  0.16013775279E+03  0.00000000000E+00 0. -1.
         25    1    1    2    0    0 -0.67585138273E+02 -0.54678739378E+02  0.12734154383E+03  0.19849026233E+03  0.12500000000E+03 0.  0.
         25    1    1    2    0    0  0.44753764461E+02  0.24518989126E+02 -0.72170060034E+02  0.15309342842E+03  0.12500000000E+03 0.  0.
         25    1    1    2    0    0  0.22831373811E+02  0.30159750251E+02  0.34543474926E+03  0.36929804787E+03  0.12500000000E+03 0.  0.
</event>
<event>
 5    0  0.5815084E-005  0.2999806E+03  0.7546771E-02  0.1085250E+00
         21   -1    0    0  502  501  0.00000000000E+00  0.00000000000E+00  0.34571610133E+03  0.34571610133E+03  0.00000000000E+00 0.  1.
         21   -1    0    0  501  502 -0.00000000000E+00 -0.00000000000E+00 -0.26029557003E+03  0.26029557003E+03  0.00000000000E+00 0.  1.
         25    1    1    2    0    0 -0.23175888525E+02 -0.79938867176E+01  0.23342069859E+03  0.26591586369E+03  0.12500000000E+03 0.  0.
         25    1    1    2    0    0  0.31998649016E+02  0.88889031080E+02 -0.84122361198E+02  0.17783909873E+03  0.12500000000E+03 0.  0.
         25    1    1    2    0    0 -0.88227604909E+01 -0.80895144362E+02 -0.63877806094E+02  0.16225670894E+03  0.12500000000E+03 0.  0.
</event>
<event>
 5    0  0.5815084E-005  0.2611204E+03  0.7546771E-02  0.1106472E+00
         21   -1    0    0  502  501  0.00000000000E+00  0.00000000000E+00  0.44902416552E+03  0.44902416552E+03  0.00000000000E+00 0. -1.
         21   -1    0    0  501  502 -0.00000000000E+00 -0.00000000000E+00 -0.15184898603E+03  0.15184898603E+03  0.00000000000E+00 0. -1.
         25    1    1    2    0    0 -0.26902322242E+02 -0.68215347505E+02  0.41653585144E+02  0.15078822810E+03  0.12500000000E+03 0.  0.
         25    1    1    2    0    0  0.25691931551E+02 -0.47011734256E+02  0.24442528998E+03  0.27971217508E+03  0.12500000000E+03 0.  0.
         25    1    1    2    0    0  0.12103906911E+01  0.11522708176E+03  0.11096304359E+02  0.17037274837E+03  0.12500000000E+03 0.  0.
</event>
<event>
 5    0  0.5815084E-005  0.3399539E+03  0.7546771E-02  0.1066816E+00
         21   -1    0    0  502  501  0.00000000000E+00  0.00000000000E+00  0.16662666567E+03  0.16662666567E+03  0.00000000000E+00 0.  1.
         21   -1    0    0  501  502 -0.00000000000E+00 -0.00000000000E+00 -0.69357831430E+03  0.69357831430E+03  0.00000000000E+00 0.  1.
         25    1    1    2    0    0  0.19435253325E+02  0.99517580698E+02  0.28666630763E+02  0.16348777832E+03  0.12500000000E+03 0.  0.
         25    1    1    2    0    0 -0.38723839081E+02 -0.62438827855E+02 -0.54559679039E+03  0.56453432192E+03  0.12500000000E+03 0.  0.
         25    1    1    2    0    0  0.19288585756E+02 -0.37078752843E+02 -0.10021489006E+02  0.13218287973E+03  0.12500000000E+03 0.  0.
</event>
<event>
 5    0  0.5815084E-005  0.4273505E+03  0.7546771E-02  0.1034700E+00
         21   -1    0    0  502  501  0.00000000000E+00  0.00000000000E+00  0.15161695117E+04  0.15161695117E+04  0.00000000000E+00 0. -1.
         21   -1    0    0  501  502 -0.00000000000E+00 -0.00000000000E+00 -0.12045384306E+03  0.12045384306E+03  0.00000000000E+00 0. -1.
         25    1    1    2    0    0  0.13049285612E+03 -0.57768450283E+02  0.59144019841E+03  0.62112163676E+03  0.12500000000E+03 0.  0.
         25    1    1    2    0    0 -0.12413318951E+01  0.10939176458E+03 -0.22678095471E+02  0.16765260236E+03  0.12500000000E+03 0.  0.
         25    1    1    2    0    0 -0.12925152422E+03 -0.51623314301E+02  0.82695356573E+03  0.84784911569E+03  0.12500000000E+03 0.  0.
</event>
<event>
 5    0  0.5815084E-005  0.3355926E+03  0.7546771E-02  0.1068689E+00
         21   -1    0    0  502  501  0.00000000000E+00  0.00000000000E+00  0.29496538820E+03  0.29496538820E+03  0.00000000000E+00 0.  1.
         21   -1    0    0  501  502 -0.00000000000E+00 -0.00000000000E+00 -0.38181557887E+03  0.38181557887E+03  0.00000000000E+00 0.  1.
         25    1    1    2    0    0 -0.16309691095E+03  0.45033837460E+02 -0.87816245204E+02  0.22795907922E+03  0.12500000000E+03 0.  0.
         25    1    1    2    0    0  0.18470939636E+03  0.20207393287E+02 -0.12677459166E+03  0.25733770990E+03  0.12500000000E+03 0.  0.
         25    1    1    2    0    0 -0.21612485410E+02 -0.65241230747E+02  0.12774064619E+03  0.19148417795E+03  0.12500000000E+03 0.  0.
</event>
<event>
 5    0  0.5815084E-005  0.3458992E+03  0.7546771E-02  0.1064311E+00
         21   -1    0    0  502  501  0.00000000000E+00  0.00000000000E+00  0.14746618235E+03  0.14746618235E+03  0.00000000000E+00 0. -1.
         21   -1    0    0  501  502 -0.00000000000E+00 -0.00000000000E+00 -0.81134722626E+03  0.81134722626E+03  0.00000000000E+00 0. -1.
         25    1    1    2    0    0  0.11989482789E+03 -0.64418763827E+02 -0.45668784860E+03  0.49265945433E+03  0.12500000000E+03 0.  0.
         25    1    1    2    0    0  0.82121038534E+02 -0.44688463504E+02 -0.81364580909E+02  0.17602874415E+03  0.12500000000E+03 0.  0.
         25    1    1    2    0    0 -0.20201586643E+03  0.10910722733E+03 -0.12582861441E+03  0.29012521012E+03  0.12500000000E+03 0.  0.
</event>
<event>
 5    0  0.5815084E-005  0.4374338E+03  0.7546771E-02  0.1031537E+00
         21   -1    0    0  502  501  0.00000000000E+00  0.00000000000E+00  0.10500915323E+04  0.10500915323E+04  0.00000000000E+00 0.  1.
         21   -1    0    0  501  502 -0.00000000000E+00 -0.00000000000E+00 -0.18222063286E+03  0.18222063286E+03  0.00000000000E+00 0. -1.
         25    1    1    2    0    0 -0.37373875089E+02  0.30655991421E+03  0.21815573570E+03  0.39823700551E+03  0.12500000000E+03 0.  0.
         25    1    1    2    0    0 -0.28856176635E+02 -0.30136777086E+03  0.25608093178E+03  0.41576153726E+03  0.12500000000E+03 0.  0.
         25    1    1    2    0    0  0.66230051724E+02 -0.51921433506E+01  0.39363423195E+03  0.41831362238E+03  0.12500000000E+03 0.  0.
</event>
<event>
 5    0  0.5815084E-005  0.2589774E+03  0.7546771E-02  0.1107759E+00
         21   -1    0    0  502  501  0.00000000000E+00  0.00000000000E+00  0.24476763387E+03  0.24476763387E+03  0.00000000000E+00 0. -1.
         21   -1    0    0  501  502 -0.00000000000E+00 -0.00000000000E+00 -0.27401216893E+03  0.27401216893E+03  0.00000000000E+00 0. -1.
         25    1    1    2    0    0  0.44521198700E+02  0.37491819212E+02  0.29978583411E+02  0.14110807597E+03  0.12500000000E+03 0.  0.
         25    1    1    2    0    0 -0.33756957370E+02  0.67709035954E+02  0.76566054477E+02  0.16495880219E+03  0.12500000000E+03 0.  0.
         25    1    1    2    0    0 -0.10764241330E+02 -0.10520085517E+03 -0.13578917294E+03  0.21271292464E+03  0.12500000000E+03 0.  0.
</event>
<event>
 5    0  0.5815084E-005  0.2393503E+03  0.7546771E-02  0.1120226E+00
         21   -1    0    0  502  501  0.00000000000E+00  0.00000000000E+00  0.32313875786E+03  0.32313875786E+03  0.00000000000E+00 0. -1.
         21   -1    0    0  501  502 -0.00000000000E+00 -0.00000000000E+00 -0.17728778980E+03  0.17728778980E+03  0.00000000000E+00 0. -1.
         25    1    1    2    0    0 -0.59395695079E+01 -0.29043948302E+02  0.37768100686E+01  0.12852273617E+03  0.12500000000E+03 0.  0.
         25    1    1    2    0    0 -0.90872058119E+02 -0.49813588921E+01  0.14236281618E+03  0.21017782070E+03  0.12500000000E+03 0.  0.
         25    1    1    2    0    0  0.96811627627E+02  0.34025307194E+02 -0.28865819528E+00  0.16172599079E+03  0.12500000000E+03 0.  0.
</event>
<event>
 5    0  0.5815084E-005  0.1110790E+04  0.7546771E-02  0.9194739E-01
         21   -1    0    0  502  501  0.00000000000E+00  0.00000000000E+00  0.14989407020E+04  0.14989407020E+04  0.00000000000E+00 0.  1.
         21   -1    0    0  501  502 -0.00000000000E+00 -0.00000000000E+00 -0.82315054780E+03  0.82315054780E+03  0.00000000000E+00 0.  1.
         25    1    1    2    0    0 -0.92047843955E+03 -0.29328363385E+03  0.76480216507E+03  0.12384842346E+04  0.12500000000E+03 0.  0.
         25    1    1    2    0    0  0.19672709162E+03  0.95643301406E+02 -0.19106664699E+03  0.31619717467E+03  0.12500000000E+03 0.  0.
         25    1    1    2    0    0  0.72375134793E+03  0.19764033244E+03  0.10205463612E+03  0.76740984056E+03  0.12500000000E+03 0.  0.
</event>
<event>
 5    0  0.5815084E-005  0.2531219E+03  0.7546771E-02  0.1111348E+00
         21   -1    0    0  502  501  0.00000000000E+00  0.00000000000E+00  0.27531389488E+03  0.27531389488E+03  0.00000000000E+00 0. -1.
         21   -1    0    0  501  502 -0.00000000000E+00 -0.00000000000E+00 -0.23271868709E+03  0.23271868709E+03  0.00000000000E+00 0. -1.
         25    1    1    2    0    0  0.47353094807E+02 -0.13938064602E+02 -0.27232888269E+02  0.13712481700E+03  0.12500000000E+03 0.  0.
         25    1    1    2    0    0  0.41471314503E+02  0.55454523796E+02  0.13742678675E+03  0.19825790237E+03  0.12500000000E+03 0.  0.
         25    1    1    2    0    0 -0.88824409311E+02 -0.41516459194E+02 -0.67598690696E+02  0.17264986260E+03  0.12500000000E+03 0.  0.
</event>
<event>
 5    0  0.5815084E-005  0.2961838E+03  0.7546771E-02  0.1087164E+00
         21   -1    0    0  502  501  0.00000000000E+00  0.00000000000E+00  0.76093462077E+03  0.76093462077E+03  0.00000000000E+00 0.  1.
         21   -1    0    0  501  502 -0.00000000000E+00 -0.00000000000E+00 -0.11528564975E+03  0.11528564975E+03  0.00000000000E+00 0.  1.
         25    1    1    2    0    0 -0.39110581202E+02 -0.15668354697E+03  0.36123831681E+03  0.41496685769E+03  0.12500000000E+03 0.  0.
         25    1    1    2    0    0  0.48543987599E+02  0.11724696714E+03  0.38210587255E+02  0.18217688935E+03  0.12500000000E+03 0.  0.
         25    1    1    2    0    0 -0.94334063965E+01  0.39436579821E+02  0.24620006696E+03  0.27907652347E+03  0.12500000000E+03 0.  0.
</event>
<event>
 5    0  0.5815084E-005  0.5192874E+03  0.7546771E-02  0.1008864E+00
         21   -1    0    0  502  501  0.00000000000E+00  0.00000000000E+00  0.20866871997E+03  0.20866871997E+03  0.00000000000E+00 0. -1.
         21   -1    0    0  501  502 -0.00000000000E+00 -0.00000000000E+00 -0.12922845532E+04  0.12922845532E+04  0.00000000000E+00 0. -1.
         25    1    1    2    0    0 -0.31742100747E+03 -0.27108148660E+03 -0.20684209472E+03  0.48233797332E+03  0.12500000000E+03 0.  0.
         25    1    1    2    0    0  0.19065353950E+03  0.11343927211E+03 -0.29254431984E+03  0.38784587100E+03  0.12500000000E+03 0.  0.
         25    1    1    2    0    0  0.12676746797E+03  0.15764221449E+03 -0.58422941866E+03  0.63076942883E+03  0.12500000000E+03 0.  0.
</event>
<event>
 5    0  0.5815084E-005  0.3518864E+03  0.7546771E-02  0.1061843E+00
         21   -1    0    0  502  501  0.00000000000E+00  0.00000000000E+00  0.12265450397E+04  0.12265450397E+04  0.00000000000E+00 0. -1.
         21   -1    0    0  501  502 -0.00000000000E+00 -0.00000000000E+00 -0.10095353344E+03  0.10095353344E+03  0.00000000000E+00 0. -1.
         25    1    1    2    0    0 -0.23397133327E+03 -0.13766015508E+03  0.45386396183E+03  0.54342469482E+03  0.12500000000E+03 0.  0.
         25    1    1    2    0    0  0.20873109274E+03  0.47445987299E+02  0.42736462874E+03  0.49404991315E+03  0.12500000000E+03 0.  0.
         25    1    1    2    0    0  0.25240240524E+02  0.90214167785E+02  0.24436291569E+03  0.29002396518E+03  0.12500000000E+03 0.  0.
</event>
<event>
 5    0  0.5815084E-005  0.2548602E+03  0.7546771E-02  0.1110271E+00
         21   -1    0    0  502  501  0.00000000000E+00  0.00000000000E+00  0.11471380955E+03  0.11471380955E+03  0.00000000000E+00 0. -1.
         21   -1    0    0  501  502 -0.00000000000E+00 -0.00000000000E+00 -0.56622414237E+03  0.56622414237E+03  0.00000000000E+00 0. -1.
         25    1    1    2    0    0 -0.18946540525E+01  0.53553945955E+02 -0.88552264986E+02  0.16229022914E+03  0.12500000000E+03 0.  0.
         25    1    1    2    0    0 -0.35855119161E+02  0.19717946822E+02 -0.61200455414E+01  0.13166944199E+03  0.12500000000E+03 0.  0.
         25    1    1    2    0    0  0.37749773214E+02 -0.73271892777E+02 -0.35683802229E+03  0.38697828078E+03  0.12500000000E+03 0.  0.
</event>
<event>
 5    0  0.5815084E-005  0.2765422E+03  0.7546771E-02  0.1097593E+00
         21   -1    0    0  502  501  0.00000000000E+00  0.00000000000E+00  0.13040756941E+03  0.13040756941E+03  0.00000000000E+00 0.  1.
         21   -1    0    0  501  502 -0.00000000000E+00 -0.00000000000E+00 -0.58643528083E+03  0.58643528083E+03  0.00000000000E+00 0.  1.
         25    1    1    2    0    0 -0.15206882505E+03  0.16341379179E+02 -0.14327261654E+03  0.24401641518E+03  0.12500000000E+03 0.  0.
         25    1    1    2    0    0  0.10409021081E+03  0.86123943346E+02 -0.13839914810E+03  0.23028553971E+03  0.12500000000E+03 0.  0.
         25    1    1    2    0    0  0.47978614237E+02 -0.10246532253E+03 -0.17435594678E+03  0.24254089536E+03  0.12500000000E+03 0.  0.
</event>
<event>
 5    0  0.6410217E-005  0.5353596E+03  0.7546771E-02  0.1004941E+00
         21   -1    0    0  502  501  0.00000000000E+00  0.00000000000E+00  0.93409664580E+03  0.93409664580E+03  0.00000000000E+00 0.  1.
         21   -1    0    0  501  502 -0.00000000000E+00 -0.00000000000E+00 -0.30683110823E+03  0.30683110823E+03  0.00000000000E+00 0.  1.
         25    1    1    2    0    0 -0.22609379772E+03 -0.16682802561E+03  0.33831453381E+03  0.45719986798E+03  0.12500000000E+03 0.  0.
         25    1    1    2    0    0 -0.10427845107E+03 -0.49646688244E+02 -0.11476331369E+03  0.20526667333E+03  0.12500000000E+03 0.  0.
         25    1    1    2    0    0  0.33037224879E+03  0.21647471385E+03  0.40371431745E+03  0.57846121272E+03  0.12500000000E+03 0.  0.
</event>
<event>
 5    0  0.5815084E-005  0.2448435E+03  0.7546771E-02  0.1116608E+00
         21   -1    0    0  502  501  0.00000000000E+00  0.00000000000E+00  0.11113598070E+03  0.11113598070E+03  0.00000000000E+00 0.  1.
         21   -1    0    0  501  502 -0.00000000000E+00 -0.00000000000E+00 -0.53941443914E+03  0.53941443914E+03  0.00000000000E+00 0.  1.
         25    1    1    2    0    0 -0.68389470880E+02  0.52288791341E+02 -0.69248883720E+02  0.16682819103E+03  0.12500000000E+03 0.  0.
         25    1    1    2    0    0 -0.20411571901E+02  0.44692444098E+02 -0.99881318590E+02  0.16737779013E+03  0.12500000000E+03 0.  0.
         25    1    1    2    0    0  0.88801042781E+02 -0.96981235439E+02 -0.25914825612E+03  0.31634443867E+03  0.12500000000E+03 0.  0.
</event>
<event>
 5    0  0.5815084E-005  0.3854323E+03  0.7546771E-02  0.1048944E+00
         21   -1    0    0  502  501  0.00000000000E+00  0.00000000000E+00  0.27201586096E+03  0.27201586096E+03  0.00000000000E+00 0. -1.
         21   -1    0    0  501  502 -0.00000000000E+00 -0.00000000000E+00 -0.54613753026E+03  0.54613753026E+03  0.00000000000E+00 0. -1.
         25    1    1    2    0    0  0.13772489879E+03 -0.20320926068E+03 -0.13840534192E+03  0.30829075569E+03  0.12500000000E+03 0.  0.
         25    1    1    2    0    0  0.15796441639E+02  0.15071492293E+03 -0.21409534137E+03  0.29056209450E+03  0.12500000000E+03 0.  0.
         25    1    1    2    0    0 -0.15352134042E+03  0.52494337753E+02  0.78379013989E+02  0.21930054103E+03  0.12500000000E+03 0.  0.
</event>
<event>
 5    0  0.5815084E-005  0.3659084E+03  0.7546771E-02  0.1056269E+00
         21   -1    0    0  502  501  0.00000000000E+00  0.00000000000E+00  0.13997701003E+03  0.13997701003E+03  0.00000000000E+00 0. -1.
         21   -1    0    0  501  502 -0.00000000000E+00 -0.00000000000E+00 -0.95650669720E+03  0.95650669720E+03  0.00000000000E+00 0. -1.
         25    1    1    2    0    0  0.10228050119E+03  0.61746646331E+02  0.51186215698E+02  0.18033019141E+03  0.12500000000E+03 0.  0.
         25    1    1    2    0    0 -0.30181483339E+01 -0.26145217494E+02 -0.32037388223E+03  0.34490158891E+03  0.12500000000E+03 0.  0.
         25    1    1    2    0    0 -0.99262352861E+02 -0.35601428837E+02 -0.54734202064E+03  0.57125192690E+03  0.12500000000E+03 0.  0.
</event>
<event>
 5    0  0.5815084E-005  0.3106260E+03  0.7546771E-02  0.1080046E+00
         21   -1    0    0  502  501  0.00000000000E+00  0.00000000000E+00  0.80801251394E+03  0.80801251394E+03  0.00000000000E+00 0.  1.
         21   -1    0    0  501  502 -0.00000000000E+00 -0.00000000000E+00 -0.11941464207E+03  0.11941464207E+03  0.00000000000E+00 0.  1.
         25    1    1    2    0    0 -0.16772699000E+02  0.75613956644E+02  0.60644251834E+02  0.15906451255E+03  0.12500000000E+03 0.  0.
         25    1    1    2    0    0  0.17833192768E+03 -0.38902979793E+02  0.22753115429E+03  0.31735019212E+03  0.12500000000E+03 0.  0.
         25    1    1    2    0    0 -0.16155922868E+03 -0.36710976851E+02  0.40042246574E+03  0.45101245134E+03  0.12500000000E+03 0.  0.
</event>
<event>
 5    0  0.5815084E-005  0.2688404E+03  0.7546771E-02  0.1101945E+00
         21   -1    0    0  502  501  0.00000000000E+00  0.00000000000E+00  0.11640284069E+04  0.11640284069E+04  0.00000000000E+00 0.  1.
         21   -1    0    0  501  502 -0.00000000000E+00 -0.00000000000E+00 -0.62090566506E+02  0.62090566506E+02  0.00000000000E+00 0.  1.
         25    1    1    2    0    0 -0.25773548774E+02  0.45101297327E+02  0.14546118776E+03  0.19870168591E+03  0.12500000000E+03 0.  0.
         25    1    1    2    0    0 -0.25379412668E+02 -0.66112878019E+01  0.82569160541E+03  0.83551149062E+03  0.12500000000E+03 0.  0.
         25    1    1    2    0    0  0.51152961442E+02 -0.38490009525E+02  0.13078504721E+03  0.19190579686E+03  0.12500000000E+03 0.  0.
</event>
<event>
 5    0  0.5815084E-005  0.4231441E+03  0.7546771E-02  0.1036048E+00
         21   -1    0    0  502  501  0.00000000000E+00  0.00000000000E+00  0.14721657362E+03  0.14721657362E+03  0.00000000000E+00 0.  1.
         21   -1    0    0  501  502 -0.00000000000E+00 -0.00000000000E+00 -0.12162416471E+04  0.12162416471E+04  0.00000000000E+00 0.  1.
         25    1    1    2    0    0  0.42975429726E+01 -0.82382185384E+02 -0.15947478825E+03  0.21877500184E+03  0.12500000000E+03 0.  0.
         25    1    1    2    0    0  0.27487377066E+03  0.47477938371E+02 -0.72237511937E+03  0.78438546488E+03  0.12500000000E+03 0.  0.
         25    1    1    2    0    0 -0.27917131363E+03  0.34904247013E+02 -0.18717516584E+03  0.36029775398E+03  0.12500000000E+03 0.  0.
</event>
<event>
 5    0  0.5815084E-005  0.3138426E+03  0.7546771E-02  0.1078519E+00
         21   -1    0    0  502  501  0.00000000000E+00  0.00000000000E+00  0.10068290641E+04  0.10068290641E+04  0.00000000000E+00 0.  1.
         21   -1    0    0  501  502 -0.00000000000E+00 -0.00000000000E+00 -0.97829105215E+02  0.97829105215E+02  0.00000000000E+00 0.  1.
         25    1    1    2    0    0 -0.12912033968E+03  0.38962962934E+02  0.14843306919E+03  0.23632086372E+03  0.12500000000E+03 0.  0.
         25    1    1    2    0    0  0.56806493738E+02 -0.32736443297E+02  0.69575313541E+03  0.70992681164E+03  0.12500000000E+03 0.  0.
         25    1    1    2    0    0  0.72313845938E+02 -0.62265196364E+01  0.64813754331E+02  0.15841049401E+03  0.12500000000E+03 0.  0.
</event>
<event>
 5    0  0.5815084E-005  0.3802827E+03  0.7546771E-02  0.1050829E+00
         21   -1    0    0  502  501  0.00000000000E+00  0.00000000000E+00  0.63185905122E+03  0.63185905122E+03  0.00000000000E+00 0. -1.
         21   -1    0    0  501  502 -0.00000000000E+00 -0.00000000000E+00 -0.22887219461E+03  0.22887219461E+03  0.00000000000E+00 0. -1.
         25    1    1    2    0    0 -0.41512435703E+01  0.23022870159E+03  0.36460724256E+03  0.44898321704E+03  0.12500000000E+03 0.  0.
         25    1    1    2    0    0  0.11636347867E+03 -0.11016648260E+03  0.11818223223E+02  0.20357255084E+03  0.12500000000E+03 0.  0.
         25    1    1    2    0    0 -0.11221223509E+03 -0.12006221899E+03  0.26561390823E+02  0.20817547794E+03  0.12500000000E+03 0.  0.
</event>
<event>
 5    0  0.5815084E-005  0.2476985E+03  0.7546771E-02  0.1114768E+00
         21   -1    0    0  502  501  0.00000000000E+00  0.00000000000E+00  0.18337664889E+03  0.18337664889E+03  0.00000000000E+00 0.  1.
         21   -1    0    0  501  502 -0.00000000000E+00 -0.00000000000E+00 -0.33458207999E+03  0.33458207999E+03  0.00000000000E+00 0.  1.
         25    1    1    2    0    0  0.39280797882E+02 -0.40102873189E+02  0.14075365691E+02  0.13774736818E+03  0.12500000000E+03 0.  0.
         25    1    1    2    0    0 -0.23121001945E+02 -0.78094266678E+02 -0.12762929997E+02  0.14973706155E+03  0.12500000000E+03 0.  0.
         25    1    1    2    0    0 -0.16159795937E+02  0.11819713987E+03 -0.15251786679E+03  0.23047429915E+03  0.12500000000E+03 0.  0.
</event>
<event>
 5    0  0.5815084E-005  0.3049696E+03  0.7546771E-02  0.1082782E+00
         21   -1    0    0  502  501  0.00000000000E+00  0.00000000000E+00  0.27799554857E+03  0.27799554857E+03  0.00000000000E+00 0.  1.
         21   -1    0    0  501  502 -0.00000000000E+00 -0.00000000000E+00 -0.33456101481E+03  0.33456101481E+03  0.00000000000E+00 0.  1.
         25    1    1    2    0    0 -0.10432081001E+03  0.55497459946E+02  0.16787502356E+03  0.24035353752E+03  0.12500000000E+03 0.  0.
         25    1    1    2    0    0  0.98283667314E+02 -0.62820266826E+02 -0.11784349303E+03  0.20764911277E+03  0.12500000000E+03 0.  0.
         25    1    1    2    0    0  0.60371426964E+01  0.73228068798E+01 -0.10659699677E+03  0.16455391309E+03  0.12500000000E+03 0.  0.
</event>
<event>
 5    0  0.5815084E-005  0.4573622E+03  0.7546771E-02  0.1025549E+00
         21   -1    0    0  502  501  0.00000000000E+00  0.00000000000E+00  0.10326655696E+04  0.10326655696E+04  0.00000000000E+00 0. -1.
         21   -1    0    0  501  502 -0.00000000000E+00 -0.00000000000E+00 -0.20256333762E+03  0.20256333762E+03  0.00000000000E+00 0. -1.
         25    1    1    2    0    0 -0.77581537970E+02 -0.57617638752E+02 -0.45728668230E+02  0.16448342904E+03  0.12500000000E+03 0.  0.
         25    1    1    2    0    0  0.25139448764E+03  0.18844673206E+03  0.65221009243E+03  0.73465254638E+03  0.12500000000E+03 0.  0.
         25    1    1    2    0    0 -0.17381294967E+03 -0.13082909330E+03  0.22362080775E+03  0.33609293177E+03  0.12500000000E+03 0.  0.
</event>
<event>
 5    0  0.5815084E-005  0.2455898E+03  0.7546771E-02  0.1116124E+00
         21   -1    0    0  502  501  0.00000000000E+00  0.00000000000E+00  0.54593737653E+03  0.54593737653E+03  0.00000000000E+00 0.  1.
         21   -1    0    0  501  502 -0.00000000000E+00 -0.00000000000E+00 -0.11047852303E+03  0.11047852303E+03  0.00000000000E+00 0.  1.
         25    1    1    2    0    0  0.19219952244E+02 -0.10537202622E+03  0.16935126979E+03  0.23617265518E+03  0.12500000000E+03 0.  0.
         25    1    1    2    0    0  0.45583463918E+01  0.12282843643E+03  0.76592857233E+02  0.19130883172E+03  0.12500000000E+03 0.  0.
         25    1    1    2    0    0 -0.23778298635E+02 -0.17456410203E+02  0.18951472648E+03  0.22893441265E+03  0.12500000000E+03 0.  0.
</event>
<event>
 5    0  0.5815084E-005  0.2396759E+03  0.7546771E-02  0.1120009E+00
         21   -1    0    0  502  501  0.00000000000E+00  0.00000000000E+00  0.33213410131E+03  0.33213410131E+03  0.00000000000E+00 0. -1.
         21   -1    0    0  501  502 -0.00000000000E+00 -0.00000000000E+00 -0.17295580156E+03  0.17295580156E+03  0.00000000000E+00 0. -1.
         25    1    1    2    0    0 -0.61396557677E+02 -0.88088463557E+02  0.42959518350E+02  0.17029279175E+03  0.12500000000E+03 0.  0.
         25    1    1    2    0    0 -0.22808073501E+02  0.57082289407E+01  0.10090147728E+03  0.16235424297E+03  0.12500000000E+03 0.  0.
         25    1    1    2    0    0  0.84204631178E+02  0.82380234616E+02  0.15317304130E+02  0.17244286814E+03  0.12500000000E+03 0.  0.
</event>
<event>
 5    0  0.5815084E-005  0.3494282E+03  0.7546771E-02  0.1062850E+00
         21   -1    0    0  502  501  0.00000000000E+00  0.00000000000E+00  0.94955909748E+03  0.94955909748E+03  0.00000000000E+00 0. -1.
         21   -1    0    0  501  502 -0.00000000000E+00 -0.00000000000E+00 -0.12858606817E+03  0.12858606817E+03  0.00000000000E+00 0. -1.
         25    1    1    2    0    0 -0.83916060003E+02 -0.17993570788E+03  0.15014793890E+03  0.27854652691E+03  0.12500000000E+03 0.  0.
         25    1    1    2    0    0  0.14420251868E+03 -0.28440496619E+01  0.20370166826E+03  0.27914480949E+03  0.12500000000E+03 0.  0.
         25    1    1    2    0    0 -0.60286458682E+02  0.18277975754E+03  0.46712342214E+03  0.52045382925E+03  0.12500000000E+03 0.  0.
</event>
<event>
 5    0  0.5815084E-005  0.2429632E+03  0.7546771E-02  0.1117834E+00
         21   -1    0    0  502  501  0.00000000000E+00  0.00000000000E+00  0.10600627482E+04  0.10600627482E+04  0.00000000000E+00 0.  1.
         21   -1    0    0  501  502 -0.00000000000E+00 -0.00000000000E+00 -0.55686442798E+02  0.55686442798E+02  0.00000000000E+00 0.  1.
         25    1    1    2    0    0  0.56937927405E+02  0.42131566835E+02  0.30821513010E+03  0.34005670545E+03  0.12500000000E+03 0.  0.
         25    1    1    2    0    0 -0.63014585980E+02  0.58210747943E+02  0.18083435981E+03  0.23597753052E+03  0.12500000000E+03 0.  0.
         25    1    1    2    0    0  0.60766585752E+01 -0.10034231478E+03  0.51532681554E+03  0.53971495507E+03  0.12500000000E+03 0.  0.
</event>
<event>
 5    0  0.5815084E-005  0.3595910E+03  0.7546771E-02  0.1058746E+00
         21   -1    0    0  502  501  0.00000000000E+00  0.00000000000E+00  0.34304912380E+03  0.34304912380E+03  0.00000000000E+00 0.  1.
         21   -1    0    0  501  502 -0.00000000000E+00 -0.00000000000E+00 -0.37693045355E+03  0.37693045355E+03  0.00000000000E+00 0.  1.
         25    1    1    2    0    0 -0.10573561500E+03  0.10666668749E+03  0.23959316358E+03  0.30917258374E+03  0.12500000000E+03 0.  0.
         25    1    1    2    0    0  0.32849559344E+02 -0.30496318128E+02 -0.17586140734E+03  0.22036640751E+03  0.12500000000E+03 0.  0.
         25    1    1    2    0    0  0.72886055659E+02 -0.76170369359E+02 -0.97613086001E+02  0.19044058611E+03  0.12500000000E+03 0.  0.
</event>
<event>
 5    0  0.5815084E-005  0.2414316E+03  0.7546771E-02  0.1118843E+00
         21   -1    0    0  502  501  0.00000000000E+00  0.00000000000E+00  0.17161665412E+03  0.17161665412E+03  0.00000000000E+00 0. -1.
         21   -1    0    0  501  502 -0.00000000000E+00 -0.00000000000E+00 -0.33964789777E+03  0.33964789777E+03  0.00000000000E+00 0. -1.
         25    1    1    2    0    0 -0.12023000805E+02 -0.38503968512E+01  0.17562012328E+02  0.12685740964E+03  0.12500000000E+03 0.  0.
         25    1    1    2    0    0  0.64542575221E+02  0.97137563618E+02 -0.79018676968E+02  0.18833587441E+03  0.12500000000E+03 0.  0.
         25    1    1    2    0    0 -0.52519574417E+02 -0.93287166766E+02 -0.10657457901E+03  0.19607126784E+03  0.12500000000E+03 0.  0.
</event>
<event>
 5    0  0.5815084E-005  0.3742551E+03  0.7546771E-02  0.1053078E+00
         21   -1    0    0  502  501  0.00000000000E+00  0.00000000000E+00  0.74424116100E+02  0.74424116100E+02  0.00000000000E+00 0.  1.
         21   -1    0    0  501  502 -0.00000000000E+00 -0.00000000000E+00 -0.18820096048E+04  0.18820096048E+04  0.00000000000E+00 0.  1.
         25    1    1    2    0    0 -0.18504578170E+03 -0.19245122644E+03 -0.10749026475E+04  0.11145941492E+04  0.12500000000E+03 0.  0.
         25    1    1    2    0    0  0.16317416749E+03  0.74958586641E+02 -0.54156949630E+03  0.58409512750E+03  0.12500000000E+03 0.  0.
         25    1    1    2    0    0  0.21871614209E+02  0.11749263980E+03 -0.19111334497E+03  0.25774444425E+03  0.12500000000E+03 0.  0.
</event>
<event>
 5    0  0.5815084E-005  0.4119000E+03  0.7546771E-02  0.1039735E+00
         21   -1    0    0  502  501  0.00000000000E+00  0.00000000000E+00  0.68832246487E+03  0.68832246487E+03  0.00000000000E+00 0. -1.
         21   -1    0    0  501  502 -0.00000000000E+00 -0.00000000000E+00 -0.24648561338E+03  0.24648561338E+03  0.00000000000E+00 0.  1.
         25    1    1    2    0    0 -0.18644250917E+03  0.11430933083E+03  0.21536326609E+03  0.33141178120E+03  0.12500000000E+03 0.  0.
         25    1    1    2    0    0 -0.82317586187E+02 -0.34486024981E+02 -0.76939382298E+02  0.17178515496E+03  0.12500000000E+03 0.  0.
         25    1    1    2    0    0  0.26876009536E+03 -0.79823305845E+02  0.30341296769E+03  0.43161114209E+03  0.12500000000E+03 0.  0.
</event>
<event>
 5    0  0.5815084E-005  0.2510642E+03  0.7546771E-02  0.1112634E+00
         21   -1    0    0  502  501  0.00000000000E+00  0.00000000000E+00  0.97794453039E+02  0.97794453039E+02  0.00000000000E+00 0.  1.
         21   -1    0    0  501  502 -0.00000000000E+00 -0.00000000000E+00 -0.64454835881E+03  0.64454835881E+03  0.00000000000E+00 0.  1.
         25    1    1    2    0    0 -0.31462471651E+02 -0.15273590867E+02 -0.28201176404E+03  0.31044935941E+03  0.12500000000E+03 0.  0.
         25    1    1    2    0    0  0.12049329988E+03 -0.26464393825E+02 -0.96546102447E+02  0.20041244810E+03  0.12500000000E+03 0.  0.
         25    1    1    2    0    0 -0.89030828225E+02  0.41737984692E+02 -0.16819603929E+03  0.23148100435E+03  0.12500000000E+03 0.  0.
</event>
<event>
 5    0  0.5815084E-005  0.3632179E+03  0.7546771E-02  0.1057317E+00
         21   -1    0    0  502  501  0.00000000000E+00  0.00000000000E+00  0.12804617774E+03  0.12804617774E+03  0.00000000000E+00 0.  1.
         21   -1    0    0  501  502 -0.00000000000E+00 -0.00000000000E+00 -0.10303097494E+04  0.10303097494E+04  0.00000000000E+00 0.  1.
         25    1    1    2    0    0  0.14458143885E+03 -0.61468901983E+02 -0.13600716867E+03  0.24249776968E+03  0.12500000000E+03 0.  0.
         25    1    1    2    0    0 -0.96967158591E+02  0.40839364644E+02 -0.28579522068E+02  0.16586823877E+03  0.12500000000E+03 0.  0.
         25    1    1    2    0    0 -0.47614280263E+02  0.20629537339E+02 -0.73767688095E+03  0.74998991873E+03  0.12500000000E+03 0.  0.
</event>
<event>
 5    0  0.5815084E-005  0.5426181E+03  0.7546771E-02  0.1003217E+00
         21   -1    0    0  502  501  0.00000000000E+00  0.00000000000E+00  0.48599584122E+03  0.48599584122E+03  0.00000000000E+00 0. -1.
         21   -1    0    0  501  502 -0.00000000000E+00 -0.00000000000E+00 -0.60583736148E+03  0.60583736148E+03  0.00000000000E+00 0. -1.
         25    1    1    2    0    0 -0.93838312624E+01  0.32658944465E+02  0.33619531452E+02  0.13382800842E+03  0.12500000000E+03 0.  0.
         25    1    1    2    0    0 -0.43338803107E+03 -0.85859134208E+02 -0.18217211052E+03  0.49397232135E+03  0.12500000000E+03 0.  0.
         25    1    1    2    0    0  0.44277186234E+03  0.53200189743E+02  0.28711058808E+02  0.46403287293E+03  0.12500000000E+03 0.  0.
</event>
<event>
 5    0  0.5815084E-005  0.3344637E+03  0.7546771E-02  0.1069179E+00
         21   -1    0    0  502  501  0.00000000000E+00  0.00000000000E+00  0.10647290304E+03  0.10647290304E+03  0.00000000000E+00 0.  1.
         21   -1    0    0  501  502 -0.00000000000E+00 -0.00000000000E+00 -0.10506521875E+04  0.10506521875E+04  0.00000000000E+00 0.  1.
         25    1    1    2    0    0 -0.44954299930E+00  0.10709314064E+02  0.19528152247E+02  0.12696944604E+03  0.12500000000E+03 0.  0.
         25    1    1    2    0    0 -0.10980968456E+03 -0.78316840453E+02 -0.50539117819E+03  0.53780752813E+03  0.12500000000E+03 0.  0.
         25    1    1    2    0    0  0.11025922756E+03  0.67607526388E+02 -0.45831625852E+03  0.49234811639E+03  0.12500000000E+03 0.  0.
</event>
<event>
 5    0  0.5815084E-005  0.2913166E+03  0.7546771E-02  0.1089664E+00
         21   -1    0    0  502  501  0.00000000000E+00  0.00000000000E+00  0.36324148880E+02  0.36324148880E+02  0.00000000000E+00 0.  1.
         21   -1    0    0  501  502 -0.00000000000E+00 -0.00000000000E+00 -0.23363339261E+04  0.23363339261E+04  0.00000000000E+00 0.  1.
         25    1    1    2    0    0 -0.12132699748E+03 -0.64079304922E+01 -0.48216172411E+03  0.51270481770E+03  0.12500000000E+03 0.  0.
         25    1    1    2    0    0  0.70247789798E+02  0.78554955002E+02 -0.14803780339E+04  0.14893789834E+04  0.12500000000E+03 0.  0.
         25    1    1    2    0    0  0.51079207687E+02 -0.72147024510E+02 -0.33747001923E+03  0.37057427391E+03  0.12500000000E+03 0.  0.
</event>
<event>
 5    0  0.5815084E-005  0.3322812E+03  0.7546771E-02  0.1070132E+00
         21   -1    0    0  502  501  0.00000000000E+00  0.00000000000E+00  0.29158012032E+03  0.29158012032E+03  0.00000000000E+00 0.  1.
         21   -1    0    0  501  502 -0.00000000000E+00 -0.00000000000E+00 -0.37866367234E+03  0.37866367234E+03  0.00000000000E+00 0.  1.
         25    1    1    2    0    0 -0.15688935337E+03  0.16390615412E+03 -0.16752714081E+03  0.30849609312E+03  0.12500000000E+03 0.  0.
         25    1    1    2    0    0  0.11940674337E+03 -0.51430339687E+02  0.37989787867E+02  0.18431297888E+03  0.12500000000E+03 0.  0.
         25    1    1    2    0    0  0.37482610001E+02 -0.11247581444E+03  0.42453800923E+02  0.17743472067E+03  0.12500000000E+03 0.  0.
</event>
<event>
 5    0  0.5815084E-005  0.2965293E+03  0.7546771E-02  0.1086989E+00
         21   -1    0    0  502  501  0.00000000000E+00  0.00000000000E+00  0.80692568822E+03  0.80692568822E+03  0.00000000000E+00 0. -1.
         21   -1    0    0  501  502 -0.00000000000E+00 -0.00000000000E+00 -0.10896864660E+03  0.10896864660E+03  0.00000000000E+00 0. -1.
         25    1    1    2    0    0 -0.69133676383E+02 -0.17796610242E+03  0.26543028864E+03  0.35004233594E+03  0.12500000000E+03 0.  0.
         25    1    1    2    0    0  0.10503271473E+03  0.14654769009E+03  0.33434118486E+03  0.39989639224E+03  0.12500000000E+03 0.  0.
         25    1    1    2    0    0 -0.35899038346E+02  0.31418412328E+02  0.98185568125E+02  0.16595560664E+03  0.12500000000E+03 0.  0.
</event>
<event>
 5    0  0.5815084E-005  0.4101654E+03  0.7546771E-02  0.1040316E+00
         21   -1    0    0  502  501  0.00000000000E+00  0.00000000000E+00  0.97431701409E+03  0.97431701409E+03  0.00000000000E+00 0.  1.
         21   -1    0    0  501  502 -0.00000000000E+00 -0.00000000000E+00 -0.17267036503E+03  0.17267036503E+03  0.00000000000E+00 0.  1.
         25    1    1    2    0    0 -0.26736292756E+03 -0.11457271680E+03  0.19962491160E+03  0.37427923774E+03  0.12500000000E+03 0.  0.
         25    1    1    2    0    0  0.25311552367E+03  0.18752485021E+03  0.42711026110E+03  0.54523500705E+03  0.12500000000E+03 0.  0.
         25    1    1    2    0    0  0.14247403893E+02 -0.72952133406E+02  0.17491147635E+03  0.22747313434E+03  0.12500000000E+03 0.  0.
</event>
<event>
 5    0  0.5815084E-005  0.5151097E+03  0.7546771E-02  0.1009909E+00
         21   -1    0    0  502  501  0.00000000000E+00  0.00000000000E+00  0.23222345867E+03  0.23222345867E+03  0.00000000000E+00 0.  1.
         21   -1    0    0  501  502 -0.00000000000E+00 -0.00000000000E+00 -0.11425978400E+04  0.11425978400E+04  0.00000000000E+00 0.  1.
         25    1    1    2    0    0 -0.21363258546E+03  0.89832130833E+02  0.67951662787E+01  0.26340058387E+03  0.12500000000E+03 0.  0.
         25    1    1    2    0    0  0.35255499089E+03 -0.13512769241E+03 -0.42033163683E+03  0.57866933544E+03  0.12500000000E+03 0.  0.
         25    1    1    2    0    0 -0.13892240544E+03  0.45295561576E+02 -0.49683791082E+03  0.53275137941E+03  0.12500000000E+03 0.  0.
</event>
<event>
 5    0  0.5815084E-005  0.5589477E+03  0.7546771E-02  0.9994438E-01
         21   -1    0    0  502  501  0.00000000000E+00  0.00000000000E+00  0.12283044668E+04  0.12283044668E+04  0.00000000000E+00 0. -1.
         21   -1    0    0  501  502 -0.00000000000E+00 -0.00000000000E+00 -0.25435272203E+03  0.25435272203E+03  0.00000000000E+00 0. -1.
         25    1    1    2    0    0 -0.19182922836E+02  0.16681874324E+03 -0.38812440494E+02  0.21290345973E+03  0.12500000000E+03 0.  0.
         25    1    1    2    0    0  0.10951005008E+03  0.20579964054E+03  0.12067085896E+03  0.29074456025E+03  0.12500000000E+03 0.  0.
         25    1    1    2    0    0 -0.90327127246E+02 -0.37261838379E+03  0.89209332632E+03  0.97900916886E+03  0.12500000000E+03 0.  0.
</event>
<event>
 5    0  0.5815084E-005  0.2554336E+03  0.7546771E-02  0.1109918E+00
         21   -1    0    0  502  501  0.00000000000E+00  0.00000000000E+00  0.97777717407E+02  0.97777717407E+02  0.00000000000E+00 0.  1.
         21   -1    0    0  501  502 -0.00000000000E+00 -0.00000000000E+00 -0.66729255289E+03  0.66729255289E+03  0.00000000000E+00 0.  1.
         25    1    1    2    0    0 -0.54892361176E+02  0.45941218506E+02 -0.23501653450E+03  0.27564748931E+03  0.12500000000E+03 0.  0.
         25    1    1    2    0    0  0.76578494145E+02 -0.12857833023E+03 -0.24650439761E+03  0.31430251481E+03  0.12500000000E+03 0.  0.
         25    1    1    2    0    0 -0.21686132969E+02  0.82637111727E+02 -0.87993903369E+02  0.17512026618E+03  0.12500000000E+03 0.  0.
</event>
<event>
 5    0  0.5815084E-005  0.1984778E+03  0.7546771E-02  0.1151030E+00
         21   -1    0    0  502  501  0.00000000000E+00  0.00000000000E+00  0.33181128088E+03  0.33181128088E+03  0.00000000000E+00 0.  1.
         21   -1    0    0  501  502 -0.00000000000E+00 -0.00000000000E+00 -0.11872241819E+03  0.11872241819E+03  0.00000000000E+00 0.  1.
         25    1    1    2    0    0 -0.11947032340E+02  0.26781821946E+02  0.68798232365E+02  0.14566466402E+03  0.12500000000E+03 0.  0.
         25    1    1    2    0    0 -0.18951137311E+02  0.26558738679E+02  0.69684510072E+02  0.14678366104E+03  0.12500000000E+03 0.  0.
         25    1    1    2    0    0  0.30898169651E+02 -0.53340560625E+02  0.74606120256E+02  0.15808537401E+03  0.12500000000E+03 0.  0.
</event>
<event>
 5    0  0.5815084E-005  0.3472453E+03  0.7546771E-02  0.1063751E+00
         21   -1    0    0  502  501  0.00000000000E+00  0.00000000000E+00  0.15131918458E+04  0.15131918458E+04  0.00000000000E+00 0.  1.
         21   -1    0    0  501  502 -0.00000000000E+00 -0.00000000000E+00 -0.79685397654E+02  0.79685397654E+02  0.00000000000E+00 0.  1.
         25    1    1    2    0    0  0.14796253033E+03 -0.32809003216E+02  0.12385396284E+03  0.23223726055E+03  0.12500000000E+03 0.  0.
         25    1    1    2    0    0 -0.29390058023E+02  0.48935592643E+02  0.23568082363E+03  0.27281663872E+03  0.12500000000E+03 0.  0.
         25    1    1    2    0    0 -0.11857247231E+03 -0.16126589427E+02  0.10739716617E+04  0.10878233442E+04  0.12500000000E+03 0.  0.
</event>
<event>
 5    0  0.5815084E-005  0.4039441E+03  0.7546771E-02  0.1042422E+00
         21   -1    0    0  502  501  0.00000000000E+00  0.00000000000E+00  0.15798787998E+03  0.15798787998E+03  0.00000000000E+00 0.  1.
         21   -1    0    0  501  502 -0.00000000000E+00 -0.00000000000E+00 -0.10328060354E+04  0.10328060354E+04  0.00000000000E+00 0.  1.
         25    1    1    2    0    0  0.15713717861E+03  0.79206258117E+01 -0.21849781071E+03  0.29685202121E+03  0.12500000000E+03 0.  0.
         25    1    1    2    0    0 -0.16793588953E+03  0.22609277438E+03 -0.20431523068E+03  0.36971626838E+03  0.12500000000E+03 0.  0.
         25    1    1    2    0    0  0.10798710919E+02 -0.23401340019E+03 -0.45200511404E+03  0.52422562580E+03  0.12500000000E+03 0.  0.
</event>
<event>
 5    0  0.5815084E-005  0.3835205E+03  0.7546771E-02  0.1049640E+00
         21   -1    0    0  502  501  0.00000000000E+00  0.00000000000E+00  0.78317627330E+03  0.78317627330E+03  0.00000000000E+00 0.  1.
         21   -1    0    0  501  502 -0.00000000000E+00 -0.00000000000E+00 -0.18780953960E+03  0.18780953960E+03  0.00000000000E+00 0.  1.
         25    1    1    2    0    0  0.52570554314E+02  0.16928402089E+03  0.33555171135E+03  0.39955061494E+03  0.12500000000E+03 0.  0.
         25    1    1    2    0    0 -0.10978751915E+03 -0.28450650909E+03  0.16887297235E+03  0.37032463308E+03  0.12500000000E+03 0.  0.
         25    1    1    2    0    0  0.57216964832E+02  0.11522248819E+03  0.90942049994E+02  0.20111056488E+03  0.12500000000E+03 0.  0.
</event>
<event>
 5    0  0.5815084E-005  0.3960108E+03  0.7546771E-02  0.1045170E+00
         21   -1    0    0  502  501  0.00000000000E+00  0.00000000000E+00  0.22351198666E+03  0.22351198666E+03  0.00000000000E+00 0.  1.
         21   -1    0    0  501  502 -0.00000000000E+00 -0.00000000000E+00 -0.70163821637E+03  0.70163821637E+03  0.00000000000E+00 0.  1.
         25    1    1    2    0    0 -0.64408349834E+02  0.96875335460E+02 -0.19000344130E+03  0.25545953467E+03  0.12500000000E+03 0.  0.
         25    1    1    2    0    0 -0.38290042698E+02  0.50045870085E+02  0.13436125339E+03  0.19403263358E+03  0.12500000000E+03 0.  0.
         25    1    1    2    0    0  0.10269839253E+03 -0.14692120555E+03 -0.42248404181E+03  0.47565803478E+03  0.12500000000E+03 0.  0.
</event>
<event>
 5    0  0.5815084E-005  0.3288591E+03  0.7546771E-02  0.1071643E+00
         21   -1    0    0  502  501  0.00000000000E+00  0.00000000000E+00  0.57757086376E+03  0.57757086376E+03  0.00000000000E+00 0.  1.
         21   -1    0    0  501  502 -0.00000000000E+00 -0.00000000000E+00 -0.18724681259E+03  0.18724681259E+03  0.00000000000E+00 0.  1.
         25    1    1    2    0    0  0.84311213888E+02 -0.71264704165E+02 -0.68987640418E+02  0.18047529852E+03  0.12500000000E+03 0.  0.
         25    1    1    2    0    0 -0.16219489519E+03  0.52167167478E+02  0.24405672532E+03  0.32282701647E+03  0.12500000000E+03 0.  0.
         25    1    1    2    0    0  0.77883681306E+02  0.19097536687E+02  0.21525496627E+03  0.26151536136E+03  0.12500000000E+03 0.  0.
</event>
<event>
 5    0  0.5815084E-005  0.2713788E+03  0.7546771E-02  0.1100493E+00
         21   -1    0    0  502  501  0.00000000000E+00  0.00000000000E+00  0.80893835593E+03  0.80893835593E+03  0.00000000000E+00 0.  1.
         21   -1    0    0  501  502 -0.00000000000E+00 -0.00000000000E+00 -0.91040869482E+02  0.91040869482E+02  0.00000000000E+00 0.  1.
         25    1    1    2    0    0 -0.90639634926E+02  0.61585261754E+02  0.11926696589E+03  0.20459202584E+03  0.12500000000E+03 0.  0.
         25    1    1    2    0    0 -0.48874708254E+02 -0.35774324079E+02  0.13082503708E+03  0.19081071693E+03  0.12500000000E+03 0.  0.
         25    1    1    2    0    0  0.13951434318E+03 -0.25810937675E+02  0.46780548349E+03  0.50457648264E+03  0.12500000000E+03 0.  0.
</event>
<event>
 5    0  0.5819817E-005  0.2779537E+03  0.7546771E-02  0.1096812E+00
         21   -1    0    0  502  501  0.00000000000E+00  0.00000000000E+00  0.92162214844E+03  0.92162214844E+03  0.00000000000E+00 0. -1.
         21   -1    0    0  501  502 -0.00000000000E+00 -0.00000000000E+00 -0.83828548718E+02  0.83828548718E+02  0.00000000000E+00 0. -1.
         25    1    1    2    0    0  0.83357209390E+02  0.84950381165E+02  0.27955181068E+03  0.32854102707E+03  0.12500000000E+03 0.  0.
         25    1    1    2    0    0 -0.45956352590E+02  0.49028157940E+02  0.42285213484E+03  0.44603214520E+03  0.12500000000E+03 0.  0.
         25    1    1    2    0    0 -0.37400856800E+02 -0.13397853911E+03  0.13538965420E+03  0.23087752488E+03  0.12500000000E+03 0.  0.
</event>
<event>
 5    0  0.5815084E-005  0.3485741E+03  0.7546771E-02  0.1063202E+00
         21   -1    0    0  502  501  0.00000000000E+00  0.00000000000E+00  0.60464042062E+02  0.60464042062E+02  0.00000000000E+00 0.  1.
         21   -1    0    0  501  502 -0.00000000000E+00 -0.00000000000E+00 -0.20095238195E+04  0.20095238195E+04  0.00000000000E+00 0.  1.
         25    1    1    2    0    0 -0.36108642974E+02  0.30350886792E+02 -0.19581183695E+03  0.23704912132E+03  0.12500000000E+03 0.  0.
         25    1    1    2    0    0  0.23235030135E+03 -0.71789243116E+02 -0.12100060577E+04  0.12405160288E+04  0.12500000000E+03 0.  0.
         25    1    1    2    0    0 -0.19624165838E+03  0.41438356323E+02 -0.54324188277E+03  0.59242271146E+03  0.12500000000E+03 0.  0.
</event>
<event>
 5    0  0.5815084E-005  0.2886043E+03  0.7546771E-02  0.1091080E+00
         21   -1    0    0  502  501  0.00000000000E+00  0.00000000000E+00  0.33492012777E+03  0.33492012777E+03  0.00000000000E+00 0.  1.
         21   -1    0    0  501  502 -0.00000000000E+00 -0.00000000000E+00 -0.24869341096E+03  0.24869341096E+03  0.00000000000E+00 0.  1.
         25    1    1    2    0    0  0.90324602099E+02 -0.12024438704E+03  0.39455170513E+02  0.19949675897E+03  0.12500000000E+03 0.  0.
         25    1    1    2    0    0 -0.30657317460E+02  0.10251213253E+02  0.13470784391E+03  0.18659089393E+03  0.12500000000E+03 0.  0.
         25    1    1    2    0    0 -0.59667284639E+02  0.10999317378E+03 -0.87936297611E+02  0.19752588583E+03  0.12500000000E+03 0.  0.
</event>
<event>
 5    0  0.5815084E-005  0.3062569E+03  0.7546771E-02  0.1082154E+00
         21   -1    0    0  502  501  0.00000000000E+00  0.00000000000E+00  0.15281508873E+03  0.15281508873E+03  0.00000000000E+00 0.  1.
         21   -1    0    0  501  502 -0.00000000000E+00 -0.00000000000E+00 -0.61376970206E+03  0.61376970206E+03  0.00000000000E+00 0.  1.
         25    1    1    2    0    0 -0.34420169176E+02 -0.10810455243E+03 -0.17826946184E+02  0.16974728956E+03  0.12500000000E+03 0.  0.
         25    1    1    2    0    0  0.12310697378E+03  0.40801392050E+02 -0.37518251543E+03  0.41618145138E+03  0.12500000000E+03 0.  0.
         25    1    1    2    0    0 -0.88686804607E+02  0.67303160377E+02 -0.67945151723E+02  0.18065604986E+03  0.12500000000E+03 0.  0.
</event>
<event>
 5    0  0.5815084E-005  0.4359701E+03  0.7546771E-02  0.1031990E+00
         21   -1    0    0  502  501  0.00000000000E+00  0.00000000000E+00  0.48642339934E+03  0.48642339934E+03  0.00000000000E+00 0. -1.
         21   -1    0    0  501  502 -0.00000000000E+00 -0.00000000000E+00 -0.39074990870E+03  0.39074990870E+03  0.00000000000E+00 0. -1.
         25    1    1    2    0    0  0.27128395599E+03  0.16092331184E+03  0.56407673404E+02  0.34394494136E+03  0.12500000000E+03 0.  0.
         25    1    1    2    0    0 -0.22463181996E+03  0.66205863396E+02 -0.81224546938E+01  0.26558171088E+03  0.12500000000E+03 0.  0.
         25    1    1    2    0    0 -0.46652136029E+02 -0.22712917524E+03  0.47388271924E+02  0.26764665579E+03  0.12500000000E+03 0.  0.
</event>
<event>
 5    0  0.5815084E-005  0.5820820E+03  0.7546771E-02  0.9943294E-01
         21   -1    0    0  502  501  0.00000000000E+00  0.00000000000E+00  0.20155515477E+03  0.20155515477E+03  0.00000000000E+00 0. -1.
         21   -1    0    0  501  502 -0.00000000000E+00 -0.00000000000E+00 -0.16810257761E+04  0.16810257761E+04  0.00000000000E+00 0. -1.
         25    1    1    2    0    0  0.24033000341E+02  0.32965264313E+03 -0.86175460445E+03  0.93139382031E+03  0.12500000000E+03 0.  0.
         25    1    1    2    0    0  0.20246189158E+03 -0.29208863646E+03 -0.57333428993E+03  0.68603483666E+03  0.12500000000E+03 0.  0.
         25    1    1    2    0    0 -0.22649489192E+03 -0.37564006672E+02 -0.44381726943E+02  0.26515227390E+03  0.12500000000E+03 0.  0.
</event>
<event>
 5    0  0.5815084E-005  0.4547216E+03  0.7546771E-02  0.1026323E+00
         21   -1    0    0  502  501  0.00000000000E+00  0.00000000000E+00  0.34851234999E+03  0.34851234999E+03  0.00000000000E+00 0.  1.
         21   -1    0    0  501  502 -0.00000000000E+00 -0.00000000000E+00 -0.59329813698E+03  0.59329813698E+03  0.00000000000E+00 0.  1.
         25    1    1    2    0    0  0.31873797171E+02  0.12753226082E+03 -0.28502335429E+03  0.33785163754E+03  0.12500000000E+03 0.  0.
         25    1    1    2    0    0 -0.19775298134E+03 -0.83909168630E+01  0.20673339978E+03  0.31231450127E+03  0.12500000000E+03 0.  0.
         25    1    1    2    0    0  0.16587918417E+03 -0.11914134396E+03 -0.16649583248E+03  0.29164434816E+03  0.12500000000E+03 0.  0.
</event>
